<event>
10    4  0.3043429E-005  0.1259178E+03  0.7546771E-02  0.1235614E+00
         21   -1    0    0  501  502  0.00000000000E+00  0.00000000000E+00  0.25751852674E+02  0.25751852674E+02  0.00000000000E+00 0.  1.
          2   -1    0    0  503    0 -0.00000000000E+00 -0.00000000000E+00 -0.13797017815E+04  0.13797017815E+04  0.00000000000E+00 0. -1.
         23    2    1    2    0    0  0.96047875534E+02 -0.61067653528E+02 -0.65120409845E+03  0.66697876283E+03  0.88540609503E+02 0.  0.
         24    2    1    2    0    0 -0.46245721501E+02  0.26713923048E+02 -0.18965209806E+03  0.21313972437E+03  0.81291594673E+02 0.  0.
        -13    1    4    4    0    0 -0.59947019313E+02  0.42210628545E+02 -0.12139551861E+03  0.14181767952E+03  0.00000000000E+00 0.  1.
         14    1    4    4    0    0  0.13701297812E+02 -0.15496705497E+02 -0.68256579454E+02  0.71322044851E+02  0.00000000000E+00 0. -1.
        -11    1    3    3    0    0  0.27125762602E+02  0.13475459220E+02 -0.60990167824E+02  0.68096957121E+02  0.00000000000E+00 0.  1.
         11    1    3    3    0    0  0.68922112933E+02 -0.74543112748E+02 -0.59021393062E+03  0.59888180571E+03  0.00000000000E+00 0. -1.
         21    1    1    2  503  502 -0.30047998559E+02 -0.20275815129E+02 -0.73850485081E+02  0.82267156528E+02  0.00000000000E+00 0.  1.
          1    1    1    2  501    0 -0.19754155475E+02  0.54629545608E+02 -0.43924324720E+03  0.44306799040E+03  0.00000000000E+00 0. -1.
<scales pt_clust_5="13000.00000" pt_clust_6="13000.00000" pt_clust_7="13000.00000" pt_clust_8="13000.00000" pt_clust_9="36.24901" pt_clust_10="57.39079"></scales>
<clustering>
<clus scale="   36.249">  1  9  2 -1</clus>
<clus scale="   57.391">  1 10  2 -1</clus>
<clus scale="   81.292">  5  6 -1 -1</clus>
<clus scale="   88.541">  7  8 -1 -1</clus>
<clus scale="  120.930">  1  5  2 -1</clus>
<clus scale="   36.249">  1  5  2 -1</clus>
</clustering>
</event>
<event>
10    4  0.3043429E-005  0.2813744E+03  0.7546771E-02  0.1094941E+00
          2   -1    0    0  502    0 -0.00000000000E+00  0.00000000000E+00  0.18324280692E+03  0.18324280692E+03  0.00000000000E+00 0. -1.
         21   -1    0    0  503  502  0.00000000000E+00 -0.00000000000E+00 -0.55545128287E+03  0.55545128287E+03  0.00000000000E+00 0.  1.
         24    2    1    2    0    0  0.83833712568E+02 -0.11117898071E+03 -0.96546799773E+02  0.18856636721E+03  0.82747405893E+02 0.  0.
         23    2    1    2    0    0 -0.54141479261E+01 -0.56058172931E+02 -0.81017140792E+02  0.13569208400E+03  0.93148981785E+02 0.  0.
        -13    1    3    3    0    0  0.65442472693E+02 -0.27531651233E+02 -0.67945558423E+02  0.98271603025E+02  0.00000000000E+00 0.  1.
         14    1    3    3    0    0  0.18391239875E+02 -0.83647329473E+02 -0.28601241351E+02  0.90294764183E+02  0.00000000000E+00 0. -1.
        -13    1    4    4    0    0  0.16101493073E+02  0.18737285227E+02 -0.20058822055E+01  0.24786437830E+02  0.00000000000E+00 0. -1.
         13    1    4    4    0    0 -0.21515640999E+02 -0.74795458157E+02 -0.79011258586E+02  0.11090564617E+03  0.00000000000E+00 0.  1.
         21    1    1    2  503  501 -0.82368049213E+01 -0.25321131050E+02 -0.20738792238E+03  0.20909030341E+03  0.00000000000E+00 0.  1.
          1    1    1    2  501    0 -0.70182759720E+02  0.19255828469E+03  0.12743386995E+02  0.20534533517E+03  0.00000000000E+00 0. -1.
<scales pt_clust_5="13000.00000" pt_clust_6="13000.00000" pt_clust_7="13000.00000" pt_clust_8="13000.00000" pt_clust_9="26.62714" pt_clust_10="199.18562"></scales>
<clustering>
<clus scale="   26.627">  2  9  1 -1</clus>
<clus scale="   82.747">  5  6 -1 -1</clus>
<clus scale="   93.149">  7  8 -1 -1</clus>
<clus scale="  105.326">  5  7 -1 -1</clus>
<clus scale="  199.186">  2 10  1 -1</clus>
<clus scale="   26.627">  2  5  1 -1</clus>
</clustering>
</event>
<event>
10    4  0.3043429E-005  0.1428377E+03  0.7546771E-02  0.1211932E+00
          2   -1    0    0  503    0 -0.00000000000E+00  0.00000000000E+00  0.40205916993E+03  0.40205916993E+03  0.00000000000E+00 0. -1.
         21   -1    0    0  501  502  0.00000000000E+00 -0.00000000000E+00 -0.89322720775E+02  0.89322720775E+02  0.00000000000E+00 0. -1.
         23    2    1    2    0    0  0.77694777656E+02 -0.93125631446E+02  0.26700257769E+03  0.30713884408E+03  0.91296392794E+02 0.  0.
         24    2    1    2    0    0 -0.71559228837E+02  0.50938547039E+02  0.40541677892E+02  0.12542627549E+03  0.79828967988E+02 0.  0.
        -13    1    4    4    0    0 -0.70026768097E+02  0.29354221568E+02  0.59649861909E+02  0.96558399944E+02  0.00000000000E+00 0.  1.
         14    1    4    4    0    0 -0.15324607406E+01  0.21584325471E+02 -0.19108184017E+02  0.28867875543E+02  0.00000000000E+00 0. -1.
        -13    1    3    3    0    0  0.31318340972E+02 -0.10963929210E+02  0.16455159026E+03  0.16786384984E+03  0.00000000000E+00 0.  1.
         13    1    3    3    0    0  0.46376436685E+02 -0.82161702236E+02  0.10245098743E+03  0.13927499424E+03  0.00000000000E+00 0. -1.
         21    1    1    2  503  502 -0.19210945323E+02  0.24356790434E+02 -0.92935878551E+01  0.32383397531E+02  0.00000000000E+00 0. -1.
          1    1    1    2  501    0  0.13075396504E+02  0.17830293973E+02  0.14485781420E+02  0.26433373607E+02  0.00000000000E+00 0. -1.
<scales pt_clust_5="13000.00000" pt_clust_6="13000.00000" pt_clust_7="13000.00000" pt_clust_8="13000.00000" pt_clust_9="32.93064" pt_clust_10="22.11075"></scales>
<clustering>
<clus scale="   22.111">  2 10  1 -1</clus>
<clus scale="   32.931">  2  9  1 -1</clus>
<clus scale="   79.829">  5  6 -1 -1</clus>
<clus scale="   91.296">  7  8 -1 -1</clus>
<clus scale="  135.795">  2  5  1 -1</clus>
<clus scale="   22.111">  2  5  1 -1</clus>
</clustering>
</event>
<event>
10    4  0.3043429E-005  0.2732644E+03  0.7546771E-02  0.1134654E+00
         21   -1    0    0  503  502  0.00000000000E+00  0.00000000000E+00  0.82392422057E+02  0.82392422057E+02  0.00000000000E+00 0. -1.
          2   -1    0    0  502    0 -0.00000000000E+00 -0.00000000000E+00 -0.18272704882E+04  0.18272704882E+04  0.00000000000E+00 0. -1.
         24    2    1    2    0    0  0.32309987988E+02  0.81854143252E+02 -0.21887428421E+03  0.24935448536E+03  0.80794003429E+02 0.  0.
         23    2    1    2    0    0 -0.14210607692E+03 -0.24398065686E+03 -0.74178870462E+03  0.79906409333E+03  0.92370151760E+02 0.  0.
        -11    1    3    3    0    0  0.38412341282E+02  0.10806251101E+02 -0.12658442099E+03  0.13272489843E+03  0.00000000000E+00 0.  1.
         12    1    3    3    0    0 -0.61023532940E+01  0.71047892151E+02 -0.92289863221E+02  0.11662958693E+03  0.00000000000E+00 0. -1.
        -13    1    4    4    0    0 -0.12360029411E+03 -0.12381317320E+03 -0.41366422158E+03  0.44913786611E+03  0.00000000000E+00 0. -1.
         13    1    4    4    0    0 -0.18505782810E+02 -0.12016748367E+03 -0.32812448304E+03  0.34992622722E+03  0.00000000000E+00 0.  1.
         21    1    1    2  503  501  0.20542046096E+00 -0.40909782256E+02  0.28973458438E+01  0.41012767460E+02  0.00000000000E+00 0. -1.
          1    1    1    2  501    0  0.10959066848E+03  0.20303629587E+03 -0.78711242316E+03  0.82023156410E+03  0.00000000000E+00 0. -1.
<scales pt_clust_5="13000.00000" pt_clust_6="13000.00000" pt_clust_7="13000.00000" pt_clust_8="13000.00000" pt_clust_9="40.91030" pt_clust_10="257.17930"></scales>
<clustering>
<clus scale="   40.910">  1  9  2 -1</clus>
<clus scale="   80.794">  5  6 -1 -1</clus>
<clus scale="   92.370">  7  8 -1 -1</clus>
<clus scale="  112.662">  2  5  1 -1</clus>
<clus scale="  257.179">  1 10  2 -1</clus>
<clus scale="   40.910">  1  5  2 -1</clus>
</clustering>
</event>
<event>
10    4  0.3043429E-005  0.1394628E+03  0.7546771E-02  0.1237399E+00
         21   -1    0    0  503  502  0.00000000000E+00  0.00000000000E+00  0.17930176399E+03  0.17930176399E+03  0.00000000000E+00 0.  1.
          2   -1    0    0  502    0 -0.00000000000E+00 -0.00000000000E+00 -0.62673134536E+03  0.62673134536E+03  0.00000000000E+00 0. -1.
         24    2    1    2    0    0 -0.25739984609E+02  0.13187558083E+02 -0.11139852700E+03  0.14034470987E+03  0.80315299129E+02 0.  0.
         23    2    1    2    0    0  0.46003434589E+01 -0.83866109849E+02 -0.20329228159E+03  0.23781790832E+03  0.90415254383E+02 0.  0.
        -13    1    3    3    0    0 -0.54825481223E+02  0.71709821107E+01 -0.78553037022E+02  0.96061626059E+02  0.00000000000E+00 0.  1.
         14    1    3    3    0    0  0.29085496614E+02  0.60165759720E+01 -0.32845489979E+02  0.44283083809E+02  0.00000000000E+00 0. -1.
        -11    1    4    4    0    0  0.38072493295E+02 -0.41428004136E+02 -0.49984081953E+02  0.75260897690E+02  0.00000000000E+00 0.  1.
         11    1    4    4    0    0 -0.33472149836E+02 -0.42438105713E+02 -0.15330819963E+03  0.16255701063E+03  0.00000000000E+00 0. -1.
         21    1    1    2  503  501 -0.13995913554E+02 -0.51632634998E+02  0.12745334379E+03  0.13822506804E+03  0.00000000000E+00 0.  1.
          1    1    1    2  501    0  0.35135554705E+02  0.12231118676E+03 -0.26019211657E+03  0.28964542313E+03  0.00000000000E+00 0. -1.
<scales pt_clust_5="13000.00000" pt_clust_6="13000.00000" pt_clust_7="13000.00000" pt_clust_8="13000.00000" pt_clust_9="53.49593" pt_clust_10="106.18362"></scales>
<clustering>
<clus scale="   53.496">  1  9  2 -1</clus>
<clus scale="   80.315">  5  6 -1 -1</clus>
<clus scale="   85.819">  2  5  1 -1</clus>
<clus scale="   90.415">  7  8 -1 -1</clus>
<clus scale="  106.184">  1 10  2 -1</clus>
<clus scale="   53.496">  1  5  2 -1</clus>
</clustering>
</event>
<event>
10    4  0.3043429E-005  0.1778937E+03  0.7546771E-02  0.1171803E+00
          2   -1    0    0  502    0 -0.00000000000E+00  0.00000000000E+00  0.12295824530E+04  0.12295824530E+04  0.00000000000E+00 0. -1.
         21   -1    0    0  503  502  0.00000000000E+00 -0.00000000000E+00 -0.35813616196E+03  0.35813616196E+03  0.00000000000E+00 0. -1.
         24    2    1    2    0    0 -0.82537850150E+02  0.13009562273E+03  0.11523643180E+04  0.11651188891E+04  0.76296374034E+02 0.  0.
         23    2    1    2    0    0  0.73373860969E+02 -0.87215915687E+02 -0.83804359008E+02  0.16889826949E+03  0.92266545543E+02 0.  0.
        -11    1    3    3    0    0 -0.13449064852E+02  0.75283851152E+02  0.37147249218E+03  0.37926290095E+03  0.00000000000E+00 0.  1.
         12    1    3    3    0    0 -0.69088785298E+02  0.54811771579E+02  0.78089182582E+03  0.78585598820E+03  0.00000000000E+00 0. -1.
        -13    1    4    4    0    0  0.34515711248E+02 -0.77698489840E+02 -0.10870016833E+02  0.85711999815E+02  0.00000000000E+00 0.  1.
         13    1    4    4    0    0  0.38858149721E+02 -0.95174258473E+01 -0.72934342175E+02  0.83186269678E+02  0.00000000000E+00 0. -1.
         21    1    1    2  503  501 -0.22106854347E+02  0.51176749558E+02 -0.10247835426E+03  0.11666012942E+03  0.00000000000E+00 0. -1.
          1    1    1    2  501    0  0.31270843527E+02 -0.94056456601E+02 -0.94635313678E+02  0.13704132690E+03  0.00000000000E+00 0. -1.
<scales pt_clust_5="13000.00000" pt_clust_6="13000.00000" pt_clust_7="13000.00000" pt_clust_8="13000.00000" pt_clust_9="55.74740" pt_clust_10="73.27126"></scales>
<clustering>
<clus scale="   55.747">  2  9  1 -1</clus>
<clus scale="   73.271">  2 10  1 -1</clus>
<clus scale="   76.296">  5  6 -1 -1</clus>
<clus scale="   92.267">  7  8 -1 -1</clus>
<clus scale="  170.159">  1  5  2 -1</clus>
<clus scale="   55.747">  2  5  1 -1</clus>
</clustering>
</event>
<event>
10    4  0.3043429E-005  0.2084000E+03  0.7546771E-02  0.1158559E+00
         21   -1    0    0  503  502  0.00000000000E+00  0.00000000000E+00  0.11911019337E+03  0.11911019337E+03  0.00000000000E+00 0. -1.
          2   -1    0    0  502    0 -0.00000000000E+00 -0.00000000000E+00 -0.90013067793E+03  0.90013067793E+03  0.00000000000E+00 0. -1.
         23    2    1    2    0    0  0.10273471214E+03 -0.46270811302E+02 -0.19818077633E+03  0.24486389598E+03  0.89371686745E+02 0.  0.
         24    2    1    2    0    0  0.10832926201E+03  0.14048683992E+03 -0.40620496030E+03  0.45031859826E+03  0.79451802825E+02 0.  0.
        -11    1    4    4    0    0  0.99045736614E+02  0.14419440733E+03 -0.33036178995E+03  0.37381947155E+03  0.00000000000E+00 0.  1.
         12    1    4    4    0    0  0.92835253987E+01 -0.37075674177E+01 -0.75843170344E+02  0.76499126713E+02  0.00000000000E+00 0. -1.
        -13    1    3    3    0    0  0.57924981748E+02 -0.29496805218E+02 -0.18371920552E+03  0.19487973601E+03  0.00000000000E+00 0.  1.
         13    1    3    3    0    0  0.44809730395E+02 -0.16774006084E+02 -0.14461570806E+02  0.49984159974E+02  0.00000000000E+00 0. -1.
         21    1    1    2  503  501 -0.14648090745E+02 -0.27875490977E+02  0.20825199461E+02  0.37753125596E+02  0.00000000000E+00 0. -1.
          1    1    1    2  501    0 -0.19641588341E+03 -0.66340537636E+02 -0.19745994740E+03  0.28630525146E+03  0.00000000000E+00 0. -1.
<scales pt_clust_5="13000.00000" pt_clust_6="13000.00000" pt_clust_7="13000.00000" pt_clust_8="13000.00000" pt_clust_9="31.48983" pt_clust_10="192.66030"></scales>
<clustering>
<clus scale="   31.490">  1  9  2 -1</clus>
<clus scale="   79.452">  5  6 -1 -1</clus>
<clus scale="   89.372">  7  8 -1 -1</clus>
<clus scale="  143.659">  2  7  1 -1</clus>
<clus scale="  192.660">  1 10  2 -1</clus>
<clus scale="   31.490">  1  5  2 -1</clus>
</clustering>
</event>
<event>
10    4  0.3043429E-005  0.2069245E+03  0.7546771E-02  0.1177335E+00
          2   -1    0    0  502    0 -0.00000000000E+00  0.00000000000E+00  0.71074713190E+02  0.71074713190E+02  0.00000000000E+00 0. -1.
         21   -1    0    0  503  502  0.00000000000E+00 -0.00000000000E+00 -0.86009849434E+03  0.86009849434E+03  0.00000000000E+00 0.  1.
         24    2    1    2    0    0 -0.42593201278E+02 -0.20953915913E+02 -0.13034509384E+03  0.16150591189E+03  0.82710753234E+02 0.  0.
         23    2    1    2    0    0  0.19251412029E+03  0.60906905460E+02 -0.40672850865E+03  0.46672497257E+03  0.10785537829E+03 0.  0.
        -11    1    3    3    0    0 -0.16148067263E+02  0.25331802136E+02 -0.13221804020E+02  0.32821888692E+02  0.00000000000E+00 0.  1.
         12    1    3    3    0    0 -0.26445134015E+02 -0.46285718049E+02 -0.11712328982E+03  0.12868402320E+03  0.00000000000E+00 0. -1.
        -11    1    4    4    0    0  0.13946260261E+03  0.28854599518E+02 -0.36554488118E+03  0.39230787093E+03  0.00000000000E+00 0.  1.
         11    1    4    4    0    0  0.53051517676E+02  0.32052305941E+02 -0.41183627470E+02  0.74417101633E+02  0.00000000000E+00 0. -1.
         21    1    1    2  503  501 -0.34051770279E+02  0.71274976380E+01 -0.10149617954E+03  0.10729305077E+03  0.00000000000E+00 0.  1.
          1    1    1    2  501    0 -0.11586914873E+03 -0.47080487184E+02 -0.15045399912E+03  0.19564927230E+03  0.00000000000E+00 0. -1.
<scales pt_clust_5="13000.00000" pt_clust_6="13000.00000" pt_clust_7="13000.00000" pt_clust_8="13000.00000" pt_clust_9="34.27224" pt_clust_10="188.16904"></scales>
<clustering>
<clus scale="   34.272">  9 10 -1 -1</clus>
<clus scale="   82.711">  5  6 -1 -1</clus>
<clus scale="   95.364">  1  5  2 -1</clus>
<clus scale="  107.855">  7  8 -1 -1</clus>
<clus scale="  188.169">  2  9  1 -1</clus>
<clus scale="  188.169">  2  5  1 -1</clus>
</clustering>
</event>
<event>
10    4  0.3043429E-005  0.1559684E+03  0.7546771E-02  0.1205087E+00
          2   -1    0    0  503    0 -0.00000000000E+00  0.00000000000E+00  0.93405538431E+03  0.93405538431E+03  0.00000000000E+00 0. -1.
         21   -1    0    0  501  502  0.00000000000E+00 -0.00000000000E+00 -0.10306048237E+03  0.10306048237E+03  0.00000000000E+00 0. -1.
         24    2    1    2    0    0 -0.84191491466E+02  0.19356819869E+02  0.50557159576E+03  0.51972148384E+03  0.83933834742E+02 0.  0.
         23    2    1    2    0    0 -0.72333725212E+02 -0.11037997340E+03  0.48345460908E+02  0.16555473627E+03  0.87493889953E+02 0.  0.
        -13    1    3    3    0    0 -0.12074780582E+02  0.22420934593E+02  0.33072538614E+02  0.41740764781E+02  0.00000000000E+00 0.  1.
         14    1    3    3    0    0 -0.72116710884E+02 -0.30641147241E+01  0.47249905714E+03  0.47798071906E+03  0.00000000000E+00 0. -1.
        -13    1    4    4    0    0  0.20428942375E+02 -0.23425912962E+02  0.11979429972E+02  0.33310986583E+02  0.00000000000E+00 0.  1.
         13    1    4    4    0    0 -0.92762667587E+02 -0.86954060440E+02  0.36366030936E+02  0.13224374969E+03  0.00000000000E+00 0. -1.
         21    1    1    2  503  502  0.39600232142E-02  0.23740076817E+02 -0.30869370634E+01  0.23939934072E+02  0.00000000000E+00 0.  1.
          1    1    1    2  501    0  0.15652125666E+03  0.67283076715E+02  0.28016478233E+03  0.32789971250E+03  0.00000000000E+00 0. -1.
<scales pt_clust_5="13000.00000" pt_clust_6="13000.00000" pt_clust_7="13000.00000" pt_clust_8="13000.00000" pt_clust_9="23.74008" pt_clust_10="129.11613"></scales>
<clustering>
<clus scale="   23.740">  2  9  1 -1</clus>
<clus scale="   83.934">  5  6 -1 -1</clus>
<clus scale="   87.494">  7  8 -1 -1</clus>
<clus scale="  120.764">  1  5  2 -1</clus>
<clus scale="  129.116">  2 10  1 -1</clus>
<clus scale="   23.740">  2  5  1 -1</clus>
</clustering>
</event>
<event>
10    4  0.3043429E-005  0.2606332E+03  0.7546771E-02  0.1145305E+00
          2   -1    0    0  502    0 -0.00000000000E+00  0.00000000000E+00  0.72468764264E+03  0.72468764264E+03  0.00000000000E+00 0. -1.
         21   -1    0    0  503  502  0.00000000000E+00 -0.00000000000E+00 -0.16562383734E+03  0.16562383734E+03  0.00000000000E+00 0. -1.
         24    2    1    2    0    0 -0.10818084053E+02  0.55700352699E+02  0.62524133471E+02  0.11696719356E+03  0.80947494523E+02 0.  0.
         23    2    1    2    0    0  0.24626797092E+03  0.51803201350E+02  0.30963765814E+03  0.41002825612E+03  0.94425665511E+02 0.  0.
        -11    1    3    3    0    0 -0.17341777366E+02 -0.17263520271E+02  0.23676017760E+02  0.34048791335E+02  0.00000000000E+00 0.  1.
         12    1    3    3    0    0  0.65236933129E+01  0.72963872970E+02  0.38848115710E+02  0.82918402225E+02  0.00000000000E+00 0. -1.
        -11    1    4    4    0    0  0.82825913475E+02  0.59514045080E+02  0.89157314603E+02  0.13546615907E+03  0.00000000000E+00 0.  1.
         11    1    4    4    0    0  0.16344205744E+03 -0.77108437297E+01  0.22048034353E+03  0.27456209705E+03  0.00000000000E+00 0. -1.
         21    1    1    2  503  501 -0.26067591959E+02  0.70477672081E+01 -0.30315882878E+02  0.40598560662E+02  0.00000000000E+00 0. -1.
          1    1    1    2  501    0 -0.20938229491E+03 -0.11455132126E+03  0.21721789657E+03  0.32271746964E+03  0.00000000000E+00 0. -1.
<scales pt_clust_5="13000.00000" pt_clust_6="13000.00000" pt_clust_7="13000.00000" pt_clust_8="13000.00000" pt_clust_9="27.00353" pt_clust_10="242.92688"></scales>
<clustering>
<clus scale="   27.004">  2  9  1 -1</clus>
<clus scale="   80.947">  5  6 -1 -1</clus>
<clus scale="   94.426">  7  8 -1 -1</clus>
<clus scale="  100.430">  1  5  2 -1</clus>
<clus scale="  242.927">  2 10  1 -1</clus>
<clus scale="   27.004">  2  5  1 -1</clus>
</clustering>
</event>
<event>
10    4  0.3043429E-005  0.1576984E+03  0.7546771E-02  0.1203349E+00
         21   -1    0    0  503  502  0.00000000000E+00  0.00000000000E+00  0.21710280110E+03  0.21710280110E+03  0.00000000000E+00 0.  1.
          2   -1    0    0  502    0 -0.00000000000E+00 -0.00000000000E+00 -0.22464049740E+03  0.22464049740E+03  0.00000000000E+00 0. -1.
         24    2    1    2    0    0 -0.78463495149E+02 -0.46574579679E+02  0.31786914835E+01  0.12133723098E+03  0.79918133102E+02 0.  0.
         23    2    1    2    0    0  0.13728096375E+02  0.15408639015E+03 -0.20790428920E+02  0.17955756342E+03  0.88755847071E+02 0.  0.
        -11    1    3    3    0    0 -0.99704547681E+01 -0.48686033316E+02 -0.12057455145E+02  0.51138263883E+02  0.00000000000E+00 0.  1.
         12    1    3    3    0    0 -0.68493040381E+02  0.21114536373E+01  0.15236146629E+02  0.70198967095E+02  0.00000000000E+00 0. -1.
        -11    1    4    4    0    0 -0.10455211159E+02  0.14883209266E+03 -0.31671753041E+02  0.15252345127E+03  0.00000000000E+00 0.  1.
         11    1    4    4    0    0  0.24183307533E+02  0.52542974858E+01  0.10881324122E+02  0.27034112154E+02  0.00000000000E+00 0. -1.
         21    1    1    2  503  501 -0.26812514869E+01 -0.54851472498E+02  0.52309731068E+01  0.55165534751E+02  0.00000000000E+00 0. -1.
          1    1    1    2  501    0  0.67416650261E+02 -0.52660337970E+02  0.48430680258E+01  0.85682969343E+02  0.00000000000E+00 0. -1.
<scales pt_clust_5="13000.00000" pt_clust_6="13000.00000" pt_clust_7="13000.00000" pt_clust_8="13000.00000" pt_clust_9="50.59363" pt_clust_10="144.83973"></scales>
<clustering>
<clus scale="   50.594">  9 10 -1 -1</clus>
<clus scale="   79.918">  5  6 -1 -1</clus>
<clus scale="   88.756">  7  8 -1 -1</clus>
<clus scale="  121.296">  2  5  1 -1</clus>
<clus scale="  144.840">  1  9  2 -1</clus>
<clus scale="  144.840">  1  5  2 -1</clus>
</clustering>
</event>
<event>
10    4  0.3043429E-005  0.1296713E+03  0.7546771E-02  0.1229821E+00
         -3   -1    0    0    0  501 -0.00000000000E+00  0.00000000000E+00  0.15390710992E+03  0.15390710992E+03  0.00000000000E+00 0.  1.
         21   -1    0    0  503  502  0.00000000000E+00 -0.00000000000E+00 -0.31747263097E+03  0.31747263097E+03  0.00000000000E+00 0.  1.
         23    2    1    2    0    0 -0.57625710182E+02 -0.98308806041E+02  0.64464592807E+02  0.15796877338E+03  0.88391774610E+02 0.  0.
         24    2    1    2    0    0  0.26326334966E+02  0.49918575846E+02 -0.68499250363E+02  0.12014140315E+03  0.80974497988E+02 0.  0.
        -11    1    4    4    0    0 -0.56331871217E+01  0.47132423095E+02 -0.73678356326E+02  0.87645298191E+02  0.00000000000E+00 0.  1.
         12    1    4    4    0    0  0.31959522088E+02  0.27861527508E+01  0.51791059631E+01  0.32496104964E+02  0.00000000000E+00 0. -1.
        -13    1    3    3    0    0 -0.10488205887E+02 -0.30128513787E+02  0.67887557134E+02  0.75009667506E+02  0.00000000000E+00 0. -1.
         13    1    3    3    0    0 -0.47137504294E+02 -0.68180292254E+02 -0.34229643263E+01  0.82959105875E+02  0.00000000000E+00 0.  1.
         21    1    1    2  503  501 -0.23441628194E+01  0.33981459355E+02 -0.15217231392E+03  0.15593796139E+03  0.00000000000E+00 0.  1.
         -4    1    1    2    0  502  0.33643538035E+02  0.14408770840E+02 -0.73585495780E+01  0.37331602972E+02  0.00000000000E+00 0.  1.
<scales pt_clust_5="13000.00000" pt_clust_6="13000.00000" pt_clust_7="13000.00000" pt_clust_8="13000.00000" pt_clust_9="34.06222" pt_clust_10="38.38653"></scales>
<clustering>
<clus scale="   34.062">  2  9  1 -1</clus>
<clus scale="   38.387">  2 10  1 -1</clus>
<clus scale="   80.974">  5  6 -1 -1</clus>
<clus scale="   88.392">  7  8 -1 -1</clus>
<clus scale="  124.733">  2  5  1 -1</clus>
<clus scale="   34.062">  2  5  1 -1</clus>
</clustering>
</event>
<event>
10    4  0.3043429E-005  0.2044857E+03  0.7546771E-02  0.1146947E+00
          2   -1    0    0  503    0 -0.00000000000E+00  0.00000000000E+00  0.11893493894E+04  0.11893493894E+04  0.00000000000E+00 0. -1.
         21   -1    0    0  501  502  0.00000000000E+00 -0.00000000000E+00 -0.99239788449E+02  0.99239788449E+02  0.00000000000E+00 0. -1.
         24    2    1    2    0    0 -0.13855324528E+03 -0.76311155049E+02  0.42364316910E+03  0.45921043809E+03  0.79876764832E+02 0.  0.
         23    2    1    2    0    0  0.26259803727E+03  0.31980865356E+02  0.34999656326E+03  0.44798335189E+03  0.90614482017E+02 0.  0.
        -11    1    3    3    0    0 -0.64663263077E+02  0.58641632464E+01  0.12665187431E+03  0.14232506198E+03  0.00000000000E+00 0.  1.
         12    1    3    3    0    0 -0.73889982200E+02 -0.82175318295E+02  0.29699129479E+03  0.31688537610E+03  0.00000000000E+00 0. -1.
        -13    1    4    4    0    0  0.13515880037E+02 -0.20999220965E+02  0.31412008469E+02  0.40129298155E+02  0.00000000000E+00 0.  1.
         13    1    4    4    0    0  0.24908215723E+03  0.52980086321E+02  0.31858455479E+03  0.40785405373E+03  0.00000000000E+00 0. -1.
         21    1    1    2  503  502  0.14477066492E+02  0.60462516919E+02  0.46861912471E+02  0.77854609669E+02  0.00000000000E+00 0. -1.
          1    1    1    2  501    0 -0.13852185848E+03 -0.16132227226E+02  0.26960795616E+03  0.30354077825E+03  0.00000000000E+00 0. -1.
<scales pt_clust_5="13000.00000" pt_clust_6="13000.00000" pt_clust_7="13000.00000" pt_clust_8="13000.00000" pt_clust_9="62.17155" pt_clust_10="135.64445"></scales>
<clustering>
<clus scale="   62.172">  2  9  1 -1</clus>
<clus scale="   79.877">  5  6 -1 -1</clus>
<clus scale="   90.614">  7  8 -1 -1</clus>
<clus scale="  135.644">  2 10  1 -1</clus>
<clus scale="  199.959">  1  5  2 -1</clus>
<clus scale="   62.172">  2  5  1 -1</clus>
</clustering>
</event>
<event>
10    4  0.3043429E-005  0.2164362E+03  0.7546771E-02  0.1168219E+00
          2   -1    0    0  503    0 -0.00000000000E+00  0.00000000000E+00  0.13714568177E+04  0.13714568177E+04  0.00000000000E+00 0. -1.
         21   -1    0    0  501  502  0.00000000000E+00 -0.00000000000E+00 -0.57806957811E+02  0.57806957811E+02  0.00000000000E+00 0. -1.
         23    2    1    2    0    0  0.44009264228E+02 -0.62347833196E+01  0.36648687534E+03  0.38031900753E+03  0.91401476060E+02 0.  0.
         24    2    1    2    0    0  0.11480872145E+03 -0.12735154597E+03  0.49589601359E+03  0.53615720592E+03  0.11023717333E+03 0.  0.
        -13    1    4    4    0    0  0.37884763035E+02 -0.79904442672E+02  0.11716279630E+03  0.14678929138E+03  0.00000000000E+00 0.  1.
         14    1    4    4    0    0  0.76923958412E+02 -0.47447103302E+02  0.37873321729E+03  0.38936791454E+03  0.00000000000E+00 0. -1.
        -13    1    3    3    0    0 -0.25866723028E+02 -0.14885783680E+02  0.13976274027E+03  0.14291360147E+03  0.00000000000E+00 0.  1.
         13    1    3    3    0    0  0.69875987256E+02  0.86510003605E+01  0.22672413507E+03  0.23740540606E+03  0.00000000000E+00 0. -1.
         21    1    1    2  503  502  0.18696056295E+02  0.36485709891E+02  0.68455508560E+02  0.79792895670E+02  0.00000000000E+00 0.  1.
          1    1    1    2  501    0 -0.17751404197E+03  0.97100619403E+02  0.38281146241E+03  0.43299466641E+03  0.00000000000E+00 0. -1.
<scales pt_clust_5="13000.00000" pt_clust_6="13000.00000" pt_clust_7="13000.00000" pt_clust_8="13000.00000" pt_clust_9="40.99695" pt_clust_10="186.25899"></scales>
<clustering>
<clus scale="   40.997">  2  9  1 -1</clus>
<clus scale="   91.401">  7  8 -1 -1</clus>
<clus scale="  102.555">  1  7  2 -1</clus>
<clus scale="  110.237">  5  6 -1 -1</clus>
<clus scale="  186.259">  2 10  1 -1</clus>
<clus scale="   40.997">  2  5  1 -1</clus>
</clustering>
</event>
<event>
10    4  0.3043429E-005  0.9955460E+02  0.7546771E-02  0.1286457E+00
         21   -1    0    0  501  502  0.00000000000E+00  0.00000000000E+00  0.37305139596E+02  0.37305139596E+02  0.00000000000E+00 0.  1.
          2   -1    0    0  503    0 -0.00000000000E+00 -0.00000000000E+00 -0.77845814335E+03  0.77845814335E+03  0.00000000000E+00 0. -1.
         23    2    1    2    0    0  0.51297559237E+02 -0.23884430090E+02 -0.33430054157E+03  0.35059461078E+03  0.89206633315E+02 0.  0.
         24    2    1    2    0    0  0.27259308334E+02  0.57655502822E+02 -0.10659306691E+03  0.14700558528E+03  0.78621455676E+02 0.  0.
        -11    1    4    4    0    0  0.36432309056E+02  0.73984495351E+02 -0.88399924014E+02  0.12089485209E+03  0.00000000000E+00 0.  1.
         12    1    4    4    0    0 -0.91730007217E+01 -0.16328992529E+02 -0.18193142898E+02  0.26110733191E+02  0.00000000000E+00 0. -1.
        -11    1    3    3    0    0  0.76528931079E+02 -0.22906660954E+02 -0.23851833699E+03  0.25154003556E+03  0.00000000000E+00 0.  1.
         11    1    3    3    0    0 -0.25231371842E+02 -0.97776913579E+00 -0.95782204586E+02  0.99054575225E+02  0.00000000000E+00 0. -1.
         21    1    1    2  503  502 -0.33323723908E+02  0.61167427000E+01 -0.47730735076E+02  0.58532966670E+02  0.00000000000E+00 0.  1.
          1    1    1    2  501    0 -0.45233143663E+02 -0.39887815433E+02 -0.25252866019E+03  0.25963012021E+03  0.00000000000E+00 0. -1.
<scales pt_clust_5="13000.00000" pt_clust_6="13000.00000" pt_clust_7="13000.00000" pt_clust_8="13000.00000" pt_clust_9="33.88045" pt_clust_10="62.70969"></scales>
<clustering>
<clus scale="   33.880">  1  9  2 -1</clus>
<clus scale="   62.710">  1 10  2 -1</clus>
<clus scale="   78.621">  5  6 -1 -1</clus>
<clus scale="   89.207">  7  8 -1 -1</clus>
<clus scale="   90.192">  1  5  2 -1</clus>
<clus scale="   33.880">  1  5  2 -1</clus>
</clustering>
</event>
<event>
10    4  0.3043429E-005  0.2575352E+03  0.7546771E-02  0.1109102E+00
         21   -1    0    0  501  502  0.00000000000E+00  0.00000000000E+00  0.95535397041E+02  0.95535397041E+02  0.00000000000E+00 0. -1.
          2   -1    0    0  503    0 -0.00000000000E+00 -0.00000000000E+00 -0.12590549320E+04  0.12590549320E+04  0.00000000000E+00 0. -1.
         23    2    1    2    0    0 -0.55963385158E+02 -0.27924606189E+03 -0.66634726901E+03  0.73006401820E+03  0.88682152614E+02 0.  0.
         24    2    1    2    0    0  0.15044442760E+02  0.18236795940E+03 -0.18100432684E+03  0.26933553983E+03  0.79338885848E+02 0.  0.
        -13    1    4    4    0    0  0.20445992747E+02  0.10670795181E+02 -0.54111638870E+01  0.23689347475E+02  0.00000000000E+00 0.  1.
         14    1    4    4    0    0 -0.54015499872E+01  0.17169716422E+03 -0.17559316295E+03  0.24564619236E+03  0.00000000000E+00 0. -1.
        -11    1    3    3    0    0  0.15110341758E+02 -0.16569527740E+02 -0.26248153959E+02  0.34522996159E+02  0.00000000000E+00 0.  1.
         11    1    3    3    0    0 -0.71073726916E+02 -0.26267653415E+03 -0.64009911505E+03  0.69554102204E+03  0.00000000000E+00 0. -1.
         21    1    1    2  503  502  0.12422545944E+01  0.69239563205E+02 -0.51913291745E+02  0.86548542270E+02  0.00000000000E+00 0. -1.
          1    1    1    2  501    0  0.39676687804E+02  0.27638539291E+02 -0.26425464741E+03  0.26864222879E+03  0.00000000000E+00 0. -1.
<scales pt_clust_5="13000.00000" pt_clust_6="13000.00000" pt_clust_7="13000.00000" pt_clust_8="13000.00000" pt_clust_9="74.86334" pt_clust_10="48.35422"></scales>
<clustering>
<clus scale="   48.354">  1 10  2 -1</clus>
<clus scale="   74.863">  1  9  2 -1</clus>
<clus scale="   79.339">  5  6 -1 -1</clus>
<clus scale="   88.682">  7  8 -1 -1</clus>
<clus scale="  254.469">  1  5  2 -1</clus>
<clus scale="   48.354">  1  5  2 -1</clus>
</clustering>
</event>
<event>
10    4  0.3043429E-005  0.1450071E+03  0.7546771E-02  0.1209314E+00
         21   -1    0    0  501  502  0.00000000000E+00  0.00000000000E+00  0.59716753189E+02  0.59716753189E+02  0.00000000000E+00 0. -1.
          2   -1    0    0  503    0 -0.00000000000E+00 -0.00000000000E+00 -0.78584728477E+03  0.78584728477E+03  0.00000000000E+00 0. -1.
         24    2    1    2    0    0 -0.12655294080E+03  0.49659225250E+02 -0.52443548277E+03  0.54756385797E+03  0.79447577034E+02 0.  0.
         23    2    1    2    0    0  0.74516992968E+02  0.94548426003E+01 -0.14613518054E+03  0.18841609311E+03  0.92211479009E+02 0.  0.
        -13    1    3    3    0    0 -0.14906621469E+02 -0.18808253730E+02 -0.51296791742E+02  0.56633193579E+02  0.00000000000E+00 0.  1.
         14    1    3    3    0    0 -0.11164631933E+03  0.68467478980E+02 -0.47313869103E+03  0.49093066440E+03  0.00000000000E+00 0. -1.
        -13    1    4    4    0    0  0.17454922841E+02 -0.19223243498E+02  0.30425464689E+01  0.26143154190E+02  0.00000000000E+00 0.  1.
         13    1    4    4    0    0  0.57062070126E+02  0.28678086098E+02 -0.14917772701E+03  0.16227293892E+03  0.00000000000E+00 0. -1.
         21    1    1    2  503  502  0.17610782538E+02 -0.31277837398E+02  0.31729394986E+01  0.36034848674E+02  0.00000000000E+00 0. -1.
          1    1    1    2  501    0  0.34425165295E+02 -0.27836230453E+02 -0.58732807768E+02  0.73549238200E+02  0.00000000000E+00 0. -1.
<scales pt_clust_5="13000.00000" pt_clust_6="13000.00000" pt_clust_7="13000.00000" pt_clust_8="13000.00000" pt_clust_9="35.89489" pt_clust_10="50.49177"></scales>
<clustering>
<clus scale="   35.895">  1  9  2 -1</clus>
<clus scale="   50.492">  1 10  2 -1</clus>
<clus scale="   79.448">  5  6 -1 -1</clus>
<clus scale="   92.211">  7  8 -1 -1</clus>
<clus scale="  137.244">  2  5  1 -1</clus>
<clus scale="   35.895">  1  5  2 -1</clus>
</clustering>
</event>
<event>
10    4  0.3043429E-005  0.3091793E+03  0.7546771E-02  0.1112282E+00
         -3   -1    0    0    0  501 -0.00000000000E+00  0.00000000000E+00  0.16022175882E+03  0.16022175882E+03  0.00000000000E+00 0.  1.
         21   -1    0    0  503  502  0.00000000000E+00 -0.00000000000E+00 -0.13037600840E+04  0.13037600840E+04  0.00000000000E+00 0.  1.
         24    2    1    2    0    0  0.12164407463E+02  0.12469200800E+03 -0.15760709227E+03  0.21621593065E+03  0.78824256808E+02 0.  0.
         23    2    1    2    0    0  0.24026378303E+03 -0.16991073209E+03 -0.43710872796E+03  0.53437888528E+03  0.88884254249E+02 0.  0.
        -11    1    3    3    0    0  0.16352325725E+02  0.75104552944E+02 -0.14618041343E+03  0.16515691236E+03  0.00000000000E+00 0.  1.
         12    1    3    3    0    0 -0.41879182624E+01  0.49587455060E+02 -0.11426678838E+02  0.51059018282E+02  0.00000000000E+00 0. -1.
        -13    1    4    4    0    0  0.16851878481E+03 -0.97512682632E+02 -0.21533382712E+03  0.29030322287E+03  0.00000000000E+00 0.  1.
         13    1    4    4    0    0  0.71744998225E+02 -0.72398049458E+02 -0.22177490084E+03  0.24407566241E+03  0.00000000000E+00 0. -1.
         21    1    1    2  503  501  0.50078752780E+01 -0.75108264715E+02 -0.37012395761E+03  0.37770103818E+03  0.00000000000E+00 0.  1.
         -4    1    1    2    0  502 -0.25743606577E+03  0.12032698880E+03 -0.17869854732E+03  0.33568598870E+03  0.00000000000E+00 0.  1.
<scales pt_clust_5="13000.00000" pt_clust_6="13000.00000" pt_clust_7="13000.00000" pt_clust_8="13000.00000" pt_clust_9="75.27503" pt_clust_10="296.12755"></scales>
<clustering>
<clus scale="   75.275">  2  9  1 -1</clus>
<clus scale="   78.824">  5  6 -1 -1</clus>
<clus scale="   88.884">  7  8 -1 -1</clus>
<clus scale="  135.638">  1  5  2 -1</clus>
<clus scale="  296.128">  2 10  1 -1</clus>
<clus scale="   75.275">  2  5  1 -1</clus>
</clustering>
</event>
<event>
10    4  0.3043429E-005  0.1584567E+03  0.7546771E-02  0.1220109E+00
          2   -1    0    0  503    0 -0.00000000000E+00  0.00000000000E+00  0.24209543764E+03  0.24209543764E+03  0.00000000000E+00 0. -1.
         21   -1    0    0  501  502  0.00000000000E+00 -0.00000000000E+00 -0.49863369934E+03  0.49863369934E+03  0.00000000000E+00 0.  1.
         24    2    1    2    0    0 -0.13430705001E+02 -0.18959344797E+02  0.61320691921E+02  0.10348944579E+03  0.80062460241E+02 0.  0.
         23    2    1    2    0    0 -0.68487191432E+00  0.15322861909E+03 -0.46203596929E+02  0.18414811385E+03  0.91083899283E+02 0.  0.
        -11    1    3    3    0    0  0.59041453485E+01 -0.35991428802E+02 -0.54051122085E+00  0.36476486013E+02  0.00000000000E+00 0.  1.
         12    1    3    3    0    0 -0.19334850350E+02  0.17032084005E+02  0.61861203142E+02  0.67012959774E+02  0.00000000000E+00 0. -1.
        -13    1    4    4    0    0 -0.40001707007E+02  0.78689930187E+02 -0.48906302263E+00  0.88275029645E+02  0.00000000000E+00 0.  1.
         13    1    4    4    0    0  0.39316835093E+02  0.74538688902E+02 -0.45714533907E+02  0.95873084206E+02  0.00000000000E+00 0. -1.
         21    1    1    2  503  502 -0.22882062175E+02 -0.81101577056E+02 -0.34505636406E+03  0.35519705650E+03  0.00000000000E+00 0.  1.
          1    1    1    2  501    0  0.36997639091E+02 -0.53167697236E+02  0.73401007369E+02  0.97894520840E+02  0.00000000000E+00 0. -1.
<scales pt_clust_5="13000.00000" pt_clust_6="13000.00000" pt_clust_7="13000.00000" pt_clust_8="13000.00000" pt_clust_9="129.66208" pt_clust_10="64.77371"></scales>
<clustering>
<clus scale="   64.774">  2 10  1 -1</clus>
<clus scale="   80.062">  5  6 -1 -1</clus>
<clus scale="   83.678">  1  5  2 -1</clus>
<clus scale="   91.084">  7  8 -1 -1</clus>
<clus scale="  129.662">  2  9  1 -1</clus>
<clus scale="   64.774">  2  5  1 -1</clus>
</clustering>
</event>
<event>
10    4  0.3043429E-005  0.1684196E+03  0.7546771E-02  0.1204710E+00
         -1   -1    0    0    0  501 -0.00000000000E+00  0.00000000000E+00  0.48062450369E+03  0.48062450369E+03  0.00000000000E+00 0.  1.
         21   -1    0    0  503  502  0.00000000000E+00 -0.00000000000E+00 -0.19703915760E+03  0.19703915760E+03  0.00000000000E+00 0.  1.
         23    2    1    2    0    0  0.14465306040E+01  0.19092268645E+02  0.16012302454E+03  0.18687161329E+03  0.94419329022E+02 0.  0.
         24    2    1    2    0    0  0.10633291532E+03 -0.81274368356E+02  0.11638079913E+03  0.19407043653E+03  0.78782181347E+02 0.  0.
        -11    1    4    4    0    0  0.97661048958E+02 -0.52960048269E+02  0.50893287779E+02  0.12219891136E+03  0.00000000000E+00 0.  1.
         12    1    4    4    0    0  0.86718663630E+01 -0.28314320087E+02  0.65487511347E+02  0.71871525172E+02  0.00000000000E+00 0. -1.
        -13    1    3    3    0    0  0.58010520766E+01 -0.38165397814E+02  0.57076451691E+02  0.68905523241E+02  0.00000000000E+00 0.  1.
         13    1    3    3    0    0 -0.43545214726E+01  0.57257666458E+02  0.10304657285E+03  0.11796609005E+03  0.00000000000E+00 0. -1.
         21    1    1    2  503  501  0.54193835316E+02 -0.35725918500E-01 -0.84605766705E+02  0.10047441875E+03  0.00000000000E+00 0.  1.
         -2    1    1    2    0  502 -0.16197328124E+03  0.62217825630E+02  0.91687289124E+02  0.19624719272E+03  0.00000000000E+00 0.  1.
<scales pt_clust_5="13000.00000" pt_clust_6="13000.00000" pt_clust_7="13000.00000" pt_clust_8="13000.00000" pt_clust_9="54.19385" pt_clust_10="148.85737"></scales>
<clustering>
<clus scale="   54.194">  2  9  1 -1</clus>
<clus scale="   78.782">  5  6 -1 -1</clus>
<clus scale="   94.419">  7  8 -1 -1</clus>
<clus scale="   96.693">  1  7  2 -1</clus>
<clus scale="  148.857">  2 10  1 -1</clus>
<clus scale="   54.194">  2  5  1 -1</clus>
</clustering>
</event>
<event>
10    4  0.3043429E-005  0.2325286E+03  0.7546771E-02  0.1157787E+00
         -1   -1    0    0    0  501 -0.00000000000E+00  0.00000000000E+00  0.41989215707E+03  0.41989215707E+03  0.00000000000E+00 0.  1.
         21   -1    0    0  503  502  0.00000000000E+00 -0.00000000000E+00 -0.28382223353E+03  0.28382223353E+03  0.00000000000E+00 0.  1.
         23    2    1    2    0    0 -0.89952554139E+01  0.55137876638E+02  0.15430347499E+03  0.18743594494E+03  0.90562525372E+02 0.  0.
         24    2    1    2    0    0 -0.17486858208E+03 -0.15500904835E+03  0.55227068017E+02  0.25079621279E+03  0.72400864889E+02 0.  0.
        -13    1    4    4    0    0 -0.15472464830E+03 -0.11663741902E+03  0.19707680863E+02  0.19476241165E+03  0.00000000000E+00 0.  1.
         14    1    4    4    0    0 -0.20143933777E+02 -0.38371629333E+02  0.35519387154E+02  0.56033801133E+02  0.00000000000E+00 0. -1.
        -11    1    3    3    0    0 -0.43379070266E+02  0.57402243504E+02  0.10440303280E+03  0.12679414243E+03  0.00000000000E+00 0.  1.
         11    1    3    3    0    0  0.34383814852E+02 -0.22643668670E+01  0.49900442188E+02  0.60641802510E+02  0.00000000000E+00 0. -1.
         21    1    1    2  503  501  0.95811856684E+01 -0.31039002178E+02 -0.27851655656E+02  0.42789408710E+02  0.00000000000E+00 0.  1.
         -2    1    1    2    0  502  0.17428265182E+03  0.13091017389E+03 -0.45608963813E+02  0.22269282417E+03  0.00000000000E+00 0.  1.
<scales pt_clust_5="13000.00000" pt_clust_6="13000.00000" pt_clust_7="13000.00000" pt_clust_8="13000.00000" pt_clust_9="32.48413" pt_clust_10="220.96978"></scales>
<clustering>
<clus scale="   32.484">  2  9  1 -1</clus>
<clus scale="   72.401">  5  6 -1 -1</clus>
<clus scale="   90.563">  7  8 -1 -1</clus>
<clus scale="  105.298">  1  7  2 -1</clus>
<clus scale="  220.970">  2 10  1 -1</clus>
<clus scale="   32.484">  2  5  1 -1</clus>
</clustering>
</event>
<event>
10    4  0.3043429E-005  0.2525329E+03  0.7546771E-02  0.1153084E+00
         21   -1    0    0  501  502  0.00000000000E+00  0.00000000000E+00  0.28004520608E+03  0.28004520608E+03  0.00000000000E+00 0. -1.
          2   -1    0    0  503    0 -0.00000000000E+00 -0.00000000000E+00 -0.69167861057E+03  0.69167861057E+03  0.00000000000E+00 0. -1.
         23    2    1    2    0    0  0.21709551909E+02  0.20861274368E+02 -0.22431439271E+03  0.23767136766E+03  0.72555046792E+02 0.  0.
         24    2    1    2    0    0  0.14096544548E+03  0.89074617648E+02 -0.22189145276E+03  0.28904480905E+03  0.80656930902E+02 0.  0.
        -11    1    4    4    0    0  0.14855538137E+02  0.21169221764E+02 -0.11253724412E+01  0.25886085578E+02  0.00000000000E+00 0.  1.
         12    1    4    4    0    0  0.12610990735E+03  0.67905395885E+02 -0.22076608032E+03  0.26315872348E+03  0.00000000000E+00 0. -1.
        -13    1    3    3    0    0 -0.13192037803E+02  0.18134051917E+02 -0.18993990828E+02  0.29387844220E+02  0.00000000000E+00 0. -1.
         13    1    3    3    0    0  0.34901589712E+02  0.27272224516E+01 -0.20532040188E+03  0.20828352344E+03  0.00000000000E+00 0.  1.
         21    1    1    2  503  502  0.75342505893E+02 -0.32889661700E+01 -0.12007166663E+03  0.14179039326E+03  0.00000000000E+00 0.  1.
          1    1    1    2  501    0 -0.23801750328E+03 -0.10664692585E+03  0.15464410761E+03  0.30321724667E+03  0.00000000000E+00 0. -1.
<scales pt_clust_5="13000.00000" pt_clust_6="13000.00000" pt_clust_7="13000.00000" pt_clust_8="13000.00000" pt_clust_9="75.41426" pt_clust_10="239.30595"></scales>
<clustering>
<clus scale="   72.555">  7  8 -1 -1</clus>
<clus scale="   75.414">  2  9  1 -1</clus>
<clus scale="   80.657">  5  6 -1 -1</clus>
<clus scale="   91.798">  2  7  1 -1</clus>
<clus scale="  239.306">  1 10  2 -1</clus>
<clus scale="  239.306">  1  5  2 -1</clus>
</clustering>
</event>
<event>
10    4  0.3043429E-005  0.9736630E+02  0.7546771E-02  0.1289160E+00
         21   -1    0    0  503  502  0.00000000000E+00  0.00000000000E+00  0.88011968406E+02  0.88011968406E+02  0.00000000000E+00 0. -1.
          2   -1    0    0  502    0 -0.00000000000E+00 -0.00000000000E+00 -0.48552891239E+03  0.48552891239E+03  0.00000000000E+00 0. -1.
         24    2    1    2    0    0  0.31796975943E+02  0.49268363595E+02 -0.34041297785E+03  0.35469912947E+03  0.80573305884E+02 0.  0.
         23    2    1    2    0    0  0.43726735424E+02 -0.36098818618E+01 -0.52825696496E+02  0.11086426388E+03  0.87036039419E+02 0.  0.
        -13    1    3    3    0    0 -0.25406844553E+01  0.61868213378E+02 -0.18695386732E+03  0.19694130955E+03  0.00000000000E+00 0.  1.
         14    1    3    3    0    0  0.34337660399E+02 -0.12599849782E+02 -0.15345911054E+03  0.15775781991E+03  0.00000000000E+00 0. -1.
        -11    1    4    4    0    0  0.63779984640E+02 -0.16947272593E+02 -0.17789330831E+02  0.68348787703E+02  0.00000000000E+00 0. -1.
         11    1    4    4    0    0 -0.20053249217E+02  0.13337390731E+02 -0.35036365665E+02  0.42515476178E+02  0.00000000000E+00 0.  1.
         21    1    1    2  503  501 -0.22998484192E+02 -0.28759164502E+02  0.25963130071E+02  0.45056674767E+02  0.00000000000E+00 0. -1.
          1    1    1    2  501    0 -0.52525227176E+02 -0.16899317232E+02 -0.30241399709E+02  0.62920812686E+02  0.00000000000E+00 0. -1.
<scales pt_clust_5="13000.00000" pt_clust_6="13000.00000" pt_clust_7="13000.00000" pt_clust_8="13000.00000" pt_clust_9="36.82417" pt_clust_10="65.04036"></scales>
<clustering>
<clus scale="   36.824">  1  9  2 -1</clus>
<clus scale="   65.040">  1 10  2 -1</clus>
<clus scale="   80.573">  5  6 -1 -1</clus>
<clus scale="   87.036">  7  8 -1 -1</clus>
<clus scale="   91.635">  2  5  1 -1</clus>
<clus scale="   36.824">  1  5  2 -1</clus>
</clustering>
</event>
<event>
10    4  0.3043429E-005  0.1963859E+03  0.7546771E-02  0.1189980E+00
          2   -1    0    0  503    0 -0.00000000000E+00  0.00000000000E+00  0.57467137552E+03  0.57467137552E+03  0.00000000000E+00 0. -1.
         21   -1    0    0  501  502  0.00000000000E+00 -0.00000000000E+00 -0.22454328875E+03  0.22454328875E+03  0.00000000000E+00 0. -1.
         24    2    1    2    0    0 -0.11843019609E+02  0.20581078236E+02  0.36405484512E+03  0.37361111306E+03  0.80532575111E+02 0.  0.
         23    2    1    2    0    0  0.22870935920E+02  0.14398427315E+03 -0.75310099120E+02  0.18789987475E+03  0.91543439284E+02 0.  0.
        -11    1    3    3    0    0 -0.36863263798E+02  0.37270493865E+02  0.19615656388E+03  0.20304035925E+03  0.00000000000E+00 0.  1.
         12    1    3    3    0    0  0.25020244189E+02 -0.16689415628E+02  0.16789828124E+03  0.17057075381E+03  0.00000000000E+00 0. -1.
        -13    1    4    4    0    0 -0.23482649204E+02  0.11314146868E+03 -0.59765442783E+02  0.13009356210E+03  0.00000000000E+00 0.  1.
         13    1    4    4    0    0  0.46353585124E+02  0.30842804475E+02 -0.15544656338E+02  0.57806312651E+02  0.00000000000E+00 0. -1.
         21    1    1    2  503  502  0.97381401286E+01  0.31246938715E+02  0.90707262967E+01  0.33962930200E+02  0.00000000000E+00 0. -1.
          1    1    1    2  501    0 -0.20766056440E+02 -0.19581229010E+03  0.52312614477E+02  0.20374074626E+03  0.00000000000E+00 0. -1.
<scales pt_clust_5="13000.00000" pt_clust_6="13000.00000" pt_clust_7="13000.00000" pt_clust_8="13000.00000" pt_clust_9="32.72923" pt_clust_10="173.74484"></scales>
<clustering>
<clus scale="   32.729">  2  9  1 -1</clus>
<clus scale="   80.533">  5  6 -1 -1</clus>
<clus scale="   84.105">  1  5  2 -1</clus>
<clus scale="   91.543">  7  8 -1 -1</clus>
<clus scale="  173.745">  2 10  1 -1</clus>
<clus scale="   32.729">  2  5  1 -1</clus>
</clustering>
</event>
<event>
10    4  0.3043429E-005  0.3858510E+03  0.7546771E-02  0.1077116E+00
          2   -1    0    0  503    0 -0.00000000000E+00  0.00000000000E+00  0.11296826963E+04  0.11296826963E+04  0.00000000000E+00 0. -1.
         21   -1    0    0  501  502  0.00000000000E+00 -0.00000000000E+00 -0.71255811706E+03  0.71255811706E+03  0.00000000000E+00 0. -1.
         24    2    1    2    0    0 -0.13760999189E+03  0.22095589614E+02  0.78561031863E+02  0.17926355522E+03  0.80863227457E+02 0.  0.
         23    2    1    2    0    0 -0.20119417897E+03 -0.18244122436E+03  0.49641257968E+03  0.57317716728E+03  0.91338479478E+02 0.  0.
        -11    1    3    3    0    0 -0.59020596246E+02  0.18128071298E+02 -0.80268361856E+01  0.62261447537E+02  0.00000000000E+00 0.  1.
         12    1    3    3    0    0 -0.78589395643E+02  0.39675183157E+01  0.86587868049E+02  0.11700210768E+03  0.00000000000E+00 0. -1.
        -13    1    4    4    0    0 -0.17120136979E+03 -0.12379005644E+03  0.30727942818E+03  0.37290016637E+03  0.00000000000E+00 0.  1.
         13    1    4    4    0    0 -0.29992809178E+02 -0.58651167920E+02  0.18913315150E+03  0.20027700092E+03  0.00000000000E+00 0. -1.
         21    1    1    2  503  502 -0.80446060292E+02 -0.10863525029E+03 -0.47861418736E+03  0.49733763840E+03  0.00000000000E+00 0. -1.
          1    1    1    2  501    0  0.41925023115E+03  0.26898088504E+03  0.32076515502E+03  0.59246245241E+03  0.00000000000E+00 0. -1.
<scales pt_clust_5="13000.00000" pt_clust_6="13000.00000" pt_clust_7="13000.00000" pt_clust_8="13000.00000" pt_clust_9="135.17835" pt_clust_10="374.88433"></scales>
<clustering>
<clus scale="   80.863">  5  6 -1 -1</clus>
<clus scale="   91.338">  7  8 -1 -1</clus>
<clus scale="  135.178">  2  9  1 -1</clus>
<clus scale="  175.413">  1  5  2 -1</clus>
<clus scale="  374.884">  2 10  1 -1</clus>
<clus scale="  135.178">  2  5  1 -1</clus>
</clustering>
</event>
<event>
10    4  0.3043429E-005  0.2217546E+03  0.7546771E-02  0.1161231E+00
          2   -1    0    0  502    0 -0.00000000000E+00  0.00000000000E+00  0.28861846229E+03  0.28861846229E+03  0.00000000000E+00 0. -1.
         21   -1    0    0  503  502  0.00000000000E+00 -0.00000000000E+00 -0.36862525763E+03  0.36862525763E+03  0.00000000000E+00 0.  1.
         23    2    1    2    0    0  0.53066465119E+02  0.38368165538E+02  0.96215012777E+02  0.14746883799E+03  0.90562484768E+02 0.  0.
         24    2    1    2    0    0  0.14032217041E+02  0.17551460569E+03 -0.12611104651E+03  0.23120403012E+03  0.80926062358E+02 0.  0.
        -11    1    4    4    0    0 -0.41745213174E+01  0.14308008955E+03 -0.13056445676E+03  0.19374317026E+03  0.00000000000E+00 0.  1.
         12    1    4    4    0    0  0.18206738358E+02  0.32434516139E+02  0.44534102505E+01  0.37460859863E+02  0.00000000000E+00 0. -1.
        -11    1    3    3    0    0  0.36412208993E+02 -0.19120498711E+02  0.96785614136E+01  0.42250644797E+02  0.00000000000E+00 0.  1.
         11    1    3    3    0    0  0.16654256127E+02  0.57488664249E+02  0.86536451364E+02  0.10521819319E+03  0.00000000000E+00 0. -1.
         21    1    1    2  503  501 -0.10739139776E+02  0.25470950724E+02 -0.10142042858E+02  0.29444175778E+02  0.00000000000E+00 0. -1.
          1    1    1    2  501    0 -0.56359542384E+02 -0.23935372195E+03 -0.39968718751E+02  0.24912667602E+03  0.00000000000E+00 0. -1.
<scales pt_clust_5="13000.00000" pt_clust_6="13000.00000" pt_clust_7="13000.00000" pt_clust_8="13000.00000" pt_clust_9="27.64233" pt_clust_10="206.46093"></scales>
<clustering>
<clus scale="   27.642">  2  9  1 -1</clus>
<clus scale="   80.926">  5  6 -1 -1</clus>
<clus scale="   90.562">  7  8 -1 -1</clus>
<clus scale="  112.043">  1  7  2 -1</clus>
<clus scale="  206.461">  2 10  1 -1</clus>
<clus scale="   27.642">  2  5  1 -1</clus>
</clustering>
</event>
<event>
10    4  0.3043429E-005  0.1422880E+03  0.7546771E-02  0.1235379E+00
          2   -1    0    0  502    0 -0.00000000000E+00  0.00000000000E+00  0.18137143338E+03  0.18137143338E+03  0.00000000000E+00 0. -1.
         21   -1    0    0  503  502  0.00000000000E+00 -0.00000000000E+00 -0.23739709318E+03  0.23739709318E+03  0.00000000000E+00 0. -1.
         24    2    1    2    0    0 -0.23622250832E+02  0.15832109489E+01  0.41174067314E+02  0.93777309825E+02  0.80860143009E+02 0.  0.
         23    2    1    2    0    0  0.68000363076E+02 -0.95182312384E+02  0.27240738126E+02  0.15759862167E+03  0.10203698236E+03 0.  0.
        -13    1    3    3    0    0 -0.41092001036E+02 -0.23854475959E+02  0.41244816660E+02  0.62918387406E+02  0.00000000000E+00 0.  1.
         14    1    3    3    0    0  0.17469750204E+02  0.25437686908E+02 -0.70749345447E-01  0.30858922419E+02  0.00000000000E+00 0. -1.
        -11    1    4    4    0    0  0.30362568178E+02 -0.10084186734E+03 -0.81468271998E+01  0.10562830373E+03  0.00000000000E+00 0. -1.
         11    1    4    4    0    0  0.37637794899E+02  0.56595549545E+01  0.35387565326E+02  0.51970317940E+02  0.00000000000E+00 0.  1.
         21    1    1    2  503  501  0.36091363797E+01  0.19988893529E+02 -0.43129832893E+02  0.47673516917E+02  0.00000000000E+00 0. -1.
          1    1    1    2  501    0 -0.47987248623E+02  0.73610207907E+02 -0.81310632347E+02  0.11971907814E+03  0.00000000000E+00 0. -1.
<scales pt_clust_5="13000.00000" pt_clust_6="13000.00000" pt_clust_7="13000.00000" pt_clust_8="13000.00000" pt_clust_9="20.31211" pt_clust_10="99.16825"></scales>
<clustering>
<clus scale="   20.312">  2  9  1 -1</clus>
<clus scale="   80.860">  5  6 -1 -1</clus>
<clus scale="   84.214">  1  5  2 -1</clus>
<clus scale="   99.168">  2 10  1 -1</clus>
<clus scale="  102.037">  7  8 -1 -1</clus>
<clus scale="   20.312">  2  5  1 -1</clus>
</clustering>
</event>
<event>
10    4  0.3043429E-005  0.1948281E+03  0.7546771E-02  0.1165147E+00
          2   -1    0    0  503    0 -0.00000000000E+00  0.00000000000E+00  0.14598737515E+04  0.14598737515E+04  0.00000000000E+00 0. -1.
         21   -1    0    0  501  502  0.00000000000E+00 -0.00000000000E+00 -0.68366112921E+02  0.68366112921E+02  0.00000000000E+00 0. -1.
         24    2    1    2    0    0  0.53540117562E+02  0.11028973068E+03  0.38487566786E+03  0.41515280620E+03  0.95875981872E+02 0.  0.
         23    2    1    2    0    0 -0.17374416443E+03  0.68978408721E+02  0.29861022063E+03  0.36412676523E+03  0.92060750326E+02 0.  0.
        -11    1    3    3    0    0  0.72328654381E+02  0.44932920945E+02  0.17659415375E+03  0.19605075049E+03  0.00000000000E+00 0.  1.
         12    1    3    3    0    0 -0.18788536819E+02  0.65356809737E+02  0.20828151411E+03  0.21910205571E+03  0.00000000000E+00 0. -1.
        -13    1    4    4    0    0 -0.95554625246E+02  0.16045571081E+02  0.22307577264E+03  0.24320967723E+03  0.00000000000E+00 0.  1.
         13    1    4    4    0    0 -0.78189539184E+02  0.52932837639E+02  0.75534447982E+02  0.12091708800E+03  0.00000000000E+00 0. -1.
         21    1    1    2  503  502  0.10749532370E+02 -0.32662652360E+02  0.26796432956E+02  0.43594152412E+02  0.00000000000E+00 0. -1.
          1    1    1    2  501    0  0.10945451450E+03 -0.14660548704E+03  0.68122531718E+03  0.70536614063E+03  0.00000000000E+00 0. -1.
<scales pt_clust_5="13000.00000" pt_clust_6="13000.00000" pt_clust_7="13000.00000" pt_clust_8="13000.00000" pt_clust_9="34.38606" pt_clust_10="171.70571"></scales>
<clustering>
<clus scale="   34.386">  2  9  1 -1</clus>
<clus scale="   92.061">  7  8 -1 -1</clus>
<clus scale="   95.876">  5  6 -1 -1</clus>
<clus scale="  150.896">  1  5  2 -1</clus>
<clus scale="  171.706">  2 10  1 -1</clus>
<clus scale="   34.386">  2  5  1 -1</clus>
</clustering>
</event>
<event>
10    4  0.3043429E-005  0.1054295E+03  0.7546771E-02  0.1272635E+00
         -1   -1    0    0    0  501 -0.00000000000E+00  0.00000000000E+00  0.85550355795E+02  0.85550355795E+02  0.00000000000E+00 0.  1.
         21   -1    0    0  501  502  0.00000000000E+00 -0.00000000000E+00 -0.50238134606E+03  0.50238134606E+03  0.00000000000E+00 0.  1.
         24    2    1    2    0    0  0.10345613196E+02  0.20803841161E+02 -0.79609362608E+02  0.11580048857E+03  0.80822466053E+02 0.  0.
         23    2    1    2    0    0 -0.85970348223E+02 -0.83562856076E+02 -0.14689560094E+03  0.20937193601E+03  0.88795485940E+02 0.  0.
        -11    1    3    3    0    0  0.42134505777E+02  0.21953710406E+02 -0.65709464168E+02  0.81086470258E+02  0.00000000000E+00 0.  1.
         12    1    3    3    0    0 -0.31788892580E+02 -0.11498692447E+01 -0.13899898440E+02  0.34714018313E+02  0.00000000000E+00 0. -1.
        -11    1    4    4    0    0  0.17741086758E+02 -0.20997232314E+02 -0.34720265944E+02  0.44284611226E+02  0.00000000000E+00 0. -1.
         11    1    4    4    0    0 -0.10371143498E+03 -0.62565623762E+02 -0.11217533500E+03  0.16508732479E+03  0.00000000000E+00 0.  1.
         21    1    1    2  503  502  0.19958594567E+02  0.17425048409E+02 -0.18911145097E+03  0.19095842138E+03  0.00000000000E+00 0.  1.
         -2    1    1    2    0  503  0.55666140459E+02  0.45333966506E+02 -0.12145757475E+01  0.71800855893E+02  0.00000000000E+00 0.  1.
<scales pt_clust_5="13000.00000" pt_clust_6="13000.00000" pt_clust_7="13000.00000" pt_clust_8="13000.00000" pt_clust_9="26.49486" pt_clust_10="74.88565"></scales>
<clustering>
<clus scale="   26.495">  2  9  1 -1</clus>
<clus scale="   74.886">  2 10  1 -1</clus>
<clus scale="   80.822">  5  6 -1 -1</clus>
<clus scale="   88.795">  7  8 -1 -1</clus>
<clus scale="   98.808">  1  5  2 -1</clus>
<clus scale="   26.495">  2  5  1 -1</clus>
</clustering>
</event>
<event>
10    4  0.3043429E-005  0.1121596E+03  0.7546771E-02  0.1259984E+00
         21   -1    0    0  503  502  0.00000000000E+00  0.00000000000E+00  0.64653092227E+03  0.64653092227E+03  0.00000000000E+00 0.  1.
         -1   -1    0    0    0  501 -0.00000000000E+00 -0.00000000000E+00 -0.62011096790E+02  0.62011096790E+02  0.00000000000E+00 0.  1.
         23    2    1    2    0    0  0.39553221323E+02  0.52528798205E+02  0.89341795434E+02  0.14350788605E+03  0.91042984292E+02 0.  0.
         24    2    1    2    0    0 -0.24987659180E+02 -0.61431007008E+02  0.42980984634E+03  0.44256321940E+03  0.82021627784E+02 0.  0.
        -11    1    4    4    0    0 -0.50838383970E+02 -0.52574680591E+02  0.36454622112E+03  0.37180987838E+03  0.00000000000E+00 0.  1.
         12    1    4    4    0    0  0.25850724791E+02 -0.88563264171E+01  0.65263625213E+02  0.70753341022E+02  0.00000000000E+00 0. -1.
        -13    1    3    3    0    0  0.23484932575E+02  0.72184404120E+02  0.90467495189E+02  0.11809529179E+03  0.00000000000E+00 0.  1.
         13    1    3    3    0    0  0.16068288748E+02 -0.19655605916E+02 -0.11256997550E+01  0.25412594262E+02  0.00000000000E+00 0. -1.
         21    1    1    2  503  501 -0.32422693574E+02  0.18933282072E+02  0.85729235545E+02  0.93590608801E+02  0.00000000000E+00 0.  1.
         -2    1    1    2    0  502  0.17857131431E+02 -0.10031073268E+02 -0.20361051839E+02  0.28880304808E+02  0.00000000000E+00 0.  1.
<scales pt_clust_5="13000.00000" pt_clust_6="13000.00000" pt_clust_7="13000.00000" pt_clust_8="13000.00000" pt_clust_9="34.68720" pt_clust_10="20.48170"></scales>
<clustering>
<clus scale="   20.482">  1 10  2 -1</clus>
<clus scale="   34.687">  1  9  2 -1</clus>
<clus scale="   82.022">  5  6 -1 -1</clus>
<clus scale="   91.043">  7  8 -1 -1</clus>
<clus scale="  104.969">  1  5  2 -1</clus>
<clus scale="   20.482">  1  5  2 -1</clus>
</clustering>
</event>
<event>
10    4  0.3043429E-005  0.9760840E+02  0.7546771E-02  0.1290279E+00
          2   -1    0    0  503    0 -0.00000000000E+00  0.00000000000E+00  0.57504709818E+03  0.57504709818E+03  0.00000000000E+00 0. -1.
         21   -1    0    0  501  502  0.00000000000E+00 -0.00000000000E+00 -0.27929224701E+02  0.27929224701E+02  0.00000000000E+00 0.  1.
         23    2    1    2    0    0  0.29362131417E+02  0.27718584483E+02  0.31039413597E+03  0.32557565404E+03  0.89579753145E+02 0.  0.
         24    2    1    2    0    0 -0.23441876519E+02 -0.27394016094E+02  0.13072534773E+03  0.15754103077E+03  0.80187942627E+02 0.  0.
        -11    1    4    4    0    0  0.19824713321E+02 -0.25105108798E+02  0.17841692220E+02  0.36628018337E+02  0.00000000000E+00 0.  1.
         12    1    4    4    0    0 -0.43266589841E+02 -0.22889072964E+01  0.11288365551E+03  0.12091301243E+03  0.00000000000E+00 0. -1.
        -13    1    3    3    0    0  0.55608092932E+02  0.23422478866E+02  0.27360901842E+03  0.28018345325E+03  0.00000000000E+00 0.  1.
         13    1    3    3    0    0 -0.26245961515E+02  0.42961056175E+01  0.36785117545E+02  0.45392200786E+02  0.00000000000E+00 0. -1.
         21    1    1    2  503  502  0.44907297527E+01  0.24986349065E+02  0.31273344416E+02  0.40280347123E+02  0.00000000000E+00 0.  1.
          1    1    1    2  501    0 -0.10410984651E+02 -0.25310917454E+02  0.74725045361E+02  0.79579290949E+02  0.00000000000E+00 0. -1.
<scales pt_clust_5="13000.00000" pt_clust_6="13000.00000" pt_clust_7="13000.00000" pt_clust_8="13000.00000" pt_clust_9="25.38670" pt_clust_10="24.80346"></scales>
<clustering>
<clus scale="   25.387">  2  9  1 -1</clus>
<clus scale="   24.803">  2 10  1 -1</clus>
<clus scale="   80.188">  5  6 -1 -1</clus>
<clus scale="   89.067">  2  5  1 -1</clus>
<clus scale="   89.580">  7  8 -1 -1</clus>
<clus scale="   25.387">  2  5  1 -1</clus>
</clustering>
</event>
<event>
10    4  0.3043429E-005  0.1344197E+03  0.7546771E-02  0.1230290E+00
         21   -1    0    0  503  502  0.00000000000E+00  0.00000000000E+00  0.78835525969E+02  0.78835525969E+02  0.00000000000E+00 0. -1.
          2   -1    0    0  502    0 -0.00000000000E+00 -0.00000000000E+00 -0.77831419433E+03  0.77831419433E+03  0.00000000000E+00 0. -1.
         24    2    1    2    0    0 -0.54518882050E+02 -0.67011990071E+02 -0.37015787995E+02  0.12318103969E+03  0.79627160344E+02 0.  0.
         23    2    1    2    0    0 -0.82747845231E+02 -0.19759963650E+02 -0.22391734559E+03  0.25689776439E+03  0.92842994565E+02 0.  0.
        -13    1    3    3    0    0 -0.25564490265E+02  0.11222280382E+02  0.71084328133E+01  0.28809938503E+02  0.00000000000E+00 0.  1.
         14    1    3    3    0    0 -0.28954391785E+02 -0.78234270452E+02 -0.44124220808E+02  0.94371101185E+02  0.00000000000E+00 0. -1.
        -13    1    4    4    0    0 -0.21474998960E+02  0.19071175512E+02 -0.15221347740E+03  0.15489941258E+03  0.00000000000E+00 0.  1.
         13    1    4    4    0    0 -0.61272846270E+02 -0.38831139162E+02 -0.71703868187E+02  0.10199835181E+03  0.00000000000E+00 0. -1.
         21    1    1    2  503  501  0.33933651993E+02 -0.38620448894E+01 -0.28114164300E+02  0.44235894504E+02  0.00000000000E+00 0. -1.
          1    1    1    2  501    0  0.10333307529E+03  0.90633998610E+02 -0.41043137048E+03  0.43283502172E+03  0.00000000000E+00 0. -1.
<scales pt_clust_5="13000.00000" pt_clust_6="13000.00000" pt_clust_7="13000.00000" pt_clust_8="13000.00000" pt_clust_9="34.15272" pt_clust_10="97.20517"></scales>
<clustering>
<clus scale="   34.153">  1  9  2 -1</clus>
<clus scale="   79.627">  5  6 -1 -1</clus>
<clus scale="   92.843">  7  8 -1 -1</clus>
<clus scale="  110.898">  2  5  1 -1</clus>
<clus scale="   97.205">  1 10  2 -1</clus>
<clus scale="   34.153">  1  5  2 -1</clus>
</clustering>
</event>
<event>
10    4  0.3043429E-005  0.1485874E+03  0.7546771E-02  0.1204249E+00
         21   -1    0    0  503  502  0.00000000000E+00  0.00000000000E+00  0.14383884075E+03  0.14383884075E+03  0.00000000000E+00 0.  1.
          2   -1    0    0  502    0 -0.00000000000E+00 -0.00000000000E+00 -0.10416134246E+04  0.10416134246E+04  0.00000000000E+00 0. -1.
         24    2    1    2    0    0 -0.35236302196E+02  0.14037831164E+03 -0.72094915116E+03  0.73953087988E+03  0.78680215799E+02 0.  0.
         23    2    1    2    0    0  0.76377340010E+02 -0.37869050164E+02 -0.16771354275E+03  0.20841999276E+03  0.89685550296E+02 0.  0.
        -11    1    3    3    0    0 -0.49757654454E+02  0.57653025359E+02 -0.25722036900E+03  0.26825736474E+03  0.00000000000E+00 0.  1.
         12    1    3    3    0    0  0.14521352258E+02  0.82725286282E+02 -0.46372878216E+03  0.47127351513E+03  0.00000000000E+00 0. -1.
        -11    1    4    4    0    0  0.10863286992E+02  0.26422603987E+02 -0.21390635367E+02  0.35689274119E+02  0.00000000000E+00 0. -1.
         11    1    4    4    0    0  0.65514053018E+02 -0.64291654151E+02 -0.14632290738E+03  0.17273071864E+03  0.00000000000E+00 0.  1.
         21    1    1    2  503  501  0.27697850543E+02 -0.38731424828E+01  0.81979605356E+02  0.86618865449E+02  0.00000000000E+00 0.  1.
          1    1    1    2  501    0 -0.68838888357E+02 -0.98636118994E+02 -0.91091495307E+02  0.15088252728E+03  0.00000000000E+00 0. -1.
<scales pt_clust_5="13000.00000" pt_clust_6="13000.00000" pt_clust_7="13000.00000" pt_clust_8="13000.00000" pt_clust_9="27.96734" pt_clust_10="114.60357"></scales>
<clustering>
<clus scale="   27.967">  1  9  2 -1</clus>
<clus scale="   78.680">  5  6 -1 -1</clus>
<clus scale="   89.686">  7  8 -1 -1</clus>
<clus scale="  114.604">  1 10  2 -1</clus>
<clus scale="  142.216">  2  5  1 -1</clus>
<clus scale="   27.967">  1  5  2 -1</clus>
</clustering>
</event>
<event>
10    4  0.3043429E-005  0.3708335E+03  0.7546771E-02  0.1054807E+00
          2   -1    0    0  502    0 -0.00000000000E+00  0.00000000000E+00  0.19705804975E+04  0.19705804975E+04  0.00000000000E+00 0. -1.
         21   -1    0    0  503  502  0.00000000000E+00 -0.00000000000E+00 -0.18841727213E+03  0.18841727213E+03  0.00000000000E+00 0. -1.
         23    2    1    2    0    0  0.27018976932E+03 -0.11024979446E+03  0.43611230613E+03  0.53399113877E+03  0.98970016187E+02 0.  0.
         24    2    1    2    0    0 -0.43561142491E+03  0.34695200081E+02  0.87924775305E+03  0.98514448107E+03  0.80448535924E+02 0.  0.
        -13    1    4    4    0    0 -0.13931179160E+03  0.27788935816E+02  0.36397309075E+03  0.39071269627E+03  0.00000000000E+00 0.  1.
         14    1    4    4    0    0 -0.29629963331E+03  0.69062642653E+01  0.51527466229E+03  0.59443178481E+03  0.00000000000E+00 0. -1.
        -13    1    3    3    0    0  0.15629669478E+03 -0.46031358625E+02  0.15937644383E+03  0.22792190247E+03  0.00000000000E+00 0.  1.
         13    1    3    3    0    0  0.11389307454E+03 -0.64218435831E+02  0.27673586230E+03  0.30606923630E+03  0.00000000000E+00 0. -1.
         21    1    1    2  503  501 -0.26910517932E+02 -0.73031629870E+01 -0.63691296271E+02  0.69527644758E+02  0.00000000000E+00 0. -1.
          1    1    1    2  501    0  0.19233217352E+03  0.82857757362E+02  0.53049446251E+03  0.57033450507E+03  0.00000000000E+00 0. -1.
<scales pt_clust_5="13000.00000" pt_clust_6="13000.00000" pt_clust_7="13000.00000" pt_clust_8="13000.00000" pt_clust_9="27.88391" pt_clust_10="204.90763"></scales>
<clustering>
<clus scale="   27.884">  2  9  1 -1</clus>
<clus scale="   80.449">  5  6 -1 -1</clus>
<clus scale="   98.970">  7  8 -1 -1</clus>
<clus scale="  204.908">  2 10  1 -1</clus>
<clus scale="  366.325">  2  5  1 -1</clus>
<clus scale="   27.884">  2  5  1 -1</clus>
</clustering>
</event>
<event>
10    4  0.3043429E-005  0.3068135E+03  0.7546771E-02  0.1128060E+00
          2   -1    0    0  502    0 -0.00000000000E+00  0.00000000000E+00  0.64616533118E+03  0.64616533118E+03  0.00000000000E+00 0. -1.
         21   -1    0    0  503  502  0.00000000000E+00 -0.00000000000E+00 -0.22748321880E+03  0.22748321880E+03  0.00000000000E+00 0. -1.
         23    2    1    2    0    0  0.14623338772E+02  0.82428102572E+01  0.10019981486E+03  0.13721413354E+03  0.92227596662E+02 0.  0.
         24    2    1    2    0    0 -0.28965278844E+03 -0.12586940774E+02  0.96786253458E+02  0.31662319623E+03  0.82616587916E+02 0.  0.
        -11    1    4    4    0    0 -0.62528872030E+02  0.10733053857E+01  0.58992027465E+02  0.85971338981E+02  0.00000000000E+00 0.  1.
         12    1    4    4    0    0 -0.22712391641E+03 -0.13660246160E+02  0.37794225993E+02  0.23065185725E+03  0.00000000000E+00 0. -1.
        -13    1    3    3    0    0  0.23805200014E+02 -0.38348118903E+02  0.38289725170E+02  0.59189262748E+02  0.00000000000E+00 0.  1.
         13    1    3    3    0    0 -0.91818612423E+01  0.46590929160E+02  0.61910089690E+02  0.78024870787E+02  0.00000000000E+00 0. -1.
         21    1    1    2  503  501 -0.20140027447E+02  0.10039696038E+02 -0.26038569580E+02  0.34415451586E+02  0.00000000000E+00 0.  1.
          1    1    1    2  501    0  0.29516947712E+03 -0.56955655206E+01  0.24773461364E+03  0.38539576864E+03  0.00000000000E+00 0. -1.
<scales pt_clust_5="13000.00000" pt_clust_6="13000.00000" pt_clust_7="13000.00000" pt_clust_8="13000.00000" pt_clust_9="22.50369" pt_clust_10="295.48116"></scales>
<clustering>
<clus scale="   22.504">  2  9  1 -1</clus>
<clus scale="   82.617">  5  6 -1 -1</clus>
<clus scale="   92.228">  7  8 -1 -1</clus>
<clus scale="   93.554">  1  7  2 -1</clus>
<clus scale="  295.481">  2 10  1 -1</clus>
<clus scale="   22.504">  2  5  1 -1</clus>
</clustering>
</event>
<event>
10    4  0.3043429E-005  0.9626296E+02  0.7546771E-02  0.1297324E+00
         -3   -1    0    0    0  501 -0.00000000000E+00  0.00000000000E+00  0.58831304345E+03  0.58831304345E+03  0.00000000000E+00 0.  1.
         21   -1    0    0  503  502  0.00000000000E+00 -0.00000000000E+00 -0.77742063318E+02  0.77742063318E+02  0.00000000000E+00 0. -1.
         24    2    1    2    0    0  0.54587084977E+01 -0.18017162498E+01  0.16398501740E+03  0.18293106116E+03  0.80868062459E+02 0.  0.
         23    2    1    2    0    0  0.85669814452E+02  0.19994041738E+02  0.28122944418E+02  0.13305501309E+03  0.95779213258E+02 0.  0.
        -11    1    3    3    0    0 -0.37673787482E+02  0.46045389043E+00  0.69963465331E+02  0.79463279331E+02  0.00000000000E+00 0.  1.
         12    1    3    3    0    0  0.43132495980E+02 -0.22621701402E+01  0.94021552064E+02  0.10346778183E+03  0.00000000000E+00 0. -1.
        -11    1    4    4    0    0  0.51759502822E+02  0.56577010046E+02  0.19102783685E+01  0.76704976120E+02  0.00000000000E+00 0. -1.
         11    1    4    4    0    0  0.33910311630E+02 -0.36582968308E+02  0.26212666049E+02  0.56350036969E+02  0.00000000000E+00 0.  1.
         21    1    1    2  503  501 -0.19807600859E+02  0.74016482612E+01 -0.15549680717E+01  0.21202437937E+02  0.00000000000E+00 0.  1.
         -4    1    1    2    0  502 -0.71320922090E+02 -0.25593973750E+02  0.32001798639E+03  0.32886659459E+03  0.00000000000E+00 0.  1.
<scales pt_clust_5="13000.00000" pt_clust_6="13000.00000" pt_clust_7="13000.00000" pt_clust_8="13000.00000" pt_clust_9="21.14534" pt_clust_10="76.85586"></scales>
<clustering>
<clus scale="   21.145">  2  9  1 -1</clus>
<clus scale="   76.856">  2 10  1 -1</clus>
<clus scale="   80.868">  5  6 -1 -1</clus>
<clus scale="   81.440">  1  5  2 -1</clus>
<clus scale="   95.779">  7  8 -1 -1</clus>
<clus scale="   21.145">  2  5  1 -1</clus>
</clustering>
</event>
<event>
10    4  0.3043429E-005  0.1326048E+03  0.7546771E-02  0.1236995E+00
         21   -1    0    0  503  502  0.00000000000E+00  0.00000000000E+00  0.25628573999E+03  0.25628573999E+03  0.00000000000E+00 0.  1.
         -1   -1    0    0    0  501 -0.00000000000E+00 -0.00000000000E+00 -0.30109859502E+03  0.30109859502E+03  0.00000000000E+00 0.  1.
         24    2    1    2    0    0 -0.46537584016E+02  0.52402701441E+02 -0.43269915251E+02  0.11631261069E+03  0.82125197073E+02 0.  0.
         23    2    1    2    0    0  0.32412501500E+02  0.84849440473E+02  0.83656364439E+02  0.15446380109E+03  0.92793753750E+02 0.  0.
        -13    1    3    3    0    0 -0.54641773360E+02  0.17945768181E+01 -0.11059726351E+02  0.55778682746E+02  0.00000000000E+00 0.  1.
         14    1    3    3    0    0  0.81041893444E+01  0.50608124623E+02 -0.32210188900E+02  0.60533927940E+02  0.00000000000E+00 0. -1.
        -11    1    4    4    0    0  0.49471145543E+02  0.42278464195E+02  0.86810476880E+02  0.10849387850E+03  0.00000000000E+00 0.  1.
         11    1    4    4    0    0 -0.17058644043E+02  0.42570976278E+02 -0.31541124412E+01  0.45969922592E+02  0.00000000000E+00 0. -1.
         21    1    1    2  503  501 -0.48250224590E+02 -0.85419272578E+02  0.63758718255E+02  0.11700303609E+03  0.00000000000E+00 0. -1.
         -2    1    1    2    0  502  0.62375307106E+02 -0.51832869337E+02 -0.14895802247E+03  0.16960488713E+03  0.00000000000E+00 0.  1.
<scales pt_clust_5="13000.00000" pt_clust_6="13000.00000" pt_clust_7="13000.00000" pt_clust_8="13000.00000" pt_clust_9="94.72782" pt_clust_10="81.10075"></scales>
<clustering>
<clus scale="   81.101">  1 10  2 -1</clus>
<clus scale="   82.125">  5  6 -1 -1</clus>
<clus scale="   92.794">  7  8 -1 -1</clus>
<clus scale="  100.661">  2  5  1 -1</clus>
<clus scale="   94.728">  2  9  1 -1</clus>
<clus scale="   81.101">  1  5  2 -1</clus>
</clustering>
</event>
<event>
10    4  0.3043429E-005  0.3560662E+03  0.7546771E-02  0.1060152E+00
         21   -1    0    0  503  502  0.00000000000E+00  0.00000000000E+00  0.17511269785E+03  0.17511269785E+03  0.00000000000E+00 0.  1.
          2   -1    0    0  502    0 -0.00000000000E+00 -0.00000000000E+00 -0.18656822455E+04  0.18656822455E+04  0.00000000000E+00 0. -1.
         24    2    1    2    0    0  0.19430303537E+03  0.46693604437E+02 -0.55912080196E+02  0.22225600610E+03  0.79609103042E+02 0.  0.
         23    2    1    2    0    0  0.70525411085E+02  0.32386868948E+02 -0.12100136639E+03  0.17039458183E+03  0.91489015515E+02 0.  0.
        -11    1    3    3    0    0  0.11631581479E+03  0.14514976218E+02  0.63711489767E+01  0.11739099133E+03  0.00000000000E+00 0.  1.
         12    1    3    3    0    0  0.77987220575E+02  0.32178628219E+02 -0.62283229172E+02  0.10486501477E+03  0.00000000000E+00 0. -1.
        -13    1    4    4    0    0  0.80609316705E+02  0.14616381677E+02 -0.12511710413E+03  0.14955196521E+03  0.00000000000E+00 0.  1.
         13    1    4    4    0    0 -0.10083905620E+02  0.17770487271E+02  0.41157377384E+01  0.20842616619E+02  0.00000000000E+00 0. -1.
         21    1    1    2  503  501  0.14815717567E+02 -0.27485323973E+02  0.49941527637E+02  0.58899106136E+02  0.00000000000E+00 0.  1.
          1    1    1    2  501    0 -0.27964416402E+03 -0.51595149412E+02 -0.15635976287E+04  0.15892452493E+04  0.00000000000E+00 0. -1.
<scales pt_clust_5="13000.00000" pt_clust_6="13000.00000" pt_clust_7="13000.00000" pt_clust_8="13000.00000" pt_clust_9="31.22417" pt_clust_10="283.36360"></scales>
<clustering>
<clus scale="   31.224">  1  9  2 -1</clus>
<clus scale="   79.609">  5  6 -1 -1</clus>
<clus scale="   91.489">  7  8 -1 -1</clus>
<clus scale="   99.173">  5  7 -1 -1</clus>
<clus scale="  283.364">  1 10  2 -1</clus>
<clus scale="   31.224">  1  5  2 -1</clus>
</clustering>
</event>
<event>
10    4  0.3043429E-005  0.3775976E+03  0.7546771E-02  0.1051825E+00
          4   -1    0    0  503    0 -0.00000000000E+00  0.00000000000E+00  0.87772582753E+03  0.87772582753E+03  0.00000000000E+00 0. -1.
         21   -1    0    0  501  502  0.00000000000E+00 -0.00000000000E+00 -0.10096929990E+04  0.10096929990E+04  0.00000000000E+00 0. -1.
         24    2    1    2    0    0  0.98866966002E+02 -0.20940580030E+03  0.35227523790E+03  0.42756385889E+03  0.71327021744E+02 0.  0.
         23    2    1    2    0    0  0.27348408834E+02 -0.33108671312E+02  0.10535622887E+02  0.10130997517E+03  0.91151479069E+02 0.  0.
        -11    1    3    3    0    0 -0.48764870020E+01 -0.57211029977E+02  0.70420486807E+02  0.90862132039E+02  0.00000000000E+00 0.  1.
         12    1    3    3    0    0  0.10374345300E+03 -0.15219477032E+03  0.28185475109E+03  0.33670172685E+03  0.00000000000E+00 0. -1.
        -13    1    4    4    0    0  0.24491948074E+02 -0.57666979324E+02 -0.16384184330E+02  0.64759381721E+02  0.00000000000E+00 0. -1.
         13    1    4    4    0    0  0.28564607607E+01  0.24558308012E+02  0.26919807217E+02  0.36550593444E+02  0.00000000000E+00 0.  1.
         21    1    1    2  503  502 -0.40136877965E+02  0.14803801331E+03 -0.91064965349E+03  0.92347659080E+03  0.00000000000E+00 0. -1.
          3    1    1    2  501    0 -0.86078496871E+02  0.94476458302E+02  0.41587162123E+03  0.43506840168E+03  0.00000000000E+00 0. -1.
<scales pt_clust_5="13000.00000" pt_clust_6="13000.00000" pt_clust_7="13000.00000" pt_clust_8="13000.00000" pt_clust_9="263.14961" pt_clust_10="127.80972"></scales>
<clustering>
<clus scale="   71.327">  5  6 -1 -1</clus>
<clus scale="   91.151">  7  8 -1 -1</clus>
<clus scale="   99.670">  5  7 -1 -1</clus>
<clus scale="  127.810">  2 10  1 -1</clus>
<clus scale="  263.150">  2  9  1 -1</clus>
<clus scale="  127.810">  2  5  1 -1</clus>
</clustering>
</event>
<event>
10    4  0.3043429E-005  0.2690142E+03  0.7546771E-02  0.1137127E+00
         21   -1    0    0  503  502  0.00000000000E+00  0.00000000000E+00  0.18218376286E+03  0.18218376286E+03  0.00000000000E+00 0.  1.
          2   -1    0    0  502    0 -0.00000000000E+00 -0.00000000000E+00 -0.10516072672E+04  0.10516072672E+04  0.00000000000E+00 0. -1.
         24    2    1    2    0    0  0.39372063490E+02  0.60573997669E+02 -0.90550566490E+02  0.14128414186E+03  0.80885320492E+02 0.  0.
         23    2    1    2    0    0 -0.17819529914E+03  0.11899014236E+03 -0.94079887500E+01  0.23273507129E+03  0.90359750677E+02 0.  0.
        -11    1    3    3    0    0  0.41614494868E+02  0.20759114667E+02 -0.48466085793E+01  0.46756781750E+02  0.00000000000E+00 0.  1.
         12    1    3    3    0    0 -0.22424313778E+01  0.39814883002E+02 -0.85703957911E+02  0.94527360106E+02  0.00000000000E+00 0. -1.
        -13    1    4    4    0    0 -0.47064093662E+02  0.59459908053E+02  0.32865079010E+02  0.82647583123E+02  0.00000000000E+00 0.  1.
         13    1    4    4    0    0 -0.13113120548E+03  0.59530234307E+02 -0.42273067760E+02  0.15008748817E+03  0.00000000000E+00 0. -1.
         21    1    1    2  503  501 -0.30233407864E+02  0.47570925018E+02 -0.22054205767E+02  0.60526356657E+02  0.00000000000E+00 0.  1.
          1    1    1    2  501    0  0.16905664351E+03 -0.22713506505E+03 -0.74741074331E+03  0.79924546023E+03  0.00000000000E+00 0. -1.
<scales pt_clust_5="13000.00000" pt_clust_6="13000.00000" pt_clust_7="13000.00000" pt_clust_8="13000.00000" pt_clust_9="56.36534" pt_clust_10="253.38472"></scales>
<clustering>
<clus scale="   56.365">  1  9  2 -1</clus>
<clus scale="   80.885">  5  6 -1 -1</clus>
<clus scale="   90.360">  7  8 -1 -1</clus>
<clus scale="  111.200">  2  5  1 -1</clus>
<clus scale="  253.385">  1 10  2 -1</clus>
<clus scale="   56.365">  1  5  2 -1</clus>
</clustering>
</event>
<event>
10    4  0.3043429E-005  0.1590063E+03  0.7546771E-02  0.1214653E+00
         21   -1    0    0  503  502  0.00000000000E+00  0.00000000000E+00  0.65640760162E+03  0.65640760162E+03  0.00000000000E+00 0.  1.
          2   -1    0    0  502    0 -0.00000000000E+00 -0.00000000000E+00 -0.94316161005E+02  0.94316161005E+02  0.00000000000E+00 0. -1.
         24    2    1    2    0    0 -0.19033807487E+02 -0.38318862126E+02  0.90478739451E+02  0.12733384652E+03  0.78720296962E+02 0.  0.
         23    2    1    2    0    0 -0.75153867591E+02  0.15463373740E+03  0.30660932531E+03  0.36284957550E+03  0.89949094026E+02 0.  0.
        -13    1    3    3    0    0  0.29536834929E+02 -0.44759788744E+01  0.37015847786E+02  0.47567131423E+02  0.00000000000E+00 0.  1.
         14    1    3    3    0    0 -0.48570642416E+02 -0.33842883252E+02  0.53462891664E+02  0.79766715092E+02  0.00000000000E+00 0. -1.
        -11    1    4    4    0    0  0.17975704087E+02  0.91026277648E+01  0.21440642489E+02  0.29422524024E+02  0.00000000000E+00 0. -1.
         11    1    4    4    0    0 -0.93129571678E+02  0.14553110963E+03  0.28516868282E+03  0.33342705147E+03  0.00000000000E+00 0.  1.
         21    1    1    2  503  501  0.19287539679E+02 -0.40704155399E+02  0.14553504632E+03  0.15234594567E+03  0.00000000000E+00 0.  1.
          1    1    1    2  501    0  0.74900135399E+02 -0.75610719870E+02  0.19468329528E+02  0.10819439494E+03  0.00000000000E+00 0. -1.
<scales pt_clust_5="13000.00000" pt_clust_6="13000.00000" pt_clust_7="13000.00000" pt_clust_8="13000.00000" pt_clust_9="45.04262" pt_clust_10="131.11899"></scales>
<clustering>
<clus scale="   45.043">  1  9  2 -1</clus>
<clus scale="   78.720">  5  6 -1 -1</clus>
<clus scale="   89.949">  7  8 -1 -1</clus>
<clus scale="   92.913">  2  5  1 -1</clus>
<clus scale="  131.119">  1 10  2 -1</clus>
<clus scale="   45.043">  1  5  2 -1</clus>
</clustering>
</event>
<event>
10    4  0.3043429E-005  0.9817413E+02  0.7546771E-02  0.1290795E+00
          2   -1    0    0  502    0 -0.00000000000E+00  0.00000000000E+00  0.12871911691E+03  0.12871911691E+03  0.00000000000E+00 0. -1.
         21   -1    0    0  503  502  0.00000000000E+00 -0.00000000000E+00 -0.54966516793E+03  0.54966516793E+03  0.00000000000E+00 0.  1.
         23    2    1    2    0    0  0.76740445664E+00  0.32222958023E+02  0.45268601929E+02  0.10756201773E+03  0.92094698029E+02 0.  0.
         24    2    1    2    0    0  0.98604343492E+02 -0.47349982899E+02 -0.37391176112E+03  0.39766114470E+03  0.79746745775E+02 0.  0.
        -13    1    4    4    0    0  0.63318499036E+02 -0.21014982602E+02 -0.32531213616E+03  0.33208259176E+03  0.00000000000E+00 0.  1.
         14    1    4    4    0    0  0.35285844456E+02 -0.26335000296E+02 -0.48599624957E+02  0.65578552939E+02  0.00000000000E+00 0. -1.
        -11    1    3    3    0    0 -0.11766199155E+02 -0.30979626255E+02  0.15434532045E+02  0.36556879858E+02  0.00000000000E+00 0.  1.
         11    1    3    3    0    0  0.12533603612E+02  0.63202584279E+02  0.29834069884E+02  0.71005137877E+02  0.00000000000E+00 0. -1.
         21    1    1    2  503  501 -0.26107084196E+02  0.34164610257E+01 -0.95335458935E+02  0.98904508398E+02  0.00000000000E+00 0. -1.
          1    1    1    2  501    0 -0.73264663752E+02  0.11710563850E+02  0.30325671004E+01  0.74256614006E+02  0.00000000000E+00 0. -1.
<scales pt_clust_5="13000.00000" pt_clust_6="13000.00000" pt_clust_7="13000.00000" pt_clust_8="13000.00000" pt_clust_9="26.32968" pt_clust_10="76.26585"></scales>
<clustering>
<clus scale="   26.330">  2  9  1 -1</clus>
<clus scale="   76.266">  2 10  1 -1</clus>
<clus scale="   79.747">  5  6 -1 -1</clus>
<clus scale="   86.696">  2  5  1 -1</clus>
<clus scale="   92.095">  7  8 -1 -1</clus>
<clus scale="   26.330">  2  5  1 -1</clus>
</clustering>
</event>
<event>
10    4  0.3043429E-005  0.1842574E+03  0.7546771E-02  0.1193471E+00
          2   -1    0    0  502    0 -0.00000000000E+00  0.00000000000E+00  0.86169797066E+03  0.86169797066E+03  0.00000000000E+00 0. -1.
         21   -1    0    0  503  502  0.00000000000E+00 -0.00000000000E+00 -0.17625451950E+03  0.17625451950E+03  0.00000000000E+00 0. -1.
         23    2    1    2    0    0 -0.14237279514E+02  0.34312156545E+00  0.72097398627E+02  0.11793847583E+03  0.92242242662E+02 0.  0.
         24    2    1    2    0    0  0.44462940063E+02  0.16296765441E+03  0.68277933671E+03  0.70803187147E+03  0.81154783976E+02 0.  0.
        -11    1    4    4    0    0 -0.21427920778E+02  0.29420633496E+02  0.18089922468E+03  0.18452441290E+03  0.00000000000E+00 0.  1.
         12    1    4    4    0    0  0.65890860842E+02  0.13354702091E+03  0.50188011202E+03  0.52350745857E+03  0.00000000000E+00 0. -1.
        -13    1    3    3    0    0 -0.50378167884E+02 -0.27326987977E+01  0.19591943427E+02  0.54122746506E+02  0.00000000000E+00 0. -1.
         13    1    3    3    0    0  0.36140888370E+02  0.30758203631E+01  0.52505455200E+02  0.63815729321E+02  0.00000000000E+00 0.  1.
         21    1    1    2  503  501 -0.33787002028E+02  0.18460600208E+01 -0.21036536685E+02  0.39843510379E+02  0.00000000000E+00 0. -1.
          1    1    1    2  501    0  0.35613414784E+01 -0.16515683599E+03 -0.48396747483E+02  0.17213863249E+03  0.00000000000E+00 0. -1.
<scales pt_clust_5="13000.00000" pt_clust_6="13000.00000" pt_clust_7="13000.00000" pt_clust_8="13000.00000" pt_clust_9="33.83740" pt_clust_10="165.42271"></scales>
<clustering>
<clus scale="   33.837">  2  9  1 -1</clus>
<clus scale="   81.155">  5  6 -1 -1</clus>
<clus scale="   92.242">  7  8 -1 -1</clus>
<clus scale="   94.293">  1  7  2 -1</clus>
<clus scale="  165.423">  2 10  1 -1</clus>
<clus scale="   33.837">  2  5  1 -1</clus>
</clustering>
</event>
<event>
10    4  0.3043429E-005  0.1487457E+03  0.7546771E-02  0.1223662E+00
          2   -1    0    0  502    0 -0.00000000000E+00  0.00000000000E+00  0.85579088515E+03  0.85579088515E+03  0.00000000000E+00 0. -1.
         21   -1    0    0  503  502  0.00000000000E+00 -0.00000000000E+00 -0.60193693177E+02  0.60193693177E+02  0.00000000000E+00 0.  1.
         24    2    1    2    0    0 -0.22711829655E+02  0.31441619413E+02  0.54520188028E+02  0.10349012073E+03  0.78951577233E+02 0.  0.
         23    2    1    2    0    0  0.39746762585E+02  0.10412763222E+03  0.29333448315E+03  0.32626187839E+03  0.89327069577E+02 0.  0.
        -11    1    3    3    0    0  0.78566328036E+01  0.35942446738E+02 -0.43068389415E+01  0.37042340885E+02  0.00000000000E+00 0.  1.
         12    1    3    3    0    0 -0.30568462459E+02 -0.45008273257E+01  0.58827026970E+02  0.66447779841E+02  0.00000000000E+00 0. -1.
        -11    1    4    4    0    0 -0.60392891581E+01  0.71983189163E+02  0.90173195123E+02  0.11553898759E+03  0.00000000000E+00 0.  1.
         11    1    4    4    0    0  0.45786051743E+02  0.32144443061E+02  0.20316128803E+03  0.21072289080E+03  0.00000000000E+00 0. -1.
         21    1    1    2  503  501 -0.35392887403E+02  0.16862605383E+01  0.30981134510E+02  0.47067299145E+02  0.00000000000E+00 0.  1.
          1    1    1    2  501    0  0.18357954473E+02 -0.13725551217E+03  0.41676138629E+03  0.43916528006E+03  0.00000000000E+00 0. -1.
<scales pt_clust_5="13000.00000" pt_clust_6="13000.00000" pt_clust_7="13000.00000" pt_clust_8="13000.00000" pt_clust_9="35.43303" pt_clust_10="118.93680"></scales>
<clustering>
<clus scale="   35.433">  2  9  1 -1</clus>
<clus scale="   78.952">  5  6 -1 -1</clus>
<clus scale="   89.327">  7  8 -1 -1</clus>
<clus scale="   93.910">  1  5  2 -1</clus>
<clus scale="  118.937">  2 10  1 -1</clus>
<clus scale="   35.433">  2  5  1 -1</clus>
</clustering>
</event>
<event>
10    4  0.3043429E-005  0.3988954E+03  0.7546771E-02  0.1044235E+00
         21   -1    0    0  503  502  0.00000000000E+00  0.00000000000E+00  0.14785546727E+04  0.14785546727E+04  0.00000000000E+00 0. -1.
          2   -1    0    0  502    0 -0.00000000000E+00 -0.00000000000E+00 -0.46740451119E+03  0.46740451119E+03  0.00000000000E+00 0. -1.
         23    2    1    2    0    0 -0.22114722440E+03  0.33900939499E+03 -0.32210821959E+03  0.52367678655E+03  0.81548800667E+02 0.  0.
         24    2    1    2    0    0  0.14264720837E+03 -0.23917946339E+03  0.71275614671E+03  0.76999016228E+03  0.85489669416E+02 0.  0.
        -11    1    4    4    0    0  0.84591190727E+02 -0.62484591084E+02  0.26977137018E+03  0.28954548147E+03  0.00000000000E+00 0.  1.
         12    1    4    4    0    0  0.58056017646E+02 -0.17669487230E+03  0.44298477653E+03  0.48044468081E+03  0.00000000000E+00 0. -1.
        -11    1    3    3    0    0 -0.10393588910E+03  0.22183598575E+03 -0.16540216203E+03  0.29558712560E+03  0.00000000000E+00 0.  1.
         11    1    3    3    0    0 -0.11721133530E+03  0.11717340925E+03 -0.15670605756E+03  0.22808966095E+03  0.00000000000E+00 0. -1.
         21    1    1    2  503  501 -0.22862191952E+02  0.28344327763E+02  0.86672155222E+02  0.94011399457E+02  0.00000000000E+00 0. -1.
          1    1    1    2  501    0  0.10136220798E+03 -0.12817425937E+03  0.53383007920E+03  0.55828083563E+03  0.00000000000E+00 0. -1.
<scales pt_clust_5="13000.00000" pt_clust_6="13000.00000" pt_clust_7="13000.00000" pt_clust_8="13000.00000" pt_clust_9="36.41539" pt_clust_10="149.08702"></scales>
<clustering>
<clus scale="   36.415">  1  9  2 -1</clus>
<clus scale="   81.549">  7  8 -1 -1</clus>
<clus scale="   85.490">  5  6 -1 -1</clus>
<clus scale="  149.087">  1 10  2 -1</clus>
<clus scale="  398.069">  2  7  1 -1</clus>
<clus scale="   36.415">  1  5  2 -1</clus>
</clustering>
</event>
<event>
10    4  0.3043429E-005  0.2507465E+03  0.7546771E-02  0.1137429E+00
         -3   -1    0    0    0  501 -0.00000000000E+00  0.00000000000E+00  0.40337771743E+03  0.40337771743E+03  0.00000000000E+00 0.  1.
         21   -1    0    0  503  502  0.00000000000E+00 -0.00000000000E+00 -0.31727333435E+03  0.31727333435E+03  0.00000000000E+00 0.  1.
         24    2    1    2    0    0  0.35765426578E+01 -0.11403240525E+03  0.60073208324E+02  0.15199803240E+03  0.80488697297E+02 0.  0.
         23    2    1    2    0    0 -0.16849842726E+03 -0.87777631095E+02  0.14537114401E+03  0.25547387995E+03  0.89652112731E+02 0.  0.
        -13    1    3    3    0    0 -0.97154952808E+01 -0.62245800631E+02  0.73567537218E+02  0.96856146305E+02  0.00000000000E+00 0.  1.
         14    1    3    3    0    0  0.13292037939E+02 -0.51786604616E+02 -0.13494328894E+02  0.55141886099E+02  0.00000000000E+00 0. -1.
        -11    1    4    4    0    0 -0.51609774714E+02  0.14905401957E+02  0.47170531177E+02  0.71489851483E+02  0.00000000000E+00 0. -1.
         11    1    4    4    0    0 -0.11688865254E+03 -0.10268303305E+03  0.98200612830E+02  0.18398402847E+03  0.00000000000E+00 0.  1.
         21    1    1    2  503  501 -0.21087910928E+02  0.25731403130E+02 -0.10551727836E+02  0.34901920501E+02  0.00000000000E+00 0.  1.
         -4    1    1    2    0  502  0.18600979553E+03  0.17607863321E+03 -0.10878824141E+03  0.27827721893E+03  0.00000000000E+00 0.  1.
<scales pt_clust_5="13000.00000" pt_clust_6="13000.00000" pt_clust_7="13000.00000" pt_clust_8="13000.00000" pt_clust_9="33.26868" pt_clust_10="234.17154"></scales>
<clustering>
<clus scale="   33.269">  2  9  1 -1</clus>
<clus scale="   80.489">  5  6 -1 -1</clus>
<clus scale="   89.652">  7  8 -1 -1</clus>
<clus scale="  136.317">  1  5  2 -1</clus>
<clus scale="  234.172">  2 10  1 -1</clus>
<clus scale="   33.269">  2  5  1 -1</clus>
</clustering>
</event>
<event>
10    4  0.3043429E-005  0.1239052E+03  0.7546771E-02  0.1247982E+00
          2   -1    0    0  502    0 -0.00000000000E+00  0.00000000000E+00  0.18135215348E+03  0.18135215348E+03  0.00000000000E+00 0. -1.
         21   -1    0    0  503  502  0.00000000000E+00 -0.00000000000E+00 -0.28064336589E+03  0.28064336589E+03  0.00000000000E+00 0. -1.
         23    2    1    2    0    0  0.41638794597E+02 -0.51470284613E+02 -0.13003113530E+03  0.17184573336E+03  0.90773787582E+02 0.  0.
         24    2    1    2    0    0  0.67263215063E+02 -0.53222908114E+02  0.30443004228E+02  0.12154369208E+03  0.80554792098E+02 0.  0.
        -11    1    4    4    0    0  0.55946081581E+02 -0.58784363325E+01 -0.11347850634E+02  0.57387226558E+02  0.00000000000E+00 0.  1.
         12    1    4    4    0    0  0.11317133482E+02 -0.47344471781E+02  0.41790854862E+02  0.64156465525E+02  0.00000000000E+00 0. -1.
        -11    1    3    3    0    0  0.67858053654E+02 -0.24577011950E+02 -0.67025552975E+02  0.98494516161E+02  0.00000000000E+00 0. -1.
         11    1    3    3    0    0 -0.26219259057E+02 -0.26893272663E+02 -0.63005582328E+02  0.73351217199E+02  0.00000000000E+00 0.  1.
         21    1    1    2  503  501 -0.33349625084E+02  0.28311964320E+02 -0.34459945888E+02  0.55688891958E+02  0.00000000000E+00 0. -1.
          1    1    1    2  501    0 -0.75552384575E+02  0.76381228407E+02  0.34756864552E+02  0.11291720197E+03  0.00000000000E+00 0. -1.
<scales pt_clust_5="13000.00000" pt_clust_6="13000.00000" pt_clust_7="13000.00000" pt_clust_8="13000.00000" pt_clust_9="43.74660" pt_clust_10="94.14575"></scales>
<clustering>
<clus scale="   43.747">  2  9  1 -1</clus>
<clus scale="   80.555">  5  6 -1 -1</clus>
<clus scale="   90.774">  7  8 -1 -1</clus>
<clus scale="   98.801">  1  7  2 -1</clus>
<clus scale="   94.146">  2 10  1 -1</clus>
<clus scale="   43.747">  2  5  1 -1</clus>
</clustering>
</event>
<event>
10    4  0.3043429E-005  0.1817505E+03  0.7546771E-02  0.1196552E+00
          2   -1    0    0  503    0 -0.00000000000E+00  0.00000000000E+00  0.56872119489E+03  0.56872119489E+03  0.00000000000E+00 0. -1.
         21   -1    0    0  501  502  0.00000000000E+00 -0.00000000000E+00 -0.23542852143E+03  0.23542852143E+03  0.00000000000E+00 0.  1.
         24    2    1    2    0    0 -0.37893809306E+02  0.13374917976E+02  0.15280860646E+03  0.17767024395E+03  0.81249099463E+02 0.  0.
         23    2    1    2    0    0  0.13121452290E+03 -0.14798237480E+03  0.11418684648E+03  0.24583138923E+03  0.90985722791E+02 0.  0.
        -11    1    3    3    0    0 -0.25061201567E+02 -0.33092319852E+02  0.83448040770E+02  0.93202687544E+02  0.00000000000E+00 0.  1.
         12    1    3    3    0    0 -0.12832607739E+02  0.46467237829E+02  0.69360565685E+02  0.84467556405E+02  0.00000000000E+00 0. -1.
        -11    1    4    4    0    0  0.45545412194E+02 -0.11270246152E+03  0.42808019152E+02  0.12887496230E+03  0.00000000000E+00 0.  1.
         11    1    4    4    0    0  0.85669110703E+02 -0.35279913280E+02  0.71378827327E+02  0.11695642693E+03  0.00000000000E+00 0. -1.
         21    1    1    2  503  502 -0.69139788344E+02  0.64374951918E+02 -0.13574655631E+03  0.16538310771E+03  0.00000000000E+00 0.  1.
          1    1    1    2  501    0 -0.24180925246E+02  0.70232504901E+02  0.20204377683E+03  0.21526497543E+03  0.00000000000E+00 0. -1.
<scales pt_clust_5="13000.00000" pt_clust_6="13000.00000" pt_clust_7="13000.00000" pt_clust_8="13000.00000" pt_clust_9="157.33671" pt_clust_10="74.27871"></scales>
<clustering>
<clus scale="   74.279">  2 10  1 -1</clus>
<clus scale="   81.249">  5  6 -1 -1</clus>
<clus scale="   90.986">  7  8 -1 -1</clus>
<clus scale="   91.838">  1  5  2 -1</clus>
<clus scale="  157.337">  2  9  1 -1</clus>
<clus scale="   74.279">  2  5  1 -1</clus>
</clustering>
</event>
<event>
10    4  0.3043429E-005  0.2122523E+03  0.7546771E-02  0.1170918E+00
         21   -1    0    0  501  502  0.00000000000E+00  0.00000000000E+00  0.65916178442E+03  0.65916178442E+03  0.00000000000E+00 0.  1.
         -1   -1    0    0    0  501 -0.00000000000E+00 -0.00000000000E+00 -0.21955592011E+03  0.21955592011E+03  0.00000000000E+00 0.  1.
         23    2    1    2    0    0 -0.45795632361E+02 -0.14034146982E+02 -0.10512404502E+03  0.14702778053E+03  0.90950020238E+02 0.  0.
         24    2    1    2    0    0  0.65065480905E+02  0.19767888272E+03  0.18272379313E+03  0.28882818912E+03  0.81995614368E+02 0.  0.
        -11    1    4    4    0    0  0.26406277950E+02  0.14223131506E+03  0.16400810051E+03  0.21869086750E+03  0.00000000000E+00 0.  1.
         12    1    4    4    0    0  0.38659202956E+02  0.55447567667E+02  0.18715692622E+02  0.70137321617E+02  0.00000000000E+00 0. -1.
        -11    1    3    3    0    0  0.25987999019E+02 -0.80666890120E+01 -0.47669176602E+02  0.54888960298E+02  0.00000000000E+00 0. -1.
         11    1    3    3    0    0 -0.71783631380E+02 -0.59674579699E+01 -0.57454868413E+02  0.92138820229E+02  0.00000000000E+00 0.  1.
         21    1    1    2  503  502  0.30461798661E+02 -0.23658262826E+01  0.17521676766E+03  0.17786071511E+03  0.00000000000E+00 0.  1.
         -2    1    1    2    0  503 -0.49731647206E+02 -0.18127890946E+03  0.18678934854E+03  0.26500101977E+03  0.00000000000E+00 0.  1.
<scales pt_clust_5="13000.00000" pt_clust_6="13000.00000" pt_clust_7="13000.00000" pt_clust_8="13000.00000" pt_clust_9="30.55353" pt_clust_10="195.77478"></scales>
<clustering>
<clus scale="   30.554">  1  9  2 -1</clus>
<clus scale="   81.996">  5  6 -1 -1</clus>
<clus scale="   90.950">  7  8 -1 -1</clus>
<clus scale="  102.223">  2  7  1 -1</clus>
<clus scale="  195.775">  1 10  2 -1</clus>
<clus scale="   30.554">  1  5  2 -1</clus>
</clustering>
</event>
<event>
10    4  0.3043429E-005  0.9898529E+02  0.7546771E-02  0.1289667E+00
          2   -1    0    0  503    0 -0.00000000000E+00  0.00000000000E+00  0.22193363652E+03  0.22193363652E+03  0.00000000000E+00 0. -1.
         21   -1    0    0  501  502  0.00000000000E+00 -0.00000000000E+00 -0.28729467049E+03  0.28729467049E+03  0.00000000000E+00 0. -1.
         24    2    1    2    0    0  0.37523961911E+01 -0.42239904273E+02  0.16685871474E+03  0.18924815200E+03  0.78579528872E+02 0.  0.
         23    2    1    2    0    0 -0.36595142498E+02 -0.24745389050E+02 -0.66972048769E+02  0.12225763344E+03  0.92250392320E+02 0.  0.
        -13    1    3    3    0    0 -0.31334932863E+02 -0.15539883262E+02  0.32151476707E+02  0.47508772283E+02  0.00000000000E+00 0.  1.
         14    1    3    3    0    0  0.35087329054E+02 -0.26700021011E+02  0.13470723804E+03  0.14173937971E+03  0.00000000000E+00 0. -1.
        -11    1    4    4    0    0 -0.56762101719E+02 -0.45576443467E+02 -0.53175683234E+02  0.90148775244E+02  0.00000000000E+00 0. -1.
         11    1    4    4    0    0  0.20166959221E+02  0.20831054417E+02 -0.13796365535E+02  0.32108858191E+02  0.00000000000E+00 0.  1.
         21    1    1    2  503  502  0.23837670886E+02 -0.13560647891E+02 -0.38217695428E+02  0.47039536225E+02  0.00000000000E+00 0. -1.
          1    1    1    2  501    0  0.90050754206E+01  0.80545941214E+02 -0.12703000452E+03  0.15068298536E+03  0.00000000000E+00 0. -1.
<scales pt_clust_5="13000.00000" pt_clust_6="13000.00000" pt_clust_7="13000.00000" pt_clust_8="13000.00000" pt_clust_9="27.42491" pt_clust_10="76.25526"></scales>
<clustering>
<clus scale="   27.425">  2  9  1 -1</clus>
<clus scale="   76.255">  2 10  1 -1</clus>
<clus scale="   78.580">  5  6 -1 -1</clus>
<clus scale="   86.387">  1  5  2 -1</clus>
<clus scale="   92.250">  7  8 -1 -1</clus>
<clus scale="   27.425">  2  5  1 -1</clus>
</clustering>
</event>
<event>
10    4  0.3043429E-005  0.2049108E+03  0.7546771E-02  0.1175536E+00
          2   -1    0    0  503    0 -0.00000000000E+00  0.00000000000E+00  0.56534037974E+03  0.56534037974E+03  0.00000000000E+00 0. -1.
         21   -1    0    0  501  502  0.00000000000E+00 -0.00000000000E+00 -0.34760378710E+03  0.34760378710E+03  0.00000000000E+00 0. -1.
         24    2    1    2    0    0 -0.81572450336E+01  0.55331615242E+02  0.30942358707E+03  0.32461450451E+03  0.80644231095E+02 0.  0.
         23    2    1    2    0    0  0.14723140031E+03 -0.12966066604E+03 -0.26451772715E+03  0.34161242160E+03  0.90776897171E+02 0.  0.
        -11    1    3    3    0    0 -0.68743011940E+01 -0.20334899544E+02  0.50873726153E+02  0.55216846787E+02  0.00000000000E+00 0.  1.
         12    1    3    3    0    0 -0.12829438395E+01  0.75666514786E+02  0.25854986092E+03  0.26939765772E+03  0.00000000000E+00 0. -1.
        -11    1    4    4    0    0  0.68893356368E+02 -0.77655828590E+02 -0.20649954098E+03  0.23112503692E+03  0.00000000000E+00 0. -1.
         11    1    4    4    0    0  0.78338043944E+02 -0.52004837452E+02 -0.58018186166E+02  0.11048738468E+03  0.00000000000E+00 0.  1.
         21    1    1    2  503  502 -0.40769341391E+02 -0.21179459796E+01  0.10557164288E+02  0.42167269422E+02  0.00000000000E+00 0. -1.
          1    1    1    2  501    0 -0.98304813887E+02  0.76446996779E+02  0.16227356843E+03  0.20454997130E+03  0.00000000000E+00 0. -1.
<scales pt_clust_5="13000.00000" pt_clust_6="13000.00000" pt_clust_7="13000.00000" pt_clust_8="13000.00000" pt_clust_9="40.82432" pt_clust_10="183.70636"></scales>
<clustering>
<clus scale="   40.824">  1  9  2 -1</clus>
<clus scale="   80.644">  5  6 -1 -1</clus>
<clus scale="   90.777">  7  8 -1 -1</clus>
<clus scale="  102.282">  1  5  2 -1</clus>
<clus scale="  183.706">  2 10  1 -1</clus>
<clus scale="  183.706">  2  5  1 -1</clus>
</clustering>
</event>
<event>
10    4  0.3043429E-005  0.1140775E+03  0.7546771E-02  0.1259908E+00
         21   -1    0    0  503  502  0.00000000000E+00  0.00000000000E+00  0.74100028209E+02  0.74100028209E+02  0.00000000000E+00 0.  1.
          2   -1    0    0  502    0 -0.00000000000E+00 -0.00000000000E+00 -0.57655828412E+03  0.57655828412E+03  0.00000000000E+00 0. -1.
         23    2    1    2    0    0 -0.12818641065E+02 -0.27656910467E+02 -0.18348135926E+03  0.21011989341E+03  0.97753455984E+02 0.  0.
         24    2    1    2    0    0  0.76376222992E+02  0.11098648217E+03 -0.13905626873E+03  0.20979177965E+03  0.80775109242E+02 0.  0.
        -13    1    4    4    0    0  0.91290608198E+02  0.10856414146E+03 -0.12305098702E+03  0.18778097178E+03  0.00000000000E+00 0.  1.
         14    1    4    4    0    0 -0.14914385205E+02  0.24223407091E+01 -0.16005281700E+02  0.22010807865E+02  0.00000000000E+00 0. -1.
        -11    1    3    3    0    0 -0.37782566096E+02 -0.14516360097E+02 -0.17646762235E+03  0.18104990679E+03  0.00000000000E+00 0.  1.
         11    1    3    3    0    0  0.24963925030E+02 -0.13140550370E+02 -0.70137369136E+01  0.29069986626E+02  0.00000000000E+00 0. -1.
         21    1    1    2  503  501 -0.97105616122E+01 -0.38472504687E+02 -0.22381603852E+01  0.39742143697E+02  0.00000000000E+00 0.  1.
          1    1    1    2  501    0 -0.53847020315E+02 -0.44857067012E+02 -0.17768246754E+03  0.19100449558E+03  0.00000000000E+00 0. -1.
<scales pt_clust_5="13000.00000" pt_clust_6="13000.00000" pt_clust_7="13000.00000" pt_clust_8="13000.00000" pt_clust_9="39.67907" pt_clust_10="73.99802"></scales>
<clustering>
<clus scale="   39.679">  1  9  2 -1</clus>
<clus scale="   73.998">  1 10  2 -1</clus>
<clus scale="   80.775">  5  6 -1 -1</clus>
<clus scale="   97.753">  7  8 -1 -1</clus>
<clus scale="   99.913">  1  5  2 -1</clus>
<clus scale="   39.679">  1  5  2 -1</clus>
</clustering>
</event>
<event>
10    4  0.3043429E-005  0.1050163E+03  0.7546771E-02  0.1276491E+00
         21   -1    0    0  503  502  0.00000000000E+00  0.00000000000E+00  0.22500337210E+03  0.22500337210E+03  0.00000000000E+00 0. -1.
         -1   -1    0    0    0  501 -0.00000000000E+00 -0.00000000000E+00 -0.12198951935E+03  0.12198951935E+03  0.00000000000E+00 0.  1.
         24    2    1    2    0    0 -0.26092046684E+02  0.39735456193E+02 -0.53812125544E+02  0.10691130360E+03  0.79212250338E+02 0.  0.
         23    2    1    2    0    0  0.19950989698E+02 -0.50030885009E+02  0.11322145585E+03  0.15621497638E+03  0.93182022600E+02 0.  0.
        -11    1    3    3    0    0 -0.12340073213E+02  0.57362240486E+02 -0.59788383789E+02  0.83769653674E+02  0.00000000000E+00 0.  1.
         12    1    3    3    0    0 -0.13751973471E+02 -0.17626784293E+02  0.59762582455E+01  0.23141649930E+02  0.00000000000E+00 0. -1.
        -11    1    4    4    0    0 -0.13095384971E+02 -0.68484587852E+02  0.71005668384E+02  0.99515992802E+02  0.00000000000E+00 0.  1.
         11    1    4    4    0    0  0.33046374669E+02  0.18453702842E+02  0.42215787466E+02  0.56698983578E+02  0.00000000000E+00 0. -1.
         21    1    1    2  503  501  0.33049103057E+01  0.33223192230E+02  0.49792303698E+02  0.59949782665E+02  0.00000000000E+00 0. -1.
         -2    1    1    2    0  502  0.28361466798E+01 -0.22927763413E+02 -0.61877812457E+01  0.23916828800E+02  0.00000000000E+00 0.  1.
<scales pt_clust_5="13000.00000" pt_clust_6="13000.00000" pt_clust_7="13000.00000" pt_clust_8="13000.00000" pt_clust_9="27.69655" pt_clust_10="23.10252"></scales>
<clustering>
<clus scale="   23.103">  1 10  2 -1</clus>
<clus scale="   27.697">  1  9  2 -1</clus>
<clus scale="   79.212">  5  6 -1 -1</clus>
<clus scale="   92.845">  2  5  1 -1</clus>
<clus scale="   93.182">  7  8 -1 -1</clus>
<clus scale="   23.103">  1  5  2 -1</clus>
</clustering>
</event>
<event>
10    4  0.3043429E-005  0.1458945E+03  0.7546771E-02  0.1206670E+00
         -1   -1    0    0    0  501 -0.00000000000E+00  0.00000000000E+00  0.30658679703E+03  0.30658679703E+03  0.00000000000E+00 0.  1.
         21   -1    0    0  501  502  0.00000000000E+00 -0.00000000000E+00 -0.14669859152E+03  0.14669859152E+03  0.00000000000E+00 0.  1.
         23    2    1    2    0    0  0.47059857109E+02  0.13820479495E+03  0.14507100523E+03  0.22268845987E+03  0.85025632018E+02 0.  0.
         24    2    1    2    0    0 -0.11574692865E+02 -0.66156121797E+02 -0.36955133511E+02  0.11026116377E+03  0.79254251481E+02 0.  0.
        -11    1    4    4    0    0 -0.39860308258E+02 -0.62784506994E+02 -0.33502343291E+02  0.81566816163E+02  0.00000000000E+00 0.  1.
         12    1    4    4    0    0  0.28285615393E+02 -0.33716148023E+01 -0.34527902200E+01  0.28694347611E+02  0.00000000000E+00 0. -1.
        -11    1    3    3    0    0  0.61469671731E+02  0.73428014781E+02  0.11550824363E+03  0.15004115516E+03  0.00000000000E+00 0.  1.
         11    1    3    3    0    0 -0.14409814622E+02  0.64776780171E+02  0.29562761604E+02  0.72647304701E+02  0.00000000000E+00 0. -1.
         21    1    1    2  503  502  0.19105952999E+02 -0.13690051240E+02 -0.26484253285E+01  0.23653099156E+02  0.00000000000E+00 0.  1.
         -2    1    1    2    0  503 -0.54591117243E+02 -0.58358621914E+02  0.54420759126E+02  0.96682665754E+02  0.00000000000E+00 0.  1.
<scales pt_clust_5="13000.00000" pt_clust_6="13000.00000" pt_clust_7="13000.00000" pt_clust_8="13000.00000" pt_clust_9="23.50436" pt_clust_10="79.51424"></scales>
<clustering>
<clus scale="   23.504">  2  9  1 -1</clus>
<clus scale="   79.254">  5  6 -1 -1</clus>
<clus scale="   79.514">  2 10  1 -1</clus>
<clus scale="   85.026">  7  8 -1 -1</clus>
<clus scale="  142.608">  2  5  1 -1</clus>
<clus scale="   23.504">  2  5  1 -1</clus>
</clustering>
</event>
<event>
10    4  0.3043429E-005  0.2456198E+03  0.7546771E-02  0.1116105E+00
          2   -1    0    0  503    0 -0.00000000000E+00  0.00000000000E+00  0.11425255029E+03  0.11425255029E+03  0.00000000000E+00 0. -1.
         21   -1    0    0  501  502  0.00000000000E+00 -0.00000000000E+00 -0.47129917658E+03  0.47129917658E+03  0.00000000000E+00 0. -1.
         24    2    1    2    0    0  0.21841561356E+02 -0.64151148572E+02 -0.36083385750E+02  0.11116961002E+03  0.80400546019E+02 0.  0.
         23    2    1    2    0    0 -0.32524762653E+02 -0.10744622104E+03 -0.73982237313E+02  0.16310746718E+03  0.92347841389E+02 0.  0.
        -13    1    3    3    0    0  0.10590087688E+01 -0.72108950470E+02 -0.47304178993E+02  0.86246783056E+02  0.00000000000E+00 0.  1.
         14    1    3    3    0    0  0.20782552587E+02  0.79578018973E+01  0.11220793243E+02  0.24922826968E+02  0.00000000000E+00 0. -1.
        -11    1    4    4    0    0  0.11015794056E+01 -0.93247208889E+02 -0.16035052346E+02  0.94622293073E+02  0.00000000000E+00 0.  1.
         11    1    4    4    0    0 -0.33626342058E+02 -0.14199012152E+02 -0.57947184967E+02  0.68485174103E+02  0.00000000000E+00 0. -1.
         21    1    1    2  503  502  0.24816472997E+02  0.16636816234E+02 -0.66971234781E+02  0.73333398084E+02  0.00000000000E+00 0. -1.
          1    1    1    2  501    0 -0.14133271700E+02  0.15496055338E+03 -0.18000976845E+03  0.23794125159E+03  0.00000000000E+00 0. -1.
<scales pt_clust_5="13000.00000" pt_clust_6="13000.00000" pt_clust_7="13000.00000" pt_clust_8="13000.00000" pt_clust_9="29.87710" pt_clust_10="163.63186"></scales>
<clustering>
<clus scale="   29.877">  2  9  1 -1</clus>
<clus scale="   80.401">  5  6 -1 -1</clus>
<clus scale="   92.348">  7  8 -1 -1</clus>
<clus scale="  103.622">  5  7 -1 -1</clus>
<clus scale="  163.632">  2 10  1 -1</clus>
<clus scale="   29.877">  2  5  1 -1</clus>
</clustering>
</event>
<event>
10    4  0.3043429E-005  0.1799010E+03  0.7546771E-02  0.1185560E+00
         21   -1    0    0  503  502  0.00000000000E+00  0.00000000000E+00  0.19578635806E+03  0.19578635806E+03  0.00000000000E+00 0. -1.
          2   -1    0    0  502    0 -0.00000000000E+00 -0.00000000000E+00 -0.74859819375E+03  0.74859819375E+03  0.00000000000E+00 0. -1.
         24    2    1    2    0    0 -0.77254642096E+02 -0.39929239998E+02 -0.31856123027E+03  0.33991931823E+03  0.80630400861E+02 0.  0.
         23    2    1    2    0    0  0.13659067869E+03 -0.11298649693E+03 -0.21779133138E+03  0.29521445353E+03  0.91079896557E+02 0.  0.
        -13    1    3    3    0    0 -0.69897592282E+02 -0.16625832551E+02 -0.12003392856E+03  0.13989365861E+03  0.00000000000E+00 0.  1.
         14    1    3    3    0    0 -0.73570498137E+01 -0.23303407447E+02 -0.19852730172E+03  0.20002565962E+03  0.00000000000E+00 0. -1.
        -11    1    4    4    0    0  0.50119240174E+02 -0.58143812329E+02 -0.32187883363E+02  0.83238818968E+02  0.00000000000E+00 0. -1.
         11    1    4    4    0    0  0.86471438511E+02 -0.54842684600E+02 -0.18560344802E+03  0.21197563456E+03  0.00000000000E+00 0.  1.
         21    1    1    2  503  501 -0.27099402012E+02  0.34481984434E+01  0.10843396271E+03  0.11182214419E+03  0.00000000000E+00 0. -1.
          1    1    1    2  501    0 -0.32236634578E+02  0.14946753848E+03 -0.12489323675E+03  0.19742863586E+03  0.00000000000E+00 0. -1.
<scales pt_clust_5="13000.00000" pt_clust_6="13000.00000" pt_clust_7="13000.00000" pt_clust_8="13000.00000" pt_clust_9="27.31790" pt_clust_10="155.14126"></scales>
<clustering>
<clus scale="   27.318">  1  9  2 -1</clus>
<clus scale="   80.630">  5  6 -1 -1</clus>
<clus scale="   91.080">  7  8 -1 -1</clus>
<clus scale="  120.678">  2  5  1 -1</clus>
<clus scale="  155.141">  1 10  2 -1</clus>
<clus scale="   27.318">  1  5  2 -1</clus>
</clustering>
</event>
<event>
10    4  0.3043429E-005  0.2545400E+03  0.7546771E-02  0.1149957E+00
          2   -1    0    0  502    0 -0.00000000000E+00  0.00000000000E+00  0.41308446349E+03  0.41308446349E+03  0.00000000000E+00 0. -1.
         21   -1    0    0  503  502  0.00000000000E+00 -0.00000000000E+00 -0.67640135125E+03  0.67640135125E+03  0.00000000000E+00 0. -1.
         24    2    1    2    0    0 -0.85178539297E+02 -0.84146350067E+01 -0.14287766760E+03  0.18465968404E+03  0.79743221482E+02 0.  0.
         23    2    1    2    0    0  0.26280228743E+03 -0.59757982356E+02  0.22937378995E+03  0.36547343978E+03  0.91227413309E+02 0.  0.
        -11    1    3    3    0    0 -0.31667828330E+02  0.29868786774E+02 -0.26478917287E+02  0.50952221102E+02  0.00000000000E+00 0.  1.
         12    1    3    3    0    0 -0.53510710967E+02 -0.38283421780E+02 -0.11639875031E+03  0.13370746294E+03  0.00000000000E+00 0. -1.
        -13    1    4    4    0    0  0.94321622205E+02 -0.36147309569E+02  0.34392494458E+02  0.10670538918E+03  0.00000000000E+00 0.  1.
         13    1    4    4    0    0  0.16848066522E+03 -0.23610672787E+02  0.19498129549E+03  0.25876805060E+03  0.00000000000E+00 0. -1.
         21    1    1    2  503  501  0.80316225613E+02  0.24579492588E+02 -0.24243833668E+03  0.25657590426E+03  0.00000000000E+00 0. -1.
          1    1    1    2  501    0 -0.25793997374E+03  0.43593124775E+02 -0.10737467343E+03  0.28277678667E+03  0.00000000000E+00 0. -1.
<scales pt_clust_5="13000.00000" pt_clust_6="13000.00000" pt_clust_7="13000.00000" pt_clust_8="13000.00000" pt_clust_9="83.99314" pt_clust_10="237.63030"></scales>
<clustering>
<clus scale="   79.743">  5  6 -1 -1</clus>
<clus scale="   83.993">  2  9  1 -1</clus>
<clus scale="   91.227">  7  8 -1 -1</clus>
<clus scale="   96.518">  1  5  2 -1</clus>
<clus scale="  237.630">  2 10  1 -1</clus>
<clus scale="   83.993">  2  5  1 -1</clus>
</clustering>
</event>
<event>
10    4  0.3043429E-005  0.1433666E+03  0.7546771E-02  0.1211765E+00
          2   -1    0    0  503    0 -0.00000000000E+00  0.00000000000E+00  0.11222532551E+03  0.11222532551E+03  0.00000000000E+00 0. -1.
         21   -1    0    0  501  502  0.00000000000E+00 -0.00000000000E+00 -0.41298220632E+03  0.41298220632E+03  0.00000000000E+00 0.  1.
         23    2    1    2    0    0  0.80540722509E+02  0.71887258580E+02  0.12861885786E+01  0.14215499638E+03  0.92475957885E+02 0.  0.
         24    2    1    2    0    0 -0.10296632445E+03 -0.52880430469E+02 -0.13073468275E+03  0.19144827347E+03  0.78501466512E+02 0.  0.
        -11    1    4    4    0    0 -0.10934923480E+03 -0.58501371589E+02 -0.99265274140E+02  0.15884980415E+03  0.00000000000E+00 0.  1.
         12    1    4    4    0    0  0.63829103527E+01  0.56209411206E+01 -0.31469408610E+02  0.32598469319E+02  0.00000000000E+00 0. -1.
        -11    1    3    3    0    0  0.10007800424E+03  0.52683500808E+02  0.96570904406E+01  0.11350954844E+03  0.00000000000E+00 0. -1.
         11    1    3    3    0    0 -0.19537281732E+02  0.19203757771E+02 -0.83709018621E+01  0.28645447946E+02  0.00000000000E+00 0.  1.
         21    1    1    2  503  502  0.34818516616E+02  0.35783796971E+00 -0.16373755070E+03  0.16739905214E+03  0.00000000000E+00 0.  1.
          1    1    1    2  501    0 -0.12392914677E+02 -0.19364666081E+02 -0.75708359344E+01  0.24205209839E+02  0.00000000000E+00 0. -1.
<scales pt_clust_5="13000.00000" pt_clust_6="13000.00000" pt_clust_7="13000.00000" pt_clust_8="13000.00000" pt_clust_9="30.63886" pt_clust_10="22.99076"></scales>
<clustering>
<clus scale="   22.991">  2 10  1 -1</clus>
<clus scale="   30.639">  2  9  1 -1</clus>
<clus scale="   78.501">  5  6 -1 -1</clus>
<clus scale="   92.476">  7  8 -1 -1</clus>
<clus scale="  134.776">  2  5  1 -1</clus>
<clus scale="   22.991">  2  5  1 -1</clus>
</clustering>
</event>
<event>
10    4  0.3043429E-005  0.1120390E+03  0.7546771E-02  0.1263485E+00
         -3   -1    0    0    0  501 -0.00000000000E+00  0.00000000000E+00  0.90727974944E+03  0.90727974944E+03  0.00000000000E+00 0.  1.
         21   -1    0    0  501  502  0.00000000000E+00 -0.00000000000E+00 -0.16592011012E+03  0.16592011012E+03  0.00000000000E+00 0. -1.
         24    2    1    2    0    0  0.16788434884E+02  0.79013169817E+02  0.13973498087E+03  0.18018154798E+03  0.80091153099E+02 0.  0.
         23    2    1    2    0    0 -0.75334131751E+02  0.15338851806E+02  0.11091693103E+03  0.16586916992E+03  0.96433936763E+02 0.  0.
        -11    1    3    3    0    0 -0.12059476740E+02  0.79855106867E+02  0.79178545928E+02  0.11309956325E+03  0.00000000000E+00 0.  1.
         12    1    3    3    0    0  0.28847911623E+02 -0.84193705022E+00  0.60556434938E+02  0.67081984731E+02  0.00000000000E+00 0. -1.
        -13    1    4    4    0    0 -0.53033245320E+02  0.46784245503E+02  0.10539846410E+03  0.12692567499E+03  0.00000000000E+00 0. -1.
         13    1    4    4    0    0 -0.22300886431E+02 -0.31445393696E+02  0.55184669298E+01  0.38943494933E+02  0.00000000000E+00 0.  1.
         21    1    1    2  503  502  0.43968625957E+02  0.29796918413E+01 -0.10996513865E+03  0.11846708551E+03  0.00000000000E+00 0. -1.
         -4    1    1    2    0  503  0.14577070910E+02 -0.97331713465E+02  0.60067286607E+03  0.60868205614E+03  0.00000000000E+00 0.  1.
<scales pt_clust_5="13000.00000" pt_clust_6="13000.00000" pt_clust_7="13000.00000" pt_clust_8="13000.00000" pt_clust_9="44.06948" pt_clust_10="98.75207"></scales>
<clustering>
<clus scale="   44.069">  2  9  1 -1</clus>
<clus scale="   80.091">  5  6 -1 -1</clus>
<clus scale="   96.434">  7  8 -1 -1</clus>
<clus scale="   98.752">  2 10  1 -1</clus>
<clus scale="   98.325">  1  5  2 -1</clus>
<clus scale="   44.069">  2  5  1 -1</clus>
</clustering>
</event>
<event>
10    4  0.3043429E-005  0.1380284E+03  0.7546771E-02  0.1239950E+00
          2   -1    0    0  503    0 -0.00000000000E+00  0.00000000000E+00  0.14972927714E+04  0.14972927714E+04  0.00000000000E+00 0. -1.
         21   -1    0    0  501  502  0.00000000000E+00 -0.00000000000E+00 -0.59309119183E+02  0.59309119183E+02  0.00000000000E+00 0.  1.
         24    2    1    2    0    0  0.17644006797E+02 -0.17764940752E+02  0.54822597468E+03  0.55463055431E+03  0.80227354274E+02 0.  0.
         23    2    1    2    0    0 -0.85902375492E+02  0.61305177849E+02  0.38712946632E+03  0.41146062076E+03  0.91066326351E+02 0.  0.
        -11    1    3    3    0    0  0.22513862900E+02 -0.20805536364E+02  0.70577354479E+02  0.76947432259E+02  0.00000000000E+00 0.  1.
         12    1    3    3    0    0 -0.48698561023E+01  0.30405956118E+01  0.47764862020E+03  0.47768312205E+03  0.00000000000E+00 0. -1.
        -13    1    4    4    0    0 -0.89609937947E+01  0.50385629413E+02  0.82573847037E+02  0.97146545361E+02  0.00000000000E+00 0. -1.
         13    1    4    4    0    0 -0.76941381697E+02  0.10919548435E+02  0.30455561928E+03  0.31431407540E+03  0.00000000000E+00 0.  1.
         21    1    1    2  503  502  0.14604540815E+03 -0.92566574359E+00  0.97064015212E+02  0.17536117344E+03  0.00000000000E+00 0.  1.
          1    1    1    2  501    0 -0.77787039460E+02 -0.42614571353E+02  0.40556419601E+03  0.41514954207E+03  0.00000000000E+00 0. -1.
<scales pt_clust_5="13000.00000" pt_clust_6="13000.00000" pt_clust_7="13000.00000" pt_clust_8="13000.00000" pt_clust_9="103.72440" pt_clust_10="86.31818"></scales>
<clustering>
<clus scale="   80.227">  5  6 -1 -1</clus>
<clus scale="   84.044">  1  5  2 -1</clus>
<clus scale="   86.318">  2 10  1 -1</clus>
<clus scale="   91.066">  7  8 -1 -1</clus>
<clus scale="  103.724">  2  9  1 -1</clus>
<clus scale="   86.318">  2  5  1 -1</clus>
</clustering>
</event>
<event>
10    4  0.3043429E-005  0.1193572E+03  0.7546771E-02  0.1247235E+00
          2   -1    0    0  503    0 -0.00000000000E+00  0.00000000000E+00  0.42581316833E+03  0.42581316833E+03  0.00000000000E+00 0. -1.
         21   -1    0    0  501  502  0.00000000000E+00 -0.00000000000E+00 -0.12451558055E+03  0.12451558055E+03  0.00000000000E+00 0. -1.
         23    2    1    2    0    0 -0.63206427052E+02 -0.58141806582E+02  0.19386253662E+03  0.23056662061E+03  0.90569097064E+02 0.  0.
         24    2    1    2    0    0 -0.15295869401E+02  0.83406026267E+02  0.91948708422E+01  0.11756008653E+03  0.80903025018E+02 0.  0.
        -11    1    4    4    0    0  0.21831026581E+01  0.51855427228E+02  0.43546993505E+02  0.67750217074E+02  0.00000000000E+00 0.  1.
         12    1    4    4    0    0 -0.17478972059E+02  0.31550599039E+02 -0.34352122663E+02  0.49809869458E+02  0.00000000000E+00 0. -1.
        -11    1    3    3    0    0 -0.15962179606E+02 -0.70796172152E+02  0.88846198780E+02  0.11471938026E+03  0.00000000000E+00 0. -1.
         11    1    3    3    0    0 -0.47244247446E+02  0.12654365570E+02  0.10501633784E+03  0.11584724035E+03  0.00000000000E+00 0.  1.
         21    1    1    2  503  502  0.26006537581E+02  0.10194747813E+02 -0.40779392472E+02  0.49429057551E+02  0.00000000000E+00 0.  1.
          1    1    1    2  501    0  0.52495758872E+02 -0.35458967499E+02  0.13901957280E+03  0.15277298418E+03  0.00000000000E+00 0. -1.
<scales pt_clust_5="13000.00000" pt_clust_6="13000.00000" pt_clust_7="13000.00000" pt_clust_8="13000.00000" pt_clust_9="27.93336" pt_clust_10="64.75213"></scales>
<clustering>
<clus scale="   27.933">  2  9  1 -1</clus>
<clus scale="   64.752">  2 10  1 -1</clus>
<clus scale="   80.903">  5  6 -1 -1</clus>
<clus scale="   90.569">  7  8 -1 -1</clus>
<clus scale="  112.199">  2  5  1 -1</clus>
<clus scale="   27.933">  2  5  1 -1</clus>
</clustering>
</event>
<event>
10    4  0.3043429E-005  0.1634358E+03  0.7546771E-02  0.1218326E+00
         21   -1    0    0  503  502  0.00000000000E+00  0.00000000000E+00  0.29800575369E+03  0.29800575369E+03  0.00000000000E+00 0.  1.
         -3   -1    0    0    0  501 -0.00000000000E+00 -0.00000000000E+00 -0.50977108531E+03  0.50977108531E+03  0.00000000000E+00 0.  1.
         24    2    1    2    0    0 -0.82326393459E+01  0.10529983719E+02 -0.11880206195E+03  0.14294028802E+03  0.78353934861E+02 0.  0.
         23    2    1    2    0    0 -0.12131521527E+03  0.43515200932E+02 -0.33304593932E+03  0.36810858588E+03  0.89293779934E+02 0.  0.
        -13    1    3    3    0    0  0.11837275982E+02  0.28750887616E+02 -0.11019790501E+03  0.11450027472E+03  0.00000000000E+00 0.  1.
         14    1    3    3    0    0 -0.20069915328E+02 -0.18220903898E+02 -0.86041569406E+01  0.28440013305E+02  0.00000000000E+00 0. -1.
        -11    1    4    4    0    0 -0.25385456055E+02 -0.20450479320E+02 -0.31751989257E+02  0.45506398510E+02  0.00000000000E+00 0. -1.
         11    1    4    4    0    0 -0.95929759214E+02  0.63965680253E+02 -0.30129395006E+03  0.32260218737E+03  0.00000000000E+00 0.  1.
         21    1    1    2  503  501  0.20813277797E+01 -0.45281307785E+02  0.79530597535E+02  0.91541491709E+02  0.00000000000E+00 0. -1.
         -4    1    1    2    0  502  0.12746652683E+03 -0.87638768659E+01  0.16055207211E+03  0.20518647338E+03  0.00000000000E+00 0.  1.
<scales pt_clust_5="13000.00000" pt_clust_6="13000.00000" pt_clust_7="13000.00000" pt_clust_8="13000.00000" pt_clust_9="45.32912" pt_clust_10="136.88639"></scales>
<clustering>
<clus scale="   45.329">  1  9  2 -1</clus>
<clus scale="   78.354">  5  6 -1 -1</clus>
<clus scale="   79.174">  2  5  1 -1</clus>
<clus scale="   89.294">  7  8 -1 -1</clus>
<clus scale="  136.886">  1 10  2 -1</clus>
<clus scale="   45.329">  1  5  2 -1</clus>
</clustering>
</event>
<event>
10    4  0.3043429E-005  0.2801087E+03  0.7546771E-02  0.1096054E+00
          2   -1    0    0  502    0 -0.00000000000E+00  0.00000000000E+00  0.82495089956E+03  0.82495089956E+03  0.00000000000E+00 0. -1.
         21   -1    0    0  503  502  0.00000000000E+00 -0.00000000000E+00 -0.19190472215E+03  0.19190472215E+03  0.00000000000E+00 0. -1.
         24    2    1    2    0    0  0.20254679929E+03  0.22603838973E+03  0.49058803049E+03  0.58238022376E+03  0.79821988384E+02 0.  0.
         23    2    1    2    0    0 -0.19667869058E+03 -0.89763406096E+02  0.11091478953E+03  0.25910584382E+03  0.89965389826E+02 0.  0.
        -13    1    3    3    0    0  0.19760448143E+02  0.63535557528E+02  0.75857596566E+02  0.10090400060E+03  0.00000000000E+00 0.  1.
         14    1    3    3    0    0  0.18278635115E+03  0.16250283221E+03  0.41473043392E+03  0.48147622315E+03  0.00000000000E+00 0. -1.
        -11    1    4    4    0    0 -0.89514519653E+02 -0.89883585105E+02  0.55529338500E+02  0.13847532464E+03  0.00000000000E+00 0.  1.
         11    1    4    4    0    0 -0.10716417092E+03  0.12017900937E+00  0.55385451031E+02  0.12063051918E+03  0.00000000000E+00 0. -1.
         21    1    1    2  503  501  0.33071323407E+02 -0.11289273261E+02  0.27377148414E+02  0.44392210780E+02  0.00000000000E+00 0.  1.
          1    1    1    2  501    0 -0.38939432124E+02 -0.12498571038E+03  0.41662089817E+01  0.13097734335E+03  0.00000000000E+00 0. -1.
<scales pt_clust_5="13000.00000" pt_clust_6="13000.00000" pt_clust_7="13000.00000" pt_clust_8="13000.00000" pt_clust_9="34.94510" pt_clust_10="131.79101"></scales>
<clustering>
<clus scale="   34.945">  2  9  1 -1</clus>
<clus scale="   79.822">  5  6 -1 -1</clus>
<clus scale="   89.965">  7  8 -1 -1</clus>
<clus scale="  131.791">  2 10  1 -1</clus>
<clus scale="  277.017">  1  5  2 -1</clus>
<clus scale="   34.945">  2  5  1 -1</clus>
</clustering>
</event>
<event>
10    4  0.3043429E-005  0.7851899E+02  0.7546771E-02  0.1336215E+00
         21   -1    0    0  501  502  0.00000000000E+00  0.00000000000E+00  0.23081022531E+03  0.23081022531E+03  0.00000000000E+00 0. -1.
          2   -1    0    0  503    0 -0.00000000000E+00 -0.00000000000E+00 -0.83619795361E+02  0.83619795361E+02  0.00000000000E+00 0. -1.
         24    2    1    2    0    0  0.24177634399E+02  0.28451667621E+02 -0.39061442605E+02  0.90084799789E+02  0.72079258175E+02 0.  0.
         23    2    1    2    0    0 -0.64617105828E+01  0.53596871799E+01  0.11785802819E+03  0.13623902756E+03  0.67823873911E+02 0.  0.
        -11    1    3    3    0    0 -0.84174872108E+01 -0.19665436647E+02 -0.27784012941E+01  0.21570883227E+02  0.00000000000E+00 0.  1.
         12    1    3    3    0    0  0.32595121610E+02  0.48117104267E+02 -0.36283041311E+02  0.68513916562E+02  0.00000000000E+00 0. -1.
        -13    1    4    4    0    0  0.28982723287E+02 -0.75529247087E+01  0.42856435699E+02  0.52284978737E+02  0.00000000000E+00 0.  1.
         13    1    4    4    0    0 -0.35444433869E+02  0.12912611889E+02  0.75001592490E+02  0.83954048825E+02  0.00000000000E+00 0. -1.
         21    1    1    2  503  502 -0.20031723585E+02  0.15543281283E+01  0.25521389578E+02  0.32481182425E+02  0.00000000000E+00 0. -1.
          1    1    1    2  501    0  0.23157997691E+01 -0.35365682929E+02  0.42872454792E+02  0.55625010899E+02  0.00000000000E+00 0. -1.
<scales pt_clust_5="13000.00000" pt_clust_6="13000.00000" pt_clust_7="13000.00000" pt_clust_8="13000.00000" pt_clust_9="20.09194" pt_clust_10="35.08083"></scales>
<clustering>
<clus scale="   20.092">  1  9  2 -1</clus>
<clus scale="   35.081">  1 10  2 -1</clus>
<clus scale="   67.824">  7  8 -1 -1</clus>
<clus scale="   72.079">  5  6 -1 -1</clus>
<clus scale="   74.632">  1  7  2 -1</clus>
<clus scale="   20.092">  1  5  2 -1</clus>
</clustering>
</event>
<event>
10    4  0.3043429E-005  0.1407527E+03  0.7546771E-02  0.1216013E+00
         21   -1    0    0  501  502  0.00000000000E+00  0.00000000000E+00  0.19937896627E+03  0.19937896627E+03  0.00000000000E+00 0.  1.
          2   -1    0    0  503    0 -0.00000000000E+00 -0.00000000000E+00 -0.61170207611E+03  0.61170207611E+03  0.00000000000E+00 0. -1.
         24    2    1    2    0    0 -0.83168256088E+02  0.81612282392E+02 -0.30810923486E+03  0.33881582875E+03  0.79292759772E+02 0.  0.
         23    2    1    2    0    0 -0.95183239056E+02 -0.18348035098E+02 -0.13415106080E+02  0.13081847381E+03  0.86815946859E+02 0.  0.
        -13    1    3    3    0    0 -0.25623910304E+02 -0.14078637348E+02 -0.67474509711E+02  0.73536400983E+02  0.00000000000E+00 0.  1.
         14    1    3    3    0    0 -0.57544345784E+02  0.95690919740E+02 -0.24063472514E+03  0.26527942777E+03  0.00000000000E+00 0. -1.
        -11    1    4    4    0    0 -0.31464152035E+02 -0.46794121431E+02  0.98896881082E+01  0.57249354535E+02  0.00000000000E+00 0.  1.
         11    1    4    4    0    0 -0.63719087021E+02  0.28446086332E+02 -0.23304794188E+02  0.73569119272E+02  0.00000000000E+00 0. -1.
         21    1    1    2  503  502  0.15682669818E+03  0.55088328172E+01  0.64950736021E+02  0.16983391479E+03  0.00000000000E+00 0.  1.
          1    1    1    2  501    0  0.21524796960E+02 -0.68773080111E+02 -0.15574950492E+03  0.17161282503E+03  0.00000000000E+00 0. -1.
<scales pt_clust_5="13000.00000" pt_clust_6="13000.00000" pt_clust_7="13000.00000" pt_clust_8="13000.00000" pt_clust_9="116.29270" pt_clust_10="72.06288"></scales>
<clustering>
<clus scale="   72.063">  1 10  2 -1</clus>
<clus scale="   79.293">  5  6 -1 -1</clus>
<clus scale="   86.816">  7  8 -1 -1</clus>
<clus scale="  130.150">  1  7  2 -1</clus>
<clus scale="  116.293">  1  9  2 -1</clus>
<clus scale="   72.063">  1  5  2 -1</clus>
</clustering>
</event>
<event>
10    4  0.3043429E-005  0.1503417E+03  0.7546771E-02  0.1221541E+00
         21   -1    0    0  503  502  0.00000000000E+00  0.00000000000E+00  0.15232866282E+03  0.15232866282E+03  0.00000000000E+00 0. -1.
          2   -1    0    0  502    0 -0.00000000000E+00 -0.00000000000E+00 -0.70404359078E+03  0.70404359078E+03  0.00000000000E+00 0. -1.
         24    2    1    2    0    0  0.34714550117E+02  0.20265651122E+02  0.77021519162E+02  0.11842114561E+03  0.80470222488E+02 0.  0.
         23    2    1    2    0    0 -0.91516892140E+02 -0.13286548159E+03 -0.54728374583E+03  0.57816935688E+03  0.93443721243E+02 0.  0.
        -11    1    3    3    0    0  0.40187434910E+01  0.23365201063E+02 -0.10270629077E+02  0.25837351675E+02  0.00000000000E+00 0.  1.
         12    1    3    3    0    0  0.30695806626E+02 -0.30995499414E+01  0.87292148239E+02  0.92583793930E+02  0.00000000000E+00 0. -1.
        -13    1    4    4    0    0 -0.27770458654E+02 -0.31653902376E+02 -0.44144573698E+02  0.61007469186E+02  0.00000000000E+00 0.  1.
         13    1    4    4    0    0 -0.63746433485E+02 -0.10121157921E+03 -0.50313917213E+03  0.51716188769E+03  0.00000000000E+00 0. -1.
         21    1    1    2  503  501 -0.22162299426E+01  0.25539591210E+02  0.17165421901E+01  0.25692973970E+02  0.00000000000E+00 0.  1.
          1    1    1    2  501    0  0.59018571965E+02  0.87060239254E+02 -0.83169243483E+02  0.13408877715E+03  0.00000000000E+00 0. -1.
<scales pt_clust_5="13000.00000" pt_clust_6="13000.00000" pt_clust_7="13000.00000" pt_clust_8="13000.00000" pt_clust_9="25.63557" pt_clust_10="117.77483"></scales>
<clustering>
<clus scale="   25.636">  1  9  2 -1</clus>
<clus scale="   80.470">  5  6 -1 -1</clus>
<clus scale="   93.444">  7  8 -1 -1</clus>
<clus scale="   95.074">  2  5  1 -1</clus>
<clus scale="  117.775">  1 10  2 -1</clus>
<clus scale="   25.636">  1  5  2 -1</clus>
</clustering>
</event>
<event>
10    4  0.3043429E-005  0.2548873E+03  0.7546771E-02  0.1152187E+00
         21   -1    0    0  501  502  0.00000000000E+00  0.00000000000E+00  0.41772604508E+03  0.41772604508E+03  0.00000000000E+00 0.  1.
          2   -1    0    0  503    0 -0.00000000000E+00 -0.00000000000E+00 -0.76834748979E+03  0.76834748979E+03  0.00000000000E+00 0. -1.
         24    2    1    2    0    0 -0.53270122697E+02 -0.87526209476E+01 -0.51166570639E+03  0.52121629608E+03  0.83368566325E+02 0.  0.
         23    2    1    2    0    0  0.16364837445E+03 -0.17536562249E+03  0.27781971649E+03  0.37797212036E+03  0.90250966127E+02 0.  0.
        -11    1    3    3    0    0 -0.20934112928E+02 -0.16755183210E+02 -0.38714234048E+02  0.47093154135E+02  0.00000000000E+00 0.  1.
         12    1    3    3    0    0 -0.32336009768E+02  0.80025622623E+01 -0.47295147235E+03  0.47412314194E+03  0.00000000000E+00 0. -1.
        -13    1    4    4    0    0  0.89392198918E+02 -0.34696935550E+02  0.12344254751E+03  0.15631028469E+03  0.00000000000E+00 0.  1.
         13    1    4    4    0    0  0.74256175534E+02 -0.14066868694E+03  0.15437716898E+03  0.22166183567E+03  0.00000000000E+00 0. -1.
         21    1    1    2  503  502  0.26966751965E+02 -0.58542107884E+01 -0.11038527944E+02  0.29720810801E+02  0.00000000000E+00 0.  1.
          1    1    1    2  501    0 -0.13734500372E+03  0.18997245423E+03 -0.10573692686E+03  0.25716430762E+03  0.00000000000E+00 0. -1.
<scales pt_clust_5="13000.00000" pt_clust_6="13000.00000" pt_clust_7="13000.00000" pt_clust_8="13000.00000" pt_clust_9="27.59488" pt_clust_10="238.37436"></scales>
<clustering>
<clus scale="   27.595">  2  9  1 -1</clus>
<clus scale="   83.369">  5  6 -1 -1</clus>
<clus scale="   90.251">  7  8 -1 -1</clus>
<clus scale="   91.185">  2  5  1 -1</clus>
<clus scale="  238.374">  1 10  2 -1</clus>
<clus scale="  238.374">  1  5  2 -1</clus>
</clustering>
</event>
<event>
10    4  0.3043429E-005  0.9568061E+02  0.7546771E-02  0.1295507E+00
          2   -1    0    0  503    0 -0.00000000000E+00  0.00000000000E+00  0.17498905023E+03  0.17498905023E+03  0.00000000000E+00 0. -1.
         21   -1    0    0  501  502  0.00000000000E+00 -0.00000000000E+00 -0.33836812576E+03  0.33836812576E+03  0.00000000000E+00 0. -1.
         24    2    1    2    0    0  0.28051387119E+02  0.52717097247E+01  0.46099352794E+02  0.96776026174E+02  0.80160948543E+02 0.  0.
         23    2    1    2    0    0 -0.38378432557E+02 -0.48462197427E+02 -0.22576207593E+03  0.25102289256E+03  0.90677941061E+02 0.  0.
        -13    1    3    3    0    0  0.14599666706E+02 -0.16927304221E+02  0.62292939970E+02  0.66182280606E+02  0.00000000000E+00 0.  1.
         14    1    3    3    0    0  0.13451720413E+02  0.22199013946E+02 -0.16193587176E+02  0.30593745568E+02  0.00000000000E+00 0. -1.
        -11    1    4    4    0    0 -0.51772961990E+02  0.60790459362E+01 -0.88434558610E+02  0.10265508048E+03  0.00000000000E+00 0.  1.
         11    1    4    4    0    0  0.13394529432E+02 -0.54541243364E+02 -0.13732751732E+03  0.14836781208E+03  0.00000000000E+00 0. -1.
         21    1    1    2  503  502  0.25621038145E+02  0.52801081779E+01 -0.67468336414E+02  0.72362238470E+02  0.00000000000E+00 0.  1.
          1    1    1    2  501    0 -0.15293992706E+02  0.37910379525E+02  0.83751984026E+02  0.93196018782E+02  0.00000000000E+00 0. -1.
<scales pt_clust_5="13000.00000" pt_clust_6="13000.00000" pt_clust_7="13000.00000" pt_clust_8="13000.00000" pt_clust_9="26.15946" pt_clust_10="40.79918"></scales>
<clustering>
<clus scale="   26.159">  2  9  1 -1</clus>
<clus scale="   40.799">  2 10  1 -1</clus>
<clus scale="   80.161">  5  6 -1 -1</clus>
<clus scale="   85.779">  1  5  2 -1</clus>
<clus scale="   90.678">  7  8 -1 -1</clus>
<clus scale="   26.159">  2  5  1 -1</clus>
</clustering>
</event>
<event>
10    4  0.3043429E-005  0.1808188E+03  0.7546771E-02  0.1180522E+00
          2   -1    0    0  503    0 -0.00000000000E+00  0.00000000000E+00  0.53522980217E+03  0.53522980217E+03  0.00000000000E+00 0. -1.
         21   -1    0    0  501  502  0.00000000000E+00 -0.00000000000E+00 -0.16599589541E+03  0.16599589541E+03  0.00000000000E+00 0. -1.
         24    2    1    2    0    0  0.29648035831E+02 -0.10361752971E+03 -0.14603401579E+02  0.13474802313E+03  0.79549807725E+02 0.  0.
         23    2    1    2    0    0  0.13954035885E+03  0.12224025346E+03  0.26143678363E+03  0.33376558615E+03  0.92930529676E+02 0.  0.
        -11    1    3    3    0    0  0.23748619634E+02 -0.68909889525E+01 -0.27505117808E+02  0.36986675559E+02  0.00000000000E+00 0.  1.
         12    1    3    3    0    0  0.58994161973E+01 -0.96726540753E+02  0.12901716228E+02  0.97761347572E+02  0.00000000000E+00 0. -1.
        -13    1    4    4    0    0  0.12000738271E+03  0.49711732577E+02  0.18961613121E+03  0.22984191410E+03  0.00000000000E+00 0. -1.
         13    1    4    4    0    0  0.19532976143E+02  0.72528520878E+02  0.71820652419E+02  0.10392367205E+03  0.00000000000E+00 0.  1.
         21    1    1    2  503  502 -0.23586403684E+02 -0.30309349537E+01 -0.18015204037E+02  0.29833749042E+02  0.00000000000E+00 0. -1.
          1    1    1    2  501    0 -0.14560199100E+03 -0.15591788796E+02  0.14041572875E+03  0.20287833926E+03  0.00000000000E+00 0. -1.
<scales pt_clust_5="13000.00000" pt_clust_6="13000.00000" pt_clust_7="13000.00000" pt_clust_8="13000.00000" pt_clust_9="23.78035" pt_clust_10="155.11079"></scales>
<clustering>
<clus scale="   23.780">  2  9  1 -1</clus>
<clus scale="   79.550">  5  6 -1 -1</clus>
<clus scale="   92.931">  7  8 -1 -1</clus>
<clus scale="  133.023">  1  5  2 -1</clus>
<clus scale="  155.111">  2 10  1 -1</clus>
<clus scale="   23.780">  2  5  1 -1</clus>
</clustering>
</event>
<event>
10    4  0.3043429E-005  0.1275524E+03  0.7546771E-02  0.1234214E+00
          2   -1    0    0  503    0 -0.00000000000E+00  0.00000000000E+00  0.67725192371E+03  0.67725192371E+03  0.00000000000E+00 0. -1.
         21   -1    0    0  501  502  0.00000000000E+00 -0.00000000000E+00 -0.86457601433E+02  0.86457601433E+02  0.00000000000E+00 0.  1.
         24    2    1    2    0    0  0.80457138857E+02  0.68421248432E+02  0.53749471236E+03  0.55350737304E+03  0.79467148961E+02 0.  0.
         23    2    1    2    0    0 -0.41531707333E+02 -0.99540577950E+01  0.73796562690E+02  0.12458186359E+03  0.90833595597E+02 0.  0.
        -11    1    3    3    0    0  0.19301512545E+02  0.62581725976E+02  0.35385122188E+03  0.35986067865E+03  0.00000000000E+00 0.  1.
         12    1    3    3    0    0  0.61155626312E+02  0.58395224556E+01  0.18364349048E+03  0.19364669439E+03  0.00000000000E+00 0. -1.
        -13    1    4    4    0    0 -0.17715520591E+01 -0.21676076877E+02  0.79788062455E+02  0.82699006136E+02  0.00000000000E+00 0. -1.
         13    1    4    4    0    0 -0.39760155274E+02  0.11722019082E+02 -0.59914997652E+01  0.41882857450E+02  0.00000000000E+00 0.  1.
         21    1    1    2  503  502 -0.13949416969E+02 -0.48919246572E+02 -0.27708349935E+02  0.57926087172E+02  0.00000000000E+00 0.  1.
          1    1    1    2  501    0 -0.24976014556E+02 -0.95479440648E+01  0.72113971582E+01  0.27694201341E+02  0.00000000000E+00 0. -1.
<scales pt_clust_5="13000.00000" pt_clust_6="13000.00000" pt_clust_7="13000.00000" pt_clust_8="13000.00000" pt_clust_9="61.07024" pt_clust_10="26.73882"></scales>
<clustering>
<clus scale="   26.739">  2 10  1 -1</clus>
<clus scale="   61.070">  2  9  1 -1</clus>
<clus scale="   79.467">  5  6 -1 -1</clus>
<clus scale="   90.834">  7  8 -1 -1</clus>
<clus scale="  119.724">  1  5  2 -1</clus>
<clus scale="   26.739">  2  5  1 -1</clus>
</clustering>
</event>
<event>
10    4  0.3043429E-005  0.1268402E+03  0.7546771E-02  0.1250080E+00
          2   -1    0    0  503    0 -0.00000000000E+00  0.00000000000E+00  0.68353934734E+03  0.68353934734E+03  0.00000000000E+00 0. -1.
         21   -1    0    0  501  502  0.00000000000E+00 -0.00000000000E+00 -0.54842283679E+02  0.54842283679E+02  0.00000000000E+00 0.  1.
         24    2    1    2    0    0 -0.28498878240E+02  0.19863055613E+02  0.90035840964E+02  0.12280772070E+03  0.75951014255E+02 0.  0.
         23    2    1    2    0    0  0.37891784513E+02  0.83198902785E+02  0.22505299068E+03  0.25944512353E+03  0.91132204799E+02 0.  0.
        -11    1    3    3    0    0  0.46185606512E-01  0.25282053773E+02 -0.28888594866E+01  0.25446608521E+02  0.00000000000E+00 0.  1.
         12    1    3    3    0    0 -0.28545063847E+02 -0.54189981599E+01  0.92924700450E+02  0.97361112179E+02  0.00000000000E+00 0. -1.
        -11    1    4    4    0    0  0.69077609915E+00  0.50269539470E+02  0.19500997419E+03  0.20138618076E+03  0.00000000000E+00 0.  1.
         11    1    4    4    0    0  0.37201008414E+02  0.32929363315E+02  0.30043016497E+02  0.58058942771E+02  0.00000000000E+00 0. -1.
         21    1    1    2  503  502 -0.33131313384E+02 -0.63179880696E+01  0.79563191753E+01  0.34654060579E+02  0.00000000000E+00 0.  1.
          1    1    1    2  501    0  0.23738407110E+02 -0.96743970329E+02  0.30565191284E+03  0.32147472620E+03  0.00000000000E+00 0. -1.
<scales pt_clust_5="13000.00000" pt_clust_6="13000.00000" pt_clust_7="13000.00000" pt_clust_8="13000.00000" pt_clust_9="33.72834" pt_clust_10="88.22336"></scales>
<clustering>
<clus scale="   33.728">  2  9  1 -1</clus>
<clus scale="   75.951">  5  6 -1 -1</clus>
<clus scale="   88.314">  1  5  2 -1</clus>
<clus scale="   88.223">  2 10  1 -1</clus>
<clus scale="   91.132">  7  8 -1 -1</clus>
<clus scale="   33.728">  2  5  1 -1</clus>
</clustering>
</event>
<event>
10    4  0.3043429E-005  0.9810170E+02  0.7546771E-02  0.1292685E+00
         -1   -1    0    0    0  501 -0.00000000000E+00  0.00000000000E+00  0.21378447330E+03  0.21378447330E+03  0.00000000000E+00 0.  1.
         21   -1    0    0  501  502  0.00000000000E+00 -0.00000000000E+00 -0.14635534124E+03  0.14635534124E+03  0.00000000000E+00 0.  1.
         23    2    1    2    0    0 -0.23028852138E+02  0.36473527387E+02  0.84876547711E+02  0.13316531783E+03  0.93103852172E+02 0.  0.
         24    2    1    2    0    0 -0.46041485985E+02 -0.21501818202E+02  0.17713510945E+02  0.94736896630E+02  0.77968997014E+02 0.  0.
        -13    1    4    4    0    0 -0.18144013056E+02  0.22549399122E+02 -0.15582504911E+02  0.32870884835E+02  0.00000000000E+00 0.  1.
         14    1    4    4    0    0 -0.27897472929E+02 -0.44051217324E+02  0.33296015855E+02  0.61866011795E+02  0.00000000000E+00 0. -1.
        -13    1    3    3    0    0  0.14719701944E+02 -0.24502442178E+02  0.37754494018E+02  0.47354420243E+02  0.00000000000E+00 0. -1.
         13    1    3    3    0    0 -0.37748554081E+02  0.60975969565E+02  0.47122053694E+02  0.85810897583E+02  0.00000000000E+00 0.  1.
         21    1    1    2  503  502  0.43506408780E+01  0.26239305579E+02 -0.47582723098E+02  0.54511877337E+02  0.00000000000E+00 0.  1.
         -2    1    1    2    0  503  0.64719697244E+02 -0.41211014764E+02  0.12421796497E+02  0.77725722753E+02  0.00000000000E+00 0.  1.
<scales pt_clust_5="13000.00000" pt_clust_6="13000.00000" pt_clust_7="13000.00000" pt_clust_8="13000.00000" pt_clust_9="26.59754" pt_clust_10="73.63438"></scales>
<clustering>
<clus scale="   26.598">  2  9  1 -1</clus>
<clus scale="   73.634">  2 10  1 -1</clus>
<clus scale="   77.969">  5  6 -1 -1</clus>
<clus scale="   83.874">  2  5  1 -1</clus>
<clus scale="   93.104">  7  8 -1 -1</clus>
<clus scale="   26.598">  2  5  1 -1</clus>
</clustering>
</event>
<event>
10    4  0.3043429E-005  0.2760136E+03  0.7546771E-02  0.1137550E+00
         21   -1    0    0  503  502  0.00000000000E+00  0.00000000000E+00  0.10256503612E+03  0.10256503612E+03  0.00000000000E+00 0.  1.
          2   -1    0    0  502    0 -0.00000000000E+00 -0.00000000000E+00 -0.15668607981E+04  0.15668607981E+04  0.00000000000E+00 0. -1.
         23    2    1    2    0    0 -0.36039271609E+02  0.26543503198E+02 -0.73864904748E+02  0.12556051490E+03  0.91137435162E+02 0.  0.
         24    2    1    2    0    0 -0.24221885448E+03 -0.12667246630E+02 -0.95732780792E+03  0.99160930001E+03  0.89342260095E+02 0.  0.
        -11    1    4    4    0    0 -0.24869040181E+03 -0.17313780693E+02 -0.90619638600E+03  0.93986093277E+03  0.00000000000E+00 0.  1.
         12    1    4    4    0    0  0.64715473310E+01  0.46465340625E+01 -0.51131421920E+02  0.51748367232E+02  0.00000000000E+00 0. -1.
        -13    1    3    3    0    0  0.20469279929E+02  0.13644621850E+02 -0.61578666408E+02  0.66310627224E+02  0.00000000000E+00 0. -1.
         13    1    3    3    0    0 -0.56508551537E+02  0.12898881348E+02 -0.12286238340E+02  0.59249887674E+02  0.00000000000E+00 0.  1.
         21    1    1    2  503  501  0.11526449630E+02  0.17377841630E+02  0.17812565569E+02  0.27425096407E+02  0.00000000000E+00 0. -1.
          1    1    1    2  501    0  0.26673167646E+03 -0.31254098197E+02 -0.45091561484E+03  0.52483092286E+03  0.00000000000E+00 0. -1.
<scales pt_clust_5="13000.00000" pt_clust_6="13000.00000" pt_clust_7="13000.00000" pt_clust_8="13000.00000" pt_clust_9="20.85302" pt_clust_10="261.15411"></scales>
<clustering>
<clus scale="   20.853">  1  9  2 -1</clus>
<clus scale="   89.342">  5  6 -1 -1</clus>
<clus scale="   91.137">  7  8 -1 -1</clus>
<clus scale="  101.905">  2  7  1 -1</clus>
<clus scale="  261.154">  1 10  2 -1</clus>
<clus scale="   20.853">  1  5  2 -1</clus>
</clustering>
</event>
<event>
10    4  0.3043429E-005  0.1903209E+03  0.7546771E-02  0.1181975E+00
         21   -1    0    0  503  502  0.00000000000E+00  0.00000000000E+00  0.46125992192E+03  0.46125992192E+03  0.00000000000E+00 0. -1.
          2   -1    0    0  502    0 -0.00000000000E+00 -0.00000000000E+00 -0.61523188988E+03  0.61523188988E+03  0.00000000000E+00 0. -1.
         23    2    1    2    0    0 -0.46311103925E+02  0.81588844160E+02 -0.12573701167E+02  0.13143037615E+03  0.91183265878E+02 0.  0.
         24    2    1    2    0    0 -0.12361008553E+03  0.12739044025E+03 -0.28461291795E+03  0.34479711975E+03  0.79829588558E+02 0.  0.
        -13    1    4    4    0    0 -0.91712199814E+02  0.12631486716E+03 -0.26433329633E+03  0.30698316698E+03  0.00000000000E+00 0.  1.
         14    1    4    4    0    0 -0.31897885717E+02  0.10755730888E+01 -0.20279621618E+02  0.37813952764E+02  0.00000000000E+00 0. -1.
        -11    1    3    3    0    0 -0.48466914600E+02  0.46079203997E+02  0.32216695718E+02  0.74231060445E+02  0.00000000000E+00 0.  1.
         11    1    3    3    0    0  0.21558106752E+01  0.35509640163E+02 -0.44790396884E+02  0.57199315706E+02  0.00000000000E+00 0. -1.
         21    1    1    2  503  501  0.11535925824E+03 -0.41884611604E+02  0.32499591590E+03  0.34739663859E+03  0.00000000000E+00 0. -1.
          1    1    1    2  501    0  0.54561931212E+02 -0.16709467280E+03 -0.18178126475E+03  0.25286767731E+03  0.00000000000E+00 0. -1.
<scales pt_clust_5="13000.00000" pt_clust_6="13000.00000" pt_clust_7="13000.00000" pt_clust_8="13000.00000" pt_clust_9="122.72766" pt_clust_10="172.76954"></scales>
<clustering>
<clus scale="   79.830">  5  6 -1 -1</clus>
<clus scale="   91.183">  7  8 -1 -1</clus>
<clus scale="  122.728">  1  9  2 -1</clus>
<clus scale="  110.417">  2  7  1 -1</clus>
<clus scale="  172.770">  1 10  2 -1</clus>
<clus scale="  122.728">  1  5  2 -1</clus>
</clustering>
</event>
<event>
10    4  0.3043429E-005  0.1396141E+03  0.7546771E-02  0.1231173E+00
          2   -1    0    0  503    0 -0.00000000000E+00  0.00000000000E+00  0.89870583892E+03  0.89870583892E+03  0.00000000000E+00 0. -1.
         21   -1    0    0  501  502  0.00000000000E+00 -0.00000000000E+00 -0.17317697720E+03  0.17317697720E+03  0.00000000000E+00 0.  1.
         24    2    1    2    0    0 -0.47441270059E+02  0.54516531861E+01  0.61858780791E+03  0.62591278519E+03  0.82677348381E+02 0.  0.
         23    2    1    2    0    0 -0.47919377911E+02  0.16417036641E+02  0.82221132966E+02  0.13352879454E+03  0.92216258830E+02 0.  0.
        -13    1    3    3    0    0 -0.66037286115E+00 -0.30977699875E+02  0.12529144159E+03  0.12906587201E+03  0.00000000000E+00 0.  1.
         14    1    3    3    0    0 -0.46780897198E+02  0.36429353061E+02  0.49329636633E+03  0.49684691318E+03  0.00000000000E+00 0. -1.
        -11    1    4    4    0    0 -0.15100775432E+02 -0.35959405958E+02  0.51226879238E+02  0.64384046564E+02  0.00000000000E+00 0.  1.
         11    1    4    4    0    0 -0.32818602478E+02  0.52376442599E+02  0.30994253729E+02  0.69144747972E+02  0.00000000000E+00 0. -1.
         21    1    1    2  503  502 -0.64423567973E+02  0.24959000928E+02 -0.87620410292E+02  0.11158263367E+03  0.00000000000E+00 0.  1.
          1    1    1    2  501    0  0.15978421594E+03 -0.46827690755E+02  0.11234033113E+03  0.20085860272E+03  0.00000000000E+00 0. -1.
<scales pt_clust_5="13000.00000" pt_clust_6="13000.00000" pt_clust_7="13000.00000" pt_clust_8="13000.00000" pt_clust_9="69.08942" pt_clust_10="104.82484"></scales>
<clustering>
<clus scale="   69.089">  2  9  1 -1</clus>
<clus scale="   82.677">  5  6 -1 -1</clus>
<clus scale="   92.216">  7  8 -1 -1</clus>
<clus scale="   97.188">  1  5  2 -1</clus>
<clus scale="  104.825">  2 10  1 -1</clus>
<clus scale="   69.089">  2  5  1 -1</clus>
</clustering>
</event>
<event>
10    4  0.3043429E-005  0.3455440E+03  0.7546771E-02  0.1089339E+00
          2   -1    0    0  502    0 -0.00000000000E+00  0.00000000000E+00  0.31311009537E+04  0.31311009537E+04  0.00000000000E+00 0. -1.
         21   -1    0    0  503  502  0.00000000000E+00 -0.00000000000E+00 -0.90243033085E+02  0.90243033085E+02  0.00000000000E+00 0. -1.
         24    2    1    2    0    0  0.87587429396E+02  0.11817167669E+03  0.43101797289E+03  0.46170855363E+03  0.75909107399E+02 0.  0.
         23    2    1    2    0    0 -0.34477392421E+03 -0.28250448386E+03  0.17120524811E+04  0.17726754072E+04  0.11214525887E+03 0.  0.
        -13    1    3    3    0    0  0.49886555609E+02  0.18718099751E+02  0.91085448196E+02  0.10552532664E+03  0.00000000000E+00 0.  1.
         14    1    3    3    0    0  0.37700873787E+02  0.99453576935E+02  0.33993252469E+03  0.35618322700E+03  0.00000000000E+00 0. -1.
        -13    1    4    4    0    0  0.32920609621E+01 -0.22010359942E+02  0.50474591901E+02  0.55163194593E+02  0.00000000000E+00 0.  1.
         13    1    4    4    0    0 -0.34806598517E+03 -0.26049412391E+03  0.16615778892E+04  0.17175122126E+04  0.00000000000E+00 0. -1.
         21    1    1    2  503  501  0.50693195912E+02  0.21732467591E+02  0.41187193312E+00  0.55156775629E+02  0.00000000000E+00 0. -1.
          1    1    1    2  501    0  0.20649329890E+03  0.14260033958E+03  0.89737559475E+03  0.93180325036E+03  0.00000000000E+00 0. -1.
<scales pt_clust_5="13000.00000" pt_clust_6="13000.00000" pt_clust_7="13000.00000" pt_clust_8="13000.00000" pt_clust_9="55.15524" pt_clust_10="326.83957"></scales>
<clustering>
<clus scale="   55.155">  2  9  1 -1</clus>
<clus scale="   75.909">  5  6 -1 -1</clus>
<clus scale="  112.145">  7  8 -1 -1</clus>
<clus scale="  176.070">  1  5  2 -1</clus>
<clus scale="  326.840">  2 10  1 -1</clus>
<clus scale="   55.155">  2  5  1 -1</clus>
</clustering>
</event>
<event>
10    4  0.3043429E-005  0.1267197E+03  0.7546771E-02  0.1235041E+00
          2   -1    0    0  503    0 -0.00000000000E+00  0.00000000000E+00  0.65818095459E+03  0.65818095459E+03  0.00000000000E+00 0. -1.
         21   -1    0    0  501  502  0.00000000000E+00 -0.00000000000E+00 -0.91429467948E+02  0.91429467948E+02  0.00000000000E+00 0.  1.
         23    2    1    2    0    0  0.98716878083E+02  0.57476215400E+02  0.25720136015E+03  0.29560960363E+03  0.90465246058E+02 0.  0.
         24    2    1    2    0    0 -0.28461688921E+02  0.43446579337E+01 -0.12418755626E+02  0.86724661475E+02  0.80857885379E+02 0.  0.
        -13    1    4    4    0    0 -0.28779541253E+02 -0.40380022546E+01 -0.44730277385E+02  0.53341964455E+02  0.00000000000E+00 0.  1.
         14    1    4    4    0    0  0.31785233279E+00  0.83826601883E+01  0.32311521759E+02  0.33382697020E+02  0.00000000000E+00 0. -1.
        -11    1    3    3    0    0  0.54531990747E+02 -0.98547825693E+01  0.16031600413E+03  0.16962333547E+03  0.00000000000E+00 0.  1.
         11    1    3    3    0    0  0.44184887336E+02  0.67330997970E+02  0.96885356015E+02  0.12598626817E+03  0.00000000000E+00 0. -1.
         21    1    1    2  503  502 -0.47159098343E+02 -0.18577993218E+02  0.10233206729E+02  0.51709195589E+02  0.00000000000E+00 0.  1.
          1    1    1    2  501    0 -0.23096090820E+02 -0.43242880117E+02  0.31173567540E+03  0.31556696184E+03  0.00000000000E+00 0. -1.
<scales pt_clust_5="13000.00000" pt_clust_6="13000.00000" pt_clust_7="13000.00000" pt_clust_8="13000.00000" pt_clust_9="59.79155" pt_clust_10="49.02426"></scales>
<clustering>
<clus scale="   49.024">  2 10  1 -1</clus>
<clus scale="   59.792">  2  9  1 -1</clus>
<clus scale="   80.858">  5  6 -1 -1</clus>
<clus scale="   90.465">  7  8 -1 -1</clus>
<clus scale="  120.050">  2  5  1 -1</clus>
<clus scale="   49.024">  2  5  1 -1</clus>
</clustering>
</event>
<event>
10    4  0.3043429E-005  0.3459833E+03  0.7546771E-02  0.1064473E+00
         21   -1    0    0  503  502  0.00000000000E+00  0.00000000000E+00  0.69779601849E+03  0.69779601849E+03  0.00000000000E+00 0.  1.
          2   -1    0    0  502    0 -0.00000000000E+00 -0.00000000000E+00 -0.31499487232E+03  0.31499487232E+03  0.00000000000E+00 0. -1.
         24    2    1    2    0    0 -0.29539972564E+03  0.19316356093E+03  0.58530844946E+02  0.36737129833E+03  0.83442506202E+02 0.  0.
         23    2    1    2    0    0  0.24000993545E+03 -0.17090650326E+03  0.38370028029E+03  0.49224832130E+03  0.90932407665E+02 0.  0.
        -11    1    3    3    0    0 -0.11405927571E+03  0.28136327895E+02  0.20227063740E+02  0.11920698566E+03  0.00000000000E+00 0.  1.
         12    1    3    3    0    0 -0.18134044994E+03  0.16502723304E+03  0.38303781206E+02  0.24816431267E+03  0.00000000000E+00 0. -1.
        -13    1    4    4    0    0  0.10162195548E+03 -0.12785421104E+03  0.20965368376E+03  0.26576002000E+03  0.00000000000E+00 0. -1.
         13    1    4    4    0    0  0.13838797997E+03 -0.43052292221E+02  0.17404659653E+03  0.22648830131E+03  0.00000000000E+00 0.  1.
         21    1    1    2  503  501 -0.25278074941E+01  0.21098155378E+02  0.30862186164E+02  0.37469941365E+02  0.00000000000E+00 0.  1.
          1    1    1    2  501    0  0.57917597694E+02 -0.43355213053E+02 -0.90292165223E+02  0.11570132982E+03  0.00000000000E+00 0. -1.
<scales pt_clust_5="13000.00000" pt_clust_6="13000.00000" pt_clust_7="13000.00000" pt_clust_8="13000.00000" pt_clust_9="21.24905" pt_clust_10="72.06709"></scales>
<clustering>
<clus scale="   21.249">  1  9  2 -1</clus>
<clus scale="   72.067">  1 10  2 -1</clus>
<clus scale="   83.443">  5  6 -1 -1</clus>
<clus scale="   90.932">  7  8 -1 -1</clus>
<clus scale="  344.091">  2  5  1 -1</clus>
<clus scale="   21.249">  1  5  2 -1</clus>
</clustering>
</event>
<event>
10    4  0.3422751E-005  0.9571774E+02  0.7546771E-02  0.1295236E+00
         21   -1    0    0  501  502  0.00000000000E+00  0.00000000000E+00  0.13333298857E+03  0.13333298857E+03  0.00000000000E+00 0.  1.
          2   -1    0    0  503    0 -0.00000000000E+00 -0.00000000000E+00 -0.12938563920E+04  0.12938563920E+04  0.00000000000E+00 0. -1.
         24    2    1    2    0    0 -0.20766490600E+02  0.23385724640E+02 -0.98910868453E+03  0.99290572725E+03  0.80917576322E+02 0.  0.
         23    2    1    2    0    0  0.12289771421E+01 -0.26773723647E+02 -0.27261941243E+03  0.28867617741E+03  0.91072765994E+02 0.  0.
        -11    1    3    3    0    0 -0.10615829967E+02 -0.19338988235E+02 -0.87844935905E+02  0.90572761226E+02  0.00000000000E+00 0.  1.
         12    1    3    3    0    0 -0.10150660633E+02  0.42724712875E+02 -0.90126374862E+03  0.90233296603E+03  0.00000000000E+00 0. -1.
        -13    1    4    4    0    0 -0.19408293941E+01 -0.60718335474E+02 -0.16841573524E+03  0.17903726695E+03  0.00000000000E+00 0.  1.
         13    1    4    4    0    0  0.31698065362E+01  0.33944611828E+02 -0.10420367720E+03  0.10963891046E+03  0.00000000000E+00 0. -1.
         21    1    1    2  503  502  0.42580743532E+02 -0.20010438623E+02  0.10245749869E+03  0.11274340961E+03  0.00000000000E+00 0.  1.
          1    1    1    2  501    0 -0.23043230073E+02  0.23398437629E+02 -0.12528052051E+01  0.32864066343E+02  0.00000000000E+00 0. -1.
<scales pt_clust_5="13000.00000" pt_clust_6="13000.00000" pt_clust_7="13000.00000" pt_clust_8="13000.00000" pt_clust_9="21.53018" pt_clust_10="32.84018"></scales>
<clustering>
<clus scale="   32.840">  1 10  2 -1</clus>
<clus scale="   21.530">  1  9  2 -1</clus>
<clus scale="   80.918">  5  6 -1 -1</clus>
<clus scale="   86.112">  2  5  1 -1</clus>
<clus scale="   91.073">  7  8 -1 -1</clus>
<clus scale="   32.840">  1  5  2 -1</clus>
</clustering>
</event>
<event>
10    4  0.3043429E-005  0.1600451E+03  0.7546771E-02  0.1222343E+00
         21   -1    0    0  501  502  0.00000000000E+00  0.00000000000E+00  0.22630042314E+03  0.22630042314E+03  0.00000000000E+00 0. -1.
          4   -1    0    0  503    0 -0.00000000000E+00 -0.00000000000E+00 -0.60241558292E+03  0.60241558292E+03  0.00000000000E+00 0. -1.
         24    2    1    2    0    0 -0.29179852509E+02 -0.19576244587E+00 -0.65626379607E+02  0.10155197250E+03  0.71794702476E+02 0.  0.
         23    2    1    2    0    0  0.13261250302E+03  0.18819777686E+02  0.12050116239E+03  0.20105956992E+03  0.89242145470E+02 0.  0.
        -13    1    3    3    0    0  0.15414871629E+02  0.13941489544E+02 -0.46644747561E+02  0.51065799446E+02  0.00000000000E+00 0.  1.
         14    1    3    3    0    0 -0.44594724138E+02 -0.14137251990E+02 -0.18981632046E+02  0.50486173056E+02  0.00000000000E+00 0. -1.
        -11    1    4    4    0    0 -0.53191875487E+00  0.23230897324E+02  0.30057962661E+01  0.23430585550E+02  0.00000000000E+00 0.  1.
         11    1    4    4    0    0  0.13314442177E+03 -0.44111196377E+01  0.11749536613E+03  0.17762898437E+03  0.00000000000E+00 0. -1.
         21    1    1    2  503  502 -0.38699332782E+02  0.87059832186E+02 -0.20688130411E+02  0.97493853539E+02  0.00000000000E+00 0. -1.
          3    1    1    2  501    0 -0.64733317724E+02 -0.10568384743E+03 -0.41030181216E+03  0.42861061010E+03  0.00000000000E+00 0. -1.
<scales pt_clust_5="13000.00000" pt_clust_6="13000.00000" pt_clust_7="13000.00000" pt_clust_8="13000.00000" pt_clust_9="96.65114" pt_clust_10="132.85434"></scales>
<clustering>
<clus scale="   71.795">  5  6 -1 -1</clus>
<clus scale="   77.498">  2  5  1 -1</clus>
<clus scale="   89.242">  7  8 -1 -1</clus>
<clus scale="   96.651">  1  9  2 -1</clus>
<clus scale="  132.854">  1 10  2 -1</clus>
<clus scale="   96.651">  1  5  2 -1</clus>
</clustering>
</event>
<event>
10    4  0.3043429E-005  0.9344789E+02  0.7546771E-02  0.1301961E+00
         -1   -1    0    0    0  501 -0.00000000000E+00  0.00000000000E+00  0.55511349592E+03  0.55511349592E+03  0.00000000000E+00 0.  1.
         21   -1    0    0  503  502  0.00000000000E+00 -0.00000000000E+00 -0.33559409555E+02  0.33559409555E+02  0.00000000000E+00 0. -1.
         24    2    1    2    0    0  0.96251616974E+01  0.11008105168E+02  0.32068842097E+03  0.33100243840E+03  0.80670494992E+02 0.  0.
         23    2    1    2    0    0 -0.85474155478E+01 -0.49256840856E+01  0.16227172878E+03  0.18705687267E+03  0.92524801945E+02 0.  0.
        -11    1    3    3    0    0  0.44645184228E+02  0.68176839644E+01  0.14750527931E+03  0.15426432094E+03  0.00000000000E+00 0.  1.
         12    1    3    3    0    0 -0.35020022531E+02  0.41904212035E+01  0.17318314166E+03  0.17673811746E+03  0.00000000000E+00 0. -1.
        -11    1    4    4    0    0  0.39644275481E+02 -0.35682847179E+01  0.43980650449E+02  0.59318621428E+02  0.00000000000E+00 0. -1.
         11    1    4    4    0    0 -0.48191691028E+02 -0.13573993677E+01  0.11829107833E+03  0.12773825124E+03  0.00000000000E+00 0.  1.
         21    1    1    2  503  501  0.18018671809E+02 -0.23898842241E+02  0.92426526594E+01  0.31324971227E+02  0.00000000000E+00 0. -1.
         -2    1    1    2    0  502 -0.19096417959E+02  0.17816421158E+02  0.29351283949E+02  0.39288623177E+02  0.00000000000E+00 0.  1.
<scales pt_clust_5="13000.00000" pt_clust_6="13000.00000" pt_clust_7="13000.00000" pt_clust_8="13000.00000" pt_clust_9="20.07299" pt_clust_10="26.11701"></scales>
<clustering>
<clus scale="   26.117">  2 10  1 -1</clus>
<clus scale="   20.073">  2  9  1 -1</clus>
<clus scale="   80.670">  5  6 -1 -1</clus>
<clus scale="   81.728">  1  5  2 -1</clus>
<clus scale="   92.525">  7  8 -1 -1</clus>
<clus scale="   26.117">  2  5  1 -1</clus>
</clustering>
</event>
<event>
10    4  0.3043429E-005  0.9036026E+02  0.7546771E-02  0.1307278E+00
         21   -1    0    0  501  502  0.00000000000E+00  0.00000000000E+00  0.18670753349E+03  0.18670753349E+03  0.00000000000E+00 0. -1.
          2   -1    0    0  503    0 -0.00000000000E+00 -0.00000000000E+00 -0.12859241706E+03  0.12859241706E+03  0.00000000000E+00 0. -1.
         23    2    1    2    0    0 -0.62251516830E+01 -0.17849012705E+02 -0.65013334016E+02  0.11081629176E+03  0.87727858468E+02 0.  0.
         24    2    1    2    0    0 -0.11461404215E+02 -0.84328807665E+01  0.71347911267E+02  0.10747252540E+03  0.79103362822E+02 0.  0.
        -11    1    4    4    0    0 -0.19349878769E+02 -0.84289167548E+01 -0.11645104128E+02  0.24105453661E+02  0.00000000000E+00 0.  1.
         12    1    4    4    0    0  0.78884745544E+01 -0.39640116279E-02  0.82993015395E+02  0.83367071742E+02  0.00000000000E+00 0. -1.
        -11    1    3    3    0    0 -0.44713975843E+02  0.43881500609E+01 -0.27709304938E+02  0.52786372075E+02  0.00000000000E+00 0.  1.
         11    1    3    3    0    0  0.38488824160E+02 -0.22237162766E+02 -0.37304029078E+02  0.58029919684E+02  0.00000000000E+00 0. -1.
         21    1    1    2  503  502  0.21311031998E+02 -0.17309149870E+02 -0.21885103734E+01  0.27541901381E+02  0.00000000000E+00 0.  1.
          1    1    1    2  501    0 -0.36244761001E+01  0.43591043342E+02  0.53969049547E+02  0.69469232007E+02  0.00000000000E+00 0. -1.
<scales pt_clust_5="13000.00000" pt_clust_6="13000.00000" pt_clust_7="13000.00000" pt_clust_8="13000.00000" pt_clust_9="27.45481" pt_clust_10="42.46708"></scales>
<clustering>
<clus scale="   27.455">  2  9  1 -1</clus>
<clus scale="   42.467">  1 10  2 -1</clus>
<clus scale="   79.103">  5  6 -1 -1</clus>
<clus scale="   82.013">  1  5  2 -1</clus>
<clus scale="   87.728">  7  8 -1 -1</clus>
<clus scale="   42.467">  1  5  2 -1</clus>
</clustering>
</event>
<event>
10    4  0.3043429E-005  0.1476928E+03  0.7546771E-02  0.1205758E+00
          4   -1    0    0  503    0 -0.00000000000E+00  0.00000000000E+00  0.79477872301E+03  0.79477872301E+03  0.00000000000E+00 0. -1.
         21   -1    0    0  501  502  0.00000000000E+00 -0.00000000000E+00 -0.21353999005E+03  0.21353999005E+03  0.00000000000E+00 0.  1.
         24    2    1    2    0    0  0.96741989025E+02  0.38778386417E+02  0.42933252857E+03  0.44895800048E+03  0.79837900869E+02 0.  0.
         23    2    1    2    0    0 -0.12543244650E+03 -0.12637284144E+03  0.17048207746E+03  0.26325547492E+03  0.92390003000E+02 0.  0.
        -13    1    3    3    0    0  0.10963392441E+03  0.42323853333E+02  0.37379394767E+03  0.39183264445E+03  0.00000000000E+00 0.  1.
         14    1    3    3    0    0 -0.12891935380E+02 -0.35454669162E+01  0.55538580903E+02  0.57125356036E+02  0.00000000000E+00 0. -1.
        -13    1    4    4    0    0 -0.10954033174E+03 -0.52122617652E+02  0.12755766716E+03  0.17603070755E+03  0.00000000000E+00 0. -1.
         13    1    4    4    0    0 -0.15892114758E+02 -0.74250223786E+02  0.42924410296E+02  0.87224767371E+02  0.00000000000E+00 0.  1.
         21    1    1    2  503  502  0.44899382939E+02  0.14287227010E+03 -0.11154428939E+03  0.18673662910E+03  0.00000000000E+00 0.  1.
          3    1    1    2  501    0 -0.16208925462E+02 -0.55277815077E+02  0.92968416321E+02  0.10936860856E+03  0.00000000000E+00 0. -1.
<scales pt_clust_5="13000.00000" pt_clust_6="13000.00000" pt_clust_7="13000.00000" pt_clust_8="13000.00000" pt_clust_9="107.93275" pt_clust_10="57.60529"></scales>
<clustering>
<clus scale="   57.605">  2 10  1 -1</clus>
<clus scale="   79.838">  5  6 -1 -1</clus>
<clus scale="   92.390">  7  8 -1 -1</clus>
<clus scale="  107.933">  2  9  1 -1</clus>
<clus scale="  140.183">  1  5  2 -1</clus>
<clus scale="   57.605">  2  5  1 -1</clus>
</clustering>
</event>
<event>
10    4  0.3043429E-005  0.7149842E+03  0.7546771E-02  0.1019064E+00
         21   -1    0    0  501  502  0.00000000000E+00  0.00000000000E+00  0.31142064687E+03  0.31142064687E+03  0.00000000000E+00 0.  1.
          2   -1    0    0  503    0 -0.00000000000E+00 -0.00000000000E+00 -0.27011712445E+04  0.27011712445E+04  0.00000000000E+00 0. -1.
         24    2    1    2    0    0  0.11853613651E+03 -0.26885827949E+02 -0.39959758949E+03  0.42528041348E+03  0.80072049792E+02 0.  0.
         23    2    1    2    0    0  0.24787875531E+02 -0.16904974312E+03 -0.33024798612E+03  0.38294499695E+03  0.91601768173E+02 0.  0.
        -13    1    3    3    0    0  0.99443405501E+02 -0.11530517005E+01 -0.20258323079E+03  0.22567739325E+03  0.00000000000E+00 0.  1.
         14    1    3    3    0    0  0.19092731011E+02 -0.25732776249E+02 -0.19701435870E+03  0.19960302023E+03  0.00000000000E+00 0. -1.
        -13    1    4    4    0    0  0.49272428315E+02 -0.43008324343E+02 -0.11612507963E+03  0.13327611292E+03  0.00000000000E+00 0.  1.
         13    1    4    4    0    0 -0.24484552784E+02 -0.12604141878E+03 -0.21412290648E+03  0.24966888403E+03  0.00000000000E+00 0. -1.
         21    1    1    2  503  502 -0.14915390669E+03  0.80979824168E+03 -0.80201358884E+03  0.11494545997E+04  0.00000000000E+00 0.  1.
          1    1    1    2  501    0  0.58298946449E+01 -0.61386267061E+03 -0.85789143322E+03  0.10549118813E+04  0.00000000000E+00 0. -1.
<scales pt_clust_5="13000.00000" pt_clust_6="13000.00000" pt_clust_7="13000.00000" pt_clust_8="13000.00000" pt_clust_9="714.98420" pt_clust_10="13000.00000"></scales>
<clustering>
<clus scale="   80.072">  5  6 -1 -1</clus>
<clus scale="   91.602">  7  8 -1 -1</clus>
<clus scale="  145.551">  2  5  1 -1</clus>
<clus scale="  200.683">  2  7  1 -1</clus>
<clus scale="  714.984">  2  9  1 -1</clus>
<clus scale="  714.984">  1  5  2 -1</clus>
</clustering>
</event>
<event>
10    4  0.3043429E-005  0.2783988E+03  0.7546771E-02  0.1096843E+00
         -3   -1    0    0    0  501 -0.00000000000E+00  0.00000000000E+00  0.86691716888E+02  0.86691716888E+02  0.00000000000E+00 0.  1.
         21   -1    0    0  503  502  0.00000000000E+00 -0.00000000000E+00 -0.15367228609E+04  0.15367228609E+04  0.00000000000E+00 0. -1.
         24    2    1    2    0    0 -0.59898879826E+02 -0.22983019337E+03 -0.50127188310E+03  0.56074325972E+03  0.82156612287E+02 0.  0.
         23    2    1    2    0    0  0.41587573789E+02  0.30171385195E+03 -0.76341653947E+03  0.82669608718E+03  0.88661339297E+02 0.  0.
        -11    1    3    3    0    0 -0.40041893683E+02 -0.29076919896E+02 -0.92660204561E+02  0.10504634230E+03  0.00000000000E+00 0.  1.
         12    1    3    3    0    0 -0.19856986144E+02 -0.20075327347E+03 -0.40861167854E+03  0.45569691742E+03  0.00000000000E+00 0. -1.
        -13    1    4    4    0    0 -0.15066823252E+02  0.18959588970E+03 -0.42114019205E+03  0.46209595531E+03  0.00000000000E+00 0.  1.
         13    1    4    4    0    0  0.56654397042E+02  0.11211796225E+03 -0.34227634742E+03  0.36460013188E+03  0.00000000000E+00 0. -1.
         21    1    1    2  503  501  0.78122804426E+01 -0.21629775922E+02 -0.18315140647E+03  0.18458958970E+03  0.00000000000E+00 0.  1.
         -4    1    1    2    0  502  0.10499025594E+02 -0.50253882659E+02 -0.21913149893E+01  0.51385641206E+02  0.00000000000E+00 0.  1.
<scales pt_clust_5="13000.00000" pt_clust_6="13000.00000" pt_clust_7="13000.00000" pt_clust_8="13000.00000" pt_clust_9="22.99737" pt_clust_10="51.78985"></scales>
<clustering>
<clus scale="   22.997">  2  9  1 -1</clus>
<clus scale="   51.790">  2 10  1 -1</clus>
<clus scale="   82.157">  5  6 -1 -1</clus>
<clus scale="   88.661">  7  8 -1 -1</clus>
<clus scale="  276.396">  1  5  2 -1</clus>
<clus scale="   22.997">  2  5  1 -1</clus>
</clustering>
</event>
<event>
10    4  0.3043429E-005  0.1680050E+03  0.7546771E-02  0.1203719E+00
          2   -1    0    0  503    0 -0.00000000000E+00  0.00000000000E+00  0.57896132538E+03  0.57896132538E+03  0.00000000000E+00 0. -1.
         21   -1    0    0  501  502  0.00000000000E+00 -0.00000000000E+00 -0.11217952454E+03  0.11217952454E+03  0.00000000000E+00 0.  1.
         23    2    1    2    0    0  0.26671313459E+02 -0.56449213997E+02  0.94048685019E+02  0.13955974688E+03  0.82060313631E+02 0.  0.
         24    2    1    2    0    0 -0.91393366080E+02  0.15552701346E+03  0.27453579264E+03  0.33788460020E+03  0.79086676049E+02 0.  0.
        -13    1    4    4    0    0  0.13325268165E+02  0.32913981125E+02  0.43687410578E+02  0.56298159545E+02  0.00000000000E+00 0.  1.
         14    1    4    4    0    0 -0.10471863424E+03  0.12261303233E+03  0.23084838207E+03  0.28158644065E+03  0.00000000000E+00 0. -1.
        -11    1    3    3    0    0  0.18797248473E+02 -0.33429018138E+02 -0.39795967300E+01  0.38557398693E+02  0.00000000000E+00 0.  1.
         11    1    3    3    0    0  0.78740649864E+01 -0.23020195858E+02  0.98028281749E+02  0.10100234819E+03  0.00000000000E+00 0. -1.
         21    1    1    2  503  502  0.15249873034E+02  0.37256962325E+02  0.33358648490E+01  0.40395146535E+02  0.00000000000E+00 0.  1.
          1    1    1    2  501    0  0.49472179586E+02 -0.13633476179E+03  0.94861458323E+02  0.17330135631E+03  0.00000000000E+00 0. -1.
<scales pt_clust_5="13000.00000" pt_clust_6="13000.00000" pt_clust_7="13000.00000" pt_clust_8="13000.00000" pt_clust_9="40.25717" pt_clust_10="148.22614"></scales>
<clustering>
<clus scale="   40.257">  2  9  1 -1</clus>
<clus scale="   79.087">  5  6 -1 -1</clus>
<clus scale="   82.060">  7  8 -1 -1</clus>
<clus scale="   99.514">  1  7  2 -1</clus>
<clus scale="  148.226">  2 10  1 -1</clus>
<clus scale="   40.257">  2  5  1 -1</clus>
</clustering>
</event>
<event>
10    4  0.4419095E-005  0.4961854E+03  0.7546771E-02  0.1065932E+00
          2   -1    0    0  502    0 -0.00000000000E+00  0.00000000000E+00  0.31050573075E+04  0.31050573075E+04  0.00000000000E+00 0. -1.
         21   -1    0    0  503  502  0.00000000000E+00 -0.00000000000E+00 -0.13921767739E+03  0.13921767739E+03  0.00000000000E+00 0. -1.
         24    2    1    2    0    0 -0.66566899625E+02 -0.32202879795E+02  0.46470379803E+03  0.47818900900E+03  0.85128907133E+02 0.  0.
         23    2    1    2    0    0 -0.10200473542E+03 -0.47981754668E+03  0.62244083003E+03  0.79779171777E+03  0.91701657019E+02 0.  0.
        -13    1    3    3    0    0 -0.64918371700E+02  0.29473270869E+01  0.18102382571E+03  0.19233488294E+03  0.00000000000E+00 0.  1.
         14    1    3    3    0    0 -0.16485279249E+01 -0.35150206882E+02  0.28367997232E+03  0.28585412606E+03  0.00000000000E+00 0. -1.
        -13    1    4    4    0    0 -0.53384666107E+02 -0.80477805177E+02  0.11227872407E+03  0.14809831728E+03  0.00000000000E+00 0.  1.
         13    1    4    4    0    0 -0.48620069316E+02 -0.39933974151E+03  0.51016210596E+03  0.64969340049E+03  0.00000000000E+00 0. -1.
         21    1    1    2  503  501  0.14763681100E+02  0.18572779039E+02  0.45174690970E+01  0.24152058461E+02  0.00000000000E+00 0. -1.
          1    1    1    2  501    0  0.15380795395E+03  0.49344764744E+03  0.18741775330E+04  0.19441421997E+04  0.00000000000E+00 0. -1.
<scales pt_clust_5="13000.00000" pt_clust_6="13000.00000" pt_clust_7="13000.00000" pt_clust_8="13000.00000" pt_clust_9="23.72582" pt_clust_10="487.63819"></scales>
<clustering>
<clus scale="   23.726">  2  9  1 -1</clus>
<clus scale="   85.129">  5  6 -1 -1</clus>
<clus scale="   91.702">  7  8 -1 -1</clus>
<clus scale="  112.035">  1  5  2 -1</clus>
<clus scale="  487.638">  2 10  1 -1</clus>
<clus scale="   23.726">  2  5  1 -1</clus>
</clustering>
</event>
<event>
10    4  0.3043429E-005  0.2265689E+03  0.7546771E-02  0.1142351E+00
         21   -1    0    0  503  502  0.00000000000E+00  0.00000000000E+00  0.10739207273E+03  0.10739207273E+03  0.00000000000E+00 0. -1.
          2   -1    0    0  502    0 -0.00000000000E+00 -0.00000000000E+00 -0.14212245802E+04  0.14212245802E+04  0.00000000000E+00 0. -1.
         23    2    1    2    0    0  0.46871451919E+02  0.12285540108E+03 -0.31101152598E+03  0.34859708528E+03  0.86610484304E+02 0.  0.
         24    2    1    2    0    0  0.49066903497E+02 -0.23899568208E+03 -0.19012165825E+03  0.31956570053E+03  0.80308747644E+02 0.  0.
        -11    1    4    4    0    0  0.54080031266E+01 -0.46611675993E+02 -0.19926006893E+01  0.46966640227E+02  0.00000000000E+00 0.  1.
         12    1    4    4    0    0  0.43658900370E+02 -0.19238400609E+03 -0.18812905756E+03  0.27259906031E+03  0.00000000000E+00 0. -1.
        -13    1    3    3    0    0  0.23357911003E+02  0.12236227092E+03 -0.20396628810E+03  0.23899866952E+03  0.00000000000E+00 0.  1.
         13    1    3    3    0    0  0.23513540916E+02  0.49313016205E+00 -0.10704523788E+03  0.10959841576E+03  0.00000000000E+00 0. -1.
         21    1    1    2  503  501  0.44316058356E+02  0.23685818480E+02 -0.27091279015E+02  0.57086499489E+02  0.00000000000E+00 0. -1.
          1    1    1    2  501    0 -0.14025441377E+03  0.92454462520E+02 -0.78560804420E+03  0.80336736761E+03  0.00000000000E+00 0. -1.
<scales pt_clust_5="13000.00000" pt_clust_6="13000.00000" pt_clust_7="13000.00000" pt_clust_8="13000.00000" pt_clust_9="50.24869" pt_clust_10="211.85846"></scales>
<clustering>
<clus scale="   50.249">  1  9  2 -1</clus>
<clus scale="   80.309">  5  6 -1 -1</clus>
<clus scale="   86.610">  7  8 -1 -1</clus>
<clus scale="  164.088">  2  7  1 -1</clus>
<clus scale="  211.858">  1 10  2 -1</clus>
<clus scale="   50.249">  1  5  2 -1</clus>
</clustering>
</event>
<event>
10    4  0.3043429E-005  0.1383613E+03  0.7546771E-02  0.1217983E+00
         21   -1    0    0  503  502  0.00000000000E+00  0.00000000000E+00  0.39064521193E+03  0.39064521193E+03  0.00000000000E+00 0. -1.
         -1   -1    0    0    0  501 -0.00000000000E+00 -0.00000000000E+00 -0.15617840054E+03  0.15617840054E+03  0.00000000000E+00 0.  1.
         23    2    1    2    0    0  0.84900230193E+02 -0.22106630247E+02 -0.35290144687E+02  0.13293188410E+03  0.93427722389E+02 0.  0.
         24    2    1    2    0    0 -0.13311617730E+03  0.12274792080E+02  0.44985111948E+02  0.16356976287E+03  0.82830066101E+02 0.  0.
        -13    1    4    4    0    0 -0.24726778224E+02  0.40598595143E+00 -0.24065824389E+02  0.34507133892E+02  0.00000000000E+00 0.  1.
         14    1    4    4    0    0 -0.10838939908E+03  0.11868806129E+02  0.69050936336E+02  0.12906262898E+03  0.00000000000E+00 0. -1.
        -13    1    3    3    0    0  0.58337512360E+01  0.21844576165E+02  0.17142300021E+02  0.28373871983E+02  0.00000000000E+00 0.  1.
         13    1    3    3    0    0  0.79066478957E+02 -0.43951206412E+02 -0.52432444708E+02  0.10455801212E+03  0.00000000000E+00 0. -1.
         21    1    1    2  503  501  0.70028499274E+02 -0.16958795507E+02  0.17914057925E+03  0.19308790379E+03  0.00000000000E+00 0.  1.
         -2    1    1    2    0  502 -0.21812552167E+02  0.26790633675E+02  0.45631264879E+02  0.57234061705E+02  0.00000000000E+00 0.  1.
<scales pt_clust_5="13000.00000" pt_clust_6="13000.00000" pt_clust_7="13000.00000" pt_clust_8="13000.00000" pt_clust_9="58.10466" pt_clust_10="34.54744"></scales>
<clustering>
<clus scale="   34.547">  1 10  2 -1</clus>
<clus scale="   58.105">  1  9  2 -1</clus>
<clus scale="   82.830">  5  6 -1 -1</clus>
<clus scale="   93.428">  7  8 -1 -1</clus>
<clus scale="  131.438">  1  5  2 -1</clus>
<clus scale="   34.547">  1  5  2 -1</clus>
</clustering>
</event>
<event>
10    4  0.3043429E-005  0.4194956E+03  0.7546771E-02  0.1037231E+00
          2   -1    0    0  502    0 -0.00000000000E+00  0.00000000000E+00  0.11766007535E+04  0.11766007535E+04  0.00000000000E+00 0. -1.
         21   -1    0    0  503  502  0.00000000000E+00 -0.00000000000E+00 -0.16430860384E+03  0.16430860384E+03  0.00000000000E+00 0. -1.
         24    2    1    2    0    0 -0.89358681493E+02  0.51129571735E+02  0.11581968159E+03  0.17353190078E+03  0.78101951845E+02 0.  0.
         23    2    1    2    0    0 -0.24780021339E+03  0.98360848048E+02  0.23035073457E+03  0.36319463273E+03  0.88142374268E+02 0.  0.
        -11    1    3    3    0    0 -0.39313765884E+02  0.54599050301E+01  0.39602136545E+00  0.39693067201E+02  0.00000000000E+00 0.  1.
         12    1    3    3    0    0 -0.50044915610E+02  0.45669666705E+02  0.11542366022E+03  0.13383883358E+03  0.00000000000E+00 0. -1.
        -13    1    4    4    0    0 -0.12726172355E+03  0.43626592265E+02  0.59616577003E+02  0.14714945493E+03  0.00000000000E+00 0. -1.
         13    1    4    4    0    0 -0.12053848984E+03  0.54734255783E+02  0.17073415756E+03  0.21604517779E+03  0.00000000000E+00 0.  1.
         21    1    1    2  503  501 -0.33503632091E+02 -0.40937553821E+02  0.32383405304E+02  0.62024685531E+02  0.00000000000E+00 0. -1.
          1    1    1    2  501    0  0.37066252697E+03 -0.10855286596E+03  0.63373832824E+03  0.74215813833E+03  0.00000000000E+00 0. -1.
<scales pt_clust_5="13000.00000" pt_clust_6="13000.00000" pt_clust_7="13000.00000" pt_clust_8="13000.00000" pt_clust_9="52.89969" pt_clust_10="379.15534"></scales>
<clustering>
<clus scale="   52.900">  2  9  1 -1</clus>
<clus scale="   78.102">  5  6 -1 -1</clus>
<clus scale="   88.142">  7  8 -1 -1</clus>
<clus scale="   89.161">  5  7 -1 -1</clus>
<clus scale="  379.155">  2 10  1 -1</clus>
<clus scale="   52.900">  2  5  1 -1</clus>
</clustering>
</event>
<event>
10    4  0.3043429E-005  0.6940266E+03  0.7546771E-02  0.1000032E+00
         21   -1    0    0  503  502  0.00000000000E+00  0.00000000000E+00  0.42160893586E+03  0.42160893586E+03  0.00000000000E+00 0. -1.
          2   -1    0    0  502    0 -0.00000000000E+00 -0.00000000000E+00 -0.24644838660E+04  0.24644838660E+04  0.00000000000E+00 0. -1.
         23    2    1    2    0    0  0.74842252889E+02  0.25350803178E+03 -0.27579618468E+02  0.28102574594E+03  0.91362735992E+02 0.  0.
         24    2    1    2    0    0  0.56472612175E+03  0.25349855493E+03 -0.62749230461E+03  0.88511705918E+03  0.80675313253E+02 0.  0.
        -11    1    4    4    0    0  0.10117688238E+03  0.15090490858E+02 -0.11880236285E+03  0.15677527184E+03  0.00000000000E+00 0.  1.
         12    1    4    4    0    0  0.46354923938E+03  0.23840806407E+03 -0.50868994176E+03  0.72834178734E+03  0.00000000000E+00 0. -1.
        -11    1    3    3    0    0  0.30646121445E+02  0.15123228010E+03 -0.59099452063E+02  0.16523659564E+03  0.00000000000E+00 0.  1.
         11    1    3    3    0    0  0.44196131444E+02  0.10227575168E+03  0.31519833594E+02  0.11578915030E+03  0.00000000000E+00 0. -1.
         21    1    1    2  503  501  0.11895443089E+02  0.18724352138E+02  0.50840877777E+02  0.55469791620E+02  0.00000000000E+00 0. -1.
          1    1    1    2  501    0 -0.65146381773E+03 -0.52573093885E+03 -0.14386438849E+04  0.16644802052E+04  0.00000000000E+00 0. -1.
<scales pt_clust_5="13000.00000" pt_clust_6="13000.00000" pt_clust_7="13000.00000" pt_clust_8="13000.00000" pt_clust_9="22.18339" pt_clust_10="689.32201"></scales>
<clustering>
<clus scale="   22.183">  1  9  2 -1</clus>
<clus scale="   80.675">  5  6 -1 -1</clus>
<clus scale="   91.363">  7  8 -1 -1</clus>
<clus scale="  286.619">  2  7  1 -1</clus>
<clus scale="  689.322">  1 10  2 -1</clus>
<clus scale="   22.183">  1  5  2 -1</clus>
</clustering>
</event>
<event>
10    4  0.3043429E-005  0.2283045E+03  0.7546771E-02  0.1155588E+00
         21   -1    0    0  501  502  0.00000000000E+00  0.00000000000E+00  0.13968697917E+03  0.13968697917E+03  0.00000000000E+00 0. -1.
          2   -1    0    0  503    0 -0.00000000000E+00 -0.00000000000E+00 -0.82592107202E+03  0.82592107202E+03  0.00000000000E+00 0. -1.
         23    2    1    2    0    0  0.29430186669E+02  0.69334181771E+02 -0.28645910606E+03  0.30970731774E+03  0.90478939919E+02 0.  0.
         24    2    1    2    0    0 -0.39007851008E+02  0.17341000176E+03 -0.15667835296E+03  0.25150741663E+03  0.84351841584E+02 0.  0.
        -13    1    4    4    0    0 -0.35846856011E+02  0.30002848481E+02 -0.69154476133E+02  0.83471609378E+02  0.00000000000E+00 0.  1.
         14    1    4    4    0    0 -0.31609949965E+01  0.14340715328E+03 -0.87523876829E+02  0.16803580725E+03  0.00000000000E+00 0. -1.
        -13    1    3    3    0    0 -0.12200251697E+02  0.71170486277E+02 -0.21709223410E+03  0.22878619357E+03  0.00000000000E+00 0.  1.
         13    1    3    3    0    0  0.41630438367E+02 -0.18363045060E+01 -0.69366871955E+02  0.80921124175E+02  0.00000000000E+00 0. -1.
         21    1    1    2  503  502 -0.43263410704E+02  0.71797593052E+01  0.97972204760E+01  0.44936145568E+02  0.00000000000E+00 0. -1.
          1    1    1    2  501    0  0.52841075043E+02 -0.24992394284E+03 -0.25289385430E+03  0.35945717125E+03  0.00000000000E+00 0. -1.
<scales pt_clust_5="13000.00000" pt_clust_6="13000.00000" pt_clust_7="13000.00000" pt_clust_8="13000.00000" pt_clust_9="43.85512" pt_clust_10="212.15029"></scales>
<clustering>
<clus scale="   43.855">  1  9  2 -1</clus>
<clus scale="   84.352">  5  6 -1 -1</clus>
<clus scale="   90.479">  7  8 -1 -1</clus>
<clus scale="  117.132">  2  7  1 -1</clus>
<clus scale="  212.150">  1 10  2 -1</clus>
<clus scale="   43.855">  1  5  2 -1</clus>
</clustering>
</event>
<event>
10    4  0.3043429E-005  0.1113944E+03  0.7546771E-02  0.1264552E+00
         -3   -1    0    0    0  501 -0.00000000000E+00  0.00000000000E+00  0.16151067642E+03  0.16151067642E+03  0.00000000000E+00 0.  1.
         21   -1    0    0  503  502  0.00000000000E+00 -0.00000000000E+00 -0.31187802164E+03  0.31187802164E+03  0.00000000000E+00 0.  1.
         24    2    1    2    0    0  0.33934652952E+02  0.55995630323E+02  0.95373833630E+02  0.14084214454E+03  0.80332249143E+02 0.  0.
         23    2    1    2    0    0 -0.49953840878E+02  0.38610085267E+02 -0.11792899376E+03  0.16478939824E+03  0.96240185485E+02 0.  0.
        -13    1    3    3    0    0  0.45276804317E+02  0.71016588060E+02  0.71780232424E+02  0.11066050134E+03  0.00000000000E+00 0.  1.
         14    1    3    3    0    0 -0.11342151365E+02 -0.15020957738E+02  0.23593601206E+02  0.30181643209E+02  0.00000000000E+00 0. -1.
        -13    1    4    4    0    0 -0.17821981395E+02  0.68763771583E+02 -0.72491562254E+02  0.10149436389E+03  0.00000000000E+00 0.  1.
         13    1    4    4    0    0 -0.32131859483E+02 -0.30153686317E+02 -0.45437431505E+02  0.63295034356E+02  0.00000000000E+00 0. -1.
         21    1    1    2  503  501  0.15883660832E+02 -0.22286846680E+02 -0.70034922200E+02  0.75192317054E+02  0.00000000000E+00 0.  1.
         -4    1    1    2    0  502  0.13552709365E+00 -0.72318868909E+02 -0.57777262890E+02  0.92564838221E+02  0.00000000000E+00 0.  1.
<scales pt_clust_5="13000.00000" pt_clust_6="13000.00000" pt_clust_7="13000.00000" pt_clust_8="13000.00000" pt_clust_9="27.36776" pt_clust_10="79.48630"></scales>
<clustering>
<clus scale="   27.368">  2  9  1 -1</clus>
<clus scale="   79.486">  2 10  1 -1</clus>
<clus scale="   80.332">  5  6 -1 -1</clus>
<clus scale="   96.240">  7  8 -1 -1</clus>
<clus scale="   97.979">  1  5  2 -1</clus>
<clus scale="   27.368">  2  5  1 -1</clus>
</clustering>
</event>
<event>
10    4  0.3043429E-005  0.2171758E+03  0.7546771E-02  0.1171494E+00
         21   -1    0    0  503  502  0.00000000000E+00  0.00000000000E+00  0.11462723683E+04  0.11462723683E+04  0.00000000000E+00 0. -1.
          2   -1    0    0  502    0 -0.00000000000E+00 -0.00000000000E+00 -0.55278941277E+03  0.55278941277E+03  0.00000000000E+00 0. -1.
         23    2    1    2    0    0 -0.94486263529E+01  0.22070325350E+02 -0.63747867517E+02  0.11372841579E+03  0.91071324485E+02 0.  0.
         24    2    1    2    0    0 -0.80100474527E+02 -0.90486433036E+02 -0.81849804960E+02  0.16698125017E+03  0.81113912212E+02 0.  0.
        -13    1    4    4    0    0 -0.71946367587E+02 -0.63137320577E+02 -0.95615730625E+02  0.13529585730E+03  0.00000000000E+00 0.  1.
         14    1    4    4    0    0 -0.81541069397E+01 -0.27349112459E+02  0.13765925665E+02  0.31685392876E+02  0.00000000000E+00 0. -1.
        -13    1    3    3    0    0  0.33070394698E+02  0.23517860638E+01 -0.57597294321E+02  0.66457732555E+02  0.00000000000E+00 0.  1.
         13    1    3    3    0    0 -0.42519021050E+02  0.19718539286E+02 -0.61505731959E+01  0.47270683233E+02  0.00000000000E+00 0. -1.
         21    1    1    2  503  501  0.14712699675E+03 -0.16016736459E+03  0.10249839484E+04  0.10478034321E+04  0.00000000000E+00 0. -1.
          1    1    1    2  501    0 -0.57577895868E+02  0.22858347227E+03 -0.28590332038E+03  0.37054868303E+03  0.00000000000E+00 0. -1.
<scales pt_clust_5="13000.00000" pt_clust_6="13000.00000" pt_clust_7="13000.00000" pt_clust_8="13000.00000" pt_clust_9="217.17576" pt_clust_10="13000.00000"></scales>
<clustering>
<clus scale="   81.114">  5  6 -1 -1</clus>
<clus scale="   91.071">  7  8 -1 -1</clus>
<clus scale="   94.183">  2  7  1 -1</clus>
<clus scale="  143.387">  2  5  1 -1</clus>
<clus scale="  217.176">  1  9  2 -1</clus>
<clus scale="  217.176">  1  5  2 -1</clus>
</clustering>
</event>
<event>
10    4  0.3043429E-005  0.2971325E+03  0.7546771E-02  0.1087105E+00
         21   -1    0    0  503  502  0.00000000000E+00  0.00000000000E+00  0.42046366795E+03  0.42046366795E+03  0.00000000000E+00 0.  1.
         -1   -1    0    0    0  501 -0.00000000000E+00 -0.00000000000E+00 -0.45155355884E+03  0.45155355884E+03  0.00000000000E+00 0.  1.
         23    2    1    2    0    0 -0.23132779868E+03  0.22938878067E+03 -0.73779850568E+02  0.34653107350E+03  0.92241831163E+02 0.  0.
         24    2    1    2    0    0  0.20370083659E+03 -0.10727631572E+03  0.10495268550E+03  0.26564479366E+03  0.80931152618E+02 0.  0.
        -13    1    4    4    0    0  0.17831935830E+03 -0.58932074833E+02  0.93753992371E+02  0.20990615540E+03  0.00000000000E+00 0.  1.
         14    1    4    4    0    0  0.25381478283E+02 -0.48344240892E+02  0.11198693127E+02  0.55738638259E+02  0.00000000000E+00 0. -1.
        -11    1    3    3    0    0 -0.88847823316E+01  0.26415318843E+02  0.16212113787E+02  0.32241914647E+02  0.00000000000E+00 0. -1.
         11    1    3    3    0    0 -0.22244301635E+03  0.20297346182E+03 -0.89991964355E+02  0.31428915885E+03  0.00000000000E+00 0.  1.
         21    1    1    2  503  501 -0.25545729882E+02 -0.59651721225E+02  0.75470163405E+02  0.99532194413E+02  0.00000000000E+00 0.  1.
         -2    1    1    2    0  502  0.53172691972E+02 -0.62460743716E+02 -0.13773288923E+03  0.16030916522E+03  0.00000000000E+00 0.  1.
<scales pt_clust_5="13000.00000" pt_clust_6="13000.00000" pt_clust_7="13000.00000" pt_clust_8="13000.00000" pt_clust_9="64.89154" pt_clust_10="83.03046"></scales>
<clustering>
<clus scale="   64.892">  1  9  2 -1</clus>
<clus scale="   80.931">  5  6 -1 -1</clus>
<clus scale="   83.030">  1 10  2 -1</clus>
<clus scale="   92.242">  7  8 -1 -1</clus>
<clus scale="  293.818">  1  5  2 -1</clus>
<clus scale="   64.892">  1  5  2 -1</clus>
</clustering>
</event>
<event>
10    4  0.3043429E-005  0.2932902E+03  0.7546771E-02  0.1106462E+00
         21   -1    0    0  503  502  0.00000000000E+00  0.00000000000E+00  0.12838589273E+04  0.12838589273E+04  0.00000000000E+00 0.  1.
         -3   -1    0    0    0  501 -0.00000000000E+00 -0.00000000000E+00 -0.16908890555E+03  0.16908890555E+03  0.00000000000E+00 0.  1.
         24    2    1    2    0    0 -0.13395476598E+03  0.96511161535E+02  0.15579694952E+03  0.24411510365E+03  0.89784245408E+02 0.  0.
         23    2    1    2    0    0  0.31909863231E+03  0.62228491691E+02  0.25429606273E+03  0.42236703493E+03  0.89616417932E+02 0.  0.
        -11    1    3    3    0    0 -0.12806301701E+03  0.82792210994E+02  0.16647257650E+03  0.22576050419E+03  0.00000000000E+00 0.  1.
         12    1    3    3    0    0 -0.58917489670E+01  0.13718950541E+02 -0.10675626983E+02  0.18354599459E+02  0.00000000000E+00 0. -1.
        -11    1    4    4    0    0  0.27683654447E+03  0.53198675430E+02  0.17427405633E+03  0.33142120954E+03  0.00000000000E+00 0.  1.
         11    1    4    4    0    0  0.42262087841E+02  0.90298162615E+01  0.80022006391E+02  0.90945825398E+02  0.00000000000E+00 0. -1.
         21    1    1    2  503  501  0.44082189947E+02  0.20632189390E+02  0.17997150798E+03  0.18643677318E+03  0.00000000000E+00 0.  1.
         -4    1    1    2    0  502 -0.22922605628E+03 -0.17937184262E+03  0.52470550148E+03  0.60002892104E+03  0.00000000000E+00 0.  1.
<scales pt_clust_5="13000.00000" pt_clust_6="13000.00000" pt_clust_7="13000.00000" pt_clust_8="13000.00000" pt_clust_9="48.67162" pt_clust_10="279.26338"></scales>
<clustering>
<clus scale="   48.672">  1  9  2 -1</clus>
<clus scale="   89.616">  7  8 -1 -1</clus>
<clus scale="   89.784">  5  6 -1 -1</clus>
<clus scale="  184.325">  2  5  1 -1</clus>
<clus scale="  279.263">  1 10  2 -1</clus>
<clus scale="   48.672">  1  5  2 -1</clus>
</clustering>
</event>
<event>
10    4  0.3043429E-005  0.1017978E+03  0.7546771E-02  0.1280275E+00
         21   -1    0    0  503  502  0.00000000000E+00  0.00000000000E+00  0.19828844501E+02  0.19828844501E+02  0.00000000000E+00 0. -1.
          2   -1    0    0  502    0 -0.00000000000E+00 -0.00000000000E+00 -0.15255778709E+04  0.15255778709E+04  0.00000000000E+00 0. -1.
         24    2    1    2    0    0 -0.60848681903E+02  0.40926708106E+02 -0.68529812643E+03  0.69423621607E+03  0.83383716026E+02 0.  0.
         23    2    1    2    0    0 -0.33831531110E+02 -0.33833109668E+02 -0.36872308413E+03  0.38284232819E+03  0.91226551349E+02 0.  0.
        -13    1    3    3    0    0 -0.34463487352E+02  0.15567425388E+01 -0.80459907545E+02  0.87544001107E+02  0.00000000000E+00 0.  1.
         14    1    3    3    0    0 -0.26385194552E+02  0.39369965567E+02 -0.60483821888E+03  0.60669221497E+03  0.00000000000E+00 0. -1.
        -13    1    4    4    0    0  0.20029856889E+02 -0.39935795666E+02 -0.11456964000E+03  0.12297262034E+03  0.00000000000E+00 0.  1.
         13    1    4    4    0    0 -0.53861387999E+02  0.61026859981E+01 -0.25415344413E+03  0.25986970785E+03  0.00000000000E+00 0. -1.
         21    1    1    2  503  501  0.36374462957E+02  0.17701252378E+02 -0.65847051230E+02  0.77280463552E+02  0.00000000000E+00 0. -1.
          1    1    1    2  501    0  0.58305750056E+02 -0.24794850816E+02 -0.38588076463E+03  0.39104770761E+03  0.00000000000E+00 0. -1.
<scales pt_clust_5="13000.00000" pt_clust_6="13000.00000" pt_clust_7="13000.00000" pt_clust_8="13000.00000" pt_clust_9="40.45288" pt_clust_10="68.44713"></scales>
<clustering>
<clus scale="   40.453">  1  9  2 -1</clus>
<clus scale="   68.447">  1 10  2 -1</clus>
<clus scale="   83.384">  5  6 -1 -1</clus>
<clus scale="   91.227">  7  8 -1 -1</clus>
<clus scale="   94.833">  2  5  1 -1</clus>
<clus scale="   40.453">  1  5  2 -1</clus>
</clustering>
</event>
<event>
10    4  0.3043429E-005  0.4681422E+03  0.7546771E-02  0.1076397E+00
          2   -1    0    0  503    0 -0.00000000000E+00  0.00000000000E+00  0.22302636093E+04  0.22302636093E+04  0.00000000000E+00 0. -1.
         21   -1    0    0  501  502  0.00000000000E+00 -0.00000000000E+00 -0.15576263309E+03  0.15576263309E+03  0.00000000000E+00 0. -1.
         23    2    1    2    0    0  0.30184632369E+02  0.35053863031E+02  0.56459188646E+02  0.11755656140E+03  0.92152155703E+02 0.  0.
         24    2    1    2    0    0  0.21830421595E+03 -0.40311186887E+03  0.13180140466E+04  0.13978543323E+04  0.81730029644E+02 0.  0.
        -13    1    4    4    0    0  0.19291573866E+02 -0.56284001967E+02  0.10568959664E+03  0.12128620918E+03  0.00000000000E+00 0.  1.
         14    1    4    4    0    0  0.19901264209E+03 -0.34682786690E+03  0.12123244499E+04  0.12765681231E+04  0.00000000000E+00 0. -1.
        -11    1    3    3    0    0  0.48808590606E+02  0.56321999363E+02  0.44946337636E+02  0.87032289388E+02  0.00000000000E+00 0. -1.
         11    1    3    3    0    0 -0.18623958237E+02 -0.21268136332E+02  0.11512851009E+02  0.30524272011E+02  0.00000000000E+00 0.  1.
         21    1    1    2  503  502 -0.70155444077E+01 -0.39914963326E+02  0.32922874878E+02  0.52214345260E+02  0.00000000000E+00 0. -1.
          1    1    1    2  501    0 -0.24147330392E+03  0.40797296916E+03  0.66710486614E+03  0.81840100348E+03  0.00000000000E+00 0. -1.
<scales pt_clust_5="13000.00000" pt_clust_6="13000.00000" pt_clust_7="13000.00000" pt_clust_8="13000.00000" pt_clust_9="40.52681" pt_clust_10="460.95258"></scales>
<clustering>
<clus scale="   40.527">  2  9  1 -1</clus>
<clus scale="   81.730">  5  6 -1 -1</clus>
<clus scale="   92.152">  7  8 -1 -1</clus>
<clus scale="  100.150">  1  7  2 -1</clus>
<clus scale="  460.953">  2 10  1 -1</clus>
<clus scale="   40.527">  2  5  1 -1</clus>
</clustering>
</event>
<event>
10    4  0.3043429E-005  0.1619808E+03  0.7546771E-02  0.1188069E+00
         -1   -1    0    0    0  501 -0.00000000000E+00  0.00000000000E+00  0.14490387380E+04  0.14490387380E+04  0.00000000000E+00 0.  1.
         21   -1    0    0  501  502  0.00000000000E+00 -0.00000000000E+00 -0.70550247078E+02  0.70550247078E+02  0.00000000000E+00 0.  1.
         24    2    1    2    0    0 -0.33057879263E+02 -0.10079166273E+03  0.33696258543E+03  0.36190078386E+03  0.78591416346E+02 0.  0.
         23    2    1    2    0    0 -0.46540265938E+02  0.25323290749E+03  0.37478546552E+03  0.46338132951E+03  0.89248022893E+02 0.  0.
        -11    1    3    3    0    0  0.20730639081E+02 -0.12005776326E+02  0.10613325825E+03  0.10880333896E+03  0.00000000000E+00 0.  1.
         12    1    3    3    0    0 -0.53788518344E+02 -0.88785886401E+02  0.23082932718E+03  0.25309744490E+03  0.00000000000E+00 0. -1.
        -13    1    4    4    0    0 -0.66257460676E+02  0.12178309429E+03  0.17206257686E+03  0.22096765262E+03  0.00000000000E+00 0.  1.
         13    1    4    4    0    0  0.19717194738E+02  0.13144981321E+03  0.20272288865E+03  0.24241367689E+03  0.00000000000E+00 0. -1.
         21    1    1    2  503  502  0.20655202676E+02 -0.69753353124E+02  0.13900162418E+03  0.15688728181E+03  0.00000000000E+00 0.  1.
         -2    1    1    2    0  503  0.58942942524E+02 -0.82687891641E+02  0.52773881577E+03  0.53741958986E+03  0.00000000000E+00 0.  1.
<scales pt_clust_5="13000.00000" pt_clust_6="13000.00000" pt_clust_7="13000.00000" pt_clust_8="13000.00000" pt_clust_9="72.74729" pt_clust_10="106.96669"></scales>
<clustering>
<clus scale="   72.747">  2  9  1 -1</clus>
<clus scale="   78.591">  5  6 -1 -1</clus>
<clus scale="   89.248">  7  8 -1 -1</clus>
<clus scale="  106.967">  2 10  1 -1</clus>
<clus scale="  156.362">  1  5  2 -1</clus>
<clus scale="   72.747">  2  5  1 -1</clus>
</clustering>
</event>
<event>
10    4  0.3043429E-005  0.4330749E+03  0.7546771E-02  0.1052817E+00
          2   -1    0    0  503    0 -0.00000000000E+00  0.00000000000E+00  0.36615858703E+04  0.36615858703E+04  0.00000000000E+00 0. -1.
         21   -1    0    0  501  502  0.00000000000E+00 -0.00000000000E+00 -0.11104611106E+03  0.11104611106E+03  0.00000000000E+00 0.  1.
         23    2    1    2    0    0 -0.10909563218E+03 -0.22132140986E+03  0.40610694374E+03  0.48440403909E+03  0.94018082906E+02 0.  0.
         24    2    1    2    0    0 -0.93247575968E+01  0.51688305450E+03  0.14370925707E+04  0.15293343321E+04  0.79833573021E+02 0.  0.
        -11    1    4    4    0    0 -0.92693121870E+01  0.51243303288E+03  0.13805004560E+04  0.14725675001E+04  0.00000000000E+00 0.  1.
         12    1    4    4    0    0 -0.55445409735E-01  0.44500216259E+01  0.56592114742E+02  0.56766832020E+02  0.00000000000E+00 0. -1.
        -11    1    3    3    0    0 -0.11026892809E+03 -0.12222771217E+03  0.26520154414E+03  0.31213892603E+03  0.00000000000E+00 0.  1.
         11    1    3    3    0    0  0.11732959087E+01 -0.99093697688E+02  0.14090539960E+03  0.17226511307E+03  0.00000000000E+00 0. -1.
         21    1    1    2  503  502  0.70464156571E+02  0.33070867280E+02  0.18429503058E+03  0.20005883615E+03  0.00000000000E+00 0.  1.
          1    1    1    2  501    0  0.47956233205E+02 -0.32863251192E+03  0.15230452142E+04  0.15588347740E+04  0.00000000000E+00 0. -1.
<scales pt_clust_5="13000.00000" pt_clust_6="13000.00000" pt_clust_7="13000.00000" pt_clust_8="13000.00000" pt_clust_9="77.83881" pt_clust_10="425.65319"></scales>
<clustering>
<clus scale="   77.839">  2  9  1 -1</clus>
<clus scale="   79.834">  5  6 -1 -1</clus>
<clus scale="   94.018">  7  8 -1 -1</clus>
<clus scale="  243.326">  1  7  2 -1</clus>
<clus scale="  425.653">  2 10  1 -1</clus>
<clus scale="   77.839">  2  5  1 -1</clus>
</clustering>
</event>
<event>
10    4  0.3043429E-005  0.1417369E+03  0.7546771E-02  0.1214388E+00
         21   -1    0    0  503  502  0.00000000000E+00  0.00000000000E+00  0.56421206810E+02  0.56421206810E+02  0.00000000000E+00 0. -1.
          2   -1    0    0  502    0 -0.00000000000E+00 -0.00000000000E+00 -0.97657536694E+03  0.97657536694E+03  0.00000000000E+00 0. -1.
         24    2    1    2    0    0  0.37829766853E+02 -0.10320784731E+03 -0.65256647149E+03  0.66685096452E+03  0.82245110214E+02 0.  0.
         23    2    1    2    0    0  0.21796534830E+02  0.73937635670E+02 -0.50088393374E+02  0.13379714651E+03  0.97216080787E+02 0.  0.
        -11    1    3    3    0    0  0.36160383650E+02 -0.32370449877E+01 -0.21154043998E+03  0.21463319769E+03  0.00000000000E+00 0.  1.
         12    1    3    3    0    0  0.16693832026E+01 -0.99970802321E+02 -0.44102603152E+03  0.45221776682E+03  0.00000000000E+00 0. -1.
        -13    1    4    4    0    0  0.23008263049E+02  0.84118570406E+00 -0.55904253349E+02  0.60459683297E+02  0.00000000000E+00 0.  1.
         13    1    4    4    0    0 -0.12117282192E+01  0.73096449966E+02  0.58158599742E+01  0.73337463210E+02  0.00000000000E+00 0. -1.
         21    1    1    2  503  501 -0.12884588026E+02  0.24314938515E+02 -0.38778270913E+02  0.47549796410E+02  0.00000000000E+00 0. -1.
          1    1    1    2  501    0 -0.46741713657E+02  0.49552731242E+01 -0.17872102435E+03  0.18479866631E+03  0.00000000000E+00 0. -1.
<scales pt_clust_5="13000.00000" pt_clust_6="13000.00000" pt_clust_7="13000.00000" pt_clust_8="13000.00000" pt_clust_9="27.51779" pt_clust_10="47.92016"></scales>
<clustering>
<clus scale="   27.518">  1  9  2 -1</clus>
<clus scale="   47.920">  1 10  2 -1</clus>
<clus scale="   82.245">  5  6 -1 -1</clus>
<clus scale="   97.216">  7  8 -1 -1</clus>
<clus scale="  131.919">  2  5  1 -1</clus>
<clus scale="   27.518">  1  5  2 -1</clus>
</clustering>
</event>
<event>
10    4  0.3043429E-005  0.4286757E+03  0.7546771E-02  0.1034865E+00
          2   -1    0    0  503    0 -0.00000000000E+00  0.00000000000E+00  0.30717895448E+04  0.30717895448E+04  0.00000000000E+00 0. -1.
         21   -1    0    0  501  502  0.00000000000E+00 -0.00000000000E+00 -0.14644729768E+03  0.14644729768E+03  0.00000000000E+00 0.  1.
         24    2    1    2    0    0 -0.41280291630E+03  0.74203912906E+02  0.22197750126E+04  0.22605160004E+04  0.81357317363E+02 0.  0.
         23    2    1    2    0    0  0.38524772288E+03 -0.53005504913E+02  0.40277218220E+03  0.57122557049E+03  0.11334826904E+03 0.  0.
        -11    1    3    3    0    0 -0.25137040575E+03  0.79246631682E+02  0.12634529867E+04  0.12906512151E+04  0.00000000000E+00 0.  1.
         12    1    3    3    0    0 -0.16143251055E+03 -0.50427187760E+01  0.95632202590E+03  0.96986478527E+03  0.00000000000E+00 0. -1.
        -11    1    4    4    0    0  0.18254335061E+03 -0.53052702819E+02  0.12560727160E+03  0.22784611211E+03  0.00000000000E+00 0.  1.
         11    1    4    4    0    0  0.20270437227E+03  0.47197906031E-01  0.27716491061E+03  0.34337945838E+03  0.00000000000E+00 0. -1.
         21    1    1    2  503  502 -0.73289809470E+02 -0.15821693689E+02  0.86241083492E+01  0.75472494382E+02  0.00000000000E+00 0. -1.
          1    1    1    2  501    0  0.10084500289E+03 -0.53767143042E+01  0.29417094401E+03  0.31102277724E+03  0.00000000000E+00 0. -1.
<scales pt_clust_5="13000.00000" pt_clust_6="13000.00000" pt_clust_7="13000.00000" pt_clust_8="13000.00000" pt_clust_9="74.97814" pt_clust_10="95.60633"></scales>
<clustering>
<clus scale="   74.978">  2  9  1 -1</clus>
<clus scale="   81.357">  5  6 -1 -1</clus>
<clus scale="   95.606">  2 10  1 -1</clus>
<clus scale="  113.348">  7  8 -1 -1</clus>
<clus scale="  421.348">  1  5  2 -1</clus>
<clus scale="   74.978">  2  5  1 -1</clus>
</clustering>
</event>
<event>
10    4  0.3043429E-005  0.1492923E+03  0.7546771E-02  0.1216694E+00
         21   -1    0    0  503  502  0.00000000000E+00  0.00000000000E+00  0.12873371286E+03  0.12873371286E+03  0.00000000000E+00 0. -1.
          2   -1    0    0  502    0 -0.00000000000E+00 -0.00000000000E+00 -0.61532002643E+03  0.61532002643E+03  0.00000000000E+00 0. -1.
         23    2    1    2    0    0  0.37877590175E+02  0.24349696046E+02  0.47361622076E+02  0.11322050901E+03  0.92456156531E+02 0.  0.
         24    2    1    2    0    0 -0.11476694774E+03  0.56336078465E+02 -0.18810449617E+03  0.24084009155E+03  0.79217688603E+02 0.  0.
        -13    1    4    4    0    0 -0.11320752889E+03  0.71480344073E+02 -0.15794290115E+03  0.20705396449E+03  0.00000000000E+00 0.  1.
         14    1    4    4    0    0 -0.15594188555E+01 -0.15144265608E+02 -0.30161595013E+02  0.33786127060E+02  0.00000000000E+00 0. -1.
        -11    1    3    3    0    0 -0.96993062221E+01  0.43262148932E+02  0.13054324452E+01  0.44355317891E+02  0.00000000000E+00 0. -1.
         11    1    3    3    0    0  0.47576896397E+02 -0.18912452885E+02  0.46056189631E+02  0.68865191122E+02  0.00000000000E+00 0.  1.
         21    1    1    2  503  501 -0.65398410864E+00  0.23274877038E+02 -0.30473386099E+01  0.23482629089E+02  0.00000000000E+00 0. -1.
          1    1    1    2  501    0  0.77543341674E+02 -0.10396065155E+03 -0.34279610086E+03  0.36651050964E+03  0.00000000000E+00 0. -1.
<scales pt_clust_5="13000.00000" pt_clust_6="13000.00000" pt_clust_7="13000.00000" pt_clust_8="13000.00000" pt_clust_9="23.28406" pt_clust_10="126.54161"></scales>
<clustering>
<clus scale="   23.284">  1  9  2 -1</clus>
<clus scale="   79.218">  5  6 -1 -1</clus>
<clus scale="   92.456">  7  8 -1 -1</clus>
<clus scale="  107.512">  2  7  1 -1</clus>
<clus scale="  126.542">  1 10  2 -1</clus>
<clus scale="   23.284">  1  5  2 -1</clus>
</clustering>
</event>
<event>
10    4  0.3043429E-005  0.1644507E+03  0.7546771E-02  0.1185459E+00
          2   -1    0    0  502    0 -0.00000000000E+00  0.00000000000E+00  0.57847656698E+03  0.57847656698E+03  0.00000000000E+00 0. -1.
         21   -1    0    0  503  502  0.00000000000E+00 -0.00000000000E+00 -0.12694615658E+03  0.12694615658E+03  0.00000000000E+00 0. -1.
         24    2    1    2    0    0 -0.10941568277E+03  0.43409733630E+02  0.27005885411E+03  0.30539926209E+03  0.80502968866E+02 0.  0.
         23    2    1    2    0    0  0.19504637786E+03 -0.99838974830E+02  0.10365054942E+03  0.25924248835E+03  0.91936505041E+02 0.  0.
        -11    1    3    3    0    0 -0.67745151885E+02  0.39330964325E+02  0.84701701570E+02  0.11537204431E+03  0.00000000000E+00 0.  1.
         12    1    3    3    0    0 -0.41670530882E+02  0.40787693049E+01  0.18535715254E+03  0.19002721779E+03  0.00000000000E+00 0. -1.
        -11    1    4    4    0    0  0.14154468767E+03 -0.74489125626E+02  0.26714389257E+02  0.16216407444E+03  0.00000000000E+00 0. -1.
         11    1    4    4    0    0  0.53501690192E+02 -0.25349849205E+02  0.76936160159E+02  0.97078413914E+02  0.00000000000E+00 0.  1.
         21    1    1    2  503  501 -0.21390353579E+02  0.33407915010E+01 -0.61180661878E+01  0.22497529819E+02  0.00000000000E+00 0.  1.
          1    1    1    2  501    0 -0.64240341517E+02  0.53088449699E+02  0.83939073071E+02  0.11828344330E+03  0.00000000000E+00 0. -1.
<scales pt_clust_5="13000.00000" pt_clust_6="13000.00000" pt_clust_7="13000.00000" pt_clust_8="13000.00000" pt_clust_9="21.64967" pt_clust_10="86.19261"></scales>
<clustering>
<clus scale="   21.650">  2  9  1 -1</clus>
<clus scale="   80.503">  5  6 -1 -1</clus>
<clus scale="   86.193">  2 10  1 -1</clus>
<clus scale="   91.937">  7  8 -1 -1</clus>
<clus scale="  158.343">  1  5  2 -1</clus>
<clus scale="   21.650">  2  5  1 -1</clus>
</clustering>
</event>
<event>
10    4  0.3043429E-005  0.1572841E+03  0.7546771E-02  0.1193886E+00
          2   -1    0    0  503    0 -0.00000000000E+00  0.00000000000E+00  0.64151922139E+03  0.64151922139E+03  0.00000000000E+00 0. -1.
         21   -1    0    0  501  502  0.00000000000E+00 -0.00000000000E+00 -0.76759244596E+02  0.76759244596E+02  0.00000000000E+00 0. -1.
         23    2    1    2    0    0 -0.65308676423E+02 -0.15620046843E+03  0.27914136517E+03  0.33863078971E+03  0.89928307199E+02 0.  0.
         24    2    1    2    0    0  0.35322057176E+01  0.98138046635E+02  0.90522488954E+02  0.15412341614E+03  0.76916537375E+02 0.  0.
        -13    1    4    4    0    0 -0.19507630077E+02  0.54744162908E+01  0.42851132427E+02  0.47399751215E+02  0.00000000000E+00 0.  1.
         14    1    4    4    0    0  0.23039835794E+02  0.92663630344E+02  0.47671356527E+02  0.10672366493E+03  0.00000000000E+00 0. -1.
        -13    1    3    3    0    0 -0.66926218186E+02 -0.79125292624E+02  0.21372116226E+03  0.23752192702E+03  0.00000000000E+00 0.  1.
         13    1    3    3    0    0  0.16175417633E+01 -0.77075175804E+02  0.65420202905E+02  0.10110886269E+03  0.00000000000E+00 0. -1.
         21    1    1    2  503  502 -0.79950114213E+01  0.40301381036E+02  0.67749865379E+02  0.79234877295E+02  0.00000000000E+00 0.  1.
          1    1    1    2  501    0  0.69771482127E+02  0.17761040756E+02  0.12734625730E+03  0.14628938285E+03  0.00000000000E+00 0. -1.
<scales pt_clust_5="13000.00000" pt_clust_6="13000.00000" pt_clust_7="13000.00000" pt_clust_8="13000.00000" pt_clust_9="41.08676" pt_clust_10="73.19533"></scales>
<clustering>
<clus scale="   41.087">  1  9  2 -1</clus>
<clus scale="   73.195">  2 10  1 -1</clus>
<clus scale="   76.917">  5  6 -1 -1</clus>
<clus scale="   89.928">  7  8 -1 -1</clus>
<clus scale="  150.224">  2  5  1 -1</clus>
<clus scale="   73.195">  2  5  1 -1</clus>
</clustering>
</event>
<event>
10    4  0.3043429E-005  0.1260723E+03  0.7546771E-02  0.1239102E+00
         21   -1    0    0  501  502  0.00000000000E+00  0.00000000000E+00  0.67541728698E+02  0.67541728698E+02  0.00000000000E+00 0.  1.
          2   -1    0    0  503    0 -0.00000000000E+00 -0.00000000000E+00 -0.81917428012E+03  0.81917428012E+03  0.00000000000E+00 0. -1.
         24    2    1    2    0    0 -0.21486263446E+01 -0.82771260619E+02 -0.26712491379E+03  0.29107828554E+03  0.80716482615E+02 0.  0.
         23    2    1    2    0    0  0.47421112232E+02  0.63781365545E+02 -0.19294246726E+03  0.23100145920E+03  0.99086093913E+02 0.  0.
        -13    1    3    3    0    0 -0.80915749603E+01 -0.62510933365E+02 -0.75763386347E+02  0.98555472127E+02  0.00000000000E+00 0.  1.
         14    1    3    3    0    0  0.59429486157E+01 -0.20260327254E+02 -0.19136152745E+03  0.19252281342E+03  0.00000000000E+00 0. -1.
        -13    1    4    4    0    0  0.20243942469E+02  0.79942335418E+02 -0.17769432519E+03  0.19589759417E+03  0.00000000000E+00 0.  1.
         13    1    4    4    0    0  0.27177169762E+02 -0.16160969872E+02 -0.15248142067E+02  0.35103865029E+02  0.00000000000E+00 0. -1.
         21    1    1    2  503  502  0.11667068639E+02  0.17425580674E+02  0.30808806032E+02  0.37268671583E+02  0.00000000000E+00 0.  1.
          1    1    1    2  501    0 -0.56939554526E+02  0.15643143994E+01 -0.32237397640E+03  0.32736759249E+03  0.00000000000E+00 0. -1.
<scales pt_clust_5="13000.00000" pt_clust_6="13000.00000" pt_clust_7="13000.00000" pt_clust_8="13000.00000" pt_clust_9="20.97073" pt_clust_10="56.14314"></scales>
<clustering>
<clus scale="   20.971">  1  9  2 -1</clus>
<clus scale="   56.143">  1 10  2 -1</clus>
<clus scale="   80.716">  5  6 -1 -1</clus>
<clus scale="   99.086">  7  8 -1 -1</clus>
<clus scale="  112.211">  2  5  1 -1</clus>
<clus scale="   20.971">  1  5  2 -1</clus>
</clustering>
</event>
<event>
10    4  0.3043429E-005  0.9519560E+02  0.7546771E-02  0.1297994E+00
          4   -1    0    0  503    0 -0.00000000000E+00  0.00000000000E+00  0.67653883778E+02  0.67653883778E+02  0.00000000000E+00 0. -1.
         21   -1    0    0  501  502  0.00000000000E+00 -0.00000000000E+00 -0.41032692059E+03  0.41032692059E+03  0.00000000000E+00 0.  1.
         24    2    1    2    0    0  0.17823020469E+02  0.65223828391E+01 -0.11346270170E+02  0.85544113002E+02  0.82636891798E+02 0.  0.
         23    2    1    2    0    0  0.32477946091E+02 -0.10119794040E+02 -0.13948941720E+03  0.17201058436E+03  0.94726534852E+02 0.  0.
        -13    1    3    3    0    0  0.45152380451E+02  0.11913306285E+02  0.13080712536E+02  0.48495044772E+02  0.00000000000E+00 0.  1.
         14    1    3    3    0    0 -0.27329359981E+02 -0.53909234456E+01 -0.24426982706E+02  0.37049068230E+02  0.00000000000E+00 0. -1.
        -13    1    4    4    0    0  0.51212956536E+02 -0.40252256943E+02 -0.88306148774E+02  0.10973143131E+03  0.00000000000E+00 0.  1.
         13    1    4    4    0    0 -0.18735010445E+02  0.30132462902E+02 -0.51183268430E+02  0.62279153046E+02  0.00000000000E+00 0. -1.
         21    1    1    2  503  502  0.10293148517E+02  0.31100587211E+02 -0.11094472202E+03  0.11568027825E+03  0.00000000000E+00 0.  1.
          3    1    1    2  501    0 -0.60594115077E+02 -0.27503176010E+02 -0.80892627423E+02  0.10474582877E+03  0.00000000000E+00 0. -1.
<scales pt_clust_5="13000.00000" pt_clust_6="13000.00000" pt_clust_7="13000.00000" pt_clust_8="13000.00000" pt_clust_9="32.75966" pt_clust_10="60.07030"></scales>
<clustering>
<clus scale="   32.760">  2  9  1 -1</clus>
<clus scale="   60.070">  2 10  1 -1</clus>
<clus scale="   82.637">  5  6 -1 -1</clus>
<clus scale="   83.174">  1  5  2 -1</clus>
<clus scale="   94.727">  7  8 -1 -1</clus>
<clus scale="   32.760">  2  5  1 -1</clus>
</clustering>
</event>
<event>
10    4  0.3043429E-005  0.1884751E+03  0.7546771E-02  0.1178020E+00
          2   -1    0    0  503    0 -0.00000000000E+00  0.00000000000E+00  0.20269869549E+03  0.20269869549E+03  0.00000000000E+00 0. -1.
         21   -1    0    0  501  502  0.00000000000E+00 -0.00000000000E+00 -0.45522902576E+03  0.45522902576E+03  0.00000000000E+00 0. -1.
         24    2    1    2    0    0  0.87587401025E+02  0.17504724679E+02 -0.17703169184E+02  0.12109222761E+03  0.79824539987E+02 0.  0.
         23    2    1    2    0    0  0.11971141149E+03  0.29752695198E+02 -0.17524651181E+03  0.23222947343E+03  0.89460290161E+02 0.  0.
        -13    1    3    3    0    0  0.64703233506E+02  0.32082293643E+02 -0.42952953254E+02  0.84028198748E+02  0.00000000000E+00 0.  1.
         14    1    3    3    0    0  0.22884167519E+02 -0.14577568964E+02  0.25249784070E+02  0.37064028863E+02  0.00000000000E+00 0. -1.
        -13    1    4    4    0    0 -0.78017567523E+01  0.22045594422E+02 -0.17300353359E+02  0.29089136601E+02  0.00000000000E+00 0.  1.
         13    1    4    4    0    0  0.12751316824E+03  0.77071007757E+01 -0.15794615845E+03  0.20314033683E+03  0.00000000000E+00 0. -1.
         21    1    1    2  503  502  0.32687631103E+02  0.12130522948E+02 -0.45033406589E+02  0.56952950082E+02  0.00000000000E+00 0.  1.
          1    1    1    2  501    0 -0.23998644362E+03 -0.59387942825E+02 -0.14547242689E+02  0.24765307013E+03  0.00000000000E+00 0. -1.
<scales pt_clust_5="13000.00000" pt_clust_6="13000.00000" pt_clust_7="13000.00000" pt_clust_8="13000.00000" pt_clust_9="34.86590" pt_clust_10="165.89075"></scales>
<clustering>
<clus scale="   34.866">  2  9  1 -1</clus>
<clus scale="   79.825">  5  6 -1 -1</clus>
<clus scale="   89.460">  7  8 -1 -1</clus>
<clus scale="  124.265">  1  5  2 -1</clus>
<clus scale="  165.891">  2 10  1 -1</clus>
<clus scale="   34.866">  2  5  1 -1</clus>
</clustering>
</event>
<event>
10    4  0.3043429E-005  0.9377180E+02  0.7546771E-02  0.1300195E+00
          2   -1    0    0  502    0 -0.00000000000E+00  0.00000000000E+00  0.22215247220E+03  0.22215247220E+03  0.00000000000E+00 0. -1.
         21   -1    0    0  503  502  0.00000000000E+00 -0.00000000000E+00 -0.27243284085E+03  0.27243284085E+03  0.00000000000E+00 0. -1.
         24    2    1    2    0    0 -0.21336065594E+02 -0.62003157372E+00  0.17664597219E+03  0.19550984426E+03  0.81022759625E+02 0.  0.
         23    2    1    2    0    0  0.59001735421E+01 -0.41546001431E+02 -0.11046209705E+03  0.14946294314E+03  0.91522752381E+02 0.  0.
        -11    1    3    3    0    0 -0.36299146781E+01  0.34543181565E+02  0.38448764988E+02  0.51814237448E+02  0.00000000000E+00 0.  1.
         12    1    3    3    0    0 -0.17706150916E+02 -0.35163213139E+02  0.13819720720E+03  0.14369560681E+03  0.00000000000E+00 0. -1.
        -13    1    4    4    0    0 -0.19077555641E+02 -0.10755014551E+02  0.89366141970E+01  0.23653467833E+02  0.00000000000E+00 0.  1.
         13    1    4    4    0    0  0.24977729183E+02 -0.30790986880E+02 -0.11939871125E+03  0.12580947530E+03  0.00000000000E+00 0. -1.
         21    1    1    2  503  501  0.12946524845E+02  0.17566419878E+02 -0.12228052063E+03  0.12421238803E+03  0.00000000000E+00 0. -1.
          1    1    1    2  501    0  0.24893672067E+01  0.24599613127E+02  0.58162768552E+01  0.25400137628E+02  0.00000000000E+00 0. -1.
<scales pt_clust_5="13000.00000" pt_clust_6="13000.00000" pt_clust_7="13000.00000" pt_clust_8="13000.00000" pt_clust_9="21.82182" pt_clust_10="25.96818"></scales>
<clustering>
<clus scale="   21.822">  2  9  1 -1</clus>
<clus scale="   25.968">  2 10  1 -1</clus>
<clus scale="   81.023">  5  6 -1 -1</clus>
<clus scale="   83.555">  1  5  2 -1</clus>
<clus scale="   91.523">  7  8 -1 -1</clus>
<clus scale="   21.822">  2  5  1 -1</clus>
</clustering>
</event>
<event>
10    4  0.3043429E-005  0.1544632E+03  0.7546771E-02  0.1196688E+00
         21   -1    0    0  501  502  0.00000000000E+00  0.00000000000E+00  0.28059184924E+03  0.28059184924E+03  0.00000000000E+00 0. -1.
          2   -1    0    0  503    0 -0.00000000000E+00 -0.00000000000E+00 -0.31241673109E+03  0.31241673109E+03  0.00000000000E+00 0. -1.
         24    2    1    2    0    0 -0.96203162068E+02 -0.87429757297E+02 -0.22439010001E+03  0.27210354958E+03  0.82403967518E+02 0.  0.
         23    2    1    2    0    0  0.74997330673E+02  0.65607431648E+02  0.60362241192E+02  0.14822362105E+03  0.91639003597E+02 0.  0.
        -13    1    3    3    0    0 -0.23574174657E+02 -0.31079792170E+02 -0.14653694028E+03  0.15164026530E+03  0.00000000000E+00 0.  1.
         14    1    3    3    0    0 -0.72628987412E+02 -0.56349965127E+02 -0.77853159724E+02  0.12046328429E+03  0.00000000000E+00 0. -1.
        -13    1    4    4    0    0  0.39296471623E+02  0.78302338171E+02  0.14611967506E+02  0.88819921411E+02  0.00000000000E+00 0.  1.
         13    1    4    4    0    0  0.35700859050E+02 -0.12694906523E+02  0.45750273686E+02  0.59403699640E+02  0.00000000000E+00 0. -1.
         21    1    1    2  503  502  0.26992427749E+01 -0.32517954679E+02  0.48498438178E+01  0.32988244469E+02  0.00000000000E+00 0.  1.
          1    1    1    2  501    0  0.18506588621E+02  0.54340280328E+02  0.12735313315E+03  0.13969316523E+03  0.00000000000E+00 0. -1.
<scales pt_clust_5="13000.00000" pt_clust_6="13000.00000" pt_clust_7="13000.00000" pt_clust_8="13000.00000" pt_clust_9="32.62979" pt_clust_10="42.66425"></scales>
<clustering>
<clus scale="   32.630">  1  9  2 -1</clus>
<clus scale="   42.664">  1 10  2 -1</clus>
<clus scale="   82.404">  5  6 -1 -1</clus>
<clus scale="   91.639">  7  8 -1 -1</clus>
<clus scale="  149.170">  2  5  1 -1</clus>
<clus scale="   32.630">  1  5  2 -1</clus>
</clustering>
</event>
<event>
10    4  0.3043429E-005  0.1747375E+03  0.7546771E-02  0.1175400E+00
         21   -1    0    0  501  502  0.00000000000E+00  0.00000000000E+00  0.54471368122E+02  0.54471368122E+02  0.00000000000E+00 0. -1.
          4   -1    0    0  503    0 -0.00000000000E+00 -0.00000000000E+00 -0.13944885851E+04  0.13944885851E+04  0.00000000000E+00 0. -1.
         24    2    1    2    0    0 -0.11407135525E+03 -0.26867136450E+02 -0.45669180118E+03  0.47849442914E+03  0.81580637106E+02 0.  0.
         23    2    1    2    0    0  0.21539912902E+03 -0.30124018763E+02 -0.51149476106E+03  0.56457545911E+03  0.99067235476E+02 0.  0.
        -11    1    3    3    0    0 -0.49595325092E+02  0.14443765896E+02 -0.88920172757E+02  0.10283538188E+03  0.00000000000E+00 0.  1.
         12    1    3    3    0    0 -0.64476030156E+02 -0.41310902346E+02 -0.36777162842E+03  0.37565904726E+03  0.00000000000E+00 0. -1.
        -11    1    4    4    0    0  0.19739018406E+03 -0.50674631102E+02 -0.48683668896E+03  0.52776961330E+03  0.00000000000E+00 0. -1.
         11    1    4    4    0    0  0.18008944968E+02  0.20550612339E+02 -0.24658072098E+02  0.36805845812E+02  0.00000000000E+00 0.  1.
         21    1    1    2  503  502 -0.22422260243E+02  0.77267218319E+02 -0.16429730097E+03  0.18293874354E+03  0.00000000000E+00 0. -1.
          3    1    1    2  501    0 -0.78905513534E+02 -0.20276063107E+02 -0.20753335379E+03  0.22295132145E+03  0.00000000000E+00 0. -1.
<scales pt_clust_5="13000.00000" pt_clust_6="13000.00000" pt_clust_7="13000.00000" pt_clust_8="13000.00000" pt_clust_9="80.45484" pt_clust_10="83.03660"></scales>
<clustering>
<clus scale="   80.455">  1  9  2 -1</clus>
<clus scale="   81.581">  5  6 -1 -1</clus>
<clus scale="   83.037">  1 10  2 -1</clus>
<clus scale="   99.067">  7  8 -1 -1</clus>
<clus scale="  165.452">  2  5  1 -1</clus>
<clus scale="   80.455">  1  5  2 -1</clus>
</clustering>
</event>
<event>
10    4  0.3043429E-005  0.1193947E+03  0.7546771E-02  0.1247574E+00
         21   -1    0    0  503  502  0.00000000000E+00  0.00000000000E+00  0.25795540126E+03  0.25795540126E+03  0.00000000000E+00 0.  1.
          2   -1    0    0  502    0 -0.00000000000E+00 -0.00000000000E+00 -0.19327128043E+03  0.19327128043E+03  0.00000000000E+00 0. -1.
         23    2    1    2    0    0  0.87267196420E+02 -0.19840608274E+02 -0.63242599038E+02  0.14262722521E+03  0.91289023057E+02 0.  0.
         24    2    1    2    0    0 -0.25539238696E+02  0.48523295125E+02  0.10240011790E+03  0.14130238973E+03  0.80460041722E+02 0.  0.
        -13    1    4    4    0    0 -0.30255660935E+02  0.68103961247E+02  0.92720323241E+02  0.11895634871E+03  0.00000000000E+00 0.  1.
         14    1    4    4    0    0  0.47164222393E+01 -0.19580666123E+02  0.96797946570E+01  0.22346041017E+02  0.00000000000E+00 0. -1.
        -11    1    3    3    0    0  0.11801104459E+02  0.21121645526E+02 -0.50265966023E+02  0.55785816444E+02  0.00000000000E+00 0.  1.
         11    1    3    3    0    0  0.75466091961E+02 -0.40962253800E+02 -0.12976633015E+02  0.86841408767E+02  0.00000000000E+00 0. -1.
         21    1    1    2  503  501 -0.91739349283E+00 -0.38277884743E+02  0.77685748236E+02  0.86608969225E+02  0.00000000000E+00 0.  1.
          1    1    1    2  501    0 -0.60810564231E+02  0.95951978926E+01 -0.52159146265E+02  0.80688097535E+02  0.00000000000E+00 0. -1.
<scales pt_clust_5="13000.00000" pt_clust_6="13000.00000" pt_clust_7="13000.00000" pt_clust_8="13000.00000" pt_clust_9="38.28888" pt_clust_10="61.22989"></scales>
<clustering>
<clus scale="   38.289">  1  9  2 -1</clus>
<clus scale="   61.230">  1 10  2 -1</clus>
<clus scale="   80.460">  5  6 -1 -1</clus>
<clus scale="   91.289">  7  8 -1 -1</clus>
<clus scale="  111.334">  1  5  2 -1</clus>
<clus scale="   38.289">  1  5  2 -1</clus>
</clustering>
</event>
<event>
10    4  0.3043429E-005  0.1158505E+03  0.7546771E-02  0.1253590E+00
          2   -1    0    0  503    0 -0.00000000000E+00  0.00000000000E+00  0.88477794549E+02  0.88477794549E+02  0.00000000000E+00 0. -1.
         21   -1    0    0  501  502  0.00000000000E+00 -0.00000000000E+00 -0.43991354521E+03  0.43991354521E+03  0.00000000000E+00 0.  1.
         23    2    1    2    0    0  0.87871616905E+02 -0.41282941645E+02 -0.13993104704E+03  0.19373947924E+03  0.92350341432E+02 0.  0.
         24    2    1    2    0    0 -0.55109254182E+02 -0.47609514647E+02 -0.98973650086E+02  0.14794491213E+03  0.82390641663E+02 0.  0.
        -11    1    4    4    0    0 -0.39106421197E+02  0.16943856705E+02 -0.47707925764E+02  0.63972280244E+02  0.00000000000E+00 0.  1.
         12    1    4    4    0    0 -0.16002832985E+02 -0.64553371352E+02 -0.51265724321E+02  0.83972631891E+02  0.00000000000E+00 0. -1.
        -13    1    3    3    0    0  0.49904500799E+02 -0.53533898315E+02 -0.34300272585E+02  0.80826024078E+02  0.00000000000E+00 0. -1.
         13    1    3    3    0    0  0.37967116106E+02  0.12250956671E+02 -0.10563077446E+03  0.11291345517E+03  0.00000000000E+00 0.  1.
         21    1    1    2  503  502 -0.69240905182E+02  0.22164524933E+02 -0.60233880773E+02  0.94412337694E+02  0.00000000000E+00 0.  1.
          1    1    1    2  501    0  0.36478542459E+02  0.66727931359E+02 -0.52297172763E+02  0.92294610690E+02  0.00000000000E+00 0. -1.
<scales pt_clust_5="13000.00000" pt_clust_6="13000.00000" pt_clust_7="13000.00000" pt_clust_8="13000.00000" pt_clust_9="72.70192" pt_clust_10="74.91061"></scales>
<clustering>
<clus scale="   72.702">  1  9  2 -1</clus>
<clus scale="   74.911">  2 10  1 -1</clus>
<clus scale="   82.391">  5  6 -1 -1</clus>
<clus scale="   92.350">  7  8 -1 -1</clus>
<clus scale="  108.079">  2  5  1 -1</clus>
<clus scale="   74.911">  2  5  1 -1</clus>
</clustering>
</event>
<event>
10    4  0.3043429E-005  0.1109929E+03  0.7546771E-02  0.1263001E+00
         21   -1    0    0  501  502  0.00000000000E+00  0.00000000000E+00  0.66976601079E+03  0.66976601079E+03  0.00000000000E+00 0.  1.
          2   -1    0    0  503    0 -0.00000000000E+00 -0.00000000000E+00 -0.43724283170E+02  0.43724283170E+02  0.00000000000E+00 0. -1.
         24    2    1    2    0    0 -0.53113124189E+02  0.22261237118E+02  0.10805230222E+03  0.14644378955E+03  0.80336273521E+02 0.  0.
         23    2    1    2    0    0  0.75997328814E+02  0.11865285343E+02  0.16546579378E+03  0.20407260949E+03  0.91380096582E+02 0.  0.
        -11    1    3    3    0    0  0.66642494795E+01  0.20191965739E+02  0.75312159399E+02  0.78256303611E+02  0.00000000000E+00 0.  1.
         12    1    3    3    0    0 -0.59777373669E+02  0.20692713789E+01  0.32740142826E+02  0.68187485942E+02  0.00000000000E+00 0. -1.
        -11    1    4    4    0    0  0.22969902645E+02  0.49353942621E+02  0.72105788188E+02  0.90347511144E+02  0.00000000000E+00 0. -1.
         11    1    4    4    0    0  0.53027426169E+02 -0.37488657277E+02  0.93360005590E+02  0.11372509835E+03  0.00000000000E+00 0.  1.
         21    1    1    2  503  502 -0.30729636291E+01 -0.49907907505E+02  0.30547802491E+03  0.30954331852E+03  0.00000000000E+00 0.  1.
          1    1    1    2  501    0 -0.19811240995E+02  0.15781385044E+02  0.47045606714E+02  0.53430576403E+02  0.00000000000E+00 0. -1.
<scales pt_clust_5="13000.00000" pt_clust_6="13000.00000" pt_clust_7="13000.00000" pt_clust_8="13000.00000" pt_clust_9="44.00968" pt_clust_10="25.32859"></scales>
<clustering>
<clus scale="   25.329">  1 10  2 -1</clus>
<clus scale="   44.010">  1  9  2 -1</clus>
<clus scale="   80.336">  5  6 -1 -1</clus>
<clus scale="   91.380">  7  8 -1 -1</clus>
<clus scale="  102.093">  2  5  1 -1</clus>
<clus scale="   25.329">  1  5  2 -1</clus>
</clustering>
</event>
<event>
10    4  0.3043429E-005  0.1145973E+03  0.7546771E-02  0.1264227E+00
         21   -1    0    0  503  502  0.00000000000E+00  0.00000000000E+00  0.40968355837E+02  0.40968355837E+02  0.00000000000E+00 0.  1.
          2   -1    0    0  502    0 -0.00000000000E+00 -0.00000000000E+00 -0.60625419927E+03  0.60625419927E+03  0.00000000000E+00 0. -1.
         24    2    1    2    0    0 -0.27005571393E+02  0.31428874575E+02 -0.17218527289E+03  0.19226579254E+03  0.74841778016E+02 0.  0.
         23    2    1    2    0    0  0.84628135518E+02 -0.79692354894E+01 -0.17725730882E+03  0.22176042577E+03  0.10262603409E+03 0.  0.
        -13    1    3    3    0    0 -0.28491232344E+02  0.54970641082E+02 -0.12190636935E+03  0.13672850687E+03  0.00000000000E+00 0.  1.
         14    1    3    3    0    0  0.14856609508E+01 -0.23541766507E+02 -0.50278903541E+02  0.55537285674E+02  0.00000000000E+00 0. -1.
        -13    1    4    4    0    0  0.10653891691E+03  0.35643122564E+01 -0.12756679242E+03  0.16624238830E+03  0.00000000000E+00 0.  1.
         13    1    4    4    0    0 -0.21910781395E+02 -0.11533547746E+02 -0.49690516401E+02  0.55518037475E+02  0.00000000000E+00 0. -1.
         21    1    1    2  503  501 -0.28462786148E+02  0.77639778139E+01 -0.28417044882E+02  0.40962641353E+02  0.00000000000E+00 0.  1.
          1    1    1    2  501    0 -0.29159777978E+02 -0.31223616900E+02 -0.18742621684E+03  0.19223369544E+03  0.00000000000E+00 0. -1.
<scales pt_clust_5="13000.00000" pt_clust_6="13000.00000" pt_clust_7="13000.00000" pt_clust_8="13000.00000" pt_clust_9="29.50270" pt_clust_10="43.71268"></scales>
<clustering>
<clus scale="   29.503">  1  9  2 -1</clus>
<clus scale="   43.713">  1 10  2 -1</clus>
<clus scale="   74.842">  5  6 -1 -1</clus>
<clus scale="   90.563">  2  5  1 -1</clus>
<clus scale="  102.626">  7  8 -1 -1</clus>
<clus scale="   29.503">  1  5  2 -1</clus>
</clustering>
</event>
<event>
10    4  0.3043429E-005  0.5392401E+03  0.7546771E-02  0.1046015E+00
         -3   -1    0    0    0  501 -0.00000000000E+00  0.00000000000E+00  0.13567778586E+04  0.13567778586E+04  0.00000000000E+00 0.  1.
         21   -1    0    0  501  502  0.00000000000E+00 -0.00000000000E+00 -0.34091877608E+03  0.34091877608E+03  0.00000000000E+00 0.  1.
         24    2    1    2    0    0 -0.12677190269E+03 -0.16580751577E+02  0.11338627875E+03  0.18774302898E+03  0.77749341404E+02 0.  0.
         23    2    1    2    0    0 -0.31733652195E+03  0.36391701623E+03  0.68930998853E+03  0.84674333641E+03  0.93209198136E+02 0.  0.
        -13    1    3    3    0    0 -0.12733839470E+03 -0.32147049811E+02  0.88448518475E+02  0.15834026651E+03  0.00000000000E+00 0.  1.
         14    1    3    3    0    0  0.56649201002E+00  0.15566298234E+02  0.24937760272E+02  0.29402762477E+02  0.00000000000E+00 0. -1.
        -13    1    4    4    0    0 -0.54850984470E+02  0.75944386522E+02  0.20310151639E+03  0.22366583624E+03  0.00000000000E+00 0. -1.
         13    1    4    4    0    0 -0.26248553748E+03  0.28797262971E+03  0.48620847214E+03  0.62307750017E+03  0.00000000000E+00 0.  1.
         21    1    1    2  503  502 -0.27526498135E+02 -0.38186952888E+02 -0.22314013864E+02  0.52094785585E+02  0.00000000000E+00 0. -1.
         -4    1    1    2    0  503  0.47163492278E+03 -0.30914931176E+03  0.23547682909E+03  0.61111548367E+03  0.00000000000E+00 0.  1.
<scales pt_clust_5="13000.00000" pt_clust_6="13000.00000" pt_clust_7="13000.00000" pt_clust_8="13000.00000" pt_clust_9="47.07389" pt_clust_10="531.12325"></scales>
<clustering>
<clus scale="   47.074">  2  9  1 -1</clus>
<clus scale="   77.749">  5  6 -1 -1</clus>
<clus scale="   93.209">  7  8 -1 -1</clus>
<clus scale="  153.080">  1  5  2 -1</clus>
<clus scale="  531.123">  2 10  1 -1</clus>
<clus scale="   47.074">  2  5  1 -1</clus>
</clustering>
</event>
<event>
10    4  0.3043429E-005  0.3274967E+03  0.7546771E-02  0.1113718E+00
          2   -1    0    0  502    0 -0.00000000000E+00  0.00000000000E+00  0.12650677693E+04  0.12650677693E+04  0.00000000000E+00 0. -1.
         21   -1    0    0  503  502  0.00000000000E+00 -0.00000000000E+00 -0.13042713173E+03  0.13042713173E+03  0.00000000000E+00 0. -1.
         23    2    1    2    0    0 -0.59099784997E+02 -0.22837985337E+02  0.33574627333E+02  0.11505983345E+03  0.89984173671E+02 0.  0.
         24    2    1    2    0    0  0.33527678206E+03  0.76274926695E+02  0.60543373227E+03  0.70057104012E+03  0.77597635606E+02 0.  0.
        -11    1    4    4    0    0  0.12437936815E+03  0.61416145991E+02  0.20114647203E+03  0.24434007739E+03  0.00000000000E+00 0.  1.
         12    1    4    4    0    0  0.21089741391E+03  0.14858780704E+02  0.40428726025E+03  0.45623096273E+03  0.00000000000E+00 0. -1.
        -13    1    3    3    0    0 -0.68564335920E+02  0.13069075351E+02  0.34617445031E+02  0.77911721783E+02  0.00000000000E+00 0. -1.
         13    1    3    3    0    0  0.94645509230E+01 -0.35907060688E+02 -0.10428176979E+01  0.37148111664E+02  0.00000000000E+00 0.  1.
         21    1    1    2  503  501 -0.16250947448E+03 -0.16824403436E+02  0.18363211132E+03  0.24579085043E+03  0.00000000000E+00 0.  1.
          1    1    1    2  501    0 -0.11366752258E+03 -0.36612537922E+02  0.31200016666E+03  0.33407317705E+03  0.00000000000E+00 0. -1.
<scales pt_clust_5="13000.00000" pt_clust_6="13000.00000" pt_clust_7="13000.00000" pt_clust_8="13000.00000" pt_clust_9="91.52999" pt_clust_10="91.52999"></scales>
<clustering>
<clus scale="   77.598">  5  6 -1 -1</clus>
<clus scale="   89.984">  7  8 -1 -1</clus>
<clus scale="   91.530">  9 10 -1 -1</clus>
<clus scale="  110.052">  1  7  2 -1</clus>
<clus scale="  319.083">  1  5  2 -1</clus>
<clus scale="  327.497">  2  5  1 -1</clus>
</clustering>
</event>
<event>
10    4  0.3043429E-005  0.2893122E+03  0.7546771E-02  0.1130479E+00
         21   -1    0    0  501  502  0.00000000000E+00  0.00000000000E+00  0.18184561929E+03  0.18184561929E+03  0.00000000000E+00 0. -1.
          2   -1    0    0  503    0 -0.00000000000E+00 -0.00000000000E+00 -0.19058841058E+04  0.19058841058E+04  0.00000000000E+00 0. -1.
         23    2    1    2    0    0  0.50404752667E+02  0.11707137663E+02 -0.26458748564E+03  0.28447566331E+03  0.90786393766E+02 0.  0.
         24    2    1    2    0    0  0.13345049328E+03 -0.26835607738E+03 -0.34562334119E+03  0.46450817875E+03  0.80550206225E+02 0.  0.
        -13    1    4    4    0    0  0.19596580323E+02 -0.17563931676E+02 -0.70324570309E+02  0.75087035135E+02  0.00000000000E+00 0.  1.
         14    1    4    4    0    0  0.11385391296E+03 -0.25079214570E+03 -0.27529877088E+03  0.38942114361E+03  0.00000000000E+00 0. -1.
        -11    1    3    3    0    0 -0.23370635298E+02  0.12734851261E+02 -0.39716963511E+02  0.47810043101E+02  0.00000000000E+00 0.  1.
         11    1    3    3    0    0  0.73775387965E+02 -0.10277135974E+01 -0.22487052213E+03  0.23666562021E+03  0.00000000000E+00 0. -1.
         21    1    1    2  503  502  0.38963521172E+00  0.39856927461E+02  0.91759572790E+02  0.10004271928E+03  0.00000000000E+00 0. -1.
          1    1    1    2  501    0 -0.18424488116E+03  0.21679201225E+03 -0.12055872325E+04  0.12387031638E+04  0.00000000000E+00 0. -1.
<scales pt_clust_5="13000.00000" pt_clust_6="13000.00000" pt_clust_7="13000.00000" pt_clust_8="13000.00000" pt_clust_9="39.85883" pt_clust_10="277.87277"></scales>
<clustering>
<clus scale="   39.859">  1  9  2 -1</clus>
<clus scale="   80.550">  5  6 -1 -1</clus>
<clus scale="   90.786">  7  8 -1 -1</clus>
<clus scale="  105.136">  2  7  1 -1</clus>
<clus scale="  277.873">  1 10  2 -1</clus>
<clus scale="   39.859">  1  5  2 -1</clus>
</clustering>
</event>
<event>
10    4  0.3043429E-005  0.9450975E+02  0.7546771E-02  0.1297768E+00
         21   -1    0    0  501  502  0.00000000000E+00  0.00000000000E+00  0.18515770645E+03  0.18515770645E+03  0.00000000000E+00 0. -1.
          2   -1    0    0  503    0 -0.00000000000E+00 -0.00000000000E+00 -0.56919954736E+03  0.56919954736E+03  0.00000000000E+00 0. -1.
         23    2    1    2    0    0  0.30206537496E+02 -0.10271090463E+02 -0.39396767664E+03  0.40557031518E+03  0.90878050767E+02 0.  0.
         24    2    1    2    0    0  0.17419651023E+02  0.43811424895E+02 -0.12789262279E+03  0.15871780849E+03  0.81313803103E+02 0.  0.
        -13    1    4    4    0    0  0.16270598997E+02 -0.13588127693E+02 -0.31936323638E+01  0.21437558014E+02  0.00000000000E+00 0.  1.
         14    1    4    4    0    0  0.11490520260E+01  0.57399552588E+02 -0.12469899043E+03  0.13728025048E+03  0.00000000000E+00 0. -1.
        -11    1    3    3    0    0 -0.22391433370E+02 -0.23673096028E+02 -0.71614074449E+02  0.78678888040E+02  0.00000000000E+00 0.  1.
         11    1    3    3    0    0  0.52597970866E+02  0.13402005565E+02 -0.32235360219E+03  0.32689142714E+03  0.00000000000E+00 0. -1.
         21    1    1    2  503  502  0.20941791351E+02 -0.28060745346E+02  0.11074187421E+03  0.11614528298E+03  0.00000000000E+00 0. -1.
          1    1    1    2  501    0 -0.68567979870E+02 -0.54795890850E+01  0.27076584318E+02  0.73923847156E+02  0.00000000000E+00 0. -1.
<scales pt_clust_5="13000.00000" pt_clust_6="13000.00000" pt_clust_7="13000.00000" pt_clust_8="13000.00000" pt_clust_9="35.01377" pt_clust_10="59.44528"></scales>
<clustering>
<clus scale="   35.014">  1  9  2 -1</clus>
<clus scale="   59.445">  1 10  2 -1</clus>
<clus scale="   81.314">  5  6 -1 -1</clus>
<clus scale="   85.353">  1  5  2 -1</clus>
<clus scale="   90.878">  7  8 -1 -1</clus>
<clus scale="   35.014">  1  5  2 -1</clus>
</clustering>
</event>
<event>
10    4  0.3043429E-005  0.1599008E+03  0.7546771E-02  0.1190743E+00
         21   -1    0    0  501  502  0.00000000000E+00  0.00000000000E+00  0.75141846207E+02  0.75141846207E+02  0.00000000000E+00 0. -1.
          4   -1    0    0  503    0 -0.00000000000E+00 -0.00000000000E+00 -0.10601710469E+04  0.10601710469E+04  0.00000000000E+00 0. -1.
         24    2    1    2    0    0  0.88390452491E+02  0.99140981307E+02 -0.70468498725E+03  0.72136728993E+03  0.78409370935E+02 0.  0.
         23    2    1    2    0    0 -0.78796624964E+02 -0.97076355538E+02 -0.80888924702E+02  0.17440957141E+03  0.90790712895E+02 0.  0.
        -13    1    3    3    0    0  0.26385718026E+02  0.22725474104E+02 -0.61305105140E+02  0.70505100561E+02  0.00000000000E+00 0.  1.
         14    1    3    3    0    0  0.62004734465E+02  0.76415507203E+02 -0.64337988212E+03  0.65086218937E+03  0.00000000000E+00 0. -1.
        -13    1    4    4    0    0 -0.82833678766E+01 -0.51387220612E+02 -0.73499799389E+02  0.90063761502E+02  0.00000000000E+00 0.  1.
         13    1    4    4    0    0 -0.70513257088E+02 -0.45689134925E+02 -0.73891253137E+01  0.84345809904E+02  0.00000000000E+00 0. -1.
         21    1    1    2  503  502  0.33731406910E+02  0.52457174527E+02 -0.82549173112E+02  0.10345979390E+03  0.00000000000E+00 0. -1.
          3    1    1    2  501    0 -0.43325234437E+02 -0.54521800295E+02 -0.11690611567E+03  0.13607623792E+03  0.00000000000E+00 0. -1.
<scales pt_clust_5="13000.00000" pt_clust_6="13000.00000" pt_clust_7="13000.00000" pt_clust_8="13000.00000" pt_clust_9="62.36636" pt_clust_10="60.45176"></scales>
<clustering>
<clus scale="   62.366">  1  9  2 -1</clus>
<clus scale="   60.452">  1 10  2 -1</clus>
<clus scale="   78.409">  5  6 -1 -1</clus>
<clus scale="   90.791">  7  8 -1 -1</clus>
<clus scale="  153.210">  2  5  1 -1</clus>
<clus scale="   62.366">  1  5  2 -1</clus>
</clustering>
</event>
<event>
10    4  0.3043429E-005  0.9597373E+02  0.7546771E-02  0.1294656E+00
         21   -1    0    0  503  502  0.00000000000E+00  0.00000000000E+00  0.14736166358E+03  0.14736166358E+03  0.00000000000E+00 0.  1.
         -1   -1    0    0    0  501 -0.00000000000E+00 -0.00000000000E+00 -0.68836349502E+03  0.68836349502E+03  0.00000000000E+00 0.  1.
         24    2    1    2    0    0 -0.19950802336E+02  0.11048454437E+02 -0.41125825823E+03  0.41970766050E+03  0.80629166355E+02 0.  0.
         23    2    1    2    0    0  0.49849875080E+02 -0.36780194686E+02 -0.17262327243E+03  0.20467588218E+03  0.90860496332E+02 0.  0.
        -13    1    3    3    0    0  0.15085041981E+02  0.25582586566E+02 -0.66026225493E+02  0.72398133124E+02  0.00000000000E+00 0.  1.
         14    1    3    3    0    0 -0.35035844317E+02 -0.14534132129E+02 -0.34523203273E+03  0.34730952738E+03  0.00000000000E+00 0. -1.
        -11    1    4    4    0    0 -0.23469907112E+02 -0.15574727685E+02 -0.21721948680E+02  0.35570377237E+02  0.00000000000E+00 0. -1.
         11    1    4    4    0    0  0.73319782192E+02 -0.21205467001E+02 -0.15090132375E+03  0.16910550494E+03  0.00000000000E+00 0.  1.
         21    1    1    2  503  501 -0.95362521635E+02 -0.32244517792E+01  0.85425976372E+02  0.12807031296E+03  0.00000000000E+00 0.  1.
         -2    1    1    2    0  502  0.65463448891E+02  0.28956192028E+02 -0.42546277147E+02  0.83271302959E+02  0.00000000000E+00 0.  1.
<scales pt_clust_5="13000.00000" pt_clust_6="13000.00000" pt_clust_7="13000.00000" pt_clust_8="13000.00000" pt_clust_9="45.52969" pt_clust_10="71.58159"></scales>
<clustering>
<clus scale="   71.582">  1 10  2 -1</clus>
<clus scale="   45.530">  1  9  2 -1</clus>
<clus scale="   80.629">  5  6 -1 -1</clus>
<clus scale="   86.350">  2  5  1 -1</clus>
<clus scale="   90.860">  7  8 -1 -1</clus>
<clus scale="   71.582">  1  5  2 -1</clus>
</clustering>
</event>
<event>
10    4  0.3043429E-005  0.2600723E+03  0.7546771E-02  0.1151182E+00
         21   -1    0    0  501  502  0.00000000000E+00  0.00000000000E+00  0.11430975211E+04  0.11430975211E+04  0.00000000000E+00 0.  1.
          2   -1    0    0  503    0 -0.00000000000E+00 -0.00000000000E+00 -0.31310120801E+03  0.31310120801E+03  0.00000000000E+00 0. -1.
         24    2    1    2    0    0  0.21171825117E+02  0.52283446418E-01 -0.14460051193E+03  0.16921674613E+03  0.85303869819E+02 0.  0.
         23    2    1    2    0    0  0.21750804718E+03  0.66157194813E+02 -0.18537061138E+02  0.24538258298E+03  0.90456975298E+02 0.  0.
        -11    1    3    3    0    0  0.22020814175E+02  0.38422850644E+02 -0.48194042925E+02  0.65451489532E+02  0.00000000000E+00 0.  1.
         12    1    3    3    0    0 -0.84898905847E+00 -0.38370567198E+02 -0.96406469008E+02  0.10376525659E+03  0.00000000000E+00 0. -1.
        -11    1    4    4    0    0  0.83839425126E+02  0.42277859172E+02  0.33894598062E+02  0.99826401114E+02  0.00000000000E+00 0.  1.
         11    1    4    4    0    0  0.13366862205E+03  0.23879335641E+02 -0.52431659200E+02  0.14555618186E+03  0.00000000000E+00 0. -1.
         21    1    1    2  503  502 -0.24204801342E+03 -0.28323475947E+02  0.96217414554E+03  0.99255657090E+03  0.00000000000E+00 0.  1.
          1    1    1    2  501    0  0.33681411193E+01 -0.37886002312E+02  0.30959740572E+02  0.49042829059E+02  0.00000000000E+00 0. -1.
<scales pt_clust_5="13000.00000" pt_clust_6="13000.00000" pt_clust_7="13000.00000" pt_clust_8="13000.00000" pt_clust_9="243.83424" pt_clust_10="38.03542"></scales>
<clustering>
<clus scale="   38.035">  1 10  2 -1</clus>
<clus scale="   85.304">  5  6 -1 -1</clus>
<clus scale="   87.902">  2  5  1 -1</clus>
<clus scale="   90.457">  7  8 -1 -1</clus>
<clus scale="  243.834">  1  9  2 -1</clus>
<clus scale="   38.035">  1  5  2 -1</clus>
</clustering>
</event>
<event>
10    4  0.3043429E-005  0.1014824E+03  0.7546771E-02  0.1280538E+00
          2   -1    0    0  502    0 -0.00000000000E+00  0.00000000000E+00  0.80574333115E+03  0.80574333115E+03  0.00000000000E+00 0. -1.
         21   -1    0    0  503  502  0.00000000000E+00 -0.00000000000E+00 -0.22569341011E+03  0.22569341011E+03  0.00000000000E+00 0. -1.
         24    2    1    2    0    0 -0.14591837424E+02  0.48096038536E+02  0.65998331409E+03  0.66732273469E+03  0.84944138826E+02 0.  0.
         23    2    1    2    0    0 -0.49320976500E+02 -0.64355891813E+01  0.88125595498E+02  0.13668693733E+03  0.91887010633E+02 0.  0.
        -13    1    3    3    0    0 -0.34862931912E+02  0.13821604099E+02  0.11660923988E+03  0.12249153272E+03  0.00000000000E+00 0.  1.
         14    1    3    3    0    0  0.20271094487E+02  0.34274434437E+02  0.54337407420E+03  0.54483120197E+03  0.00000000000E+00 0. -1.
        -13    1    4    4    0    0 -0.42740961567E+02  0.39125974095E+02  0.42386864102E+02  0.71793299778E+02  0.00000000000E+00 0. -1.
         13    1    4    4    0    0 -0.65800149324E+01 -0.45561563276E+02  0.45738731396E+02  0.64893637550E+02  0.00000000000E+00 0.  1.
         21    1    1    2  503  501  0.26383462419E+02  0.22762839713E+02 -0.14537839278E+03  0.14949619075E+03  0.00000000000E+00 0. -1.
          1    1    1    2  501    0  0.37529351505E+02 -0.64423289067E+02 -0.22680595762E+02  0.77930878493E+02  0.00000000000E+00 0. -1.
<scales pt_clust_5="13000.00000" pt_clust_6="13000.00000" pt_clust_7="13000.00000" pt_clust_8="13000.00000" pt_clust_9="34.84586" pt_clust_10="73.81199"></scales>
<clustering>
<clus scale="   34.846">  2  9  1 -1</clus>
<clus scale="   73.812">  2 10  1 -1</clus>
<clus scale="   84.944">  5  6 -1 -1</clus>
<clus scale="   91.887">  7  8 -1 -1</clus>
<clus scale="   95.242">  1  5  2 -1</clus>
<clus scale="   34.846">  2  5  1 -1</clus>
</clustering>
</event>
<event>
10    4  0.3043429E-005  0.1340095E+03  0.7546771E-02  0.1242983E+00
         21   -1    0    0  503  502  0.00000000000E+00  0.00000000000E+00  0.43199291161E+03  0.43199291161E+03  0.00000000000E+00 0. -1.
          2   -1    0    0  502    0 -0.00000000000E+00 -0.00000000000E+00 -0.36891107095E+03  0.36891107095E+03  0.00000000000E+00 0. -1.
         24    2    1    2    0    0  0.26782950780E+02 -0.28751108638E+02 -0.63626441500E+02  0.10493137660E+03  0.73609218421E+02 0.  0.
         23    2    1    2    0    0 -0.12586994367E+03  0.51925415395E+02 -0.23763201449E+03  0.28887153042E+03  0.91860194280E+02 0.  0.
        -13    1    3    3    0    0  0.10213386382E+02 -0.51885778142E+02 -0.29700420034E+02  0.60651151556E+02  0.00000000000E+00 0.  1.
         14    1    3    3    0    0  0.16569564398E+02  0.23134669504E+02 -0.33926021466E+02  0.44280225044E+02  0.00000000000E+00 0. -1.
        -11    1    4    4    0    0 -0.29130035326E+01  0.37232857407E+02 -0.81056574901E+02  0.89246510268E+02  0.00000000000E+00 0.  1.
         11    1    4    4    0    0 -0.12295694014E+03  0.14692557988E+02 -0.15657543958E+03  0.19962502015E+03  0.00000000000E+00 0. -1.
         21    1    1    2  503  501  0.15951044787E+02 -0.37207032943E+02  0.29548566623E+03  0.29824583497E+03  0.00000000000E+00 0. -1.
          1    1    1    2  501    0  0.83135948105E+02  0.14032726185E+02  0.68854630411E+02  0.10885524057E+03  0.00000000000E+00 0. -1.
<scales pt_clust_5="13000.00000" pt_clust_6="13000.00000" pt_clust_7="13000.00000" pt_clust_8="13000.00000" pt_clust_9="40.48208" pt_clust_10="97.57178"></scales>
<clustering>
<clus scale="   40.482">  1  9  2 -1</clus>
<clus scale="   73.609">  5  6 -1 -1</clus>
<clus scale="   86.360">  2  5  1 -1</clus>
<clus scale="   91.860">  7  8 -1 -1</clus>
<clus scale="   97.572">  1 10  2 -1</clus>
<clus scale="   40.482">  1  5  2 -1</clus>
</clustering>
</event>
<event>
10    4  0.3043429E-005  0.1952364E+03  0.7546771E-02  0.1190858E+00
         21   -1    0    0  503  502  0.00000000000E+00  0.00000000000E+00  0.44262680376E+03  0.44262680376E+03  0.00000000000E+00 0. -1.
          2   -1    0    0  502    0 -0.00000000000E+00 -0.00000000000E+00 -0.44134713481E+03  0.44134713481E+03  0.00000000000E+00 0. -1.
         24    2    1    2    0    0 -0.15524437113E+02 -0.12161011831E+02 -0.15905727178E+03  0.17971166021E+03  0.81290631407E+02 0.  0.
         23    2    1    2    0    0  0.19756996203E+03  0.34152962150E+02  0.36157194220E+02  0.22338295118E+03  0.91609417974E+02 0.  0.
        -11    1    3    3    0    0 -0.39277448364E+02 -0.15213094614E+02 -0.39381697109E+02  0.57663456928E+02  0.00000000000E+00 0.  1.
         12    1    3    3    0    0  0.23753011250E+02  0.30520827827E+01 -0.11967557467E+03  0.12204820328E+03  0.00000000000E+00 0. -1.
        -13    1    4    4    0    0  0.76805486798E+02  0.55456209049E+02  0.34262565560E+02  0.10073925413E+03  0.00000000000E+00 0.  1.
         13    1    4    4    0    0  0.12076447523E+03 -0.21303246899E+02  0.18946286608E+01  0.12264369704E+03  0.00000000000E+00 0. -1.
         21    1    1    2  503  501 -0.32060425021E+02  0.81122115549E+01  0.26852427458E+03  0.27055307218E+03  0.00000000000E+00 0. -1.
          1    1    1    2  501    0 -0.14998509990E+03 -0.30104161873E+02 -0.14434452808E+03  0.21032625500E+03  0.00000000000E+00 0. -1.
<scales pt_clust_5="13000.00000" pt_clust_6="13000.00000" pt_clust_7="13000.00000" pt_clust_8="13000.00000" pt_clust_9="33.07082" pt_clust_10="172.40935"></scales>
<clustering>
<clus scale="   33.071">  1  9  2 -1</clus>
<clus scale="   81.291">  5  6 -1 -1</clus>
<clus scale="   83.956">  2  5  1 -1</clus>
<clus scale="   91.609">  7  8 -1 -1</clus>
<clus scale="  172.409">  1 10  2 -1</clus>
<clus scale="   33.071">  1  5  2 -1</clus>
</clustering>
</event>
<event>
10    4  0.3043429E-005  0.2055950E+03  0.7546771E-02  0.1177461E+00
          4   -1    0    0  502    0 -0.00000000000E+00  0.00000000000E+00  0.95605155259E+03  0.95605155259E+03  0.00000000000E+00 0. -1.
         21   -1    0    0  503  502  0.00000000000E+00 -0.00000000000E+00 -0.35628973625E+03  0.35628973625E+03  0.00000000000E+00 0.  1.
         24    2    1    2    0    0 -0.17592777100E+02 -0.46940190271E+02  0.31325263691E+03  0.32765875748E+03  0.81976579306E+02 0.  0.
         23    2    1    2    0    0  0.76238874799E+02  0.18106835694E+03  0.13011936442E+03  0.25250647365E+03  0.90721300253E+02 0.  0.
        -13    1    3    3    0    0 -0.20611620246E+02 -0.64632508646E+02  0.16616036465E+03  0.17947553272E+03  0.00000000000E+00 0.  1.
         14    1    3    3    0    0  0.30188431454E+01  0.17692318375E+02  0.14709227226E+03  0.14818322476E+03  0.00000000000E+00 0. -1.
        -13    1    4    4    0    0  0.31889711547E+02  0.40456350983E+01  0.86678828968E+01  0.33293438690E+02  0.00000000000E+00 0.  1.
         13    1    4    4    0    0  0.44349163252E+02  0.17702272185E+03  0.12145148153E+03  0.21921303496E+03  0.00000000000E+00 0. -1.
         21    1    1    2  503  501  0.75992353227E+02 -0.42110991530E+02 -0.26577133131E+03  0.27961146955E+03  0.00000000000E+00 0.  1.
          3    1    1    2  501    0 -0.13463845092E+03 -0.92017175143E+02  0.42216114633E+03  0.45256458816E+03  0.00000000000E+00 0. -1.
<scales pt_clust_5="13000.00000" pt_clust_6="13000.00000" pt_clust_7="13000.00000" pt_clust_8="13000.00000" pt_clust_9="86.88022" pt_clust_10="184.49656"></scales>
<clustering>
<clus scale="   81.977">  5  6 -1 -1</clus>
<clus scale="   86.880">  2  9  1 -1</clus>
<clus scale="   90.721">  7  8 -1 -1</clus>
<clus scale="   96.950">  1  5  2 -1</clus>
<clus scale="  184.497">  2 10  1 -1</clus>
<clus scale="   86.880">  2  5  1 -1</clus>
</clustering>
</event>
<event>
10    4  0.3043429E-005  0.1033065E+03  0.7546771E-02  0.1282482E+00
         21   -1    0    0  503  502  0.00000000000E+00  0.00000000000E+00  0.18602791128E+03  0.18602791128E+03  0.00000000000E+00 0. -1.
          2   -1    0    0  502    0 -0.00000000000E+00 -0.00000000000E+00 -0.10691453007E+04  0.10691453007E+04  0.00000000000E+00 0. -1.
         24    2    1    2    0    0 -0.12147072833E+02 -0.48299336617E+02 -0.85718723341E+03  0.86210416477E+03  0.77286871431E+02 0.  0.
         23    2    1    2    0    0  0.48189737933E+01 -0.70499092197E+01 -0.18928288323E+03  0.21207318773E+03  0.95258088060E+02 0.  0.
        -13    1    3    3    0    0  0.26913882116E+02 -0.52304546107E+01 -0.14657754616E+03  0.14911972285E+03  0.00000000000E+00 0.  1.
         14    1    3    3    0    0 -0.39060954949E+02 -0.43068882006E+02 -0.71060968725E+03  0.71298444192E+03  0.00000000000E+00 0. -1.
        -11    1    4    4    0    0  0.17010048432E+01  0.44198111471E+02 -0.83666739939E+02  0.94638733334E+02  0.00000000000E+00 0.  1.
         11    1    4    4    0    0  0.31179689501E+01 -0.51248020691E+02 -0.10561614329E+03  0.11743445439E+03  0.00000000000E+00 0. -1.
         21    1    1    2  503  501  0.26157525021E+02  0.16781950525E+02  0.41790064933E+02  0.52079357770E+02  0.00000000000E+00 0.  1.
          1    1    1    2  501    0 -0.18829425981E+02  0.38567295312E+02  0.12156266229E+03  0.12891650171E+03  0.00000000000E+00 0. -1.
<scales pt_clust_5="13000.00000" pt_clust_6="13000.00000" pt_clust_7="13000.00000" pt_clust_8="13000.00000" pt_clust_9="31.07813" pt_clust_10="53.88514"></scales>
<clustering>
<clus scale="   31.078">  1  9  2 -1</clus>
<clus scale="   53.885">  1 10  2 -1</clus>
<clus scale="   77.287">  5  6 -1 -1</clus>
<clus scale="   87.014">  2  5  1 -1</clus>
<clus scale="   95.258">  7  8 -1 -1</clus>
<clus scale="   31.078">  1  5  2 -1</clus>
</clustering>
</event>
<event>
10    4  0.3043429E-005  0.1661003E+03  0.7546771E-02  0.1183668E+00
         21   -1    0    0  503  502  0.00000000000E+00  0.00000000000E+00  0.22817787672E+03  0.22817787672E+03  0.00000000000E+00 0. -1.
         -1   -1    0    0    0  501 -0.00000000000E+00 -0.00000000000E+00 -0.68039005118E+03  0.68039005118E+03  0.00000000000E+00 0.  1.
         23    2    1    2    0    0  0.11833611312E+03 -0.64947614773E+02 -0.54377852668E+03  0.56788726186E+03  0.92624120903E+02 0.  0.
         24    2    1    2    0    0 -0.13314186156E+03  0.84674776061E+02 -0.14170164421E+02  0.17795024724E+03  0.81048898407E+02 0.  0.
        -11    1    4    4    0    0 -0.93516203466E+02  0.14818508408E+02 -0.22159107936E+02  0.97241424129E+02  0.00000000000E+00 0.  1.
         12    1    4    4    0    0 -0.39625658094E+02  0.69856267652E+02  0.79889435153E+01  0.80708823112E+02  0.00000000000E+00 0. -1.
        -13    1    3    3    0    0  0.11782347015E+03 -0.25185447297E+02 -0.35260398182E+03  0.37262077890E+03  0.00000000000E+00 0.  1.
         13    1    3    3    0    0  0.51264296892E+00 -0.39762167476E+02 -0.19117454485E+03  0.19526648295E+03  0.00000000000E+00 0. -1.
         21    1    1    2  503  501 -0.36213331345E+02  0.33381452077E+02  0.51574742311E+02  0.71313959043E+02  0.00000000000E+00 0. -1.
         -2    1    1    2    0  502  0.51019079788E+02 -0.53108613364E+02  0.54161774329E+02  0.91416459756E+02  0.00000000000E+00 0.  1.
<scales pt_clust_5="13000.00000" pt_clust_6="13000.00000" pt_clust_7="13000.00000" pt_clust_8="13000.00000" pt_clust_9="49.25167" pt_clust_10="52.19889"></scales>
<clustering>
<clus scale="   49.252">  1  9  2 -1</clus>
<clus scale="   52.199">  1 10  2 -1</clus>
<clus scale="   81.049">  5  6 -1 -1</clus>
<clus scale="   92.624">  7  8 -1 -1</clus>
<clus scale="  159.934">  1  5  2 -1</clus>
<clus scale="   49.252">  1  5  2 -1</clus>
</clustering>
</event>
<event>
10    4  0.3043429E-005  0.9198203E+02  0.7546771E-02  0.1304781E+00
          2   -1    0    0  503    0 -0.00000000000E+00  0.00000000000E+00  0.69093397986E+03  0.69093397986E+03  0.00000000000E+00 0. -1.
         21   -1    0    0  501  502  0.00000000000E+00 -0.00000000000E+00 -0.13821371181E+03  0.13821371181E+03  0.00000000000E+00 0.  1.
         24    2    1    2    0    0 -0.12359098162E+02 -0.99002797953E+01  0.43187797654E+03  0.43952937061E+03  0.80104420371E+02 0.  0.
         23    2    1    2    0    0  0.18601999460E+02 -0.42029647506E+02  0.22015364575E+03  0.24255984253E+03  0.90857711925E+02 0.  0.
        -11    1    3    3    0    0  0.28002744497E+02 -0.69839441097E+01  0.74947641729E+02  0.80312378719E+02  0.00000000000E+00 0.  1.
         12    1    3    3    0    0 -0.40361842659E+02 -0.29163356856E+01  0.35693033481E+03  0.35921699190E+03  0.00000000000E+00 0. -1.
        -11    1    4    4    0    0 -0.19709448176E+02 -0.54779550225E+02  0.98929583322E+02  0.11478816980E+03  0.00000000000E+00 0. -1.
         11    1    4    4    0    0  0.38311447637E+02  0.12749902719E+02  0.12122406243E+03  0.12777167273E+03  0.00000000000E+00 0.  1.
         21    1    1    2  503  502 -0.35476853464E+02  0.66551478144E+02 -0.74625463156E+02  0.10609743694E+03  0.00000000000E+00 0.  1.
          1    1    1    2  501    0  0.29233952165E+02 -0.14621550843E+02 -0.24685891092E+02  0.40961041579E+02  0.00000000000E+00 0. -1.
<scales pt_clust_5="13000.00000" pt_clust_6="13000.00000" pt_clust_7="13000.00000" pt_clust_8="13000.00000" pt_clust_9="55.00929" pt_clust_10="32.68660"></scales>
<clustering>
<clus scale="   32.687">  2 10  1 -1</clus>
<clus scale="   55.009">  2  9  1 -1</clus>
<clus scale="   80.104">  5  6 -1 -1</clus>
<clus scale="   81.377">  1  5  2 -1</clus>
<clus scale="   90.858">  7  8 -1 -1</clus>
<clus scale="   32.687">  2  5  1 -1</clus>
</clustering>
</event>
<event>
10    4  0.3043429E-005  0.2625923E+03  0.7546771E-02  0.1106004E+00
         21   -1    0    0  503  502  0.00000000000E+00  0.00000000000E+00  0.14124404713E+04  0.14124404713E+04  0.00000000000E+00 0. -1.
         -1   -1    0    0    0  501 -0.00000000000E+00 -0.00000000000E+00 -0.45317294025E+03  0.45317294025E+03  0.00000000000E+00 0.  1.
         23    2    1    2    0    0 -0.18334296063E+02  0.21470353438E+03 -0.15871487242E+03  0.28230439128E+03  0.89842108833E+02 0.  0.
         24    2    1    2    0    0  0.30236652187E+02 -0.31584728114E+03 -0.52976673793E+02  0.33184794555E+03  0.81503195419E+02 0.  0.
        -11    1    4    4    0    0  0.20762345645E+02 -0.65034154417E+02 -0.42951643479E+02  0.80655811414E+02  0.00000000000E+00 0.  1.
         12    1    4    4    0    0  0.94743065424E+01 -0.25081312672E+03 -0.10025030314E+02  0.25119213414E+03  0.00000000000E+00 0. -1.
        -11    1    3    3    0    0  0.18404598759E+01  0.19368395583E+03 -0.10286692705E+03  0.21931362639E+03  0.00000000000E+00 0.  1.
         11    1    3    3    0    0 -0.20174755939E+02  0.21019578551E+02 -0.55847945364E+02  0.62990764887E+02  0.00000000000E+00 0. -1.
         21    1    1    2  503  501  0.31883505461E+02  0.14269129222E+03  0.11812200884E+04  0.11902345400E+04  0.00000000000E+00 0. -1.
         -2    1    1    2    0  502 -0.43785861585E+02 -0.41547545466E+02 -0.10261011178E+02  0.61226534765E+02  0.00000000000E+00 0.  1.
<scales pt_clust_5="13000.00000" pt_clust_6="13000.00000" pt_clust_7="13000.00000" pt_clust_8="13000.00000" pt_clust_9="107.31537" pt_clust_10="60.36062"></scales>
<clustering>
<clus scale="   60.361">  1 10  2 -1</clus>
<clus scale="   81.503">  5  6 -1 -1</clus>
<clus scale="   89.842">  7  8 -1 -1</clus>
<clus scale="  107.315">  1  9  2 -1</clus>
<clus scale="  259.857">  1  5  2 -1</clus>
<clus scale="   60.361">  1  5  2 -1</clus>
</clustering>
</event>
<event>
10    4  0.3043429E-005  0.1487706E+03  0.7546771E-02  0.1212515E+00
          2   -1    0    0  502    0 -0.00000000000E+00  0.00000000000E+00  0.51369371891E+03  0.51369371891E+03  0.00000000000E+00 0. -1.
         21   -1    0    0  503  502  0.00000000000E+00 -0.00000000000E+00 -0.81548064680E+02  0.81548064680E+02  0.00000000000E+00 0. -1.
         24    2    1    2    0    0 -0.80133109867E+02  0.34371894294E+02  0.13005603625E+03  0.17608415643E+03  0.80550078639E+02 0.  0.
         23    2    1    2    0    0 -0.56708976197E+00  0.90724793519E+02  0.16669219946E+03  0.21099896688E+03  0.92211522660E+02 0.  0.
        -11    1    3    3    0    0 -0.29854497352E+02  0.27199574397E+02  0.11681398812E+03  0.12359860711E+03  0.00000000000E+00 0.  1.
         12    1    3    3    0    0 -0.50278612515E+02  0.71723198972E+01  0.13242048126E+02  0.52485549323E+02  0.00000000000E+00 0. -1.
        -13    1    4    4    0    0  0.66556558709E+00  0.61894311205E+02  0.25594753819E+02  0.66980893994E+02  0.00000000000E+00 0.  1.
         13    1    4    4    0    0 -0.12326553491E+01  0.28830482313E+02  0.14109744564E+03  0.14401807288E+03  0.00000000000E+00 0. -1.
         21    1    1    2  503  501  0.20145608519E+02 -0.12620509131E+02  0.26303411481E+01  0.23917388819E+02  0.00000000000E+00 0. -1.
          1    1    1    2  501    0  0.60554591110E+02 -0.11247617868E+03  0.13276707737E+03  0.18424127146E+03  0.00000000000E+00 0. -1.
<scales pt_clust_5="13000.00000" pt_clust_6="13000.00000" pt_clust_7="13000.00000" pt_clust_8="13000.00000" pt_clust_9="22.97277" pt_clust_10="128.31838"></scales>
<clustering>
<clus scale="   22.973">  9 10 -1 -1</clus>
<clus scale="   80.550">  5  6 -1 -1</clus>
<clus scale="   92.212">  7  8 -1 -1</clus>
<clus scale="  118.706">  1  5  2 -1</clus>
<clus scale="  128.318">  2  9  1 -1</clus>
<clus scale="  128.318">  2  5  1 -1</clus>
</clustering>
</event>
<event>
10    4  0.3043429E-005  0.9930220E+02  0.7546771E-02  0.1290259E+00
         21   -1    0    0  503  502  0.00000000000E+00  0.00000000000E+00  0.15567558555E+03  0.15567558555E+03  0.00000000000E+00 0.  1.
         -3   -1    0    0    0  501 -0.00000000000E+00 -0.00000000000E+00 -0.18678125673E+03  0.18678125673E+03  0.00000000000E+00 0.  1.
         24    2    1    2    0    0 -0.32000775841E+02  0.26152505309E+02 -0.12180371144E+03  0.14896106801E+03  0.75134895188E+02 0.  0.
         23    2    1    2    0    0  0.34477435101E+02 -0.25026473307E+01  0.10493496141E+02  0.98239225313E+02  0.91355761471E+02 0.  0.
        -13    1    3    3    0    0 -0.36716211686E+01  0.44863947674E+02 -0.96934035243E+02  0.10687591773E+03  0.00000000000E+00 0.  1.
         14    1    3    3    0    0 -0.28329154673E+02 -0.18711442365E+02 -0.24869676192E+02  0.42085150276E+02  0.00000000000E+00 0. -1.
        -11    1    4    4    0    0  0.21434682573E+02 -0.39477675701E+02  0.30425835820E+02  0.54255543321E+02  0.00000000000E+00 0. -1.
         11    1    4    4    0    0  0.13042752528E+02  0.36975028370E+02 -0.19932339679E+02  0.43983681992E+02  0.00000000000E+00 0.  1.
         21    1    1    2  503  501 -0.23484001055E+02 -0.17813632134E+02  0.42965403805E+02  0.52104219785E+02  0.00000000000E+00 0.  1.
         -4    1    1    2    0  502  0.21007341795E+02 -0.58362258444E+01  0.37239140318E+02  0.43152329173E+02  0.00000000000E+00 0.  1.
<scales pt_clust_5="13000.00000" pt_clust_6="13000.00000" pt_clust_7="13000.00000" pt_clust_8="13000.00000" pt_clust_9="25.07621" pt_clust_10="21.80298"></scales>
<clustering>
<clus scale="   21.803">  1 10  2 -1</clus>
<clus scale="   25.076">  1  9  2 -1</clus>
<clus scale="   75.135">  5  6 -1 -1</clus>
<clus scale="   84.619">  2  5  1 -1</clus>
<clus scale="   91.356">  7  8 -1 -1</clus>
<clus scale="   21.803">  1  5  2 -1</clus>
</clustering>
</event>
<event>
10    4  0.3043429E-005  0.1202216E+03  0.7546771E-02  0.1262185E+00
         21   -1    0    0  503  502  0.00000000000E+00  0.00000000000E+00  0.55638135995E+03  0.55638135995E+03  0.00000000000E+00 0. -1.
          2   -1    0    0  502    0 -0.00000000000E+00 -0.00000000000E+00 -0.28429758922E+03  0.28429758922E+03  0.00000000000E+00 0. -1.
         24    2    1    2    0    0  0.16100488963E+02  0.94843038718E+00 -0.18564109687E+03  0.20293507106E+03  0.80373509050E+02 0.  0.
         23    2    1    2    0    0  0.74175508687E+02 -0.84020819902E+02  0.84336841793E+02  0.16780994026E+03  0.92119318825E+02 0.  0.
        -11    1    3    3    0    0 -0.30855472952E+02 -0.12214579074E+02 -0.72746351282E+02  0.79958037607E+02  0.00000000000E+00 0.  1.
         12    1    3    3    0    0  0.46955961915E+02  0.13163009461E+02 -0.11289474558E+03  0.12297703346E+03  0.00000000000E+00 0. -1.
        -11    1    4    4    0    0  0.43403034026E+02 -0.92684637354E+02  0.88841619565E+02  0.13552526971E+03  0.00000000000E+00 0. -1.
         11    1    4    4    0    0  0.30772474661E+02  0.86638174516E+01 -0.45047777713E+01  0.32284670547E+02  0.00000000000E+00 0.  1.
         21    1    1    2  503  501 -0.38692477854E+02  0.30699357942E+02  0.39119228506E+03  0.39429806278E+03  0.00000000000E+00 0. -1.
          1    1    1    2  501    0 -0.51583519796E+02  0.52373031573E+02 -0.17804259251E+02  0.75635875074E+02  0.00000000000E+00 0. -1.
<scales pt_clust_5="13000.00000" pt_clust_6="13000.00000" pt_clust_7="13000.00000" pt_clust_8="13000.00000" pt_clust_9="49.39189" pt_clust_10="77.24803"></scales>
<clustering>
<clus scale="   49.392">  1  9  2 -1</clus>
<clus scale="   80.374">  5  6 -1 -1</clus>
<clus scale="   81.634">  2  5  1 -1</clus>
<clus scale="   77.248">  1 10  2 -1</clus>
<clus scale="   92.119">  7  8 -1 -1</clus>
<clus scale="   49.392">  1  5  2 -1</clus>
</clustering>
</event>
<event>
10    4  0.3043429E-005  0.1463131E+03  0.7546771E-02  0.1219331E+00
         21   -1    0    0  503  502  0.00000000000E+00  0.00000000000E+00  0.10306763953E+03  0.10306763953E+03  0.00000000000E+00 0. -1.
          2   -1    0    0  502    0 -0.00000000000E+00 -0.00000000000E+00 -0.15304111488E+04  0.15304111488E+04  0.00000000000E+00 0. -1.
         23    2    1    2    0    0 -0.67820497206E+01  0.50452465276E+00 -0.51906754426E+02  0.10463719688E+03  0.90600116297E+02 0.  0.
         24    2    1    2    0    0 -0.69961545396E+02  0.89588132853E+02 -0.47452673945E+03  0.49455553567E+03  0.80553708925E+02 0.  0.
        -11    1    4    4    0    0 -0.78984265908E+02  0.81985620120E+02 -0.32124439509E+03  0.34081977281E+03  0.00000000000E+00 0.  1.
         12    1    4    4    0    0  0.90227205126E+01  0.76025127328E+01 -0.15328234437E+03  0.15373576285E+03  0.00000000000E+00 0. -1.
        -11    1    3    3    0    0  0.20832506021E+02 -0.29860855795E+02 -0.52137630034E+02  0.63592424718E+02  0.00000000000E+00 0. -1.
         11    1    3    3    0    0 -0.27614555742E+02  0.30365380448E+02  0.23087560787E+00  0.41044772165E+02  0.00000000000E+00 0.  1.
         21    1    1    2  503  501 -0.66751109333E+02 -0.54276866748E+02  0.30445167268E+02  0.91261147654E+02  0.00000000000E+00 0. -1.
          1    1    1    2  501    0  0.14349470445E+03 -0.35815790758E+02 -0.93135518263E+03  0.94302490810E+03  0.00000000000E+00 0. -1.
<scales pt_clust_5="13000.00000" pt_clust_6="13000.00000" pt_clust_7="13000.00000" pt_clust_8="13000.00000" pt_clust_9="86.03307" pt_clust_10="122.14186"></scales>
<clustering>
<clus scale="   80.554">  5  6 -1 -1</clus>
<clus scale="   86.033">  1  9  2 -1</clus>
<clus scale="   90.600">  7  8 -1 -1</clus>
<clus scale="  108.042">  2  7  1 -1</clus>
<clus scale="  122.142">  1 10  2 -1</clus>
<clus scale="   86.033">  1  5  2 -1</clus>
</clustering>
</event>
<event>
10    4  0.3043429E-005  0.1238986E+03  0.7546771E-02  0.1256057E+00
         21   -1    0    0  501  502  0.00000000000E+00  0.00000000000E+00  0.18037518335E+03  0.18037518335E+03  0.00000000000E+00 0.  1.
          2   -1    0    0  503    0 -0.00000000000E+00 -0.00000000000E+00 -0.21405512627E+03  0.21405512627E+03  0.00000000000E+00 0. -1.
         23    2    1    2    0    0 -0.29754888246E+02  0.35540649623E+02  0.32478223018E+02  0.95534189641E+02  0.76963986837E+02 0.  0.
         24    2    1    2    0    0 -0.41071095740E+02 -0.93458049322E+02 -0.54301678554E+02  0.14129805693E+03  0.81211001164E+02 0.  0.
        -11    1    4    4    0    0 -0.47123247491E+02 -0.10399710218E+03 -0.36739347287E+02  0.11994072434E+03  0.00000000000E+00 0.  1.
         12    1    4    4    0    0  0.60521517507E+01  0.10539052856E+02 -0.17562331267E+02  0.21357332592E+02  0.00000000000E+00 0. -1.
        -11    1    3    3    0    0  0.19170913390E+02 -0.90358751400E+01  0.17943611300E+02  0.27769482282E+02  0.00000000000E+00 0. -1.
         11    1    3    3    0    0 -0.48925801636E+02  0.44576524763E+02  0.14534611719E+02  0.67764707359E+02  0.00000000000E+00 0.  1.
         21    1    1    2  503  502  0.22613550609E+02 -0.14608685127E+02  0.45818827121E+02  0.53142744293E+02  0.00000000000E+00 0.  1.
          1    1    1    2  501    0  0.48212433377E+02  0.72526084825E+02 -0.57675314504E+02  0.10445531875E+03  0.00000000000E+00 0. -1.
<scales pt_clust_5="13000.00000" pt_clust_6="13000.00000" pt_clust_7="13000.00000" pt_clust_8="13000.00000" pt_clust_9="26.92186" pt_clust_10="93.57154"></scales>
<clustering>
<clus scale="   26.922">  1  9  2 -1</clus>
<clus scale="   76.964">  7  8 -1 -1</clus>
<clus scale="   81.211">  5  6 -1 -1</clus>
<clus scale="   84.139">  2  7  1 -1</clus>
<clus scale="   93.572">  1 10  2 -1</clus>
<clus scale="   26.922">  1  5  2 -1</clus>
</clustering>
</event>
<event>
10    4  0.3043429E-005  0.1449252E+03  0.7546771E-02  0.1225577E+00
         21   -1    0    0  503  502  0.00000000000E+00  0.00000000000E+00  0.20632449006E+03  0.20632449006E+03  0.00000000000E+00 0. -1.
          2   -1    0    0  502    0 -0.00000000000E+00 -0.00000000000E+00 -0.26753009356E+03  0.26753009356E+03  0.00000000000E+00 0. -1.
         24    2    1    2    0    0 -0.66985899086E+02  0.19280464808E+02 -0.11050394558E+02  0.10514129171E+03  0.77934158123E+02 0.  0.
         23    2    1    2    0    0 -0.42714774151E+02  0.69953680117E+02 -0.12561869097E+03  0.17374702719E+03  0.87692101377E+02 0.  0.
        -11    1    3    3    0    0 -0.47841376284E+02  0.40208148672E+02  0.17499006271E+02  0.64897671182E+02  0.00000000000E+00 0.  1.
         12    1    3    3    0    0 -0.19144522802E+02 -0.20927683865E+02 -0.28549400829E+02  0.40243620525E+02  0.00000000000E+00 0. -1.
        -13    1    4    4    0    0 -0.69063419566E+02  0.59730021990E+02 -0.10214633311E+03  0.13700841148E+03  0.00000000000E+00 0. -1.
         13    1    4    4    0    0  0.26348645415E+02  0.10223658127E+02 -0.23472357863E+02  0.36738615711E+02  0.00000000000E+00 0.  1.
         21    1    1    2  503  501  0.40507846099E+02  0.13188725106E+02  0.55175585114E+02  0.69707770429E+02  0.00000000000E+00 0. -1.
          1    1    1    2  501    0  0.69192827138E+02 -0.10242287003E+03  0.20287896910E+02  0.12525849430E+03  0.00000000000E+00 0. -1.
<scales pt_clust_5="13000.00000" pt_clust_6="13000.00000" pt_clust_7="13000.00000" pt_clust_8="13000.00000" pt_clust_9="42.60080" pt_clust_10="115.38375"></scales>
<clustering>
<clus scale="   42.601">  1  9  2 -1</clus>
<clus scale="   77.934">  5  6 -1 -1</clus>
<clus scale="   87.692">  7  8 -1 -1</clus>
<clus scale="   97.563">  2  5  1 -1</clus>
<clus scale="  115.384">  1 10  2 -1</clus>
<clus scale="   42.601">  1  5  2 -1</clus>
</clustering>
</event>
<event>
10    4  0.3043429E-005  0.1351861E+03  0.7546771E-02  0.1235949E+00
          2   -1    0    0  502    0 -0.00000000000E+00  0.00000000000E+00  0.14475684854E+04  0.14475684854E+04  0.00000000000E+00 0. -1.
         21   -1    0    0  503  502  0.00000000000E+00 -0.00000000000E+00 -0.34938765281E+02  0.34938765281E+02  0.00000000000E+00 0. -1.
         23    2    1    2    0    0  0.20532818354E+02  0.29822732678E+02  0.27462929318E+03  0.29127501220E+03  0.90049386710E+02 0.  0.
         24    2    1    2    0    0 -0.69629568929E+01  0.81973031446E+02  0.10090832781E+04  0.10156437089E+04  0.80715677937E+02 0.  0.
        -13    1    4    4    0    0 -0.96922380774E+01  0.43653380408E+02  0.17323876928E+03  0.17891681945E+03  0.00000000000E+00 0.  1.
         14    1    4    4    0    0  0.27292811845E+01  0.38319651037E+02  0.83584450884E+03  0.83672688949E+03  0.00000000000E+00 0. -1.
        -11    1    3    3    0    0 -0.13627711246E+01 -0.31555911545E+02  0.10075181395E+03  0.10558674497E+03  0.00000000000E+00 0.  1.
         11    1    3    3    0    0  0.21895589479E+02  0.61378644223E+02  0.17387747923E+03  0.18568826723E+03  0.00000000000E+00 0. -1.
         21    1    1    2  503  501  0.13685856282E+02 -0.29527418389E+02  0.34724692326E+02  0.47591757228E+02  0.00000000000E+00 0.  1.
          1    1    1    2  501    0 -0.27255717743E+02 -0.82268345735E+02  0.94192456439E+02  0.12799677226E+03  0.00000000000E+00 0. -1.
<scales pt_clust_5="13000.00000" pt_clust_6="13000.00000" pt_clust_7="13000.00000" pt_clust_8="13000.00000" pt_clust_9="23.96400" pt_clust_10="115.28017"></scales>
<clustering>
<clus scale="   23.964">  9 10 -1 -1</clus>
<clus scale="   80.716">  5  6 -1 -1</clus>
<clus scale="   90.049">  7  8 -1 -1</clus>
<clus scale="   97.056">  1  7  2 -1</clus>
<clus scale="  115.280">  2  9  1 -1</clus>
<clus scale="  115.280">  2  5  1 -1</clus>
</clustering>
</event>
<event>
10    4  0.3043429E-005  0.2079259E+03  0.7546771E-02  0.1159152E+00
          2   -1    0    0  503    0 -0.00000000000E+00  0.00000000000E+00  0.14641152098E+04  0.14641152098E+04  0.00000000000E+00 0. -1.
         21   -1    0    0  501  502  0.00000000000E+00 -0.00000000000E+00 -0.67319935180E+02  0.67319935180E+02  0.00000000000E+00 0. -1.
         23    2    1    2    0    0 -0.10646999991E+03  0.81372815995E+01  0.44510566936E+03  0.46681247723E+03  0.91611984844E+02 0.  0.
         24    2    1    2    0    0  0.21182317863E+03  0.11135191290E+03  0.55175328171E+03  0.60676341764E+03  0.80385655458E+02 0.  0.
        -13    1    4    4    0    0  0.83697195731E+02  0.58247663868E+02  0.14698825933E+03  0.17889538647E+03  0.00000000000E+00 0.  1.
         14    1    4    4    0    0  0.12812598290E+03  0.53104249028E+02  0.40476502238E+03  0.42786803118E+03  0.00000000000E+00 0. -1.
        -11    1    3    3    0    0 -0.45351704784E+02 -0.41586502956E+02  0.17849992929E+03  0.18880794239E+03  0.00000000000E+00 0.  1.
         11    1    3    3    0    0 -0.61118295129E+02  0.49723784556E+02  0.26660574007E+03  0.27800453483E+03  0.00000000000E+00 0. -1.
         21    1    1    2  503  502 -0.11262993802E+02  0.20363491383E+02 -0.62351869473E+00  0.23279080443E+02  0.00000000000E+00 0. -1.
          1    1    1    2  501    0 -0.94090184913E+02 -0.13985268588E+03  0.40055984223E+03  0.43458016965E+03  0.00000000000E+00 0. -1.
<scales pt_clust_5="13000.00000" pt_clust_6="13000.00000" pt_clust_7="13000.00000" pt_clust_8="13000.00000" pt_clust_9="23.27073" pt_clust_10="191.75847"></scales>
<clustering>
<clus scale="   23.271">  2  9  1 -1</clus>
<clus scale="   80.386">  5  6 -1 -1</clus>
<clus scale="   91.612">  7  8 -1 -1</clus>
<clus scale="  142.656">  1  7  2 -1</clus>
<clus scale="  191.758">  2 10  1 -1</clus>
<clus scale="   23.271">  2  5  1 -1</clus>
</clustering>
</event>
<event>
10    4  0.3043429E-005  0.1479007E+03  0.7546771E-02  0.1206484E+00
         21   -1    0    0  501  502  0.00000000000E+00  0.00000000000E+00  0.11677845882E+03  0.11677845882E+03  0.00000000000E+00 0.  1.
          2   -1    0    0  503    0 -0.00000000000E+00 -0.00000000000E+00 -0.16013644199E+04  0.16013644199E+04  0.00000000000E+00 0. -1.
         24    2    1    2    0    0 -0.11372614087E+03 -0.13052916499E+02 -0.12652473714E+04  0.12728412667E+04  0.78549130012E+02 0.  0.
         23    2    1    2    0    0  0.10623529054E+03 -0.60073412260E+02 -0.21950138912E+03  0.26876080873E+03  0.95690964390E+02 0.  0.
        -11    1    3    3    0    0 -0.38736757974E+02  0.27161256420E+02 -0.28423634677E+03  0.28814678741E+03  0.00000000000E+00 0.  1.
         12    1    3    3    0    0 -0.74989382901E+02 -0.40214172919E+02 -0.98101102460E+03  0.98469447934E+03  0.00000000000E+00 0. -1.
        -11    1    4    4    0    0  0.10410656908E+01 -0.21824546199E+02  0.57303373882E+00  0.21856875399E+02  0.00000000000E+00 0.  1.
         11    1    4    4    0    0  0.10519422485E+03 -0.38248866061E+02 -0.22007442286E+03  0.24690393333E+03  0.00000000000E+00 0. -1.
         21    1    1    2  503  502  0.79091311458E+02  0.49119943542E+02  0.26101067220E+02  0.96692658004E+02  0.00000000000E+00 0.  1.
          1    1    1    2  501    0 -0.71600461123E+02  0.24006385217E+02 -0.25938267847E+02  0.79848145270E+02  0.00000000000E+00 0. -1.
<scales pt_clust_5="13000.00000" pt_clust_6="13000.00000" pt_clust_7="13000.00000" pt_clust_8="13000.00000" pt_clust_9="72.13247" pt_clust_10="75.51776"></scales>
<clustering>
<clus scale="   75.518">  1 10  2 -1</clus>
<clus scale="   72.132">  1  9  2 -1</clus>
<clus scale="   78.549">  5  6 -1 -1</clus>
<clus scale="   95.691">  7  8 -1 -1</clus>
<clus scale="  137.433">  2  5  1 -1</clus>
<clus scale="   75.518">  1  5  2 -1</clus>
</clustering>
</event>
<event>
10    4  0.3043429E-005  0.4299712E+03  0.7546771E-02  0.1091418E+00
         21   -1    0    0  503  502  0.00000000000E+00  0.00000000000E+00  0.50013132375E+03  0.50013132375E+03  0.00000000000E+00 0.  1.
         -1   -1    0    0    0  501 -0.00000000000E+00 -0.00000000000E+00 -0.13023001362E+04  0.13023001362E+04  0.00000000000E+00 0.  1.
         24    2    1    2    0    0  0.33096889589E+02 -0.22705413008E+01 -0.50983469219E+03  0.51712081368E+03  0.79887189921E+02 0.  0.
         23    2    1    2    0    0 -0.15304792420E+03  0.85339434206E+02 -0.55652221209E+02  0.20334848763E+03  0.86873192434E+02 0.  0.
        -11    1    3    3    0    0  0.56838591851E+02 -0.11983248877E+02 -0.28736908110E+03  0.29318119406E+03  0.00000000000E+00 0.  1.
         12    1    3    3    0    0 -0.23741702262E+02  0.97127075761E+01 -0.22246561109E+03  0.22393961962E+03  0.00000000000E+00 0. -1.
        -13    1    4    4    0    0 -0.13461581308E+03  0.10342187543E+03 -0.48877662844E+02  0.17665369335E+03  0.00000000000E+00 0.  1.
         13    1    4    4    0    0 -0.18432111117E+02 -0.18082441220E+02 -0.67745583645E+01  0.26694794282E+02  0.00000000000E+00 0. -1.
         21    1    1    2  503  501  0.29725856615E+03 -0.44410812769E+03 -0.37915111951E+03  0.65524823972E+03  0.00000000000E+00 0.  1.
         -2    1    1    2    0  502 -0.17730753154E+03  0.36103923479E+03  0.14246922049E+03  0.42671391890E+03  0.00000000000E+00 0.  1.
<scales pt_clust_5="13000.00000" pt_clust_6="13000.00000" pt_clust_7="13000.00000" pt_clust_8="13000.00000" pt_clust_9="429.97120" pt_clust_10="13000.00000"></scales>
<clustering>
<clus scale="   79.887">  5  6 -1 -1</clus>
<clus scale="   86.502">  2  5  1 -1</clus>
<clus scale="   86.873">  7  8 -1 -1</clus>
<clus scale="  191.197">  2  7  1 -1</clus>
<clus scale="  429.971">  2  9  1 -1</clus>
<clus scale="  429.971">  1  5  2 -1</clus>
</clustering>
</event>
<event>
10    4  0.3043429E-005  0.1316779E+03  0.7546771E-02  0.1227800E+00
          2   -1    0    0  502    0 -0.00000000000E+00  0.00000000000E+00  0.98635687551E+03  0.98635687551E+03  0.00000000000E+00 0. -1.
         21   -1    0    0  503  502  0.00000000000E+00 -0.00000000000E+00 -0.66885468739E+02  0.66885468739E+02  0.00000000000E+00 0.  1.
         23    2    1    2    0    0  0.16209988634E+01 -0.10055977478E+03  0.55688203487E+03  0.57328258277E+03  0.91762862888E+02 0.  0.
         24    2    1    2    0    0  0.61935913756E+02  0.54954144428E+02  0.16360968991E+02  0.11675531404E+03  0.80672837108E+02 0.  0.
        -13    1    4    4    0    0  0.78064075027E+02  0.60253316310E+02  0.14604249168E+02  0.99688244191E+02  0.00000000000E+00 0.  1.
         14    1    4    4    0    0 -0.16128161271E+02 -0.52991718817E+01  0.17567198231E+01  0.17067069846E+02  0.00000000000E+00 0. -1.
        -13    1    3    3    0    0  0.27394720454E+02 -0.80418917480E+01  0.51767540655E+02  0.59118702600E+02  0.00000000000E+00 0.  1.
         13    1    3    3    0    0 -0.25773721591E+02 -0.92517883034E+02  0.50511449421E+03  0.51416388017E+03  0.00000000000E+00 0. -1.
         21    1    1    2  503  501 -0.21774396292E+02 -0.12048588698E+01  0.15948382790E+02  0.27017159962E+02  0.00000000000E+00 0. -1.
          1    1    1    2  501    0 -0.41782516327E+02  0.46810489224E+02  0.33028002013E+03  0.33618728749E+03  0.00000000000E+00 0. -1.
<scales pt_clust_5="13000.00000" pt_clust_6="13000.00000" pt_clust_7="13000.00000" pt_clust_8="13000.00000" pt_clust_9="21.80771" pt_clust_10="63.40565"></scales>
<clustering>
<clus scale="   21.808">  2  9  1 -1</clus>
<clus scale="   63.406">  2 10  1 -1</clus>
<clus scale="   80.673">  5  6 -1 -1</clus>
<clus scale="   91.763">  7  8 -1 -1</clus>
<clus scale="  124.204">  2  5  1 -1</clus>
<clus scale="   21.808">  2  5  1 -1</clus>
</clustering>
</event>
<event>
10    4  0.3043429E-005  0.1395434E+03  0.7546771E-02  0.1236656E+00
          4   -1    0    0  503    0 -0.00000000000E+00  0.00000000000E+00  0.42419612595E+03  0.42419612595E+03  0.00000000000E+00 0. -1.
         21   -1    0    0  501  502  0.00000000000E+00 -0.00000000000E+00 -0.25658030241E+03  0.25658030241E+03  0.00000000000E+00 0. -1.
         24    2    1    2    0    0  0.18463501733E+02  0.51227184529E+02 -0.14064373661E+02  0.97528406916E+02  0.79679722754E+02 0.  0.
         23    2    1    2    0    0  0.99196475163E+02 -0.37040086301E+01 -0.42710737520E+02  0.14586032535E+03  0.97966152561E+02 0.  0.
        -13    1    3    3    0    0  0.39379727409E+02  0.61223222275E+02 -0.62400687703E+01  0.73061510625E+02  0.00000000000E+00 0.  1.
         14    1    3    3    0    0 -0.20916225676E+02 -0.99960377453E+01 -0.78243048911E+01  0.24466896292E+02  0.00000000000E+00 0. -1.
        -11    1    4    4    0    0  0.10819221558E+02 -0.23171564462E+02  0.22704145909E+02  0.34197298083E+02  0.00000000000E+00 0.  1.
         11    1    4    4    0    0  0.88377253605E+02  0.19467555832E+02 -0.65414883429E+02  0.11166302727E+03  0.00000000000E+00 0. -1.
         21    1    1    2  503  502 -0.94659026301E+02  0.37655495219E+02 -0.74201828595E+02  0.12603245196E+03  0.00000000000E+00 0. -1.
          3    1    1    2  501    0 -0.23000950595E+02 -0.85178671118E+02  0.29859276332E+03  0.31135524413E+03  0.00000000000E+00 0. -1.
<scales pt_clust_5="13000.00000" pt_clust_6="13000.00000" pt_clust_7="13000.00000" pt_clust_8="13000.00000" pt_clust_9="99.37297" pt_clust_10="88.22957"></scales>
<clustering>
<clus scale="   79.680">  5  6 -1 -1</clus>
<clus scale="   88.230">  2 10  1 -1</clus>
<clus scale="   86.980">  1  5  2 -1</clus>
<clus scale="   97.966">  7  8 -1 -1</clus>
<clus scale="   99.373">  2  9  1 -1</clus>
<clus scale="   88.230">  2  5  1 -1</clus>
</clustering>
</event>
<event>
10    4  0.3043429E-005  0.1179151E+03  0.7546771E-02  0.1261312E+00
          2   -1    0    0  503    0 -0.00000000000E+00  0.00000000000E+00  0.93514032892E+03  0.93514032892E+03  0.00000000000E+00 0. -1.
         21   -1    0    0  501  502  0.00000000000E+00 -0.00000000000E+00 -0.49840184753E+02  0.49840184753E+02  0.00000000000E+00 0.  1.
         24    2    1    2    0    0  0.46720615509E+02  0.89213195011E+01  0.30238879222E+03  0.31511669631E+03  0.74814068056E+02 0.  0.
         23    2    1    2    0    0  0.71735618596E+02  0.88652094670E+01  0.69914635726E+02  0.13554014951E+03  0.90876206599E+02 0.  0.
        -13    1    3    3    0    0  0.39444621003E+02  0.29552666545E+02  0.27807681717E+03  0.28241096733E+03  0.00000000000E+00 0.  1.
         14    1    3    3    0    0  0.72759945060E+01 -0.20631347043E+02  0.24311975054E+02  0.32705728977E+02  0.00000000000E+00 0. -1.
        -11    1    4    4    0    0 -0.10207681496E+02 -0.19560919207E+02  0.36382417614E+02  0.42550048568E+02  0.00000000000E+00 0. -1.
         11    1    4    4    0    0  0.81943300092E+02  0.28426128674E+02  0.33532218112E+02  0.92990100940E+02  0.00000000000E+00 0.  1.
         21    1    1    2  503  502 -0.12978407864E+02  0.18451633118E+02  0.24697323383E+02  0.33449359002E+02  0.00000000000E+00 0. -1.
          1    1    1    2  501    0 -0.10547782624E+03 -0.36238162086E+02  0.48829939284E+03  0.50087430885E+03  0.00000000000E+00 0. -1.
<scales pt_clust_5="13000.00000" pt_clust_6="13000.00000" pt_clust_7="13000.00000" pt_clust_8="13000.00000" pt_clust_9="22.55885" pt_clust_10="75.13645"></scales>
<clustering>
<clus scale="   22.559">  2  9  1 -1</clus>
<clus scale="   74.814">  5  6 -1 -1</clus>
<clus scale="   88.011">  1  5  2 -1</clus>
<clus scale="   75.136">  2 10  1 -1</clus>
<clus scale="   90.876">  7  8 -1 -1</clus>
<clus scale="   22.559">  2  5  1 -1</clus>
</clustering>
</event>
<event>
10    4  0.3043429E-005  0.1584273E+03  0.7546771E-02  0.1192075E+00
          2   -1    0    0  503    0 -0.00000000000E+00  0.00000000000E+00  0.69224377920E+03  0.69224377920E+03  0.00000000000E+00 0. -1.
         21   -1    0    0  501  502  0.00000000000E+00 -0.00000000000E+00 -0.12156720510E+03  0.12156720510E+03  0.00000000000E+00 0.  1.
         24    2    1    2    0    0 -0.16135544302E+03 -0.19199621513E+01  0.28218132363E+03  0.33497187999E+03  0.80873949642E+02 0.  0.
         23    2    1    2    0    0  0.69852861464E+02  0.64843407049E+02  0.52416863914E+02  0.14167722973E+03  0.90778962927E+02 0.  0.
        -11    1    3    3    0    0 -0.15502345306E+03 -0.22259240830E+02  0.22665840783E+03  0.27550277429E+03  0.00000000000E+00 0.  1.
         12    1    3    3    0    0 -0.63319899639E+01  0.20339278679E+02  0.55522915794E+02  0.59469105697E+02  0.00000000000E+00 0. -1.
        -13    1    4    4    0    0  0.31551139114E+02  0.55130977059E+02 -0.13391633853E+02  0.64917138477E+02  0.00000000000E+00 0.  1.
         13    1    4    4    0    0  0.38301722350E+02  0.97124299902E+01  0.65808497768E+02  0.76760091257E+02  0.00000000000E+00 0. -1.
         21    1    1    2  503  502  0.26639647408E+02  0.88281497202E+01 -0.37585909606E+02  0.46907436962E+02  0.00000000000E+00 0.  1.
          1    1    1    2  501    0  0.64862934150E+02 -0.71751594618E+02  0.27366429617E+03  0.29025443761E+03  0.00000000000E+00 0. -1.
<scales pt_clust_5="13000.00000" pt_clust_6="13000.00000" pt_clust_7="13000.00000" pt_clust_8="13000.00000" pt_clust_9="28.06434" pt_clust_10="97.94402"></scales>
<clustering>
<clus scale="   28.064">  2  9  1 -1</clus>
<clus scale="   80.874">  5  6 -1 -1</clus>
<clus scale="   90.779">  7  8 -1 -1</clus>
<clus scale="   97.944">  2 10  1 -1</clus>
<clus scale="  152.967">  1  5  2 -1</clus>
<clus scale="   28.064">  2  5  1 -1</clus>
</clustering>
</event>
<event>
10    4  0.3043429E-005  0.2009119E+03  0.7546771E-02  0.1170746E+00
          2   -1    0    0  503    0 -0.00000000000E+00  0.00000000000E+00  0.13933134459E+03  0.13933134459E+03  0.00000000000E+00 0. -1.
         21   -1    0    0  501  502  0.00000000000E+00 -0.00000000000E+00 -0.11395364534E+04  0.11395364534E+04  0.00000000000E+00 0.  1.
         24    2    1    2    0    0  0.43694312728E+02 -0.41848923029E+02 -0.29261334173E+03  0.30937919532E+03  0.80202203294E+02 0.  0.
         23    2    1    2    0    0  0.71934439544E+02  0.12428296026E+03 -0.11071604360E+03  0.21236644358E+03  0.11054703183E+03 0.  0.
        -13    1    3    3    0    0  0.23769842736E+02 -0.58504878645E+02 -0.26067677286E+03  0.26821671491E+03  0.00000000000E+00 0.  1.
         14    1    3    3    0    0  0.19924469992E+02  0.16655955616E+02 -0.31936568867E+02  0.41162480404E+02  0.00000000000E+00 0. -1.
        -11    1    4    4    0    0  0.83044688981E+01  0.11263319732E+03 -0.49517930166E+02  0.12331758492E+03  0.00000000000E+00 0.  1.
         11    1    4    4    0    0  0.63629970645E+02  0.11649762934E+02 -0.61198113435E+02  0.89048858660E+02  0.00000000000E+00 0. -1.
         21    1    1    2  503  502  0.75130093138E+02  0.31497780897E+01 -0.53332399788E+03  0.53859905191E+03  0.00000000000E+00 0.  1.
          1    1    1    2  501    0 -0.19075884541E+03 -0.85583815318E+02 -0.63551725587E+02  0.21852310718E+03  0.00000000000E+00 0. -1.
<scales pt_clust_5="13000.00000" pt_clust_6="13000.00000" pt_clust_7="13000.00000" pt_clust_8="13000.00000" pt_clust_9="75.19609" pt_clust_10="167.76461"></scales>
<clustering>
<clus scale="   75.196">  2  9  1 -1</clus>
<clus scale="   80.202">  5  6 -1 -1</clus>
<clus scale="  110.547">  7  8 -1 -1</clus>
<clus scale="  121.003">  1  5  2 -1</clus>
<clus scale="  167.765">  2 10  1 -1</clus>
<clus scale="   75.196">  2  5  1 -1</clus>
</clustering>
</event>
<event>
10    4  0.3043429E-005  0.1624800E+03  0.7546771E-02  0.1196895E+00
         21   -1    0    0  501  502  0.00000000000E+00  0.00000000000E+00  0.71579248152E+02  0.71579248152E+02  0.00000000000E+00 0. -1.
          2   -1    0    0  503    0 -0.00000000000E+00 -0.00000000000E+00 -0.12704014173E+04  0.12704014173E+04  0.00000000000E+00 0. -1.
         24    2    1    2    0    0  0.59446813955E+02 -0.78227480859E+02 -0.51573441049E+03  0.53123634248E+03  0.81096282028E+02 0.  0.
         23    2    1    2    0    0 -0.10590717509E+03 -0.56316023616E+02 -0.88299191262E+02  0.17481076821E+03  0.91510836805E+02 0.  0.
        -11    1    3    3    0    0  0.42630104919E+02 -0.14912371014E+02 -0.92218797077E+02  0.10268403571E+03  0.00000000000E+00 0.  1.
         12    1    3    3    0    0  0.16816709036E+02 -0.63315109845E+02 -0.42351561341E+03  0.42855230677E+03  0.00000000000E+00 0. -1.
        -13    1    4    4    0    0 -0.21908199034E+02 -0.46337052908E+02 -0.72452805436E+02  0.88749651676E+02  0.00000000000E+00 0.  1.
         13    1    4    4    0    0 -0.83998976059E+02 -0.99789707088E+01 -0.15846385826E+02  0.86061116534E+02  0.00000000000E+00 0. -1.
         21    1    1    2  503  502 -0.16339393792E+02 -0.14456131916E+02 -0.24865224540E+01  0.21957648631E+02  0.00000000000E+00 0.  1.
          1    1    1    2  501    0  0.62799754930E+02  0.14899963639E+03 -0.59230204493E+03  0.61397590612E+03  0.00000000000E+00 0. -1.
<scales pt_clust_5="13000.00000" pt_clust_6="13000.00000" pt_clust_7="13000.00000" pt_clust_8="13000.00000" pt_clust_9="21.81641" pt_clust_10="134.25920"></scales>
<clustering>
<clus scale="   21.816">  1  9  2 -1</clus>
<clus scale="   81.096">  5  6 -1 -1</clus>
<clus scale="   91.511">  7  8 -1 -1</clus>
<clus scale="  127.583">  2  5  1 -1</clus>
<clus scale="  134.259">  1 10  2 -1</clus>
<clus scale="   21.816">  1  5  2 -1</clus>
</clustering>
</event>
<event>
10    4  0.3043429E-005  0.1720641E+03  0.7546771E-02  0.1177391E+00
          2   -1    0    0  503    0 -0.00000000000E+00  0.00000000000E+00  0.32880518612E+03  0.32880518612E+03  0.00000000000E+00 0. -1.
         21   -1    0    0  501  502  0.00000000000E+00 -0.00000000000E+00 -0.36526238395E+03  0.36526238395E+03  0.00000000000E+00 0.  1.
         23    2    1    2    0    0 -0.79788551221E+02  0.12653374647E+03  0.24457433775E+03  0.30122476808E+03  0.92427010743E+02 0.  0.
         24    2    1    2    0    0  0.54261243658E+02 -0.11332195717E+03 -0.85215957549E+02  0.17153881791E+03  0.79860240985E+02 0.  0.
        -11    1    4    4    0    0  0.28686233300E+02 -0.11558424898E+03 -0.84188331365E+02  0.14584338769E+03  0.00000000000E+00 0.  1.
         12    1    4    4    0    0  0.25575010357E+02  0.22622918121E+01 -0.10276261842E+01  0.25695430228E+02  0.00000000000E+00 0. -1.
        -13    1    3    3    0    0 -0.25717683565E+02  0.67145538457E+02  0.19253690404E+03  0.20552465059E+03  0.00000000000E+00 0. -1.
         13    1    3    3    0    0 -0.54070867656E+02  0.59388208013E+02  0.52037433715E+02  0.95700117491E+02  0.00000000000E+00 0.  1.
         21    1    1    2  503  502 -0.35603231079E+02 -0.19226479073E+02 -0.61611066335E+02  0.73710047183E+02  0.00000000000E+00 0.  1.
          1    1    1    2  501    0  0.61130538642E+02  0.60146897743E+01 -0.13420451170E+03  0.14759393690E+03  0.00000000000E+00 0. -1.
<scales pt_clust_5="13000.00000" pt_clust_6="13000.00000" pt_clust_7="13000.00000" pt_clust_8="13000.00000" pt_clust_9="40.46292" pt_clust_10="44.38180"></scales>
<clustering>
<clus scale="   40.463">  2  9  1 -1</clus>
<clus scale="   44.382">  2 10  1 -1</clus>
<clus scale="   79.860">  5  6 -1 -1</clus>
<clus scale="   92.427">  7  8 -1 -1</clus>
<clus scale="  165.653">  2  5  1 -1</clus>
<clus scale="   40.463">  2  5  1 -1</clus>
</clustering>
</event>
<event>
10    4  0.3043429E-005  0.9328128E+02  0.7546771E-02  0.1301996E+00
          2   -1    0    0  503    0 -0.00000000000E+00  0.00000000000E+00  0.33480296070E+03  0.33480296070E+03  0.00000000000E+00 0. -1.
         21   -1    0    0  501  502  0.00000000000E+00 -0.00000000000E+00 -0.60296681821E+03  0.60296681821E+03  0.00000000000E+00 0. -1.
         23    2    1    2    0    0 -0.37750074177E+01 -0.84077239535E+01  0.24018912950E+03  0.25726132142E+03  0.91693124394E+02 0.  0.
         24    2    1    2    0    0  0.33120535843E+02  0.30507096532E+02  0.46056354883E+02  0.10294438559E+03  0.80303834691E+02 0.  0.
        -11    1    4    4    0    0  0.11850299857E+02 -0.27380019631E+02  0.20439249002E+02  0.36164319176E+02  0.00000000000E+00 0.  1.
         12    1    4    4    0    0  0.21270235986E+02  0.57887116163E+02  0.25617105881E+02  0.66780066415E+02  0.00000000000E+00 0. -1.
        -11    1    3    3    0    0  0.13264825777E+02 -0.40900022512E+02  0.62744724979E+02  0.76063578387E+02  0.00000000000E+00 0.  1.
         11    1    3    3    0    0 -0.17039833195E+02  0.32492298559E+02  0.17744440453E+03  0.18119774303E+03  0.00000000000E+00 0. -1.
         21    1    1    2  503  502  0.64006839434E+02 -0.24385625411E+02 -0.23925689387E+03  0.24886822916E+03  0.00000000000E+00 0. -1.
          1    1    1    2  501    0 -0.93352367860E+02  0.22862528319E+01 -0.31515244803E+03  0.32869584275E+03  0.00000000000E+00 0. -1.
<scales pt_clust_5="13000.00000" pt_clust_6="13000.00000" pt_clust_7="13000.00000" pt_clust_8="13000.00000" pt_clust_9="68.49478" pt_clust_10="40.93122"></scales>
<clustering>
<clus scale="   68.495">  2  9  1 -1</clus>
<clus scale="   40.931">  2 10  1 -1</clus>
<clus scale="   80.304">  5  6 -1 -1</clus>
<clus scale="   82.113">  2  5  1 -1</clus>
<clus scale="   91.693">  7  8 -1 -1</clus>
<clus scale="   68.495">  2  5  1 -1</clus>
</clustering>
</event>
<event>
10    4  0.3043429E-005  0.1603636E+03  0.7546771E-02  0.1215565E+00
          2   -1    0    0  503    0 -0.00000000000E+00  0.00000000000E+00  0.15894063646E+04  0.15894063646E+04  0.00000000000E+00 0. -1.
         21   -1    0    0  501  502  0.00000000000E+00 -0.00000000000E+00 -0.62116540604E+02  0.62116540604E+02  0.00000000000E+00 0.  1.
         24    2    1    2    0    0  0.37344672103E+02  0.15167871278E+02  0.38581978943E+03  0.39634698309E+03  0.81297799666E+02 0.  0.
         23    2    1    2    0    0  0.62506338457E+02  0.15099549357E+03  0.16350593736E+03  0.24929478485E+03  0.93311396815E+02 0.  0.
        -13    1    3    3    0    0  0.21702419805E+02 -0.24495245120E+02  0.65692168890E+02  0.73392595760E+02  0.00000000000E+00 0.  1.
         14    1    3    3    0    0  0.15642252298E+02  0.39663116398E+02  0.32012762054E+03  0.32295438733E+03  0.00000000000E+00 0. -1.
        -13    1    4    4    0    0  0.25751028229E+02  0.12328028741E+03  0.67654812848E+02  0.14296264694E+03  0.00000000000E+00 0.  1.
         13    1    4    4    0    0  0.36755310229E+02  0.27715206160E+02  0.95851124509E+02  0.10633213791E+03  0.00000000000E+00 0. -1.
         21    1    1    2  503  502 -0.35294156973E+02 -0.36609971990E+02  0.70392668369E+02  0.86839480225E+02  0.00000000000E+00 0.  1.
          1    1    1    2  501    0 -0.64556853587E+02 -0.12955339285E+03  0.90757142883E+03  0.91904165704E+03  0.00000000000E+00 0. -1.
<scales pt_clust_5="13000.00000" pt_clust_6="13000.00000" pt_clust_7="13000.00000" pt_clust_8="13000.00000" pt_clust_9="50.85241" pt_clust_10="130.42041"></scales>
<clustering>
<clus scale="   50.852">  2  9  1 -1</clus>
<clus scale="   81.298">  5  6 -1 -1</clus>
<clus scale="   88.841">  1  5  2 -1</clus>
<clus scale="   93.311">  7  8 -1 -1</clus>
<clus scale="  130.420">  2 10  1 -1</clus>
<clus scale="   50.852">  2  5  1 -1</clus>
</clustering>
</event>
<event>
10    4  0.3043429E-005  0.2268545E+03  0.7546771E-02  0.1150924E+00
         21   -1    0    0  501  502  0.00000000000E+00  0.00000000000E+00  0.31371156420E+03  0.31371156420E+03  0.00000000000E+00 0. -1.
          2   -1    0    0  503    0 -0.00000000000E+00 -0.00000000000E+00 -0.51173689504E+03  0.51173689504E+03  0.00000000000E+00 0. -1.
         23    2    1    2    0    0 -0.29633315782E+01  0.97562092227E+02 -0.29852642361E+03  0.32712897623E+03  0.91477857007E+02 0.  0.
         24    2    1    2    0    0 -0.12434267596E+00  0.15593533619E+03 -0.58422335783E+02  0.18510522848E+03  0.80838924768E+02 0.  0.
        -13    1    4    4    0    0  0.38088600428E+02  0.55589601087E+02 -0.13574484727E+02  0.68740176514E+02  0.00000000000E+00 0.  1.
         14    1    4    4    0    0 -0.38212943104E+02  0.10034573511E+03 -0.44847851056E+02  0.11636505197E+03  0.00000000000E+00 0. -1.
        -13    1    3    3    0    0 -0.21072075838E+02 -0.93781744590E+01 -0.78550789626E+02  0.81867020754E+02  0.00000000000E+00 0.  1.
         13    1    3    3    0    0  0.18108744259E+02  0.10694026669E+03 -0.21997563398E+03  0.24526195547E+03  0.00000000000E+00 0. -1.
         21    1    1    2  503  502 -0.22951643394E+02 -0.15564616873E+02  0.38035641095E+01  0.27991111676E+02  0.00000000000E+00 0. -1.
          1    1    1    2  501    0  0.26039317649E+02 -0.23793281155E+03  0.15511986444E+03  0.28522314285E+03  0.00000000000E+00 0. -1.
<scales pt_clust_5="13000.00000" pt_clust_6="13000.00000" pt_clust_7="13000.00000" pt_clust_8="13000.00000" pt_clust_9="27.73148" pt_clust_10="211.96230"></scales>
<clustering>
<clus scale="   27.731">  1  9  2 -1</clus>
<clus scale="   80.839">  5  6 -1 -1</clus>
<clus scale="   91.478">  7  8 -1 -1</clus>
<clus scale="  133.258">  2  7  1 -1</clus>
<clus scale="  211.962">  1 10  2 -1</clus>
<clus scale="   27.731">  1  5  2 -1</clus>
</clustering>
</event>
<event>
10    4  0.3043429E-005  0.1105520E+03  0.7546771E-02  0.1263848E+00
         21   -1    0    0  503  502  0.00000000000E+00  0.00000000000E+00  0.48635048712E+03  0.48635048712E+03  0.00000000000E+00 0. -1.
         -1   -1    0    0    0  501 -0.00000000000E+00 -0.00000000000E+00 -0.83227634339E+02  0.83227634339E+02  0.00000000000E+00 0.  1.
         23    2    1    2    0    0 -0.38158378276E+02  0.66225612200E+02  0.17618832274E+02  0.11924863934E+03  0.89821607585E+02 0.  0.
         24    2    1    2    0    0  0.13270330791E+01 -0.25750427117E+02  0.22825499154E+03  0.24277260147E+03  0.78570664679E+02 0.  0.
        -13    1    4    4    0    0 -0.20127781107E+02 -0.11108536217E+02  0.13932845812E+02  0.26882175165E+02  0.00000000000E+00 0.  1.
         14    1    4    4    0    0  0.21454814186E+02 -0.14641890900E+02  0.21432214572E+03  0.21589042630E+03  0.00000000000E+00 0. -1.
        -11    1    3    3    0    0 -0.63229593195E+02  0.43724772266E+02 -0.74807867385E+01  0.77238587089E+02  0.00000000000E+00 0.  1.
         11    1    3    3    0    0  0.25071214919E+02  0.22500839934E+02  0.25099619013E+02  0.42010052248E+02  0.00000000000E+00 0. -1.
         21    1    1    2  503  501  0.57971190344E+01 -0.31626036056E+02  0.16988433223E+03  0.17290025762E+03  0.00000000000E+00 0.  1.
         -2    1    1    2    0  502  0.31034226162E+02 -0.88491490271E+01 -0.12635303262E+02  0.34656623040E+02  0.00000000000E+00 0.  1.
<scales pt_clust_5="13000.00000" pt_clust_6="13000.00000" pt_clust_7="13000.00000" pt_clust_8="13000.00000" pt_clust_9="32.15296" pt_clust_10="32.78478"></scales>
<clustering>
<clus scale="   32.153">  1  9  2 -1</clus>
<clus scale="   32.785">  1 10  2 -1</clus>
<clus scale="   78.571">  5  6 -1 -1</clus>
<clus scale="   89.822">  7  8 -1 -1</clus>
<clus scale="  101.623">  1  5  2 -1</clus>
<clus scale="   32.153">  1  5  2 -1</clus>
</clustering>
</event>
<event>
10    4  0.3043429E-005  0.2123374E+03  0.7546771E-02  0.1147323E+00
          2   -1    0    0  503    0 -0.00000000000E+00  0.00000000000E+00  0.17420065266E+04  0.17420065266E+04  0.00000000000E+00 0. -1.
         21   -1    0    0  501  502  0.00000000000E+00 -0.00000000000E+00 -0.87607347079E+02  0.87607347079E+02  0.00000000000E+00 0. -1.
         23    2    1    2    0    0  0.14216171216E+03  0.18138218858E+02  0.13123899193E+03  0.21539668327E+03  0.92914534784E+02 0.  0.
         24    2    1    2    0    0 -0.12011467270E+03 -0.18531382955E+03  0.10121919118E+04  0.10391629436E+04  0.80983992521E+02 0.  0.
        -13    1    4    4    0    0 -0.49573553110E+02 -0.14655051676E+03  0.67206215064E+03  0.68963912697E+03  0.00000000000E+00 0.  1.
         14    1    4    4    0    0 -0.70541119588E+02 -0.38763312792E+02  0.34012976119E+03  0.34952381667E+03  0.00000000000E+00 0. -1.
        -13    1    3    3    0    0  0.33268949244E+02  0.10492118664E+02  0.93664944095E+02  0.99950134018E+02  0.00000000000E+00 0.  1.
         13    1    3    3    0    0  0.10889276292E+03  0.76461001937E+01  0.37574047831E+02  0.11544654925E+03  0.00000000000E+00 0. -1.
         21    1    1    2  503  502  0.15890634379E+02 -0.43191684552E+02  0.56870101489E+02  0.73159020762E+02  0.00000000000E+00 0.  1.
          1    1    1    2  501    0 -0.37937673841E+02  0.21036729524E+03  0.45409817424E+03  0.50189522597E+03  0.00000000000E+00 0. -1.
<scales pt_clust_5="13000.00000" pt_clust_6="13000.00000" pt_clust_7="13000.00000" pt_clust_8="13000.00000" pt_clust_9="46.02210" pt_clust_10="196.28745"></scales>
<clustering>
<clus scale="   46.022">  2  9  1 -1</clus>
<clus scale="   80.984">  5  6 -1 -1</clus>
<clus scale="   92.915">  7  8 -1 -1</clus>
<clus scale="  176.999">  1  7  2 -1</clus>
<clus scale="  196.287">  2 10  1 -1</clus>
<clus scale="   46.022">  2  5  1 -1</clus>
</clustering>
</event>
<event>
10    4  0.3043429E-005  0.2441386E+03  0.7546771E-02  0.1133373E+00
         -1   -1    0    0    0  501 -0.00000000000E+00  0.00000000000E+00  0.19820616834E+04  0.19820616834E+04  0.00000000000E+00 0.  1.
         21   -1    0    0  501  502  0.00000000000E+00 -0.00000000000E+00 -0.65117999419E+02  0.65117999419E+02  0.00000000000E+00 0.  1.
         24    2    1    2    0    0  0.81783868997E+02  0.11441087216E+03  0.44095849607E+03  0.47011994309E+03  0.82400951042E+02 0.  0.
         23    2    1    2    0    0  0.16092075165E+03 -0.13995706691E+03  0.10752982902E+04  0.10999516730E+04  0.90243010990E+02 0.  0.
        -11    1    3    3    0    0  0.88622576939E+02  0.10884210415E+03  0.43925847066E+03  0.46113834023E+03  0.00000000000E+00 0.  1.
         12    1    3    3    0    0 -0.68387079421E+01  0.55687680145E+01  0.17000254081E+01  0.89816028583E+01  0.00000000000E+00 0. -1.
        -11    1    4    4    0    0  0.35034539121E+02 -0.78380469434E+01  0.75078032568E+02  0.83219978885E+02  0.00000000000E+00 0. -1.
         11    1    4    4    0    0  0.12588621252E+03 -0.13211901997E+03  0.10002202577E+04  0.10167316941E+04  0.00000000000E+00 0.  1.
         21    1    1    2  503  502 -0.56696181357E+02  0.31432954361E+02  0.57238804222E+02  0.86479872278E+02  0.00000000000E+00 0. -1.
         -2    1    1    2    0  503 -0.18600843929E+03 -0.58867596139E+01  0.34344809351E+03  0.39062819452E+03  0.00000000000E+00 0.  1.
<scales pt_clust_5="13000.00000" pt_clust_6="13000.00000" pt_clust_7="13000.00000" pt_clust_8="13000.00000" pt_clust_9="51.19474" pt_clust_10="242.86587"></scales>
<clustering>
<clus scale="   51.195">  9 10 -1 -1</clus>
<clus scale="   82.401">  5  6 -1 -1</clus>
<clus scale="   90.243">  7  8 -1 -1</clus>
<clus scale="  162.998">  1  5  2 -1</clus>
<clus scale="  242.866">  2  9  1 -1</clus>
<clus scale="  242.866">  2  5  1 -1</clus>
</clustering>
</event>
<event>
10    4  0.3043429E-005  0.1687759E+03  0.7546771E-02  0.1189667E+00
          2   -1    0    0  502    0 -0.00000000000E+00  0.00000000000E+00  0.70777504713E+03  0.70777504713E+03  0.00000000000E+00 0. -1.
         21   -1    0    0  503  502  0.00000000000E+00 -0.00000000000E+00 -0.26643845998E+03  0.26643845998E+03  0.00000000000E+00 0. -1.
         23    2    1    2    0    0  0.46775896098E+02  0.13310901563E+03  0.94712329409E+02  0.19302851382E+03  0.91561931544E+02 0.  0.
         24    2    1    2    0    0 -0.13487411951E+03  0.17345487142E+02  0.66331838078E+02  0.17164764166E+03  0.81062359368E+02 0.  0.
        -13    1    4    4    0    0 -0.80264616584E+02  0.22395858634E+02 -0.28324848802E+01  0.83378691102E+02  0.00000000000E+00 0.  1.
         14    1    4    4    0    0 -0.54609502926E+02 -0.50503714919E+01  0.69164322958E+02  0.88268950556E+02  0.00000000000E+00 0. -1.
        -13    1    3    3    0    0  0.51582982908E+02  0.10743680380E+03  0.11048858515E+03  0.16251522509E+03  0.00000000000E+00 0. -1.
         13    1    3    3    0    0 -0.48070868102E+01  0.25672211830E+02 -0.15776255746E+02  0.30513288731E+02  0.00000000000E+00 0.  1.
         21    1    1    2  503  501 -0.45038565808E+02 -0.92871689059E+02 -0.13482953311E+03  0.16980172566E+03  0.00000000000E+00 0. -1.
          1    1    1    2  501    0  0.13313678922E+03 -0.57582813715E+02  0.41512195276E+03  0.43973562597E+03  0.00000000000E+00 0. -1.
<scales pt_clust_5="13000.00000" pt_clust_6="13000.00000" pt_clust_7="13000.00000" pt_clust_8="13000.00000" pt_clust_9="103.21639" pt_clust_10="148.03453"></scales>
<clustering>
<clus scale="   81.062">  5  6 -1 -1</clus>
<clus scale="   91.562">  7  8 -1 -1</clus>
<clus scale="  103.216">  2  9  1 -1</clus>
<clus scale="  133.422">  1  7  2 -1</clus>
<clus scale="  148.035">  2 10  1 -1</clus>
<clus scale="  103.216">  2  5  1 -1</clus>
</clustering>
</event>
<event>
10    4  0.3043429E-005  0.2670551E+03  0.7546771E-02  0.1103481E+00
          2   -1    0    0  503    0 -0.00000000000E+00  0.00000000000E+00  0.15042186384E+03  0.15042186384E+03  0.00000000000E+00 0. -1.
         21   -1    0    0  501  502  0.00000000000E+00 -0.00000000000E+00 -0.11698562302E+04  0.11698562302E+04  0.00000000000E+00 0.  1.
         24    2    1    2    0    0  0.87880748484E+02  0.20449249366E+03 -0.22749032897E+03  0.32848750432E+03  0.81314111924E+02 0.  0.
         23    2    1    2    0    0  0.31499736256E+02 -0.33575264307E+03 -0.55914619509E+03  0.65940042257E+03  0.91882419932E+02 0.  0.
        -13    1    3    3    0    0  0.36192298158E+02  0.23761922459E+02 -0.17625947607E+02  0.46745967034E+02  0.00000000000E+00 0.  1.
         14    1    3    3    0    0  0.51688450327E+02  0.18073057120E+03 -0.20986438137E+03  0.28174153728E+03  0.00000000000E+00 0. -1.
        -11    1    4    4    0    0 -0.29633512492E+02 -0.14985924844E+03 -0.27094585214E+03  0.31104275301E+03  0.00000000000E+00 0.  1.
         11    1    4    4    0    0  0.61133248749E+02 -0.18589339463E+03 -0.28820034295E+03  0.34835766957E+03  0.00000000000E+00 0. -1.
         21    1    1    2  503  502 -0.13420156030E+02 -0.15625851816E+02 -0.11386961781E+03  0.11571757729E+03  0.00000000000E+00 0.  1.
          1    1    1    2  501    0 -0.10596032871E+03  0.14688600122E+03 -0.11892822448E+03  0.21667258985E+03  0.00000000000E+00 0. -1.
<scales pt_clust_5="13000.00000" pt_clust_6="13000.00000" pt_clust_7="13000.00000" pt_clust_8="13000.00000" pt_clust_9="20.59776" pt_clust_10="180.37765"></scales>
<clustering>
<clus scale="   20.598">  2  9  1 -1</clus>
<clus scale="   81.314">  5  6 -1 -1</clus>
<clus scale="   91.882">  7  8 -1 -1</clus>
<clus scale="  180.378">  2 10  1 -1</clus>
<clus scale="  263.606">  1  5  2 -1</clus>
<clus scale="   20.598">  2  5  1 -1</clus>
</clustering>
</event>
<event>
10    4  0.3043429E-005  0.1569413E+03  0.7546771E-02  0.1221988E+00
         21   -1    0    0  501  502  0.00000000000E+00  0.00000000000E+00  0.11198102155E+03  0.11198102155E+03  0.00000000000E+00 0.  1.
          2   -1    0    0  503    0 -0.00000000000E+00 -0.00000000000E+00 -0.67323821959E+03  0.67323821959E+03  0.00000000000E+00 0. -1.
         24    2    1    2    0    0  0.31236589404E+01 -0.11522746007E+02 -0.47598883045E+02  0.95506044205E+02  0.81934241266E+02 0.  0.
         23    2    1    2    0    0 -0.31846502627E+02  0.10633406118E+03 -0.31710534605E+03  0.34842599692E+03  0.92324116768E+02 0.  0.
        -13    1    3    3    0    0  0.25526580997E+02 -0.24256323935E+02  0.62920979880E+01  0.35771022984E+02  0.00000000000E+00 0.  1.
         14    1    3    3    0    0 -0.22402922057E+02  0.12733577928E+02 -0.53890981033E+02  0.59735021221E+02  0.00000000000E+00 0. -1.
        -11    1    4    4    0    0 -0.16993615997E+02  0.12109944401E+03 -0.25334225665E+03  0.28131149519E+03  0.00000000000E+00 0.  1.
         11    1    4    4    0    0 -0.14852886630E+02 -0.14765382831E+02 -0.63763089409E+02  0.67114501729E+02  0.00000000000E+00 0. -1.
         21    1    1    2  503  502  0.56479082997E+02  0.79881038661E+02 -0.99449250741E+02  0.13950276208E+03  0.00000000000E+00 0.  1.
          1    1    1    2  501    0 -0.27756239311E+02 -0.17469235383E+03 -0.97103718196E+02  0.20178443794E+03  0.00000000000E+00 0. -1.
<scales pt_clust_5="13000.00000" pt_clust_6="13000.00000" pt_clust_7="13000.00000" pt_clust_8="13000.00000" pt_clust_9="96.33798" pt_clust_10="126.91265"></scales>
<clustering>
<clus scale="   81.934">  5  6 -1 -1</clus>
<clus scale="   82.800">  2  5  1 -1</clus>
<clus scale="   92.324">  7  8 -1 -1</clus>
<clus scale="   96.338">  1  9  2 -1</clus>
<clus scale="  126.913">  1 10  2 -1</clus>
<clus scale="   96.338">  1  5  2 -1</clus>
</clustering>
</event>
<event>
10    4  0.3043429E-005  0.2675899E+03  0.7546771E-02  0.1102667E+00
          2   -1    0    0  503    0 -0.00000000000E+00  0.00000000000E+00  0.10217565517E+04  0.10217565517E+04  0.00000000000E+00 0. -1.
         21   -1    0    0  501  502  0.00000000000E+00 -0.00000000000E+00 -0.60902331937E+02  0.60902331937E+02  0.00000000000E+00 0. -1.
         24    2    1    2    0    0  0.47536089135E+02  0.12490610814E+03  0.19179240033E+03  0.24717966337E+03  0.80325870902E+02 0.  0.
         23    2    1    2    0    0  0.50264748087E+02  0.94864620898E+01  0.16695066837E+03  0.19452988011E+03  0.85748531895E+02 0.  0.
        -13    1    3    3    0    0 -0.71404552562E+00  0.24692328740E+02  0.99889388418E+02  0.10289854653E+03  0.00000000000E+00 0.  1.
         14    1    3    3    0    0  0.48250134661E+02  0.10021377940E+03  0.91903011914E+02  0.14428111684E+03  0.00000000000E+00 0. -1.
        -11    1    4    4    0    0  0.16847087544E+02  0.26966076425E+02  0.14973407849E+03  0.15307281894E+03  0.00000000000E+00 0. -1.
         11    1    4    4    0    0  0.33417660543E+02 -0.17479614335E+02  0.17216589875E+02  0.41457061165E+02  0.00000000000E+00 0.  1.
         21    1    1    2  503  502  0.19625738136E+02  0.10473792656E+02  0.20783693967E+02  0.30443913430E+02  0.00000000000E+00 0.  1.
          1    1    1    2  501    0 -0.11742657536E+03 -0.14486636289E+03  0.58132745710E+03  0.61050542674E+03  0.00000000000E+00 0. -1.
<scales pt_clust_5="13000.00000" pt_clust_6="13000.00000" pt_clust_7="13000.00000" pt_clust_8="13000.00000" pt_clust_9="22.24567" pt_clust_10="181.16298"></scales>
<clustering>
<clus scale="   22.246">  2  9  1 -1</clus>
<clus scale="   80.326">  5  6 -1 -1</clus>
<clus scale="   85.749">  7  8 -1 -1</clus>
<clus scale="  100.369">  5  7 -1 -1</clus>
<clus scale="  181.163">  2 10  1 -1</clus>
<clus scale="   22.246">  2  5  1 -1</clus>
</clustering>
</event>
<event>
10    4  0.3043429E-005  0.1049793E+03  0.7546771E-02  0.1275125E+00
         21   -1    0    0  501  502  0.00000000000E+00  0.00000000000E+00  0.13091801289E+03  0.13091801289E+03  0.00000000000E+00 0.  1.
         -3   -1    0    0    0  501 -0.00000000000E+00 -0.00000000000E+00 -0.20710049100E+03  0.20710049100E+03  0.00000000000E+00 0.  1.
         24    2    1    2    0    0  0.58966920240E+02 -0.21319611905E+02 -0.44915736120E+02  0.11126353175E+03  0.80190564361E+02 0.  0.
         23    2    1    2    0    0 -0.38775586258E+02 -0.56206015123E+02 -0.34127437212E+02  0.11906313168E+03  0.91371139479E+02 0.  0.
        -11    1    3    3    0    0  0.54029033443E+02 -0.38381246029E+02 -0.58894066508E+02  0.88660969832E+02  0.00000000000E+00 0.  1.
         12    1    3    3    0    0  0.49378867969E+01  0.17061634124E+02  0.13978330388E+02  0.22602561922E+02  0.00000000000E+00 0. -1.
        -13    1    4    4    0    0 -0.35392187413E+02  0.11935387909E+02  0.89088325249E+01  0.38398277453E+02  0.00000000000E+00 0.  1.
         13    1    4    4    0    0 -0.33833988457E+01 -0.68141403032E+02 -0.43036269737E+02  0.80664854229E+02  0.00000000000E+00 0. -1.
         21    1    1    2  503  502  0.44519410763E+00  0.33953580488E+02  0.35768484370E+02  0.49319654296E+02  0.00000000000E+00 0. -1.
         -4    1    1    2    0  503 -0.20636528089E+02  0.43572046541E+02 -0.32907789145E+02  0.58372186166E+02  0.00000000000E+00 0.  1.
<scales pt_clust_5="13000.00000" pt_clust_6="13000.00000" pt_clust_7="13000.00000" pt_clust_8="13000.00000" pt_clust_9="33.95650" pt_clust_10="52.64946"></scales>
<clustering>
<clus scale="   33.956">  1  9  2 -1</clus>
<clus scale="   52.649">  1 10  2 -1</clus>
<clus scale="   80.191">  5  6 -1 -1</clus>
<clus scale="   91.371">  7  8 -1 -1</clus>
<clus scale="   95.407">  2  5  1 -1</clus>
<clus scale="   33.956">  1  5  2 -1</clus>
</clustering>
</event>
<event>
10    4  0.3043429E-005  0.4126359E+03  0.7546771E-02  0.1061717E+00
          2   -1    0    0  503    0 -0.00000000000E+00  0.00000000000E+00  0.59812544280E+03  0.59812544280E+03  0.00000000000E+00 0. -1.
         21   -1    0    0  501  502  0.00000000000E+00 -0.00000000000E+00 -0.73708000668E+03  0.73708000668E+03  0.00000000000E+00 0. -1.
         23    2    1    2    0    0 -0.16335377946E+03  0.54538548529E+02  0.17249232915E+03  0.25947604046E+03  0.88967979720E+02 0.  0.
         24    2    1    2    0    0  0.65856469149E+02  0.38152708772E+03 -0.31153186904E+03  0.50343727168E+03  0.80603895024E+02 0.  0.
        -11    1    4    4    0    0 -0.15048750816E+02  0.38762155002E+02 -0.19498581313E+02  0.45925638098E+02  0.00000000000E+00 0.  1.
         12    1    4    4    0    0  0.80905219966E+02  0.34276493272E+03 -0.29203328773E+03  0.45751163358E+03  0.00000000000E+00 0. -1.
        -13    1    3    3    0    0 -0.24222828865E+02  0.44960082206E+02  0.68837865429E+02  0.85713512044E+02  0.00000000000E+00 0. -1.
         13    1    3    3    0    0 -0.13913095060E+03  0.95784663237E+01  0.10365446372E+03  0.17376252841E+03  0.00000000000E+00 0.  1.
         21    1    1    2  503  502 -0.65183010577E+02  0.21626989039E+02  0.48595976304E+02  0.84131566226E+02  0.00000000000E+00 0. -1.
          1    1    1    2  501    0  0.16268032089E+03 -0.45769262529E+03 -0.48511000286E+02  0.48816057112E+03  0.00000000000E+00 0. -1.
<scales pt_clust_5="13000.00000" pt_clust_6="13000.00000" pt_clust_7="13000.00000" pt_clust_8="13000.00000" pt_clust_9="68.67715" pt_clust_10="404.68698"></scales>
<clustering>
<clus scale="   68.677">  1  9  2 -1</clus>
<clus scale="   80.604">  5  6 -1 -1</clus>
<clus scale="   88.968">  7  8 -1 -1</clus>
<clus scale="  218.998">  1  7  2 -1</clus>
<clus scale="  404.687">  2 10  1 -1</clus>
<clus scale="  404.687">  2  5  1 -1</clus>
</clustering>
</event>
<event>
10    4  0.3043429E-005  0.9202792E+02  0.7546771E-02  0.1304780E+00
         21   -1    0    0  503  502  0.00000000000E+00  0.00000000000E+00  0.11577638810E+03  0.11577638810E+03  0.00000000000E+00 0. -1.
         -1   -1    0    0    0  501 -0.00000000000E+00 -0.00000000000E+00 -0.20873828472E+03  0.20873828472E+03  0.00000000000E+00 0.  1.
         24    2    1    2    0    0  0.17434697558E+02  0.15879196451E+02 -0.80993509991E+02  0.11709103617E+03  0.81204953856E+02 0.  0.
         23    2    1    2    0    0  0.21564911298E+02  0.20390980524E+02  0.50840585217E+02  0.10920697101E+03  0.91981302051E+02 0.  0.
        -13    1    3    3    0    0  0.25192672400E+02 -0.21055590571E+02 -0.70730763404E+02  0.77979802056E+02  0.00000000000E+00 0.  1.
         14    1    3    3    0    0 -0.77579748423E+01  0.36934787023E+02 -0.10262746587E+02  0.39111234110E+02  0.00000000000E+00 0. -1.
        -11    1    4    4    0    0 -0.27094140792E+02 -0.11449262558E+02 -0.34957441411E+01  0.29620909937E+02  0.00000000000E+00 0.  1.
         11    1    4    4    0    0  0.48659052090E+02  0.31840243082E+02  0.54336329358E+02  0.79586061078E+02  0.00000000000E+00 0. -1.
         21    1    1    2  503  501 -0.19471636126E+02 -0.27561823156E+02 -0.20534508772E+01  0.33808510314E+02  0.00000000000E+00 0. -1.
         -2    1    1    2    0  502 -0.19527972729E+02 -0.87083538189E+01 -0.60755520963E+02  0.64408155327E+02  0.00000000000E+00 0.  1.
<scales pt_clust_5="13000.00000" pt_clust_6="13000.00000" pt_clust_7="13000.00000" pt_clust_8="13000.00000" pt_clust_9="36.33904" pt_clust_10="21.38171"></scales>
<clustering>
<clus scale="   21.382">  1 10  2 -1</clus>
<clus scale="   36.339">  2  9  1 -1</clus>
<clus scale="   81.205">  5  6 -1 -1</clus>
<clus scale="   81.258">  2  5  1 -1</clus>
<clus scale="   91.981">  7  8 -1 -1</clus>
<clus scale="   21.382">  1  5  2 -1</clus>
</clustering>
</event>
<event>
10    4  0.3043429E-005  0.2507947E+03  0.7546771E-02  0.1141497E+00
          2   -1    0    0  503    0 -0.00000000000E+00  0.00000000000E+00  0.79228816427E+03  0.79228816427E+03  0.00000000000E+00 0. -1.
         21   -1    0    0  501  502  0.00000000000E+00 -0.00000000000E+00 -0.68549129474E+03  0.68549129474E+03  0.00000000000E+00 0. -1.
         23    2    1    2    0    0 -0.24457597698E+02 -0.80016223864E+02  0.78610378125E+02  0.14638923589E+03  0.90826464591E+02 0.  0.
         24    2    1    2    0    0 -0.11667106304E+01 -0.17304267041E+03  0.54203017178E+03  0.57423922465E+03  0.77516791748E+02 0.  0.
        -13    1    4    4    0    0 -0.33760385695E+02 -0.40522948830E+02  0.13481948379E+03  0.14476935530E+03  0.00000000000E+00 0.  1.
         14    1    4    4    0    0  0.32593675064E+02 -0.13251972158E+03  0.40721068799E+03  0.42946986935E+03  0.00000000000E+00 0. -1.
        -11    1    3    3    0    0 -0.59217049921E+02 -0.47901323646E+02  0.48087965817E+02  0.90075791781E+02  0.00000000000E+00 0. -1.
         11    1    3    3    0    0  0.34759452223E+02 -0.32114900217E+02  0.30522412308E+02  0.56313444113E+02  0.00000000000E+00 0.  1.
         21    1    1    2  503  502  0.23417268342E+03  0.94925654730E+01 -0.24042833656E+03  0.33575696491E+03  0.00000000000E+00 0. -1.
          1    1    1    2  501    0 -0.20854837510E+03  0.24356632880E+03 -0.27341534382E+03  0.42139403356E+03  0.00000000000E+00 0. -1.
<scales pt_clust_5="13000.00000" pt_clust_6="13000.00000" pt_clust_7="13000.00000" pt_clust_8="13000.00000" pt_clust_9="232.49022" pt_clust_10="238.51437"></scales>
<clustering>
<clus scale="   77.517">  5  6 -1 -1</clus>
<clus scale="   90.826">  7  8 -1 -1</clus>
<clus scale="  123.492">  1  7  2 -1</clus>
<clus scale="  232.490">  2  9  1 -1</clus>
<clus scale="  238.514">  2 10  1 -1</clus>
<clus scale="  232.490">  2  5  1 -1</clus>
</clustering>
</event>
<event>
10    4  0.3043429E-005  0.1049562E+03  0.7546771E-02  0.1278143E+00
         21   -1    0    0  503  502  0.00000000000E+00  0.00000000000E+00  0.71790654214E+03  0.71790654214E+03  0.00000000000E+00 0.  1.
         -1   -1    0    0    0  501 -0.00000000000E+00 -0.00000000000E+00 -0.22724739171E+03  0.22724739171E+03  0.00000000000E+00 0.  1.
         24    2    1    2    0    0 -0.45938427126E+02 -0.86267618905E+01 -0.19308910524E+03  0.21327050380E+03  0.77563813223E+02 0.  0.
         23    2    1    2    0    0  0.33572130562E+02 -0.41657477885E+02  0.21366732974E+03  0.23964087579E+03  0.94401208330E+02 0.  0.
        -13    1    3    3    0    0 -0.48278279990E+02 -0.37781174904E+02 -0.13190776601E+03  0.14545744474E+03  0.00000000000E+00 0.  1.
         14    1    3    3    0    0  0.23398528632E+01  0.29154413014E+02 -0.61181339228E+02  0.67813059061E+02  0.00000000000E+00 0. -1.
        -13    1    4    4    0    0 -0.15298704990E+01  0.22683829037E+02  0.13417511428E+02  0.26399360152E+02  0.00000000000E+00 0. -1.
         13    1    4    4    0    0  0.35102001061E+02 -0.64341306922E+02  0.20024981832E+03  0.21324151564E+03  0.00000000000E+00 0.  1.
         21    1    1    2  503  501  0.43737157011E+02 -0.11328647354E+02  0.35592784278E+03  0.35878392720E+03  0.00000000000E+00 0.  1.
         -2    1    1    2    0  502 -0.31370860446E+02  0.61612887129E+02  0.11415308315E+03  0.13345862706E+03  0.00000000000E+00 0.  1.
<scales pt_clust_5="13000.00000" pt_clust_6="13000.00000" pt_clust_7="13000.00000" pt_clust_8="13000.00000" pt_clust_9="45.18050" pt_clust_10="59.99441"></scales>
<clustering>
<clus scale="   45.180">  1  9  2 -1</clus>
<clus scale="   59.994">  1 10  2 -1</clus>
<clus scale="   77.564">  5  6 -1 -1</clus>
<clus scale="   90.113">  2  5  1 -1</clus>
<clus scale="   94.401">  7  8 -1 -1</clus>
<clus scale="   45.180">  1  5  2 -1</clus>
</clustering>
</event>
<event>
10    4  0.3043429E-005  0.1029795E+03  0.7546771E-02  0.1279244E+00
         21   -1    0    0  501  502  0.00000000000E+00  0.00000000000E+00  0.77997171323E+02  0.77997171323E+02  0.00000000000E+00 0.  1.
          4   -1    0    0  503    0 -0.00000000000E+00 -0.00000000000E+00 -0.45743068745E+03  0.45743068745E+03  0.00000000000E+00 0. -1.
         24    2    1    2    0    0  0.41108065068E+02  0.23864629909E+02 -0.25612444959E+03  0.27232387147E+03  0.79379869758E+02 0.  0.
         23    2    1    2    0    0 -0.57862479131E+02 -0.10683936200E+02 -0.56739795984E+02  0.12190155654E+03  0.90434352177E+02 0.  0.
        -13    1    3    3    0    0 -0.63454303676E+01 -0.20282162914E+02 -0.11606990260E+03  0.11799937673E+03  0.00000000000E+00 0.  1.
         14    1    3    3    0    0  0.47453495436E+02  0.44146792823E+02 -0.14005454699E+03  0.15432449474E+03  0.00000000000E+00 0. -1.
        -13    1    4    4    0    0 -0.58324306868E+02  0.30434542295E+02 -0.26805113337E+02  0.71038723506E+02  0.00000000000E+00 0.  1.
         13    1    4    4    0    0  0.46182773764E+00 -0.41118478496E+02 -0.29934682646E+02  0.50862833030E+02  0.00000000000E+00 0. -1.
         21    1    1    2  503  502 -0.21476498341E+02 -0.78755507446E+01  0.29697623922E+02  0.37486172746E+02  0.00000000000E+00 0.  1.
          3    1    1    2  501    0  0.38230912403E+02 -0.53051429639E+01 -0.96266894479E+02  0.10371625802E+03  0.00000000000E+00 0. -1.
<scales pt_clust_5="13000.00000" pt_clust_6="13000.00000" pt_clust_7="13000.00000" pt_clust_8="13000.00000" pt_clust_9="22.87497" pt_clust_10="36.91474"></scales>
<clustering>
<clus scale="   22.875">  1  9  2 -1</clus>
<clus scale="   36.915">  1 10  2 -1</clus>
<clus scale="   79.380">  5  6 -1 -1</clus>
<clus scale="   90.434">  7  8 -1 -1</clus>
<clus scale="   93.422">  2  5  1 -1</clus>
<clus scale="   22.875">  1  5  2 -1</clus>
</clustering>
</event>
<event>
10    4  0.3043429E-005  0.1018555E+03  0.7546771E-02  0.1281538E+00
          2   -1    0    0  502    0 -0.00000000000E+00  0.00000000000E+00  0.48028376162E+03  0.48028376162E+03  0.00000000000E+00 0. -1.
         21   -1    0    0  503  502  0.00000000000E+00 -0.00000000000E+00 -0.65936445827E+02  0.65936445827E+02  0.00000000000E+00 0.  1.
         24    2    1    2    0    0 -0.53352147945E+02  0.30800958781E+02  0.28511232405E+03  0.30249425444E+03  0.80116077585E+02 0.  0.
         23    2    1    2    0    0  0.89047310837E+01  0.41393917444E+02  0.50373872152E+02  0.11216443205E+03  0.90832715388E+02 0.  0.
        -13    1    3    3    0    0 -0.49376910474E+02 -0.13374487613E+02  0.10229177757E+03  0.11437029320E+03  0.00000000000E+00 0.  1.
         14    1    3    3    0    0 -0.39752374709E+01  0.44175446393E+02  0.18282054648E+03  0.18812396124E+03  0.00000000000E+00 0. -1.
        -13    1    4    4    0    0  0.12795935039E+02 -0.25438691580E+02  0.31807698756E+02  0.42691833915E+02  0.00000000000E+00 0. -1.
         13    1    4    4    0    0 -0.38912039556E+01  0.66832609024E+02  0.18566173397E+02  0.69472598136E+02  0.00000000000E+00 0.  1.
         21    1    1    2  503  501  0.12845960217E+02 -0.20318280586E+02 -0.82044675167E+01  0.25400088722E+02  0.00000000000E+00 0.  1.
          1    1    1    2  501    0  0.31601456644E+02 -0.51876595639E+02  0.87065587107E+02  0.10616143224E+03  0.00000000000E+00 0. -1.
<scales pt_clust_5="13000.00000" pt_clust_6="13000.00000" pt_clust_7="13000.00000" pt_clust_8="13000.00000" pt_clust_9="24.03854" pt_clust_10="65.41468"></scales>
<clustering>
<clus scale="   24.039">  2  9  1 -1</clus>
<clus scale="   65.415">  2 10  1 -1</clus>
<clus scale="   80.116">  5  6 -1 -1</clus>
<clus scale="   90.833">  7  8 -1 -1</clus>
<clus scale="   92.426">  1  5  2 -1</clus>
<clus scale="   24.039">  2  5  1 -1</clus>
</clustering>
</event>
<event>
10    4  0.3043429E-005  0.4502676E+03  0.7546771E-02  0.1084564E+00
         21   -1    0    0  503  502  0.00000000000E+00  0.00000000000E+00  0.31250831869E+03  0.31250831869E+03  0.00000000000E+00 0.  1.
          2   -1    0    0  502    0 -0.00000000000E+00 -0.00000000000E+00 -0.24732288422E+04  0.24732288422E+04  0.00000000000E+00 0. -1.
         24    2    1    2    0    0  0.47956746208E+02 -0.74215730860E+01  0.53242987352E+01  0.90691838017E+02  0.76431224457E+02 0.  0.
         23    2    1    2    0    0  0.25197633967E+03 -0.34576122398E+03 -0.86806771779E+01  0.43749465849E+03  0.91012758924E+02 0.  0.
        -13    1    3    3    0    0 -0.11465136024E+02 -0.16889168758E+02  0.20190193334E+02  0.28711274306E+02  0.00000000000E+00 0.  1.
         14    1    3    3    0    0  0.59421882232E+02  0.94675956715E+01 -0.14865894599E+02  0.61980563712E+02  0.00000000000E+00 0. -1.
        -13    1    4    4    0    0  0.24420857962E+03 -0.30139424714E+03  0.11625840871E+02  0.38808695255E+03  0.00000000000E+00 0.  1.
         13    1    4    4    0    0  0.77677600527E+01 -0.44366976843E+02 -0.20306518049E+02  0.49407705934E+02  0.00000000000E+00 0. -1.
         21    1    1    2  503  501 -0.60104953226E+01 -0.20168622561E+02  0.19945545672E+02  0.28995244131E+02  0.00000000000E+00 0. -1.
          1    1    1    2  501    0 -0.29392259055E+03  0.37335141963E+03 -0.21773096908E+04  0.22285554203E+04  0.00000000000E+00 0. -1.
<scales pt_clust_5="13000.00000" pt_clust_6="13000.00000" pt_clust_7="13000.00000" pt_clust_8="13000.00000" pt_clust_9="21.04517" pt_clust_10="440.97371"></scales>
<clustering>
<clus scale="   21.045">  1  9  2 -1</clus>
<clus scale="   76.431">  5  6 -1 -1</clus>
<clus scale="   90.348">  2  5  1 -1</clus>
<clus scale="   91.013">  7  8 -1 -1</clus>
<clus scale="  440.974">  1 10  2 -1</clus>
<clus scale="   21.045">  1  5  2 -1</clus>
</clustering>
</event>
<event>
10    4  0.3043429E-005  0.2010455E+03  0.7546771E-02  0.1176031E+00
         21   -1    0    0  501  502  0.00000000000E+00  0.00000000000E+00  0.46512312024E+03  0.46512312024E+03  0.00000000000E+00 0.  1.
         -1   -1    0    0    0  501 -0.00000000000E+00 -0.00000000000E+00 -0.51339348236E+03  0.51339348236E+03  0.00000000000E+00 0.  1.
         23    2    1    2    0    0  0.31751217351E+02 -0.47790487914E+02 -0.32637598514E+03  0.34349560742E+03  0.90420562380E+02 0.  0.
         24    2    1    2    0    0 -0.67921861003E+02 -0.11616728897E+03  0.62295046449E+02  0.16888415156E+03  0.80826762941E+02 0.  0.
        -11    1    4    4    0    0 -0.26559904458E+02 -0.11203880218E+03  0.41400462742E+02  0.12236061472E+03  0.00000000000E+00 0.  1.
         12    1    4    4    0    0 -0.41361956545E+02 -0.41284867948E+01  0.20894583707E+02  0.46523536847E+02  0.00000000000E+00 0. -1.
        -11    1    3    3    0    0  0.53118713849E+02 -0.59567608711E+02 -0.27920759288E+03  0.29039073279E+03  0.00000000000E+00 0.  1.
         11    1    3    3    0    0 -0.21367496499E+02  0.11777120797E+02 -0.47168392262E+02  0.53104874630E+02  0.00000000000E+00 0. -1.
         21    1    1    2  503  502 -0.13891990500E+03 -0.12281957761E+02  0.15861819572E+03  0.21120918187E+03  0.00000000000E+00 0.  1.
         -2    1    1    2    0  503  0.17509054865E+03  0.17623973465E+03  0.57192380853E+02  0.25492766175E+03  0.00000000000E+00 0.  1.
<scales pt_clust_5="13000.00000" pt_clust_6="13000.00000" pt_clust_7="13000.00000" pt_clust_8="13000.00000" pt_clust_9="135.62509" pt_clust_10="184.08235"></scales>
<clustering>
<clus scale="   80.827">  5  6 -1 -1</clus>
<clus scale="   90.421">  7  8 -1 -1</clus>
<clus scale="  107.089">  2  7  1 -1</clus>
<clus scale="  135.625">  1  9  2 -1</clus>
<clus scale="  184.082">  1 10  2 -1</clus>
<clus scale="  135.625">  1  5  2 -1</clus>
</clustering>
</event>
<event>
10    4  0.3043429E-005  0.1079165E+03  0.7546771E-02  0.1268154E+00
         -1   -1    0    0    0  501 -0.00000000000E+00  0.00000000000E+00  0.28716562273E+03  0.28716562273E+03  0.00000000000E+00 0.  1.
         21   -1    0    0  501  502  0.00000000000E+00 -0.00000000000E+00 -0.11542256429E+03  0.11542256429E+03  0.00000000000E+00 0.  1.
         23    2    1    2    0    0  0.12479106710E+02 -0.32909360043E+02  0.85398094016E+02  0.12820946470E+03  0.88916130677E+02 0.  0.
         24    2    1    2    0    0 -0.88548588522E+00  0.10376792537E+03  0.95258262112E+02  0.16185330928E+03  0.79710669311E+02 0.  0.
        -11    1    4    4    0    0 -0.30570235825E+02  0.88943675384E+02  0.85909040759E+02  0.12738084626E+03  0.00000000000E+00 0.  1.
         12    1    4    4    0    0  0.29684749939E+02  0.14824249986E+02  0.93492213527E+01  0.34472463018E+02  0.00000000000E+00 0. -1.
        -13    1    3    3    0    0  0.96206314432E+01 -0.58612875033E+02  0.28860337736E+02  0.66037449703E+02  0.00000000000E+00 0.  1.
         13    1    3    3    0    0  0.28584752671E+01  0.25703514990E+02  0.56537756281E+02  0.62172014999E+02  0.00000000000E+00 0. -1.
         21    1    1    2  503  502 -0.21994065692E+02 -0.32777862290E+02 -0.44424512310E+02  0.59427808945E+02  0.00000000000E+00 0.  1.
         -2    1    1    2    0  503  0.10400444867E+02 -0.38080703037E+02  0.35511214619E+02  0.53097604098E+02  0.00000000000E+00 0.  1.
<scales pt_clust_5="13000.00000" pt_clust_6="13000.00000" pt_clust_7="13000.00000" pt_clust_8="13000.00000" pt_clust_9="39.47312" pt_clust_10="43.24983"></scales>
<clustering>
<clus scale="   39.473">  2  9  1 -1</clus>
<clus scale="   43.250">  2 10  1 -1</clus>
<clus scale="   79.711">  5  6 -1 -1</clus>
<clus scale="   88.916">  7  8 -1 -1</clus>
<clus scale="  100.467">  2  5  1 -1</clus>
<clus scale="   39.473">  2  5  1 -1</clus>
</clustering>
</event>
<event>
10    4  0.3043429E-005  0.1496105E+03  0.7546771E-02  0.1227856E+00
         21   -1    0    0  503  502  0.00000000000E+00  0.00000000000E+00  0.37871867901E+03  0.37871867901E+03  0.00000000000E+00 0. -1.
          2   -1    0    0  502    0 -0.00000000000E+00 -0.00000000000E+00 -0.34963844197E+03  0.34963844197E+03  0.00000000000E+00 0. -1.
         24    2    1    2    0    0 -0.15585811005E+02 -0.18885381976E+02 -0.26249263591E+03  0.27568841355E+03  0.80635862373E+02 0.  0.
         23    2    1    2    0    0  0.67293743416E+02 -0.85706053717E+02  0.64872378328E+02  0.15954353552E+03  0.96807740953E+02 0.  0.
        -13    1    3    3    0    0 -0.11698082409E+02  0.27030426816E+02 -0.48112984051E+02  0.56412306637E+02  0.00000000000E+00 0.  1.
         14    1    3    3    0    0 -0.38877285963E+01 -0.45915808792E+02 -0.21437965186E+03  0.21927610692E+03  0.00000000000E+00 0. -1.
        -13    1    4    4    0    0  0.76436932150E+02 -0.20584728820E+02  0.43910813345E+02  0.90523451026E+02  0.00000000000E+00 0.  1.
         13    1    4    4    0    0 -0.91431887333E+01 -0.65121324897E+02  0.20961564983E+02  0.69020084491E+02  0.00000000000E+00 0. -1.
         21    1    1    2  503  501 -0.38405952654E+02 -0.20272464002E+02  0.12243828685E+03  0.12991198591E+03  0.00000000000E+00 0. -1.
          1    1    1    2  501    0 -0.13301979758E+02  0.12486389970E+03  0.10426220778E+03  0.16321318600E+03  0.00000000000E+00 0. -1.
<scales pt_clust_5="13000.00000" pt_clust_6="13000.00000" pt_clust_7="13000.00000" pt_clust_8="13000.00000" pt_clust_9="43.42799" pt_clust_10="114.06828"></scales>
<clustering>
<clus scale="   43.428">  1  9  2 -1</clus>
<clus scale="   80.636">  5  6 -1 -1</clus>
<clus scale="   84.583">  2  5  1 -1</clus>
<clus scale="   96.808">  7  8 -1 -1</clus>
<clus scale="  114.068">  1 10  2 -1</clus>
<clus scale="   43.428">  1  5  2 -1</clus>
</clustering>
</event>
<event>
10    4  0.9196027E-005  0.9870642E+03  0.7546771E-02  0.9974668E-01
         21   -1    0    0  503  502  0.00000000000E+00  0.00000000000E+00  0.54667093891E+03  0.54667093891E+03  0.00000000000E+00 0. -1.
          2   -1    0    0  502    0 -0.00000000000E+00 -0.00000000000E+00 -0.35890654344E+04  0.35890654344E+04  0.00000000000E+00 0. -1.
         23    2    1    2    0    0  0.25892792675E+02 -0.53972526583E+02 -0.25784590026E+03  0.27947825997E+03  0.89666711638E+02 0.  0.
         24    2    1    2    0    0  0.64864573474E+03 -0.70950439871E+03 -0.68957010696E+03  0.11881742567E+04  0.11006066863E+03 0.  0.
        -11    1    4    4    0    0  0.96688647431E+02 -0.10622404270E+03 -0.57682215051E+02  0.15478849997E+03  0.00000000000E+00 0.  1.
         12    1    4    4    0    0  0.55195708731E+03 -0.60328035601E+03 -0.63188789191E+03  0.10333857567E+04  0.00000000000E+00 0. -1.
        -13    1    3    3    0    0 -0.18710285777E+02 -0.51917598821E+02 -0.19308575860E+03  0.20081738479E+03  0.00000000000E+00 0. -1.
         13    1    3    3    0    0  0.44603078452E+02 -0.20549277616E+01 -0.64760141658E+02  0.78660875173E+02  0.00000000000E+00 0.  1.
         21    1    1    2  503  501 -0.22512182291E+02 -0.26220624913E+02  0.17468846656E+03  0.17807408535E+03  0.00000000000E+00 0. -1.
          1    1    1    2  501    0 -0.65202634512E+03  0.78969755021E+03 -0.22696669548E+04  0.24900097713E+04  0.00000000000E+00 0. -1.
<scales pt_clust_5="13000.00000" pt_clust_6="13000.00000" pt_clust_7="13000.00000" pt_clust_8="13000.00000" pt_clust_9="34.55893" pt_clust_10="980.90943"></scales>
<clustering>
<clus scale="   34.559">  1  9  2 -1</clus>
<clus scale="   89.667">  7  8 -1 -1</clus>
<clus scale="  108.043">  2  7  1 -1</clus>
<clus scale="  110.061">  5  6 -1 -1</clus>
<clus scale="  980.909">  1 10  2 -1</clus>
<clus scale="   34.559">  1  5  2 -1</clus>
</clustering>
</event>
<event>
10    4  0.3043429E-005  0.1485808E+03  0.7546771E-02  0.1229100E+00
         21   -1    0    0  501  502  0.00000000000E+00  0.00000000000E+00  0.25859788691E+03  0.25859788691E+03  0.00000000000E+00 0.  1.
         -3   -1    0    0    0  501 -0.00000000000E+00 -0.00000000000E+00 -0.16920774741E+03  0.16920774741E+03  0.00000000000E+00 0.  1.
         24    2    1    2    0    0 -0.73413123771E+01  0.19714665723E+02  0.32353465760E+02  0.88761027077E+02  0.79932535736E+02 0.  0.
         23    2    1    2    0    0  0.11241414874E+03 -0.59646492657E+02 -0.16879953102E+02  0.15353947472E+03  0.84230591577E+02 0.  0.
        -11    1    3    3    0    0  0.30450440670E+01 -0.29519252128E+02  0.14501495781E+01  0.29711302115E+02  0.00000000000E+00 0.  1.
         12    1    3    3    0    0 -0.10386356444E+02  0.49233917850E+02  0.30903316182E+02  0.59049724962E+02  0.00000000000E+00 0. -1.
        -13    1    4    4    0    0  0.43803894693E+01 -0.30444519825E+02 -0.27324492690E+02  0.41142247144E+02  0.00000000000E+00 0. -1.
         13    1    4    4    0    0  0.10803375928E+03 -0.29201972832E+02  0.10444539589E+02  0.11239722758E+03  0.00000000000E+00 0.  1.
         21    1    1    2  503  502  0.17866937399E+02  0.21906805228E+02  0.52206252404E+02  0.59368580558E+02  0.00000000000E+00 0.  1.
         -4    1    1    2    0  503 -0.12293977377E+03  0.18025021706E+02  0.21710374442E+02  0.12613655196E+03  0.00000000000E+00 0.  1.
<scales pt_clust_5="13000.00000" pt_clust_6="13000.00000" pt_clust_7="13000.00000" pt_clust_8="13000.00000" pt_clust_9="28.26899" pt_clust_10="122.39878"></scales>
<clustering>
<clus scale="   28.269">  1  9  2 -1</clus>
<clus scale="   79.933">  5  6 -1 -1</clus>
<clus scale="   84.158">  2  5  1 -1</clus>
<clus scale="   84.231">  7  8 -1 -1</clus>
<clus scale="  122.399">  1 10  2 -1</clus>
<clus scale="   28.269">  1  5  2 -1</clus>
</clustering>
</event>
<event>
10    4  0.3043429E-005  0.1815657E+03  0.7546771E-02  0.1167878E+00
          2   -1    0    0  503    0 -0.00000000000E+00  0.00000000000E+00  0.13903042843E+03  0.13903042843E+03  0.00000000000E+00 0. -1.
         21   -1    0    0  501  502  0.00000000000E+00 -0.00000000000E+00 -0.76125303680E+03  0.76125303680E+03  0.00000000000E+00 0. -1.
         24    2    1    2    0    0  0.72869882292E+02 -0.15142582819E+03  0.41351247369E+02  0.18991997482E+03  0.78229597917E+02 0.  0.
         23    2    1    2    0    0 -0.64157667912E+02  0.85224489775E+02 -0.32211913898E+03  0.35152962131E+03  0.91830904121E+02 0.  0.
        -11    1    3    3    0    0 -0.12937483168E+02 -0.52520998085E+02  0.17300373817E+02  0.56790286535E+02  0.00000000000E+00 0.  1.
         12    1    3    3    0    0  0.85807365460E+02 -0.98904830103E+02  0.24050873552E+02  0.13312968829E+03  0.00000000000E+00 0. -1.
        -13    1    4    4    0    0 -0.79677791240E+00  0.70868301842E+02 -0.21358954104E+03  0.22504098094E+03  0.00000000000E+00 0. -1.
         13    1    4    4    0    0 -0.63360890000E+02  0.14356187934E+02 -0.10852959794E+03  0.12648864037E+03  0.00000000000E+00 0.  1.
         21    1    1    2  503  502  0.20253521327E+02 -0.14279406811E+02 -0.75454067894E+02  0.79419285736E+02  0.00000000000E+00 0.  1.
          1    1    1    2  501    0 -0.28965735707E+02  0.80480745223E+02 -0.26600064887E+03  0.27941458336E+03  0.00000000000E+00 0. -1.
<scales pt_clust_5="13000.00000" pt_clust_6="13000.00000" pt_clust_7="13000.00000" pt_clust_8="13000.00000" pt_clust_9="24.78117" pt_clust_10="77.64851"></scales>
<clustering>
<clus scale="   24.781">  2  9  1 -1</clus>
<clus scale="   77.649">  2 10  1 -1</clus>
<clus scale="   78.230">  5  6 -1 -1</clus>
<clus scale="   91.831">  7  8 -1 -1</clus>
<clus scale="  175.080">  1  5  2 -1</clus>
<clus scale="   24.781">  2  5  1 -1</clus>
</clustering>
</event>
<event>
10    4  0.3043429E-005  0.1077094E+03  0.7546771E-02  0.1274900E+00
         -1   -1    0    0    0  501 -0.00000000000E+00  0.00000000000E+00  0.40684114737E+03  0.40684114737E+03  0.00000000000E+00 0.  1.
         21   -1    0    0  503  502  0.00000000000E+00 -0.00000000000E+00 -0.72678180184E+02  0.72678180184E+02  0.00000000000E+00 0. -1.
         24    2    1    2    0    0  0.96278260349E+01  0.49294963051E+02  0.26295870648E+03  0.27856430119E+03  0.76994156718E+02 0.  0.
         23    2    1    2    0    0  0.20034551913E+02 -0.23971596327E+02  0.62052367762E+02  0.12035399170E+03  0.98278005030E+02 0.  0.
        -13    1    3    3    0    0  0.26745600461E+02  0.52179566842E+02  0.25030971379E+03  0.25708556388E+03  0.00000000000E+00 0.  1.
         14    1    3    3    0    0 -0.17117774426E+02 -0.28846037913E+01  0.12648992692E+02  0.21478737311E+02  0.00000000000E+00 0. -1.
        -13    1    4    4    0    0 -0.20665182594E+02 -0.26113598846E+02  0.71183190897E+02  0.78587635685E+02  0.00000000000E+00 0.  1.
         13    1    4    4    0    0  0.40699734507E+02  0.21420025193E+01 -0.91308231341E+01  0.41766356016E+02  0.00000000000E+00 0. -1.
         21    1    1    2  503  501 -0.51274971752E+01  0.23751931323E+02  0.84611594620E+01  0.25730073616E+02  0.00000000000E+00 0. -1.
         -2    1    1    2    0  502 -0.24534880772E+02 -0.49075298047E+02  0.69073347771E+00  0.54870961042E+02  0.00000000000E+00 0.  1.
<scales pt_clust_5="13000.00000" pt_clust_6="13000.00000" pt_clust_7="13000.00000" pt_clust_8="13000.00000" pt_clust_9="24.29908" pt_clust_10="47.28960"></scales>
<clustering>
<clus scale="   24.299">  2  9  1 -1</clus>
<clus scale="   47.290">  2 10  1 -1</clus>
<clus scale="   76.994">  5  6 -1 -1</clus>
<clus scale="   88.718">  1  5  2 -1</clus>
<clus scale="   98.278">  7  8 -1 -1</clus>
<clus scale="   24.299">  2  5  1 -1</clus>
</clustering>
</event>
<event>
10    4  0.3043429E-005  0.1496431E+03  0.7546771E-02  0.1202572E+00
         21   -1    0    0  503  502  0.00000000000E+00  0.00000000000E+00  0.14029649061E+03  0.14029649061E+03  0.00000000000E+00 0.  1.
         -3   -1    0    0    0  501 -0.00000000000E+00 -0.00000000000E+00 -0.36564352806E+03  0.36564352806E+03  0.00000000000E+00 0.  1.
         23    2    1    2    0    0 -0.86795197006E+02 -0.75420760426E+02 -0.20166150345E+03  0.24924889681E+03  0.90752152925E+02 0.  0.
         24    2    1    2    0    0  0.98975070214E+02  0.87249172737E+02 -0.10123117691E+01  0.15521676350E+03  0.81748004441E+02 0.  0.
        -13    1    4    4    0    0  0.10037303814E+03  0.46321307043E+02 -0.15815611883E+02  0.11167158927E+03  0.00000000000E+00 0.  1.
         14    1    4    4    0    0 -0.13979679233E+01  0.40927865695E+02  0.14803300114E+02  0.43545174232E+02  0.00000000000E+00 0. -1.
        -13    1    3    3    0    0 -0.28436226744E+02 -0.41790056413E+02 -0.16498583084E+03  0.17255535977E+03  0.00000000000E+00 0.  1.
         13    1    3    3    0    0 -0.58358970262E+02 -0.33630704013E+02 -0.36675672608E+02  0.76693537040E+02  0.00000000000E+00 0. -1.
         21    1    1    2  503  501  0.42115067129E+02 -0.69408301797E+01 -0.19333588807E+02  0.46857674495E+02  0.00000000000E+00 0. -1.
         -4    1    1    2    0  502 -0.54294940337E+02 -0.48875821317E+01 -0.33396334238E+01  0.54616683867E+02  0.00000000000E+00 0.  1.
<scales pt_clust_5="13000.00000" pt_clust_6="13000.00000" pt_clust_7="13000.00000" pt_clust_8="13000.00000" pt_clust_9="42.68318" pt_clust_10="46.19235"></scales>
<clustering>
<clus scale="   42.683">  1  9  2 -1</clus>
<clus scale="   46.192">  1 10  2 -1</clus>
<clus scale="   81.748">  5  6 -1 -1</clus>
<clus scale="   90.752">  7  8 -1 -1</clus>
<clus scale="  144.360">  1  5  2 -1</clus>
<clus scale="   42.683">  1  5  2 -1</clus>
</clustering>
</event>
<event>
10    4  0.3043429E-005  0.1020625E+03  0.7546771E-02  0.1285484E+00
          2   -1    0    0  502    0 -0.00000000000E+00  0.00000000000E+00  0.26284538352E+03  0.26284538352E+03  0.00000000000E+00 0. -1.
         21   -1    0    0  503  502  0.00000000000E+00 -0.00000000000E+00 -0.20678157421E+03  0.20678157421E+03  0.00000000000E+00 0. -1.
         24    2    1    2    0    0 -0.81217396406E+00 -0.25387642613E+02 -0.11381520098E+02  0.85970617722E+02  0.81340125939E+02 0.  0.
         23    2    1    2    0    0  0.56669837025E+02 -0.35373713679E+02 -0.36190591398E+01  0.11933339525E+03  0.98815948035E+02 0.  0.
        -13    1    3    3    0    0  0.21170476489E+02  0.92043345718E+01  0.22915879874E+02  0.32527625184E+02  0.00000000000E+00 0.  1.
         14    1    3    3    0    0 -0.21982650454E+02 -0.34591977185E+02 -0.34297399973E+02  0.53442992538E+02  0.00000000000E+00 0. -1.
        -11    1    4    4    0    0  0.66054014149E+02  0.13161484853E+02 -0.14070615112E+02  0.68806538050E+02  0.00000000000E+00 0.  1.
         11    1    4    4    0    0 -0.93841771237E+01 -0.48535198532E+02  0.10451555972E+02  0.50526857205E+02  0.00000000000E+00 0. -1.
         21    1    1    2  503  501 -0.33589249376E+02  0.24790720913E+02 -0.89244298981E+02  0.98525947941E+02  0.00000000000E+00 0. -1.
          1    1    1    2  501    0 -0.22268413686E+02  0.35970635379E+02  0.16030868752E+03  0.16579699682E+03  0.00000000000E+00 0. -1.
<scales pt_clust_5="13000.00000" pt_clust_6="13000.00000" pt_clust_7="13000.00000" pt_clust_8="13000.00000" pt_clust_9="41.74707" pt_clust_10="43.24943"></scales>
<clustering>
<clus scale="   41.747">  2  9  1 -1</clus>
<clus scale="   43.249">  2 10  1 -1</clus>
<clus scale="   81.340">  5  6 -1 -1</clus>
<clus scale="   85.255">  1  5  2 -1</clus>
<clus scale="   98.816">  7  8 -1 -1</clus>
<clus scale="   41.747">  2  5  1 -1</clus>
</clustering>
</event>
<event>
10    4  0.3043429E-005  0.1356537E+03  0.7546771E-02  0.1238330E+00
         21   -1    0    0  501  502  0.00000000000E+00  0.00000000000E+00  0.74135191334E+02  0.74135191334E+02  0.00000000000E+00 0.  1.
          2   -1    0    0  503    0 -0.00000000000E+00 -0.00000000000E+00 -0.90864326838E+03  0.90864326838E+03  0.00000000000E+00 0. -1.
         24    2    1    2    0    0 -0.21711824042E+01  0.83219207381E+02 -0.88219954126E+02  0.14705585924E+03  0.83141535465E+02 0.  0.
         23    2    1    2    0    0 -0.82213200250E+02  0.75457875299E+02 -0.32020202591E+03  0.35061289935E+03  0.89146881894E+02 0.  0.
        -13    1    3    3    0    0 -0.87947610044E+00  0.10005569800E+03 -0.80806548683E+02  0.12861420796E+03  0.00000000000E+00 0.  1.
         14    1    3    3    0    0 -0.12917063037E+01 -0.16836490616E+02 -0.74134054435E+01  0.18441651274E+02  0.00000000000E+00 0. -1.
        -13    1    4    4    0    0 -0.51418417164E+02  0.93350749712E+02 -0.25365269403E+03  0.27513252313E+03  0.00000000000E+00 0.  1.
         13    1    4    4    0    0 -0.30794783086E+02 -0.17892874413E+02 -0.66549331887E+02  0.75480376223E+02  0.00000000000E+00 0. -1.
         21    1    1    2  503  502  0.11709312985E+02 -0.80215653482E+02 -0.52654088868E+02  0.96664947880E+02  0.00000000000E+00 0. -1.
          1    1    1    2  501    0  0.72675069670E+02 -0.78461429198E+02 -0.37343200814E+03  0.38844475325E+03  0.00000000000E+00 0. -1.
<scales pt_clust_5="13000.00000" pt_clust_6="13000.00000" pt_clust_7="13000.00000" pt_clust_8="13000.00000" pt_clust_9="81.06577" pt_clust_10="102.24854"></scales>
<clustering>
<clus scale="   81.066">  1  9  2 -1</clus>
<clus scale="   83.142">  5  6 -1 -1</clus>
<clus scale="   89.147">  7  8 -1 -1</clus>
<clus scale="   91.502">  2  5  1 -1</clus>
<clus scale="  102.249">  1 10  2 -1</clus>
<clus scale="   81.066">  1  5  2 -1</clus>
</clustering>
</event>
<event>
10    4  0.3043429E-005  0.1764104E+03  0.7546771E-02  0.1204745E+00
          2   -1    0    0  503    0 -0.00000000000E+00  0.00000000000E+00  0.14647049520E+04  0.14647049520E+04  0.00000000000E+00 0. -1.
         21   -1    0    0  501  502  0.00000000000E+00 -0.00000000000E+00 -0.50739672152E+02  0.50739672152E+02  0.00000000000E+00 0. -1.
         24    2    1    2    0    0 -0.18281727862E+02  0.19441893292E+02  0.15154760477E+03  0.17334531074E+03  0.79810472094E+02 0.  0.
         23    2    1    2    0    0 -0.82079132476E+02 -0.81311931322E+02  0.72880550824E+03  0.74489017759E+03  0.10176096336E+03 0.  0.
        -11    1    3    3    0    0  0.30516143206E+02  0.64156152729E+01  0.38619482957E+02  0.49637280136E+02  0.00000000000E+00 0.  1.
         12    1    3    3    0    0 -0.48797871068E+02  0.13026278019E+02  0.11292812181E+03  0.12370803060E+03  0.00000000000E+00 0. -1.
        -11    1    4    4    0    0 -0.25516547708E+02  0.21030585564E+02  0.10061352390E+03  0.10590779446E+03  0.00000000000E+00 0.  1.
         11    1    4    4    0    0 -0.56562584768E+02 -0.10234251689E+03  0.62819198434E+03  0.63898238313E+03  0.00000000000E+00 0. -1.
         21    1    1    2  503  502 -0.29783925810E+02 -0.73367465144E+02  0.13249762953E+03  0.15435507445E+03  0.00000000000E+00 0.  1.
          1    1    1    2  501    0  0.13014478615E+03  0.13523750317E+03  0.40111453726E+03  0.44285406132E+03  0.00000000000E+00 0. -1.
<scales pt_clust_5="13000.00000" pt_clust_6="13000.00000" pt_clust_7="13000.00000" pt_clust_8="13000.00000" pt_clust_9="79.18249" pt_clust_10="144.10184"></scales>
<clustering>
<clus scale="   79.182">  2  9  1 -1</clus>
<clus scale="   79.810">  5  6 -1 -1</clus>
<clus scale="   84.077">  1  5  2 -1</clus>
<clus scale="  101.761">  7  8 -1 -1</clus>
<clus scale="  144.102">  2 10  1 -1</clus>
<clus scale="   79.182">  2  5  1 -1</clus>
</clustering>
</event>
<event>
10    4  0.3043429E-005  0.1960370E+03  0.7546771E-02  0.1177458E+00
          4   -1    0    0  503    0 -0.00000000000E+00  0.00000000000E+00  0.45108664118E+03  0.45108664118E+03  0.00000000000E+00 0. -1.
         21   -1    0    0  501  502  0.00000000000E+00 -0.00000000000E+00 -0.40396944295E+03  0.40396944295E+03  0.00000000000E+00 0.  1.
         24    2    1    2    0    0  0.29604893780E+02  0.91775784973E+02  0.14048355941E+02  0.12603495605E+03  0.79926274770E+02 0.  0.
         23    2    1    2    0    0 -0.13106219935E+03 -0.15981564033E+03  0.18620514137E+03  0.29341625360E+03  0.93286677550E+02 0.  0.
        -13    1    3    3    0    0  0.37415755411E+02  0.86989096201E+02 -0.14730396105E+02  0.95833324999E+02  0.00000000000E+00 0.  1.
         14    1    3    3    0    0 -0.78108616310E+01  0.47866887721E+01  0.28778752046E+02  0.30201631051E+02  0.00000000000E+00 0. -1.
        -13    1    4    4    0    0 -0.61919733909E+01 -0.71978412024E+02  0.42875663379E+02  0.84009254503E+02  0.00000000000E+00 0.  1.
         13    1    4    4    0    0 -0.12487022596E+03 -0.87837228310E+02  0.14332947799E+03  0.20940699909E+03  0.00000000000E+00 0. -1.
         21    1    1    2  503  502 -0.14927607211E+02 -0.49484182948E+02 -0.24226587480E+03  0.24771812996E+03  0.00000000000E+00 0.  1.
          3    1    1    2  501    0  0.11638491278E+03  0.11752403831E+03  0.89129575717E+02  0.18788674453E+03  0.00000000000E+00 0. -1.
<scales pt_clust_5="13000.00000" pt_clust_6="13000.00000" pt_clust_7="13000.00000" pt_clust_8="13000.00000" pt_clust_9="51.68673" pt_clust_10="172.41841"></scales>
<clustering>
<clus scale="   51.687">  2  9  1 -1</clus>
<clus scale="   79.926">  5  6 -1 -1</clus>
<clus scale="   93.287">  7  8 -1 -1</clus>
<clus scale="  111.841">  1  5  2 -1</clus>
<clus scale="  172.418">  2 10  1 -1</clus>
<clus scale="   51.687">  2  5  1 -1</clus>
</clustering>
</event>
<event>
10    4  0.3043429E-005  0.1093943E+03  0.7546771E-02  0.1266843E+00
         21   -1    0    0  501  502  0.00000000000E+00  0.00000000000E+00  0.18250053881E+03  0.18250053881E+03  0.00000000000E+00 0. -1.
          4   -1    0    0  503    0 -0.00000000000E+00 -0.00000000000E+00 -0.27158664457E+03  0.27158664457E+03  0.00000000000E+00 0. -1.
         23    2    1    2    0    0 -0.53974027451E+02  0.22014012235E+02 -0.18773617254E+03  0.21688948986E+03  0.91642609949E+02 0.  0.
         24    2    1    2    0    0  0.45524427364E+02 -0.53405067955E+02 -0.12560153571E+02  0.10631184638E+03  0.78866193350E+02 0.  0.
        -11    1    4    4    0    0  0.25111524514E+02  0.15706255225E+02 -0.16931071303E+02  0.34116510549E+02  0.00000000000E+00 0.  1.
         12    1    4    4    0    0  0.20412902850E+02 -0.69111323180E+02  0.43709177319E+01  0.72195335834E+02  0.00000000000E+00 0. -1.
        -13    1    3    3    0    0 -0.12318100705E+02  0.46929967425E+02 -0.45185098773E+02  0.66301211140E+02  0.00000000000E+00 0.  1.
         13    1    3    3    0    0 -0.41655926746E+02 -0.24915955190E+02 -0.14255107377E+03  0.15058827872E+03  0.00000000000E+00 0. -1.
         21    1    1    2  503  502 -0.15772034677E+02  0.35229333764E+02  0.91884007965E+02  0.99662098889E+02  0.00000000000E+00 0. -1.
          3    1    1    2  501    0  0.24221634764E+02 -0.38382780438E+01  0.19326212385E+02  0.31223748240E+02  0.00000000000E+00 0. -1.
<scales pt_clust_5="13000.00000" pt_clust_6="13000.00000" pt_clust_7="13000.00000" pt_clust_8="13000.00000" pt_clust_9="32.90701" pt_clust_10="24.52387"></scales>
<clustering>
<clus scale="   24.524">  1 10  2 -1</clus>
<clus scale="   32.907">  1  9  2 -1</clus>
<clus scale="   78.866">  5  6 -1 -1</clus>
<clus scale="   91.643">  7  8 -1 -1</clus>
<clus scale="   98.937">  1  5  2 -1</clus>
<clus scale="   24.524">  1  5  2 -1</clus>
</clustering>
</event>
<event>
10    4  0.3043429E-005  0.1438755E+03  0.7546771E-02  0.1225784E+00
          2   -1    0    0  503    0 -0.00000000000E+00  0.00000000000E+00  0.19599674961E+03  0.19599674961E+03  0.00000000000E+00 0. -1.
         21   -1    0    0  501  502  0.00000000000E+00 -0.00000000000E+00 -0.14086740321E+04  0.14086740321E+04  0.00000000000E+00 0. -1.
         23    2    1    2    0    0  0.81594502688E+01  0.44157058985E+02  0.12185117176E+03  0.15708831842E+03  0.88388965597E+02 0.  0.
         24    2    1    2    0    0  0.61373875341E+02  0.56879922965E+02 -0.30483244118E+02  0.11955428615E+03  0.79761650900E+02 0.  0.
        -11    1    4    4    0    0  0.25070140002E+02  0.39925419388E+00 -0.44395172461E+02  0.50986298762E+02  0.00000000000E+00 0.  1.
         12    1    4    4    0    0  0.36303735339E+02  0.56480668771E+02  0.13911928343E+02  0.68567987389E+02  0.00000000000E+00 0. -1.
        -13    1    3    3    0    0 -0.13137635782E+02 -0.21815591289E+02  0.14517991095E+02  0.29313641239E+02  0.00000000000E+00 0.  1.
         13    1    3    3    0    0  0.21297086051E+02  0.65972650274E+02  0.10733318066E+03  0.12777467718E+03  0.00000000000E+00 0. -1.
         21    1    1    2  503  502  0.66517170834E+02  0.88336566210E+01 -0.22121964321E+03  0.23117244223E+03  0.00000000000E+00 0. -1.
          1    1    1    2  501    0 -0.13605049644E+03 -0.10987063857E+03 -0.10828255669E+04  0.10968557349E+04  0.00000000000E+00 0. -1.
<scales pt_clust_5="13000.00000" pt_clust_6="13000.00000" pt_clust_7="13000.00000" pt_clust_8="13000.00000" pt_clust_9="67.10117" pt_clust_10="119.74243"></scales>
<clustering>
<clus scale="   67.101">  2  9  1 -1</clus>
<clus scale="   79.762">  5  6 -1 -1</clus>
<clus scale="   88.389">  7  8 -1 -1</clus>
<clus scale="   99.287">  1  7  2 -1</clus>
<clus scale="  119.742">  2 10  1 -1</clus>
<clus scale="   67.101">  2  5  1 -1</clus>
</clustering>
</event>
<event>
10    4  0.3043429E-005  0.3299182E+03  0.7546771E-02  0.1118860E+00
         21   -1    0    0  501  502  0.00000000000E+00  0.00000000000E+00  0.71681419421E+03  0.71681419421E+03  0.00000000000E+00 0. -1.
          2   -1    0    0  503    0 -0.00000000000E+00 -0.00000000000E+00 -0.32155330525E+03  0.32155330525E+03  0.00000000000E+00 0. -1.
         24    2    1    2    0    0 -0.46163832653E+02  0.27243854397E+02 -0.56173477564E+02  0.11047907040E+03  0.78592864611E+02 0.  0.
         23    2    1    2    0    0 -0.12768295569E+03  0.25912486601E+03  0.11093279850E+03  0.32202813607E+03  0.89148198405E+02 0.  0.
        -11    1    3    3    0    0 -0.50921024383E+02  0.46307748464E+01 -0.15340908434E+01  0.51154161460E+02  0.00000000000E+00 0.  1.
         12    1    3    3    0    0  0.47571917303E+01  0.22613079550E+02 -0.54639386721E+02  0.59324908943E+02  0.00000000000E+00 0. -1.
        -13    1    4    4    0    0 -0.13390356706E+02  0.12663206637E+03  0.47328148721E+02  0.13584894386E+03  0.00000000000E+00 0. -1.
         13    1    4    4    0    0 -0.11429259899E+03  0.13249279964E+03  0.63604649779E+02  0.18617919221E+03  0.00000000000E+00 0.  1.
         21    1    1    2  503  502  0.45648889455E+02  0.39116471914E+02  0.23190490892E+03  0.23957004459E+03  0.00000000000E+00 0. -1.
          1    1    1    2  501    0  0.12819789889E+03 -0.32548519232E+03  0.10859665911E+03  0.36629024840E+03  0.00000000000E+00 0. -1.
<scales pt_clust_5="13000.00000" pt_clust_6="13000.00000" pt_clust_7="13000.00000" pt_clust_8="13000.00000" pt_clust_9="60.11588" pt_clust_10="317.64559"></scales>
<clustering>
<clus scale="   60.116">  1  9  2 -1</clus>
<clus scale="   78.593">  5  6 -1 -1</clus>
<clus scale="   89.148">  7  8 -1 -1</clus>
<clus scale="   94.573">  2  5  1 -1</clus>
<clus scale="  317.646">  1 10  2 -1</clus>
<clus scale="   60.116">  1  5  2 -1</clus>
</clustering>
</event>
<event>
10    4  0.3043429E-005  0.1526911E+03  0.7546771E-02  0.1200875E+00
          4   -1    0    0  503    0 -0.00000000000E+00  0.00000000000E+00  0.77614182976E+03  0.77614182976E+03  0.00000000000E+00 0. -1.
         21   -1    0    0  501  502  0.00000000000E+00 -0.00000000000E+00 -0.76010980795E+02  0.76010980795E+02  0.00000000000E+00 0. -1.
         24    2    1    2    0    0 -0.13612209078E+03 -0.29310280712E+02  0.47032214769E+03  0.49561820898E+03  0.71036401335E+02 0.  0.
         23    2    1    2    0    0  0.64806844766E+02 -0.44063311239E+02  0.30913792796E+02  0.12483690213E+03  0.92125387505E+02 0.  0.
        -13    1    3    3    0    0 -0.34628527730E+02  0.22616816117E+02  0.10239090055E+03  0.11042894466E+03  0.00000000000E+00 0.  1.
         14    1    3    3    0    0 -0.10149356305E+03 -0.51927096829E+02  0.36793124714E+03  0.38518926432E+03  0.00000000000E+00 0. -1.
        -13    1    4    4    0    0  0.12054488847E+02  0.25438070107E+02  0.24550053006E+02  0.37351187595E+02  0.00000000000E+00 0.  1.
         13    1    4    4    0    0  0.52752355919E+02 -0.69501381346E+02  0.63637397900E+01  0.87485714537E+02  0.00000000000E+00 0. -1.
         21    1    1    2  503  502  0.46228680138E+02  0.31635452314E+02  0.50155676803E+02  0.75189657706E+02  0.00000000000E+00 0. -1.
          3    1    1    2  501    0  0.25086565878E+02  0.41738139637E+02  0.14873923168E+03  0.15650804174E+03  0.00000000000E+00 0. -1.
<scales pt_clust_5="13000.00000" pt_clust_6="13000.00000" pt_clust_7="13000.00000" pt_clust_8="13000.00000" pt_clust_9="63.79752" pt_clust_10="48.69713"></scales>
<clustering>
<clus scale="   48.697">  2 10  1 -1</clus>
<clus scale="   63.798">  2  9  1 -1</clus>
<clus scale="   71.036">  5  6 -1 -1</clus>
<clus scale="   92.125">  7  8 -1 -1</clus>
<clus scale="  140.974">  1  5  2 -1</clus>
<clus scale="   48.697">  2  5  1 -1</clus>
</clustering>
</event>
<event>
10    4  0.3043429E-005  0.2222726E+03  0.7546771E-02  0.1152528E+00
         -1   -1    0    0    0  501 -0.00000000000E+00  0.00000000000E+00  0.14480211647E+03  0.14480211647E+03  0.00000000000E+00 0.  1.
         21   -1    0    0  503  502  0.00000000000E+00 -0.00000000000E+00 -0.72947159158E+03  0.72947159158E+03  0.00000000000E+00 0.  1.
         24    2    1    2    0    0  0.26425923835E+02 -0.10744826817E+03 -0.12133543227E+03  0.18352333651E+03  0.81945519306E+02 0.  0.
         23    2    1    2    0    0 -0.11351993953E+03 -0.96742137879E+02 -0.15948079261E+02  0.17660404590E+03  0.93213893189E+02 0.  0.
        -11    1    3    3    0    0  0.33929603570E+02 -0.97185480456E+02 -0.56442411510E+02  0.11739668405E+03  0.00000000000E+00 0.  1.
         12    1    3    3    0    0 -0.75036797349E+01 -0.10262787719E+02 -0.64893020759E+02  0.66126652452E+02  0.00000000000E+00 0. -1.
        -13    1    4    4    0    0 -0.49183965760E+01 -0.41225063158E+02  0.24373160464E+02  0.48142989191E+02  0.00000000000E+00 0. -1.
         13    1    4    4    0    0 -0.10860154295E+03 -0.55517074721E+02 -0.40321239726E+02  0.12846105670E+03  0.00000000000E+00 0.  1.
         21    1    1    2  503  501 -0.23151912879E+02  0.22762442363E+01 -0.38285225675E+02  0.44799005153E+02  0.00000000000E+00 0.  1.
         -2    1    1    2    0  502  0.11024592857E+03  0.20191416182E+03 -0.40910073790E+03  0.46934732050E+03  0.00000000000E+00 0.  1.
<scales pt_clust_5="13000.00000" pt_clust_6="13000.00000" pt_clust_7="13000.00000" pt_clust_8="13000.00000" pt_clust_9="23.26354" pt_clust_10="201.78277"></scales>
<clustering>
<clus scale="   23.264">  2  9  1 -1</clus>
<clus scale="   81.946">  5  6 -1 -1</clus>
<clus scale="   93.214">  7  8 -1 -1</clus>
<clus scale="  136.402">  1  5  2 -1</clus>
<clus scale="  201.783">  2 10  1 -1</clus>
<clus scale="   23.264">  2  5  1 -1</clus>
</clustering>
</event>
<event>
10    4  0.3043429E-005  0.1701968E+03  0.7546771E-02  0.1196912E+00
         21   -1    0    0  501  502  0.00000000000E+00  0.00000000000E+00  0.11959449718E+03  0.11959449718E+03  0.00000000000E+00 0.  1.
          2   -1    0    0  503    0 -0.00000000000E+00 -0.00000000000E+00 -0.88645233719E+03  0.88645233719E+03  0.00000000000E+00 0. -1.
         24    2    1    2    0    0 -0.38148063973E+02  0.68263218967E+02 -0.28322289224E+03  0.30505668107E+03  0.82031884830E+02 0.  0.
         23    2    1    2    0    0  0.56247926270E+01 -0.14783018536E+03 -0.21752151217E+03  0.27639268128E+03  0.84805094244E+02 0.  0.
        -11    1    3    3    0    0  0.65464554607E+00  0.43639649182E+02 -0.45948587656E+02  0.63372866821E+02  0.00000000000E+00 0.  1.
         12    1    3    3    0    0 -0.38802709519E+02  0.24623569785E+02 -0.23727430458E+03  0.24168381425E+03  0.00000000000E+00 0. -1.
        -13    1    4    4    0    0  0.28898198669E+02 -0.10107650487E+03 -0.19052055468E+03  0.21759974145E+03  0.00000000000E+00 0.  1.
         13    1    4    4    0    0 -0.23273406042E+02 -0.46753680490E+02 -0.27000957492E+02  0.58792939828E+02  0.00000000000E+00 0. -1.
         21    1    1    2  503  502 -0.44460523195E+02 -0.52048910525E+02  0.42358154854E+02  0.80498698699E+02  0.00000000000E+00 0.  1.
          1    1    1    2  501    0  0.76983794541E+02  0.13161587692E+03 -0.30847159046E+03  0.34409877332E+03  0.00000000000E+00 0. -1.
<scales pt_clust_5="13000.00000" pt_clust_6="13000.00000" pt_clust_7="13000.00000" pt_clust_8="13000.00000" pt_clust_9="68.45310" pt_clust_10="147.56367"></scales>
<clustering>
<clus scale="   68.453">  1  9  2 -1</clus>
<clus scale="   82.032">  5  6 -1 -1</clus>
<clus scale="   84.805">  7  8 -1 -1</clus>
<clus scale="  110.961">  2  5  1 -1</clus>
<clus scale="  147.564">  1 10  2 -1</clus>
<clus scale="   68.453">  1  5  2 -1</clus>
</clustering>
</event>
<event>
10    4  0.3043429E-005  0.5030511E+03  0.7546771E-02  0.1049725E+00
         21   -1    0    0  501  502  0.00000000000E+00  0.00000000000E+00  0.10909947600E+04  0.10909947600E+04  0.00000000000E+00 0.  1.
         -1   -1    0    0    0  501 -0.00000000000E+00 -0.00000000000E+00 -0.69333307587E+03  0.69333307587E+03  0.00000000000E+00 0.  1.
         24    2    1    2    0    0 -0.10940567712E+03  0.10153624455E+03 -0.94903778670E+01  0.16980252629E+03  0.80396638738E+02 0.  0.
         23    2    1    2    0    0 -0.11501585622E+03 -0.85485136970E+02 -0.11713692918E+03  0.20681397797E+03  0.92274619924E+02 0.  0.
        -11    1    3    3    0    0 -0.19635765180E+02  0.69115983636E+02 -0.17718956969E+02  0.74003674937E+02  0.00000000000E+00 0.  1.
         12    1    3    3    0    0 -0.89769911936E+02  0.32420260914E+02  0.82285791024E+01  0.95798851354E+02  0.00000000000E+00 0. -1.
        -13    1    4    4    0    0 -0.94463240707E+02 -0.10090717259E+03 -0.74470701437E+02  0.15700779184E+03  0.00000000000E+00 0. -1.
         13    1    4    4    0    0 -0.20552615516E+02  0.15422035624E+02 -0.42666227744E+02  0.49806186135E+02  0.00000000000E+00 0.  1.
         21    1    1    2  503  502  0.14165749012E+03 -0.49615132444E+03  0.71737386380E+03  0.88366183675E+03  0.00000000000E+00 0.  1.
         -2    1    1    2    0  503  0.82764043216E+02  0.48010021686E+03 -0.19308487258E+03  0.52404949490E+03  0.00000000000E+00 0.  1.
<scales pt_clust_5="13000.00000" pt_clust_6="13000.00000" pt_clust_7="13000.00000" pt_clust_8="13000.00000" pt_clust_9="503.05108" pt_clust_10="13000.00000"></scales>
<clustering>
<clus scale="   80.397">  5  6 -1 -1</clus>
<clus scale="   92.275">  7  8 -1 -1</clus>
<clus scale="  169.537">  2  5  1 -1</clus>
<clus scale="  180.968">  2  7  1 -1</clus>
<clus scale="  503.051">  1  9  2 -1</clus>
<clus scale="  503.051">  1  5  2 -1</clus>
</clustering>
</event>
<event>
10    4  0.3043429E-005  0.3711375E+03  0.7546771E-02  0.1090232E+00
          2   -1    0    0  503    0 -0.00000000000E+00  0.00000000000E+00  0.89101298516E+03  0.89101298516E+03  0.00000000000E+00 0. -1.
         21   -1    0    0  501  502  0.00000000000E+00 -0.00000000000E+00 -0.54884873330E+03  0.54884873330E+03  0.00000000000E+00 0. -1.
         24    2    1    2    0    0 -0.93668067584E+02 -0.63888709998E+02  0.14522455374E+03  0.20087445915E+03  0.80030638994E+02 0.  0.
         23    2    1    2    0    0  0.25022813257E+03 -0.28559357640E+02  0.63343480149E+02  0.27540950518E+03  0.91696476631E+02 0.  0.
        -11    1    3    3    0    0 -0.18530351030E+02  0.14802449254E+02  0.53669882381E+02  0.58676594039E+02  0.00000000000E+00 0.  1.
         12    1    3    3    0    0 -0.75137716555E+02 -0.78691159251E+02  0.91554671363E+02  0.14219786511E+03  0.00000000000E+00 0. -1.
        -11    1    4    4    0    0  0.23316177642E+03 -0.11507230814E+02  0.31654308314E+02  0.23558188721E+03  0.00000000000E+00 0. -1.
         11    1    4    4    0    0  0.17066356144E+02 -0.17052126826E+02  0.31689171835E+02  0.39827617967E+02  0.00000000000E+00 0.  1.
         21    1    1    2  503  502 -0.27006689880E+03  0.30150799013E+03 -0.27599636497E+03  0.48991549416E+03  0.00000000000E+00 0. -1.
          1    1    1    2  501    0  0.11350683382E+03 -0.20905992249E+03  0.40959258294E+03  0.47366225997E+03  0.00000000000E+00 0. -1.
<scales pt_clust_5="13000.00000" pt_clust_6="13000.00000" pt_clust_7="13000.00000" pt_clust_8="13000.00000" pt_clust_9="371.13747" pt_clust_10="13000.00000"></scales>
<clustering>
<clus scale="   80.031">  5  6 -1 -1</clus>
<clus scale="   91.696">  7  8 -1 -1</clus>
<clus scale="  138.782">  1  5  2 -1</clus>
<clus scale="  249.711">  1  7  2 -1</clus>
<clus scale="  371.137">  2  9  1 -1</clus>
<clus scale="  371.137">  2  5  1 -1</clus>
</clustering>
</event>
<event>
10    4  0.3043429E-005  0.2783258E+03  0.7546771E-02  0.1146789E+00
          2   -1    0    0  503    0 -0.00000000000E+00  0.00000000000E+00  0.20834964165E+04  0.20834964165E+04  0.00000000000E+00 0. -1.
         21   -1    0    0  501  502  0.00000000000E+00 -0.00000000000E+00 -0.15605345549E+03  0.15605345549E+03  0.00000000000E+00 0.  1.
         24    2    1    2    0    0 -0.14310565998E+02  0.15124428550E+01  0.15910298040E+03  0.17757292339E+03  0.77532605843E+02 0.  0.
         23    2    1    2    0    0 -0.56906511518E+02 -0.30018266178E+03  0.47108537866E+03  0.56857863847E+03  0.89511187277E+02 0.  0.
        -11    1    3    3    0    0  0.29539154470E+02  0.97234434692E+01  0.90925861892E+02  0.96096926904E+02  0.00000000000E+00 0.  1.
         12    1    3    3    0    0 -0.43849720468E+02 -0.82110006142E+01  0.68177118504E+02  0.81475996488E+02  0.00000000000E+00 0. -1.
        -13    1    4    4    0    0 -0.13397779189E+02 -0.12490388544E+03  0.27304891137E+03  0.30055979286E+03  0.00000000000E+00 0. -1.
         13    1    4    4    0    0 -0.43508732329E+02 -0.17527877633E+03  0.19803646730E+03  0.26801884561E+03  0.00000000000E+00 0.  1.
         21    1    1    2  503  502 -0.70297753099E+01  0.60754129035E+02 -0.75965619736E+02  0.97525675171E+02  0.00000000000E+00 0. -1.
          1    1    1    2  501    0  0.78246852826E+02  0.23791608989E+03  0.13732202217E+04  0.13958726350E+04  0.00000000000E+00 0. -1.
<scales pt_clust_5="13000.00000" pt_clust_6="13000.00000" pt_clust_7="13000.00000" pt_clust_8="13000.00000" pt_clust_9="61.15948" pt_clust_10="263.53955"></scales>
<clustering>
<clus scale="   61.159">  2  9  1 -1</clus>
<clus scale="   77.533">  5  6 -1 -1</clus>
<clus scale="   79.600">  1  5  2 -1</clus>
<clus scale="   89.511">  7  8 -1 -1</clus>
<clus scale="  263.540">  2 10  1 -1</clus>
<clus scale="   61.159">  2  5  1 -1</clus>
</clustering>
</event>
<event>
10    4  0.3043429E-005  0.1371668E+03  0.7546771E-02  0.1219065E+00
          2   -1    0    0  502    0 -0.00000000000E+00  0.00000000000E+00  0.66272476636E+03  0.66272476636E+03  0.00000000000E+00 0. -1.
         21   -1    0    0  503  502  0.00000000000E+00 -0.00000000000E+00 -0.26841783139E+03  0.26841783139E+03  0.00000000000E+00 0.  1.
         24    2    1    2    0    0 -0.96725586862E+02  0.65530314940E+01  0.44714659391E+03  0.46469623868E+03  0.81263376898E+02 0.  0.
         23    2    1    2    0    0  0.14092918835E+03  0.76464922301E+01  0.10433493229E+03  0.19706714027E+03  0.89611242070E+02 0.  0.
        -11    1    3    3    0    0 -0.43180024257E+02 -0.28265032627E+02  0.10937964749E+03  0.12094351512E+03  0.00000000000E+00 0.  1.
         12    1    3    3    0    0 -0.53545562605E+02  0.34818064121E+02  0.33776694642E+03  0.34375272356E+03  0.00000000000E+00 0. -1.
        -11    1    4    4    0    0  0.12452296971E+03  0.34243952950E+02  0.10399985459E+03  0.16581492109E+03  0.00000000000E+00 0.  1.
         11    1    4    4    0    0  0.16406218638E+02 -0.26597460720E+02  0.33507769649E+00  0.31252219182E+02  0.00000000000E+00 0. -1.
         21    1    1    2  503  501  0.14313142534E+02  0.36938870196E+02 -0.18319206808E+03  0.18742646555E+03  0.00000000000E+00 0.  1.
          1    1    1    2  501    0 -0.58516744024E+02 -0.51138393920E+02  0.26017476855E+02  0.81952753253E+02  0.00000000000E+00 0. -1.
<scales pt_clust_5="13000.00000" pt_clust_6="13000.00000" pt_clust_7="13000.00000" pt_clust_8="13000.00000" pt_clust_9="39.61497" pt_clust_10="66.19660"></scales>
<clustering>
<clus scale="   39.615">  2  9  1 -1</clus>
<clus scale="   66.197">  2 10  1 -1</clus>
<clus scale="   81.263">  5  6 -1 -1</clus>
<clus scale="   89.611">  7  8 -1 -1</clus>
<clus scale="  131.865">  1  5  2 -1</clus>
<clus scale="   39.615">  2  5  1 -1</clus>
</clustering>
</event>
<event>
10    4  0.3043429E-005  0.1285501E+03  0.7546771E-02  0.1247633E+00
         21   -1    0    0  501  502  0.00000000000E+00  0.00000000000E+00  0.69451090682E+02  0.69451090682E+02  0.00000000000E+00 0.  1.
         -1   -1    0    0    0  501 -0.00000000000E+00 -0.00000000000E+00 -0.53874048124E+03  0.53874048124E+03  0.00000000000E+00 0.  1.
         24    2    1    2    0    0 -0.10352238799E+01 -0.13785921757E+02 -0.22706484454E+03  0.24399086614E+03  0.88215507736E+02 0.  0.
         23    2    1    2    0    0 -0.99486832015E+02 -0.33534489458E+02 -0.81646321205E+02  0.15993020737E+03  0.88822056574E+02 0.  0.
        -11    1    3    3    0    0 -0.21733384933E+02 -0.43270480300E+02 -0.16769944452E+03  0.17455021678E+03  0.00000000000E+00 0.  1.
         12    1    3    3    0    0  0.20698161054E+02  0.29484558543E+02 -0.59365400023E+02  0.69440649358E+02  0.00000000000E+00 0. -1.
        -11    1    4    4    0    0 -0.92047291394E+02 -0.53954344288E+02 -0.41893982639E+02  0.11462495759E+03  0.00000000000E+00 0.  1.
         11    1    4    4    0    0 -0.74395406202E+01  0.20419854830E+02 -0.39752338567E+02  0.45305249778E+02  0.00000000000E+00 0. -1.
         21    1    1    2  503  502  0.17651960216E+02  0.98058277507E+01 -0.55631722693E+00  0.20200382328E+02  0.00000000000E+00 0. -1.
         -2    1    1    2    0  503  0.82870095679E+02  0.37514583464E+02 -0.16002190758E+03  0.18407011609E+03  0.00000000000E+00 0.  1.
<scales pt_clust_5="13000.00000" pt_clust_6="13000.00000" pt_clust_7="13000.00000" pt_clust_8="13000.00000" pt_clust_9="20.19272" pt_clust_10="92.92886"></scales>
<clustering>
<clus scale="   20.193">  1  9  2 -1</clus>
<clus scale="   88.216">  5  6 -1 -1</clus>
<clus scale="   88.822">  7  8 -1 -1</clus>
<clus scale="   89.094">  2  5  1 -1</clus>
<clus scale="   92.929">  1 10  2 -1</clus>
<clus scale="   20.193">  1  5  2 -1</clus>
</clustering>
</event>
<event>
10    4  0.3043429E-005  0.1034884E+03  0.7546771E-02  0.1276095E+00
         21   -1    0    0  503  502  0.00000000000E+00  0.00000000000E+00  0.60600151854E+03  0.60600151854E+03  0.00000000000E+00 0.  1.
         -1   -1    0    0    0  501 -0.00000000000E+00 -0.00000000000E+00 -0.27305481485E+03  0.27305481485E+03  0.00000000000E+00 0.  1.
         23    2    1    2    0    0  0.36359842663E+01  0.64705789816E+02 -0.18201657594E+03  0.21289745903E+03  0.89416075326E+02 0.  0.
         24    2    1    2    0    0  0.26921195405E+02 -0.27138523350E+02 -0.42858025225E+02  0.10069663538E+03  0.82714882814E+02 0.  0.
        -11    1    4    4    0    0  0.29525941403E+02  0.15849300251E+02 -0.46677385405E+02  0.57460941886E+02  0.00000000000E+00 0.  1.
         12    1    4    4    0    0 -0.26047459978E+01 -0.42987823601E+02  0.38193601808E+01  0.43235693493E+02  0.00000000000E+00 0. -1.
        -11    1    3    3    0    0  0.29407866538E+02  0.73831583745E+02 -0.15639197593E+03  0.17542626801E+03  0.00000000000E+00 0.  1.
         11    1    3    3    0    0 -0.25771882271E+02 -0.91257939289E+01 -0.25624600006E+02  0.37471191015E+02  0.00000000000E+00 0. -1.
         21    1    1    2  503  501  0.25970952254E+02 -0.16489128126E+02  0.24020822930E+03  0.24217013675E+03  0.00000000000E+00 0.  1.
         -2    1    1    2    0  502 -0.56528131925E+02 -0.21078138340E+02  0.31761307554E+03  0.32329210224E+03  0.00000000000E+00 0.  1.
<scales pt_clust_5="13000.00000" pt_clust_6="13000.00000" pt_clust_7="13000.00000" pt_clust_8="13000.00000" pt_clust_9="30.76332" pt_clust_10="49.00393"></scales>
<clustering>
<clus scale="   30.763">  1  9  2 -1</clus>
<clus scale="   49.004">  1 10  2 -1</clus>
<clus scale="   82.715">  5  6 -1 -1</clus>
<clus scale="   89.416">  7  8 -1 -1</clus>
<clus scale="   97.757">  1  5  2 -1</clus>
<clus scale="   30.763">  1  5  2 -1</clus>
</clustering>
</event>
<event>
10    4  0.3043429E-005  0.1321521E+03  0.7546771E-02  0.1239002E+00
          2   -1    0    0  502    0 -0.00000000000E+00  0.00000000000E+00  0.90977353392E+03  0.90977353392E+03  0.00000000000E+00 0. -1.
         21   -1    0    0  503  502  0.00000000000E+00 -0.00000000000E+00 -0.67915164136E+02  0.67915164136E+02  0.00000000000E+00 0. -1.
         24    2    1    2    0    0  0.30750225520E+02 -0.24388116982E+02  0.61056982441E+02  0.11023972575E+03  0.82972799213E+02 0.  0.
         23    2    1    2    0    0 -0.43933157309E+02 -0.75887790624E+02  0.87003840565E+02  0.15378390888E+03  0.91601000439E+02 0.  0.
        -11    1    3    3    0    0  0.27232380212E+02 -0.53302070245E+02  0.53176566514E+02  0.80065351124E+02  0.00000000000E+00 0.  1.
         12    1    3    3    0    0  0.35178453079E+01  0.28913953263E+02  0.78804159273E+01  0.30174374626E+02  0.00000000000E+00 0. -1.
        -11    1    4    4    0    0 -0.74775960750E+01 -0.87340353811E+02  0.68919266958E+02  0.11150837280E+03  0.00000000000E+00 0. -1.
         11    1    4    4    0    0 -0.36455561234E+02  0.11452563187E+02  0.18084573608E+02  0.42275536082E+02  0.00000000000E+00 0.  1.
         21    1    1    2  503  501  0.24839859449E+02 -0.19401276906E+02  0.52841292428E+02  0.61527476370E+02  0.00000000000E+00 0. -1.
          1    1    1    2  501    0 -0.11656927661E+02  0.11967718451E+03  0.64095625435E+03  0.65213758705E+03  0.00000000000E+00 0. -1.
<scales pt_clust_5="13000.00000" pt_clust_6="13000.00000" pt_clust_7="13000.00000" pt_clust_8="13000.00000" pt_clust_9="31.51870" pt_clust_10="95.25465"></scales>
<clustering>
<clus scale="   31.519">  2  9  1 -1</clus>
<clus scale="   82.973">  5  6 -1 -1</clus>
<clus scale="   91.601">  7  8 -1 -1</clus>
<clus scale="   97.624">  1  5  2 -1</clus>
<clus scale="   95.255">  2 10  1 -1</clus>
<clus scale="   31.519">  2  5  1 -1</clus>
</clustering>
</event>
<event>
10    4  0.3043429E-005  0.4092523E+03  0.7546771E-02  0.1040693E+00
         -1   -1    0    0    0  501 -0.00000000000E+00  0.00000000000E+00  0.56554533894E+03  0.56554533894E+03  0.00000000000E+00 0.  1.
         21   -1    0    0  503  502  0.00000000000E+00 -0.00000000000E+00 -0.71797013824E+03  0.71797013824E+03  0.00000000000E+00 0.  1.
         23    2    1    2    0    0 -0.33670092961E+03 -0.31344802356E+03  0.26863529494E+03  0.54020701770E+03  0.89674527095E+02 0.  0.
         24    2    1    2    0    0  0.13707468341E+03  0.18916258269E+03 -0.33805131881E+03  0.41976458403E+03  0.85741823756E+02 0.  0.
        -11    1    4    4    0    0  0.50108574289E+02  0.11357715478E+03 -0.11750241875E+03  0.17093114905E+03  0.00000000000E+00 0.  1.
         12    1    4    4    0    0  0.86966109117E+02  0.75585427911E+02 -0.22054890006E+03  0.24883343498E+03  0.00000000000E+00 0. -1.
        -13    1    3    3    0    0 -0.27436688433E+03 -0.20114145828E+03  0.19787291651E+03  0.39355909918E+03  0.00000000000E+00 0.  1.
         13    1    3    3    0    0 -0.62334045278E+02 -0.11230656528E+03  0.70762378430E+02  0.14664791852E+03  0.00000000000E+00 0. -1.
         21    1    1    2  503  501  0.23313922225E+02  0.77116251199E+00 -0.10462124998E+03  0.10719020295E+03  0.00000000000E+00 0.  1.
         -2    1    1    2    0  502  0.17631232398E+03  0.12351427836E+03  0.21612474541E+02  0.21635367250E+03  0.00000000000E+00 0.  1.
<scales pt_clust_5="13000.00000" pt_clust_6="13000.00000" pt_clust_7="13000.00000" pt_clust_8="13000.00000" pt_clust_9="23.32667" pt_clust_10="218.38908"></scales>
<clustering>
<clus scale="   23.327">  2  9  1 -1</clus>
<clus scale="   85.742">  5  6 -1 -1</clus>
<clus scale="   89.675">  7  8 -1 -1</clus>
<clus scale="  218.389">  2 10  1 -1</clus>
<clus scale="  408.409">  2  5  1 -1</clus>
<clus scale="   23.327">  2  5  1 -1</clus>
</clustering>
</event>
<event>
10    4  0.3043429E-005  0.1408993E+03  0.7546771E-02  0.1213899E+00
         -3   -1    0    0    0  501 -0.00000000000E+00  0.00000000000E+00  0.25226587822E+03  0.25226587822E+03  0.00000000000E+00 0.  1.
         21   -1    0    0  503  502  0.00000000000E+00 -0.00000000000E+00 -0.24906678053E+03  0.24906678053E+03  0.00000000000E+00 0. -1.
         23    2    1    2    0    0  0.78856741237E+02  0.86782779747E+02  0.32971569024E+02  0.15199431101E+03  0.90914848719E+02 0.  0.
         24    2    1    2    0    0 -0.10294973222E+03 -0.70576706495E+02 -0.13031196219E+03  0.19845520852E+03  0.82604742206E+02 0.  0.
        -13    1    4    4    0    0 -0.38931428674E+02 -0.26255479804E+02 -0.35645874476E+00  0.46958848167E+02  0.00000000000E+00 0.  1.
         14    1    4    4    0    0 -0.64018303544E+02 -0.44321226691E+02 -0.12995550345E+03  0.15149636035E+03  0.00000000000E+00 0. -1.
        -13    1    3    3    0    0  0.32567381213E+02  0.48149064404E+01  0.46414062829E+02  0.56904155133E+02  0.00000000000E+00 0.  1.
         13    1    3    3    0    0  0.46289360024E+02  0.81967873307E+02 -0.13442493805E+02  0.95090155881E+02  0.00000000000E+00 0. -1.
         21    1    1    2  503  501 -0.14506504167E+02 -0.43618370055E+02  0.76154296441E+01  0.46593944221E+02  0.00000000000E+00 0. -1.
         -4    1    1    2    0  502  0.38599495148E+02  0.27412296803E+02  0.92924061204E+02  0.10428919499E+03  0.00000000000E+00 0.  1.
<scales pt_clust_5="13000.00000" pt_clust_6="13000.00000" pt_clust_7="13000.00000" pt_clust_8="13000.00000" pt_clust_9="45.96739" pt_clust_10="33.30014"></scales>
<clustering>
<clus scale="   45.967">  1  9  2 -1</clus>
<clus scale="   33.300">  2 10  1 -1</clus>
<clus scale="   82.605">  5  6 -1 -1</clus>
<clus scale="   90.915">  7  8 -1 -1</clus>
<clus scale="  135.686">  2  5  1 -1</clus>
<clus scale="   33.300">  2  5  1 -1</clus>
</clustering>
</event>
<event>
10    4  0.3043429E-005  0.1693847E+03  0.7546771E-02  0.1178994E+00
         21   -1    0    0  503  502  0.00000000000E+00  0.00000000000E+00  0.81681286885E+02  0.81681286885E+02  0.00000000000E+00 0. -1.
          2   -1    0    0  502    0 -0.00000000000E+00 -0.00000000000E+00 -0.15184345494E+04  0.15184345494E+04  0.00000000000E+00 0. -1.
         24    2    1    2    0    0  0.78703842226E+02 -0.12208288653E+03 -0.10269707156E+04  0.10414412265E+04  0.93981123454E+02 0.  0.
         23    2    1    2    0    0  0.37602356010E+02  0.16098557425E+03 -0.35393378969E+03  0.40098545028E+03  0.90498130157E+02 0.  0.
        -13    1    3    3    0    0  0.17575382689E+02 -0.19411864315E+02 -0.43762850348E+02  0.50999035515E+02  0.00000000000E+00 0.  1.
         14    1    3    3    0    0  0.61128459537E+02 -0.10267102221E+03 -0.98320786524E+03  0.99044219096E+03  0.00000000000E+00 0. -1.
        -11    1    4    4    0    0 -0.72020016191E+01  0.37528001117E+02 -0.17442091991E+03  0.17855776936E+03  0.00000000000E+00 0.  1.
         11    1    4    4    0    0  0.44804357629E+02  0.12345757313E+03 -0.17951286977E+03  0.22242768092E+03  0.00000000000E+00 0. -1.
         21    1    1    2  503  501 -0.98813773684E+00 -0.26234548726E+02  0.49430178516E+01  0.26714441572E+02  0.00000000000E+00 0.  1.
          1    1    1    2  501    0 -0.11531806050E+03 -0.12668138996E+02 -0.60791775080E+02  0.13097471794E+03  0.00000000000E+00 0. -1.
<scales pt_clust_5="13000.00000" pt_clust_6="13000.00000" pt_clust_7="13000.00000" pt_clust_8="13000.00000" pt_clust_9="26.25315" pt_clust_10="118.87006"></scales>
<clustering>
<clus scale="   26.253">  1  9  2 -1</clus>
<clus scale="   90.498">  7  8 -1 -1</clus>
<clus scale="   93.981">  5  6 -1 -1</clus>
<clus scale="  118.870">  1 10  2 -1</clus>
<clus scale="  167.477">  1  7  2 -1</clus>
<clus scale="   26.253">  1  5  2 -1</clus>
</clustering>
</event>
<event>
10    4  0.3043429E-005  0.2530859E+03  0.7546771E-02  0.1111370E+00
          2   -1    0    0  502    0 -0.00000000000E+00  0.00000000000E+00  0.29415816641E+03  0.29415816641E+03  0.00000000000E+00 0. -1.
         21   -1    0    0  503  502  0.00000000000E+00 -0.00000000000E+00 -0.35367912554E+03  0.35367912554E+03  0.00000000000E+00 0. -1.
         24    2    1    2    0    0 -0.23911135295E+02  0.63611403151E+02 -0.74113937889E+02  0.12928939971E+03  0.81269428972E+02 0.  0.
         23    2    1    2    0    0 -0.10919501615E+01  0.12943534035E+03 -0.16470103376E+03  0.22804108375E+03  0.90119951553E+02 0.  0.
        -13    1    3    3    0    0  0.18794395817E+02  0.10854543638E+02  0.76602439897E+01  0.23015859091E+02  0.00000000000E+00 0.  1.
         14    1    3    3    0    0 -0.42705531112E+02  0.52756859513E+02 -0.81774181878E+02  0.10627354062E+03  0.00000000000E+00 0. -1.
        -13    1    4    4    0    0 -0.24082546381E+02  0.46110919546E+02 -0.13286107372E+02  0.53690842708E+02  0.00000000000E+00 0.  1.
         13    1    4    4    0    0  0.22990596219E+02  0.83324420801E+02 -0.15141492639E+03  0.17435024104E+03  0.00000000000E+00 0. -1.
         21    1    1    2  503  501 -0.79120219473E+01 -0.21229715592E+02 -0.16436449097E+02  0.27990315724E+02  0.00000000000E+00 0. -1.
          1    1    1    2  501    0  0.32915107404E+02 -0.17181702791E+03  0.19573046162E+03  0.26251649278E+03  0.00000000000E+00 0. -1.
<scales pt_clust_5="13000.00000" pt_clust_6="13000.00000" pt_clust_7="13000.00000" pt_clust_8="13000.00000" pt_clust_9="22.65615" pt_clust_10="176.89605"></scales>
<clustering>
<clus scale="   22.656">  2  9  1 -1</clus>
<clus scale="   81.269">  5  6 -1 -1</clus>
<clus scale="   90.120">  7  8 -1 -1</clus>
<clus scale="   93.770">  5  7 -1 -1</clus>
<clus scale="  176.896">  2 10  1 -1</clus>
<clus scale="   22.656">  2  5  1 -1</clus>
</clustering>
</event>
<event>
10    4  0.3043429E-005  0.1087557E+03  0.7546771E-02  0.1271550E+00
         21   -1    0    0  503  502  0.00000000000E+00  0.00000000000E+00  0.35129287036E+03  0.35129287036E+03  0.00000000000E+00 0.  1.
         -1   -1    0    0    0  501 -0.00000000000E+00 -0.00000000000E+00 -0.22986128962E+03  0.22986128962E+03  0.00000000000E+00 0.  1.
         23    2    1    2    0    0 -0.89596062847E+01 -0.25501208319E+02 -0.12245461793E+03  0.15311489369E+03  0.87854715553E+02 0.  0.
         24    2    1    2    0    0 -0.21906569426E+02 -0.53849129413E+02 -0.13633981936E+02  0.99448727987E+02  0.79526960914E+02 0.  0.
        -11    1    4    4    0    0 -0.34113774116E+02 -0.69188585369E+02 -0.31228935631E+01  0.77204678576E+02  0.00000000000E+00 0.  1.
         12    1    4    4    0    0  0.12207204691E+02  0.15339455956E+02 -0.10511088373E+02  0.22244049411E+02  0.00000000000E+00 0. -1.
        -11    1    3    3    0    0 -0.12228623288E+01 -0.58151945689E+02 -0.82435619174E+02  0.10088991767E+03  0.00000000000E+00 0.  1.
         11    1    3    3    0    0 -0.77367439559E+01  0.32650737370E+02 -0.40018998760E+02  0.52224976013E+02  0.00000000000E+00 0. -1.
         21    1    1    2  503  501  0.10700120826E+03  0.23578123532E+02  0.13205042671E+03  0.17158817463E+03  0.00000000000E+00 0.  1.
         -2    1    1    2    0  502 -0.76135032547E+02  0.55772214201E+02  0.12546975390E+03  0.15700236368E+03  0.00000000000E+00 0.  1.
<scales pt_clust_5="13000.00000" pt_clust_6="13000.00000" pt_clust_7="13000.00000" pt_clust_8="13000.00000" pt_clust_9="74.18399" pt_clust_10="93.13991"></scales>
<clustering>
<clus scale="   79.527">  5  6 -1 -1</clus>
<clus scale="   87.855">  7  8 -1 -1</clus>
<clus scale="   91.919">  2  7  1 -1</clus>
<clus scale="   93.140">  1 10  2 -1</clus>
<clus scale="   74.184">  1  9  2 -1</clus>
<clus scale="   93.140">  1  5  2 -1</clus>
</clustering>
</event>
<event>
10    4  0.3043429E-005  0.1416876E+03  0.7546771E-02  0.1213596E+00
         21   -1    0    0  501  502  0.00000000000E+00  0.00000000000E+00  0.18995328152E+03  0.18995328152E+03  0.00000000000E+00 0.  1.
          4   -1    0    0  503    0 -0.00000000000E+00 -0.00000000000E+00 -0.32180097487E+03  0.32180097487E+03  0.00000000000E+00 0. -1.
         23    2    1    2    0    0  0.37149529195E+01 -0.13280768763E+03 -0.20823285249E+03  0.26385149495E+03  0.92763181076E+02 0.  0.
         24    2    1    2    0    0  0.24364202424E+02  0.64588899941E+02 -0.17127056928E+02  0.10781042966E+03  0.81021060897E+02 0.  0.
        -13    1    4    4    0    0  0.25823906655E+02  0.12594568558E+02  0.27129266616E+02  0.39515749002E+02  0.00000000000E+00 0.  1.
         14    1    4    4    0    0 -0.14597042310E+01  0.51994331383E+02 -0.44256323543E+02  0.68294680657E+02  0.00000000000E+00 0. -1.
        -11    1    3    3    0    0 -0.22342961462E+02 -0.41451325606E+02 -0.16540483754E+02  0.49909998239E+02  0.00000000000E+00 0.  1.
         11    1    3    3    0    0  0.26057914382E+02 -0.91356362020E+02 -0.19169236873E+03  0.21394149671E+03  0.00000000000E+00 0. -1.
         21    1    1    2  503  502  0.20550757791E+02  0.20570222860E+01  0.99007881719E+01  0.22903942737E+02  0.00000000000E+00 0.  1.
          3    1    1    2  501    0 -0.48629913135E+02  0.66161765399E+02  0.83611427894E+02  0.11718838904E+03  0.00000000000E+00 0. -1.
<scales pt_clust_5="13000.00000" pt_clust_6="13000.00000" pt_clust_7="13000.00000" pt_clust_8="13000.00000" pt_clust_9="20.65345" pt_clust_10="76.72142"></scales>
<clustering>
<clus scale="   20.653">  1  9  2 -1</clus>
<clus scale="   76.721">  1 10  2 -1</clus>
<clus scale="   81.021">  5  6 -1 -1</clus>
<clus scale="   92.763">  7  8 -1 -1</clus>
<clus scale="  134.294">  1  5  2 -1</clus>
<clus scale="   20.653">  1  5  2 -1</clus>
</clustering>
</event>
<event>
10    4  0.3043429E-005  0.9848829E+02  0.7546771E-02  0.1284451E+00
          2   -1    0    0  503    0 -0.00000000000E+00  0.00000000000E+00  0.37108241315E+03  0.37108241315E+03  0.00000000000E+00 0. -1.
         21   -1    0    0  501  502  0.00000000000E+00 -0.00000000000E+00 -0.11961383324E+03  0.11961383324E+03  0.00000000000E+00 0. -1.
         23    2    1    2    0    0  0.41811518820E+02  0.30263047444E+01  0.13474307996E+03  0.16674832998E+03  0.88836627170E+02 0.  0.
         24    2    1    2    0    0 -0.30276531346E+02 -0.31946193158E+02  0.35663116917E+02  0.97919360561E+02  0.79869366197E+02 0.  0.
        -11    1    4    4    0    0 -0.55177192061E+02 -0.30001126799E+02  0.37022646293E+02  0.72905874053E+02  0.00000000000E+00 0.  1.
         12    1    4    4    0    0  0.24900660714E+02 -0.19450663593E+01 -0.13595293757E+01  0.25013486508E+02  0.00000000000E+00 0. -1.
        -13    1    3    3    0    0  0.29533753802E+02  0.42724437702E+02  0.48710621313E+02  0.71206353784E+02  0.00000000000E+00 0.  1.
         13    1    3    3    0    0  0.12277765018E+02 -0.39698132957E+02  0.86032458649E+02  0.95541976196E+02  0.00000000000E+00 0. -1.
         21    1    1    2  503  502  0.31371514432E+02 -0.79424224579E+02  0.67221077348E+02  0.10867866675E+03  0.00000000000E+00 0. -1.
          1    1    1    2  501    0 -0.42906501905E+02  0.10834411299E+03  0.13841305684E+02  0.11734988909E+03  0.00000000000E+00 0. -1.
<scales pt_clust_5="13000.00000" pt_clust_6="13000.00000" pt_clust_7="13000.00000" pt_clust_8="13000.00000" pt_clust_9="85.39543" pt_clust_10="96.74651"></scales>
<clustering>
<clus scale="   79.869">  5  6 -1 -1</clus>
<clus scale="   85.395">  1  9  2 -1</clus>
<clus scale="   88.837">  7  8 -1 -1</clus>
<clus scale="   96.747">  2 10  1 -1</clus>
<clus scale="   96.747">  2  5  1 -1</clus>
<clus scale="   96.747">  2  5  1 -1</clus>
</clustering>
</event>
<event>
10    4  0.3043429E-005  0.1229690E+03  0.7546771E-02  0.1246657E+00
         21   -1    0    0  503  502  0.00000000000E+00  0.00000000000E+00  0.20326584239E+03  0.20326584239E+03  0.00000000000E+00 0.  1.
          2   -1    0    0  502    0 -0.00000000000E+00 -0.00000000000E+00 -0.83189184313E+03  0.83189184313E+03  0.00000000000E+00 0. -1.
         24    2    1    2    0    0 -0.56769390096E+02 -0.52790011596E+02 -0.41991233278E+03  0.43187271295E+03  0.64638409575E+02 0.  0.
         23    2    1    2    0    0  0.22384791726E+02  0.97338541458E+02 -0.35515410759E+03  0.38030996183E+03  0.92332856417E+02 0.  0.
        -11    1    3    3    0    0 -0.69369693713E+01 -0.21370240130E+02 -0.29713372126E+02  0.37251754192E+02  0.00000000000E+00 0.  1.
         12    1    3    3    0    0 -0.49832420725E+02 -0.31419771466E+02 -0.39019896066E+03  0.39462095876E+03  0.00000000000E+00 0. -1.
        -13    1    4    4    0    0  0.28741678613E+00  0.10627498690E+03 -0.32462090674E+03  0.34157457245E+03  0.00000000000E+00 0. -1.
         13    1    4    4    0    0  0.22097374940E+02 -0.89364454453E+01 -0.30533200853E+02  0.38735389385E+02  0.00000000000E+00 0.  1.
         21    1    1    2  503  501  0.38978324323E+02  0.22864567492E+01  0.16708472066E+03  0.17158625099E+03  0.00000000000E+00 0.  1.
          1    1    1    2  501    0 -0.45937259532E+01 -0.46834986612E+02 -0.20644281026E+02  0.51388759745E+02  0.00000000000E+00 0. -1.
<scales pt_clust_5="13000.00000" pt_clust_6="13000.00000" pt_clust_7="13000.00000" pt_clust_8="13000.00000" pt_clust_9="39.04533" pt_clust_10="47.62631"></scales>
<clustering>
<clus scale="   39.045">  1  9  2 -1</clus>
<clus scale="   47.626">  1 10  2 -1</clus>
<clus scale="   64.638">  5  6 -1 -1</clus>
<clus scale="   92.333">  7  8 -1 -1</clus>
<clus scale="  103.799">  2  5  1 -1</clus>
<clus scale="   39.045">  1  5  2 -1</clus>
</clustering>
</event>
<event>
10    4  0.3043429E-005  0.9677421E+02  0.7546771E-02  0.1294550E+00
         21   -1    0    0  501  502  0.00000000000E+00  0.00000000000E+00  0.23655029146E+03  0.23655029146E+03  0.00000000000E+00 0. -1.
          2   -1    0    0  503    0 -0.00000000000E+00 -0.00000000000E+00 -0.23329940087E+03  0.23329940087E+03  0.00000000000E+00 0. -1.
         24    2    1    2    0    0 -0.17590651767E+02  0.17876116570E+02 -0.14289382890E+03  0.16616918589E+03  0.81022005829E+02 0.  0.
         23    2    1    2    0    0  0.22609816905E+02  0.18293096536E+01  0.27071915489E+02  0.10027665046E+03  0.93850774233E+02 0.  0.
        -13    1    3    3    0    0  0.34675645944E+01  0.47731329736E+02 -0.72723641872E+02  0.87057635677E+02  0.00000000000E+00 0.  1.
         14    1    3    3    0    0 -0.21058216361E+02 -0.29855213167E+02 -0.70170187032E+02  0.79111550217E+02  0.00000000000E+00 0. -1.
        -13    1    4    4    0    0  0.10873209861E+02  0.47788348519E+02  0.16143454763E+02  0.51600039520E+02  0.00000000000E+00 0. -1.
         13    1    4    4    0    0  0.11736607044E+02 -0.45959038865E+02  0.10928460726E+02  0.48676610935E+02  0.00000000000E+00 0.  1.
         21    1    1    2  503  502 -0.40725811571E+02 -0.18764373393E+02  0.14975003381E+03  0.15631943597E+03  0.00000000000E+00 0. -1.
          1    1    1    2  501    0  0.35706646434E+02 -0.94105283037E+00 -0.30677229803E+02  0.47084420017E+02  0.00000000000E+00 0. -1.
<scales pt_clust_5="13000.00000" pt_clust_6="13000.00000" pt_clust_7="13000.00000" pt_clust_8="13000.00000" pt_clust_9="25.65666" pt_clust_10="35.71906"></scales>
<clustering>
<clus scale="   35.719">  1 10  2 -1</clus>
<clus scale="   25.657">  1  9  2 -1</clus>
<clus scale="   81.022">  5  6 -1 -1</clus>
<clus scale="   84.391">  2  5  1 -1</clus>
<clus scale="   93.851">  7  8 -1 -1</clus>
<clus scale="   35.719">  1  5  2 -1</clus>
</clustering>
</event>
<event>
10    4  0.3043429E-005  0.1090146E+03  0.7546771E-02  0.1267087E+00
          2   -1    0    0  503    0 -0.00000000000E+00  0.00000000000E+00  0.28382128094E+03  0.28382128094E+03  0.00000000000E+00 0. -1.
         21   -1    0    0  501  502  0.00000000000E+00 -0.00000000000E+00 -0.20768121772E+03  0.20768121772E+03  0.00000000000E+00 0. -1.
         23    2    1    2    0    0  0.17148504252E+02 -0.70732722725E+02  0.17566822772E+03  0.21092256756E+03  0.91278770898E+02 0.  0.
         24    2    1    2    0    0 -0.50671229038E+02 -0.98721123480E+01 -0.38636739494E+02  0.10249874112E+03  0.79675355274E+02 0.  0.
        -13    1    4    4    0    0  0.16684911441E+02 -0.20331901605E+02 -0.62575220482E+01  0.27035700007E+02  0.00000000000E+00 0.  1.
         14    1    4    4    0    0 -0.67356140479E+02  0.10459789257E+02 -0.32379217446E+02  0.75463041113E+02  0.00000000000E+00 0. -1.
        -11    1    3    3    0    0 -0.16292923722E+02 -0.61509087596E+02  0.51084663601E+02  0.81599448991E+02  0.00000000000E+00 0.  1.
         11    1    3    3    0    0  0.33441427974E+02 -0.92236351291E+01  0.12458356412E+03  0.12932311857E+03  0.00000000000E+00 0. -1.
         21    1    1    2  503  502  0.25450540449E+02  0.22812357805E+02 -0.10142657904E+03  0.10703029764E+03  0.00000000000E+00 0. -1.
          1    1    1    2  501    0  0.80721843371E+01  0.57792477269E+02  0.40535154040E+02  0.71050892337E+02  0.00000000000E+00 0. -1.
<scales pt_clust_5="13000.00000" pt_clust_6="13000.00000" pt_clust_7="13000.00000" pt_clust_8="13000.00000" pt_clust_9="34.17797" pt_clust_10="62.28989"></scales>
<clustering>
<clus scale="   34.178">  2  9  1 -1</clus>
<clus scale="   62.290">  2 10  1 -1</clus>
<clus scale="   79.675">  5  6 -1 -1</clus>
<clus scale="   91.279">  7  8 -1 -1</clus>
<clus scale="   99.501">  2  5  1 -1</clus>
<clus scale="   34.178">  2  5  1 -1</clus>
</clustering>
</event>
<event>
10    4  0.3043429E-005  0.1053888E+03  0.7546771E-02  0.1284833E+00
         21   -1    0    0  501  502  0.00000000000E+00  0.00000000000E+00  0.50147995203E+03  0.50147995203E+03  0.00000000000E+00 0. -1.
          4   -1    0    0  503    0 -0.00000000000E+00 -0.00000000000E+00 -0.71329699469E+02  0.71329699469E+02  0.00000000000E+00 0. -1.
         23    2    1    2    0    0 -0.69188441592E+01  0.31356787888E+02  0.92756408585E+01  0.10975075183E+03  0.10453741657E+03 0.  0.
         24    2    1    2    0    0 -0.31571161423E+02  0.28049451481E+02  0.10936022729E+03  0.14039174994E+03  0.77244250124E+02 0.  0.
        -13    1    4    4    0    0 -0.25471930454E+02 -0.16834291921E+02  0.81937542024E+02  0.87441256958E+02  0.00000000000E+00 0.  1.
         14    1    4    4    0    0 -0.60992309691E+01  0.44883743402E+02  0.27422685268E+02  0.52950492986E+02  0.00000000000E+00 0. -1.
        -11    1    3    3    0    0  0.18014439448E+02  0.51286450123E+02 -0.27612697948E+02  0.60969509452E+02  0.00000000000E+00 0. -1.
         11    1    3    3    0    0 -0.24933283607E+02 -0.19929662235E+02  0.36888338807E+02  0.48781242380E+02  0.00000000000E+00 0.  1.
         21    1    1    2  503  502  0.15049060654E+02 -0.31207240223E+02  0.67094384854E+02  0.75511737815E+02  0.00000000000E+00 0.  1.
          3    1    1    2  501    0  0.23440944928E+02 -0.28198999146E+02  0.24441999956E+03  0.24715541191E+03  0.00000000000E+00 0. -1.
<scales pt_clust_5="13000.00000" pt_clust_6="13000.00000" pt_clust_7="13000.00000" pt_clust_8="13000.00000" pt_clust_9="34.64630" pt_clust_10="56.08261"></scales>
<clustering>
<clus scale="   34.646">  1  9  2 -1</clus>
<clus scale="   56.083">  1 10  2 -1</clus>
<clus scale="   77.244">  5  6 -1 -1</clus>
<clus scale="   78.393">  1  5  2 -1</clus>
<clus scale="  104.537">  7  8 -1 -1</clus>
<clus scale="   34.646">  1  5  2 -1</clus>
</clustering>
</event>
<event>
10    4  0.3043429E-005  0.1345772E+03  0.7546771E-02  0.1234281E+00
         21   -1    0    0  501  502  0.00000000000E+00  0.00000000000E+00  0.12367738028E+03  0.12367738028E+03  0.00000000000E+00 0. -1.
          2   -1    0    0  503    0 -0.00000000000E+00 -0.00000000000E+00 -0.75216244485E+03  0.75216244485E+03  0.00000000000E+00 0. -1.
         23    2    1    2    0    0 -0.19416833926E+02  0.54764797606E+02 -0.19332157959E+03  0.21999850825E+03  0.87463786805E+02 0.  0.
         24    2    1    2    0    0 -0.77944937559E+02 -0.89462196553E+01 -0.38865797115E+03  0.40504500021E+03  0.82770680327E+02 0.  0.
        -13    1    4    4    0    0  0.37685965766E+01  0.24894180986E+02 -0.10144975165E+03  0.10452738721E+03  0.00000000000E+00 0.  1.
         14    1    4    4    0    0 -0.81713534135E+02 -0.33840400641E+02 -0.28720821950E+03  0.30051761300E+03  0.00000000000E+00 0. -1.
        -11    1    3    3    0    0 -0.17598276241E+02  0.75245557437E+02 -0.17892144688E+03  0.19489606818E+03  0.00000000000E+00 0. -1.
         11    1    3    3    0    0 -0.18185576849E+01 -0.20480759831E+02 -0.14400132709E+02  0.25102440068E+02  0.00000000000E+00 0.  1.
         21    1    1    2  503  502 -0.53418122783E+02 -0.72051951811E+02 -0.38307986123E+02  0.97531950674E+02  0.00000000000E+00 0. -1.
          1    1    1    2  501    0  0.15077989427E+03  0.26233373860E+02 -0.81975277065E+01  0.15326436598E+03  0.00000000000E+00 0. -1.
<scales pt_clust_5="13000.00000" pt_clust_6="13000.00000" pt_clust_7="13000.00000" pt_clust_8="13000.00000" pt_clust_9="89.69381" pt_clust_10="106.11329"></scales>
<clustering>
<clus scale="   82.771">  5  6 -1 -1</clus>
<clus scale="   87.464">  7  8 -1 -1</clus>
<clus scale="   89.694">  1  9  2 -1</clus>
<clus scale="  101.799">  2  7  1 -1</clus>
<clus scale="  106.113">  1 10  2 -1</clus>
<clus scale="   89.694">  1  5  2 -1</clus>
</clustering>
</event>
<event>
10    4  0.3043429E-005  0.4233982E+03  0.7546771E-02  0.1035966E+00
         21   -1    0    0  503  502  0.00000000000E+00  0.00000000000E+00  0.63904486440E+03  0.63904486440E+03  0.00000000000E+00 0. -1.
          2   -1    0    0  502    0 -0.00000000000E+00 -0.00000000000E+00 -0.35872701183E+03  0.35872701183E+03  0.00000000000E+00 0. -1.
         24    2    1    2    0    0 -0.77058421776E+02 -0.20381247921E+03  0.19096867809E+02  0.23930074237E+03  0.97070221444E+02 0.  0.
         23    2    1    2    0    0 -0.60637348599E+02 -0.10847182101E+03 -0.57072009957E+02  0.16371080578E+03  0.90005497664E+02 0.  0.
        -13    1    3    3    0    0 -0.49221663219E+02 -0.21129162461E+02  0.41320279588E+00  0.53566634885E+02  0.00000000000E+00 0.  1.
         14    1    3    3    0    0 -0.27836758556E+02 -0.18268331675E+03  0.18683665013E+02  0.18573410749E+03  0.00000000000E+00 0. -1.
        -11    1    4    4    0    0  0.84721875057E+01 -0.20063884915E+02 -0.46069543408E+02  0.50958220817E+02  0.00000000000E+00 0. -1.
         11    1    4    4    0    0 -0.69109536105E+02 -0.88407936100E+02 -0.11002466549E+02  0.11275258496E+03  0.00000000000E+00 0.  1.
         21    1    1    2  503  501 -0.40698157338E+02 -0.63460446264E+02  0.99341852746E+02  0.12470914945E+03  0.00000000000E+00 0. -1.
          1    1    1    2  501    0  0.17839392771E+03  0.37574474649E+03  0.21895114197E+03  0.47005117863E+03  0.00000000000E+00 0. -1.
<scales pt_clust_5="13000.00000" pt_clust_6="13000.00000" pt_clust_7="13000.00000" pt_clust_8="13000.00000" pt_clust_9="75.38944" pt_clust_10="367.11229"></scales>
<clustering>
<clus scale="   75.389">  1  9  2 -1</clus>
<clus scale="   90.005">  7  8 -1 -1</clus>
<clus scale="   97.070">  5  6 -1 -1</clus>
<clus scale="  120.016">  5  7 -1 -1</clus>
<clus scale="  367.112">  1 10  2 -1</clus>
<clus scale="   75.389">  1  5  2 -1</clus>
</clustering>
</event>
<event>
10    4  0.3043429E-005  0.2951430E+03  0.7546771E-02  0.1113823E+00
          2   -1    0    0  503    0 -0.00000000000E+00  0.00000000000E+00  0.18488726038E+04  0.18488726038E+04  0.00000000000E+00 0. -1.
         21   -1    0    0  501  502  0.00000000000E+00 -0.00000000000E+00 -0.88452439300E+02  0.88452439300E+02  0.00000000000E+00 0. -1.
         23    2    1    2    0    0  0.51482346593E+02 -0.10773887472E+03  0.39375108569E+03  0.42141437458E+03  0.91060751608E+02 0.  0.
         24    2    1    2    0    0  0.25917216756E+03  0.15502309083E+03  0.51831488581E+03  0.60533033154E+03  0.81068602418E+02 0.  0.
        -11    1    4    4    0    0  0.30623847886E+02  0.43372689935E+02  0.13733515635E+03  0.14724114731E+03  0.00000000000E+00 0.  1.
         12    1    4    4    0    0  0.22854831968E+03  0.11165040090E+03  0.38097972946E+03  0.45808918423E+03  0.00000000000E+00 0. -1.
        -11    1    3    3    0    0 -0.24393924239E+02 -0.28407103498E+02  0.67500087009E+02  0.77189952812E+02  0.00000000000E+00 0.  1.
         11    1    3    3    0    0  0.75876270832E+02 -0.79331771223E+02  0.32625099868E+03  0.34422442176E+03  0.00000000000E+00 0. -1.
         21    1    1    2  503  502 -0.27018252317E+02 -0.10535940276E+02  0.22806892374E+02  0.36893716749E+02  0.00000000000E+00 0.  1.
          1    1    1    2  501    0 -0.28363626184E+03 -0.36748275836E+02  0.82554730066E+03  0.87368662026E+03  0.00000000000E+00 0. -1.
<scales pt_clust_5="13000.00000" pt_clust_6="13000.00000" pt_clust_7="13000.00000" pt_clust_8="13000.00000" pt_clust_9="28.99986" pt_clust_10="283.79109"></scales>
<clustering>
<clus scale="   29.000">  2  9  1 -1</clus>
<clus scale="   81.069">  5  6 -1 -1</clus>
<clus scale="   91.061">  7  8 -1 -1</clus>
<clus scale="  149.958">  1  7  2 -1</clus>
<clus scale="  283.791">  2 10  1 -1</clus>
<clus scale="   29.000">  2  5  1 -1</clus>
</clustering>
</event>
<event>
10    4  0.3043429E-005  0.1108780E+03  0.7546771E-02  0.1262933E+00
         21   -1    0    0  501  502  0.00000000000E+00  0.00000000000E+00  0.34021719269E+03  0.34021719269E+03  0.00000000000E+00 0.  1.
          2   -1    0    0  503    0 -0.00000000000E+00 -0.00000000000E+00 -0.14450845928E+03  0.14450845928E+03  0.00000000000E+00 0. -1.
         23    2    1    2    0    0 -0.74404349837E+02 -0.48939142794E+02  0.11483311576E+02  0.12780765089E+03  0.90949888450E+02 0.  0.
         24    2    1    2    0    0 -0.49427364703E+02  0.56188996818E+02  0.14608893893E+03  0.18285510809E+03  0.80583774626E+02 0.  0.
        -11    1    4    4    0    0 -0.68673701871E+02  0.57262572983E+02  0.10837015208E+03  0.14049615459E+03  0.00000000000E+00 0.  1.
         12    1    4    4    0    0  0.19246337169E+02 -0.10735761649E+01  0.37718786853E+02  0.42358953503E+02  0.00000000000E+00 0. -1.
        -11    1    3    3    0    0 -0.55918106321E+02 -0.35192276135E+02 -0.35846860622E+02  0.75168665882E+02  0.00000000000E+00 0.  1.
         11    1    3    3    0    0 -0.18486243516E+02 -0.13746866659E+02  0.47330172198E+02  0.52638985007E+02  0.00000000000E+00 0. -1.
         21    1    1    2  503  502  0.44990536514E+02 -0.26215561782E+02  0.69737345547E+02  0.87032760609E+02  0.00000000000E+00 0.  1.
          1    1    1    2  501    0  0.78841178026E+02  0.18965707758E+02 -0.31600862634E+02  0.87030132382E+02  0.00000000000E+00 0. -1.
<scales pt_clust_5="13000.00000" pt_clust_6="13000.00000" pt_clust_7="13000.00000" pt_clust_8="13000.00000" pt_clust_9="52.07114" pt_clust_10="85.15676"></scales>
<clustering>
<clus scale="   52.071">  1  9  2 -1</clus>
<clus scale="   80.584">  5  6 -1 -1</clus>
<clus scale="   85.157">  1 10  2 -1</clus>
<clus scale="   90.950">  7  8 -1 -1</clus>
<clus scale="  102.547">  1  5  2 -1</clus>
<clus scale="   52.071">  1  5  2 -1</clus>
</clustering>
</event>
<event>
10    4  0.3043429E-005  0.1409482E+03  0.7546771E-02  0.1214187E+00
         21   -1    0    0  503  502  0.00000000000E+00  0.00000000000E+00  0.74759126806E+02  0.74759126806E+02  0.00000000000E+00 0. -1.
          2   -1    0    0  502    0 -0.00000000000E+00 -0.00000000000E+00 -0.75695232667E+03  0.75695232667E+03  0.00000000000E+00 0. -1.
         23    2    1    2    0    0 -0.60147324228E+02  0.10481007461E+03 -0.45718982160E+03  0.48146925581E+03  0.90483473479E+02 0.  0.
         24    2    1    2    0    0 -0.57101199690E+01 -0.96935107154E+02 -0.16930930273E+03  0.21110298480E+03  0.80435127470E+02 0.  0.
        -11    1    4    4    0    0  0.34784003514E+02 -0.62229585142E+02 -0.11246680238E+03  0.13315866403E+03  0.00000000000E+00 0.  1.
         12    1    4    4    0    0 -0.40494123483E+02 -0.34705522012E+02 -0.56842500347E+02  0.77944320771E+02  0.00000000000E+00 0. -1.
        -13    1    3    3    0    0 -0.60290033776E+02  0.48842924635E+02 -0.14650545928E+03  0.16578410375E+03  0.00000000000E+00 0.  1.
         13    1    3    3    0    0  0.14270954827E+00  0.55967149975E+02 -0.31068436232E+03  0.31568515206E+03  0.00000000000E+00 0. -1.
         21    1    1    2  503  501  0.44211048744E+01  0.22141922378E+02  0.24789639253E+02  0.33531136414E+02  0.00000000000E+00 0. -1.
          1    1    1    2  501    0  0.61436339323E+02 -0.30016889834E+02 -0.80483714795E+02  0.10560807645E+03  0.00000000000E+00 0. -1.
<scales pt_clust_5="13000.00000" pt_clust_6="13000.00000" pt_clust_7="13000.00000" pt_clust_8="13000.00000" pt_clust_9="22.57899" pt_clust_10="67.06403"></scales>
<clustering>
<clus scale="   22.579">  1  9  2 -1</clus>
<clus scale="   67.064">  1 10  2 -1</clus>
<clus scale="   80.435">  5  6 -1 -1</clus>
<clus scale="   90.483">  7  8 -1 -1</clus>
<clus scale="  134.718">  1  5  2 -1</clus>
<clus scale="   22.579">  1  5  2 -1</clus>
</clustering>
</event>
<event>
10    4  0.3043429E-005  0.3098862E+03  0.7546771E-02  0.1080400E+00
          2   -1    0    0  502    0 -0.00000000000E+00  0.00000000000E+00  0.17234427130E+04  0.17234427130E+04  0.00000000000E+00 0. -1.
         21   -1    0    0  503  502  0.00000000000E+00 -0.00000000000E+00 -0.79815615246E+02  0.79815615246E+02  0.00000000000E+00 0. -1.
         24    2    1    2    0    0  0.11892994650E+03  0.19500494562E+02  0.49781436191E+03  0.52246901282E+03  0.10310251681E+03 0.  0.
         23    2    1    2    0    0  0.14613064140E+03  0.53991800364E+02  0.29989303621E+03  0.34943591353E+03  0.88883888480E+02 0.  0.
        -11    1    3    3    0    0 -0.38595168818E+01  0.32257361089E+02  0.14761293062E+03  0.15114565988E+03  0.00000000000E+00 0.  1.
         12    1    3    3    0    0  0.12278946338E+03 -0.12756866527E+02  0.35020143129E+03  0.37132335295E+03  0.00000000000E+00 0. -1.
        -13    1    4    4    0    0  0.16965977517E+02 -0.21577002014E+02  0.69332095299E+02  0.74567760108E+02  0.00000000000E+00 0.  1.
         13    1    4    4    0    0  0.12916466388E+03  0.75568802378E+02  0.23056094091E+03  0.27486815342E+03  0.00000000000E+00 0. -1.
         21    1    1    2  503  501 -0.83665991340E+02  0.13292731919E+02  0.28220954813E+02  0.89292312767E+02  0.00000000000E+00 0.  1.
          1    1    1    2  501    0 -0.18139459656E+03 -0.86785026845E+02  0.81769874483E+03  0.84206108914E+03  0.00000000000E+00 0. -1.
<scales pt_clust_5="13000.00000" pt_clust_6="13000.00000" pt_clust_7="13000.00000" pt_clust_8="13000.00000" pt_clust_9="84.71538" pt_clust_10="218.64733"></scales>
<clustering>
<clus scale="   84.715">  2  9  1 -1</clus>
<clus scale="   88.884">  7  8 -1 -1</clus>
<clus scale="  103.103">  5  6 -1 -1</clus>
<clus scale="  135.426">  5  7 -1 -1</clus>
<clus scale="  218.647">  2 10  1 -1</clus>
<clus scale="   84.715">  2  5  1 -1</clus>
</clustering>
</event>
<event>
10    4  0.3043429E-005  0.2194408E+03  0.7546771E-02  0.1160552E+00
         21   -1    0    0  503  502  0.00000000000E+00  0.00000000000E+00  0.25186219521E+03  0.25186219521E+03  0.00000000000E+00 0. -1.
          2   -1    0    0  502    0 -0.00000000000E+00 -0.00000000000E+00 -0.56814618276E+03  0.56814618276E+03  0.00000000000E+00 0. -1.
         23    2    1    2    0    0 -0.64000700253E+02  0.23499299503E+02  0.35963904975E+02  0.12065531256E+03  0.92822385648E+02 0.  0.
         24    2    1    2    0    0  0.10309760963E+03 -0.23082855619E+03 -0.37220089575E+03  0.45669273788E+03  0.78254779882E+02 0.  0.
        -11    1    4    4    0    0  0.98073108316E+02 -0.16907470519E+03 -0.23167026022E+03  0.30311004599E+03  0.00000000000E+00 0.  1.
         12    1    4    4    0    0  0.50245013143E+01 -0.61753850997E+02 -0.14053063553E+03  0.15358269189E+03  0.00000000000E+00 0. -1.
        -11    1    3    3    0    0  0.12342487356E+02  0.31835092382E+02 -0.34805255431E+01  0.34320899743E+02  0.00000000000E+00 0.  1.
         11    1    3    3    0    0 -0.76343187609E+02 -0.83357928789E+01  0.39444430519E+02  0.86334412815E+02  0.00000000000E+00 0. -1.
         21    1    1    2  503  501  0.34900331672E+01  0.30354814965E+02  0.49579723528E+02  0.58238682232E+02  0.00000000000E+00 0.  1.
          1    1    1    2  501    0 -0.42586942544E+02  0.17697444172E+03 -0.29626720309E+02  0.18442164530E+03  0.00000000000E+00 0. -1.
<scales pt_clust_5="13000.00000" pt_clust_6="13000.00000" pt_clust_7="13000.00000" pt_clust_8="13000.00000" pt_clust_9="30.55479" pt_clust_10="205.01326"></scales>
<clustering>
<clus scale="   30.555">  1  9  2 -1</clus>
<clus scale="   78.255">  5  6 -1 -1</clus>
<clus scale="   92.822">  7  8 -1 -1</clus>
<clus scale="  117.465">  2  7  1 -1</clus>
<clus scale="  205.013">  1 10  2 -1</clus>
<clus scale="   30.555">  1  5  2 -1</clus>
</clustering>
</event>
<event>
10    4  0.3043429E-005  0.1844637E+03  0.7546771E-02  0.1200449E+00
          2   -1    0    0  503    0 -0.00000000000E+00  0.00000000000E+00  0.14461952293E+04  0.14461952293E+04  0.00000000000E+00 0. -1.
         21   -1    0    0  501  502  0.00000000000E+00 -0.00000000000E+00 -0.42781280759E+02  0.42781280759E+02  0.00000000000E+00 0. -1.
         24    2    1    2    0    0 -0.29240379845E+01  0.16530479754E+02  0.16636095648E+03  0.18531919051E+03  0.79908871684E+02 0.  0.
         23    2    1    2    0    0  0.14353962554E+03 -0.43161973679E+02  0.70750980130E+03  0.72911781999E+03  0.92607215783E+02 0.  0.
        -11    1    3    3    0    0  0.29770534518E+02  0.15380135012E+02  0.13803955219E+03  0.14204841164E+03  0.00000000000E+00 0.  1.
         12    1    3    3    0    0 -0.32694572503E+02  0.11503447420E+01  0.28321404284E+02  0.43270778879E+02  0.00000000000E+00 0. -1.
        -13    1    4    4    0    0  0.20637158051E+02  0.25971138264E+02  0.18306686224E+03  0.18604802704E+03  0.00000000000E+00 0.  1.
         13    1    4    4    0    0  0.12290246748E+03 -0.69133111942E+02  0.52444293906E+03  0.54306979295E+03  0.00000000000E+00 0. -1.
         21    1    1    2  503  502  0.24382436004E+02 -0.21588431594E+02  0.23675591852E+02  0.40262851535E+02  0.00000000000E+00 0. -1.
          1    1    1    2  501    0 -0.16499802356E+03  0.48219925519E+02  0.50586759891E+03  0.53427664803E+03  0.00000000000E+00 0. -1.
<scales pt_clust_5="13000.00000" pt_clust_6="13000.00000" pt_clust_7="13000.00000" pt_clust_8="13000.00000" pt_clust_9="32.56629" pt_clust_10="159.53296"></scales>
<clustering>
<clus scale="   32.566">  2  9  1 -1</clus>
<clus scale="   79.909">  5  6 -1 -1</clus>
<clus scale="   80.697">  1  5  2 -1</clus>
<clus scale="   92.607">  7  8 -1 -1</clus>
<clus scale="  159.533">  2 10  1 -1</clus>
<clus scale="   32.566">  2  5  1 -1</clus>
</clustering>
</event>
<event>
10    4  0.3043429E-005  0.1553424E+03  0.7546771E-02  0.1197867E+00
         21   -1    0    0  503  502  0.00000000000E+00  0.00000000000E+00  0.11515589994E+03  0.11515589994E+03  0.00000000000E+00 0. -1.
          2   -1    0    0  502    0 -0.00000000000E+00 -0.00000000000E+00 -0.78385451475E+03  0.78385451475E+03  0.00000000000E+00 0. -1.
         23    2    1    2    0    0  0.69077224002E+02  0.33059278998E+02 -0.19161665704E+03  0.22926098775E+03  0.99895337460E+02 0.  0.
         24    2    1    2    0    0 -0.74036453366E+02 -0.16681581672E+03 -0.43406238499E+03  0.47748752088E+03  0.79216572776E+02 0.  0.
        -13    1    4    4    0    0 -0.52834955558E+02 -0.54125465950E+02 -0.24459486775E+03  0.25602294414E+03  0.00000000000E+00 0.  1.
         14    1    4    4    0    0 -0.21201497808E+02 -0.11269035077E+03 -0.18946751723E+03  0.22146457675E+03  0.00000000000E+00 0. -1.
        -11    1    3    3    0    0  0.43935748531E+02 -0.25714985835E+02 -0.13345851463E+03  0.14283831987E+03  0.00000000000E+00 0.  1.
         11    1    3    3    0    0  0.25141475471E+02  0.58774264833E+02 -0.58158142408E+02  0.86422667882E+02  0.00000000000E+00 0. -1.
         21    1    1    2  503  501  0.37252799485E+00  0.37527842808E+02  0.47181589777E+02  0.60287479436E+02  0.00000000000E+00 0. -1.
          1    1    1    2  501    0  0.45867013692E+01  0.96228694918E+02 -0.90201162552E+02  0.13197442662E+03  0.00000000000E+00 0. -1.
<scales pt_clust_5="13000.00000" pt_clust_6="13000.00000" pt_clust_7="13000.00000" pt_clust_8="13000.00000" pt_clust_9="37.52969" pt_clust_10="109.09209"></scales>
<clustering>
<clus scale="   37.530">  1  9  2 -1</clus>
<clus scale="   79.217">  5  6 -1 -1</clus>
<clus scale="   99.895">  7  8 -1 -1</clus>
<clus scale="  109.092">  1 10  2 -1</clus>
<clus scale="  142.925">  1  5  2 -1</clus>
<clus scale="   37.530">  1  5  2 -1</clus>
</clustering>
</event>
<event>
10    4  0.3043429E-005  0.1392308E+03  0.7546771E-02  0.1216849E+00
         21   -1    0    0  501  502  0.00000000000E+00  0.00000000000E+00  0.35295292238E+03  0.35295292238E+03  0.00000000000E+00 0. -1.
          2   -1    0    0  503    0 -0.00000000000E+00 -0.00000000000E+00 -0.54194678968E+03  0.54194678968E+03  0.00000000000E+00 0. -1.
         24    2    1    2    0    0  0.10047719104E+03  0.41771100699E+02 -0.26395640199E+03  0.29646532640E+03  0.79863739187E+02 0.  0.
         23    2    1    2    0    0 -0.11068780574E+03  0.34568413184E+02 -0.22760096332E+03  0.27121792778E+03  0.91160300111E+02 0.  0.
        -11    1    3    3    0    0  0.28071034946E+02 -0.18125298450E+02 -0.11990639397E+03  0.12447510901E+03  0.00000000000E+00 0.  1.
         12    1    3    3    0    0  0.72406156095E+02  0.59896399149E+02 -0.14405000802E+03  0.17199021740E+03  0.00000000000E+00 0. -1.
        -11    1    4    4    0    0 -0.17437389593E+02  0.25235199515E+02 -0.68949976726E+01  0.31439129175E+02  0.00000000000E+00 0.  1.
         11    1    4    4    0    0 -0.93250416151E+02  0.93332136692E+01 -0.22070596565E+03  0.23977879861E+03  0.00000000000E+00 0. -1.
         21    1    1    2  503  502  0.65422208920E+00  0.20754920222E+02  0.22367089959E+02  0.30520180753E+02  0.00000000000E+00 0.  1.
          1    1    1    2  501    0  0.95563926135E+01 -0.97094434106E+02  0.28019640805E+03  0.29669627712E+03  0.00000000000E+00 0. -1.
<scales pt_clust_5="13000.00000" pt_clust_6="13000.00000" pt_clust_7="13000.00000" pt_clust_8="13000.00000" pt_clust_9="20.76523" pt_clust_10="79.40837"></scales>
<clustering>
<clus scale="   20.765">  1  9  2 -1</clus>
<clus scale="   79.408">  1 10  2 -1</clus>
<clus scale="   79.864">  5  6 -1 -1</clus>
<clus scale="   91.160">  7  8 -1 -1</clus>
<clus scale="  132.111">  2  5  1 -1</clus>
<clus scale="   20.765">  1  5  2 -1</clus>
</clustering>
</event>
<event>
10    4  0.3043429E-005  0.1378585E+03  0.7546771E-02  0.1238284E+00
         21   -1    0    0  501  502  0.00000000000E+00  0.00000000000E+00  0.34011200621E+03  0.34011200621E+03  0.00000000000E+00 0. -1.
          2   -1    0    0  503    0 -0.00000000000E+00 -0.00000000000E+00 -0.16857650426E+03  0.16857650426E+03  0.00000000000E+00 0. -1.
         24    2    1    2    0    0  0.23085877810E+02  0.25838965849E+02  0.91579494343E+02  0.12649753311E+03  0.80088776912E+02 0.  0.
         23    2    1    2    0    0 -0.65375657837E+02 -0.58349306444E+02  0.10526792807E+02  0.12627924864E+03  0.90316206017E+02 0.  0.
        -13    1    3    3    0    0  0.42131062112E+02  0.10502344712E+01  0.84528358046E+02  0.94451959752E+02  0.00000000000E+00 0.  1.
         14    1    3    3    0    0 -0.19045184303E+02  0.24788731378E+02  0.70511362974E+01  0.32045573353E+02  0.00000000000E+00 0. -1.
        -11    1    4    4    0    0  0.11993444077E+02 -0.23532690314E+02 -0.23029047994E+02  0.35042363872E+02  0.00000000000E+00 0.  1.
         11    1    4    4    0    0 -0.77369101914E+02 -0.34816616130E+02  0.33555840801E+02  0.91236884765E+02  0.00000000000E+00 0. -1.
         21    1    1    2  503  502  0.13903062602E+03  0.28266526296E+02  0.71884280876E+02  0.15904672683E+03  0.00000000000E+00 0. -1.
          1    1    1    2  501    0 -0.96740845990E+02  0.42438142986E+01 -0.24550660781E+01  0.96865001895E+02  0.00000000000E+00 0. -1.
<scales pt_clust_5="13000.00000" pt_clust_6="13000.00000" pt_clust_7="13000.00000" pt_clust_8="13000.00000" pt_clust_9="104.15343" pt_clust_10="90.05939"></scales>
<clustering>
<clus scale="   80.089">  5  6 -1 -1</clus>
<clus scale="   87.263">  2  5  1 -1</clus>
<clus scale="   90.059">  1 10  2 -1</clus>
<clus scale="   90.316">  7  8 -1 -1</clus>
<clus scale="  104.153">  1  9  2 -1</clus>
<clus scale="   90.059">  1  5  2 -1</clus>
</clustering>
</event>
<event>
10    4  0.3043429E-005  0.2015864E+03  0.7546771E-02  0.1149607E+00
          2   -1    0    0  503    0 -0.00000000000E+00  0.00000000000E+00  0.25654362729E+04  0.25654362729E+04  0.00000000000E+00 0. -1.
         21   -1    0    0  501  502  0.00000000000E+00 -0.00000000000E+00 -0.28493145953E+02  0.28493145953E+02  0.00000000000E+00 0. -1.
         24    2    1    2    0    0 -0.92475117700E+02  0.15933471757E+03  0.10490742201E+04  0.10681744741E+04  0.80627465328E+02 0.  0.
         23    2    1    2    0    0  0.14447450737E+03 -0.10752550947E+03  0.95385804078E+03  0.97520817397E+03  0.93547860169E+02 0.  0.
        -13    1    3    3    0    0 -0.14543199976E+02  0.10363812361E+03  0.59060145920E+03  0.59980200811E+03  0.00000000000E+00 0.  1.
         14    1    3    3    0    0 -0.77931917724E+02  0.55696593961E+02  0.45847276089E+03  0.46837246595E+03  0.00000000000E+00 0. -1.
        -13    1    4    4    0    0  0.51348609465E+02  0.10379578526E+02  0.27087176244E+03  0.27589115070E+03  0.00000000000E+00 0. -1.
         13    1    4    4    0    0  0.93125897909E+02 -0.11790508799E+03  0.68298627834E+03  0.69931702327E+03  0.00000000000E+00 0.  1.
         21    1    1    2  503  502 -0.62838476919E+01  0.24055225451E+02  0.30715420231E+02  0.39516802164E+02  0.00000000000E+00 0. -1.
          1    1    1    2  501    0 -0.45715541983E+02 -0.75864433557E+02  0.50329544585E+03  0.51102996866E+03  0.00000000000E+00 0. -1.
<scales pt_clust_5="13000.00000" pt_clust_6="13000.00000" pt_clust_7="13000.00000" pt_clust_8="13000.00000" pt_clust_9="24.86243" pt_clust_10="85.83480"></scales>
<clustering>
<clus scale="   24.862">  2  9  1 -1</clus>
<clus scale="   80.627">  5  6 -1 -1</clus>
<clus scale="   85.835">  2 10  1 -1</clus>
<clus scale="   93.548">  7  8 -1 -1</clus>
<clus scale="  195.925">  1  5  2 -1</clus>
<clus scale="   24.862">  2  5  1 -1</clus>
</clustering>
</event>
<event>
10    4  0.3043429E-005  0.1753880E+03  0.7546771E-02  0.1173646E+00
         21   -1    0    0  501  502  0.00000000000E+00  0.00000000000E+00  0.11653526107E+03  0.11653526107E+03  0.00000000000E+00 0. -1.
          2   -1    0    0  503    0 -0.00000000000E+00 -0.00000000000E+00 -0.12650236888E+04  0.12650236888E+04  0.00000000000E+00 0. -1.
         24    2    1    2    0    0  0.13936561867E+03  0.74238074931E+02 -0.11314657099E+04  0.11451505484E+04  0.78873686822E+02 0.  0.
         23    2    1    2    0    0 -0.82332007310E+02 -0.20509786384E+02  0.98921615873E+01  0.12365270523E+03  0.89403164841E+02 0.  0.
        -13    1    3    3    0    0  0.48948736193E+02  0.59215923846E+02 -0.35029415422E+03  0.35862027117E+03  0.00000000000E+00 0.  1.
         14    1    3    3    0    0  0.90416882480E+02  0.15022151086E+02 -0.78117155568E+03  0.78653027727E+03  0.00000000000E+00 0. -1.
        -13    1    4    4    0    0 -0.73184754383E+02  0.40131117001E+01  0.40210043665E+02  0.83600005689E+02  0.00000000000E+00 0. -1.
         13    1    4    4    0    0 -0.91472529271E+01 -0.24522898084E+02 -0.30317882078E+02  0.40052699537E+02  0.00000000000E+00 0.  1.
         21    1    1    2  503  502  0.19168178050E+02 -0.11826274804E+02 -0.61792773015E+01  0.23355155608E+02  0.00000000000E+00 0. -1.
          1    1    1    2  501    0 -0.76201789414E+02 -0.41902013744E+02 -0.20735602141E+02  0.89400540613E+02  0.00000000000E+00 0. -1.
<scales pt_clust_5="13000.00000" pt_clust_6="13000.00000" pt_clust_7="13000.00000" pt_clust_8="13000.00000" pt_clust_9="22.52287" pt_clust_10="83.66544"></scales>
<clustering>
<clus scale="   22.523">  1  9  2 -1</clus>
<clus scale="   78.874">  5  6 -1 -1</clus>
<clus scale="   83.665">  1 10  2 -1</clus>
<clus scale="   89.403">  7  8 -1 -1</clus>
<clus scale="  170.262">  2  5  1 -1</clus>
<clus scale="   22.523">  1  5  2 -1</clus>
</clustering>
</event>
<event>
10    4  0.3043429E-005  0.1109114E+03  0.7546771E-02  0.1262576E+00
         -1   -1    0    0    0  501 -0.00000000000E+00  0.00000000000E+00  0.29393542070E+03  0.29393542070E+03  0.00000000000E+00 0.  1.
         21   -1    0    0  503  502  0.00000000000E+00 -0.00000000000E+00 -0.11619753933E+03  0.11619753933E+03  0.00000000000E+00 0. -1.
         23    2    1    2    0    0 -0.15809065578E+02  0.63609916693E+02  0.16913343658E+03  0.20228711359E+03  0.89542218520E+02 0.  0.
         24    2    1    2    0    0 -0.21234838222E+02 -0.69623190472E+02  0.10647390636E+02  0.10850143092E+03  0.79755166468E+02 0.  0.
        -11    1    4    4    0    0  0.15572119576E+02 -0.23693571744E+02  0.34793610237E+02  0.44882864919E+02  0.00000000000E+00 0.  1.
         12    1    4    4    0    0 -0.36806957798E+02 -0.45929618728E+02 -0.24146219600E+02  0.63618565999E+02  0.00000000000E+00 0. -1.
        -13    1    3    3    0    0  0.36846756914E+02  0.18000774777E+02  0.55640521728E+02  0.69120033607E+02  0.00000000000E+00 0.  1.
         13    1    3    3    0    0 -0.52655822492E+02  0.45609141916E+02  0.11349291485E+03  0.13316707998E+03  0.00000000000E+00 0. -1.
         21    1    1    2  503  501 -0.22536676336E+02 -0.86615306676E+01 -0.24124630380E+02  0.34130949075E+02  0.00000000000E+00 0. -1.
         -2    1    1    2    0  502  0.59580580136E+02  0.14674804446E+02  0.22081684531E+02  0.65213466451E+02  0.00000000000E+00 0.  1.
<scales pt_clust_5="13000.00000" pt_clust_6="13000.00000" pt_clust_7="13000.00000" pt_clust_8="13000.00000" pt_clust_9="24.14382" pt_clust_10="55.43315"></scales>
<clustering>
<clus scale="   24.144">  2  9  1 -1</clus>
<clus scale="   55.433">  2 10  1 -1</clus>
<clus scale="   79.755">  5  6 -1 -1</clus>
<clus scale="   89.542">  7  8 -1 -1</clus>
<clus scale="  103.172">  2  5  1 -1</clus>
<clus scale="   24.144">  2  5  1 -1</clus>
</clustering>
</event>
<event>
10    4  0.3043429E-005  0.1750204E+03  0.7546771E-02  0.1205481E+00
         -3   -1    0    0    0  501 -0.00000000000E+00  0.00000000000E+00  0.20485897346E+03  0.20485897346E+03  0.00000000000E+00 0.  1.
         21   -1    0    0  501  502  0.00000000000E+00 -0.00000000000E+00 -0.12556805261E+04  0.12556805261E+04  0.00000000000E+00 0. -1.
         24    2    1    2    0    0  0.23126262973E+02 -0.16579508680E+02  0.14266444812E+03  0.16608117193E+03  0.80125568731E+02 0.  0.
         23    2    1    2    0    0 -0.10563866630E+03  0.10779079877E+03 -0.21167214978E+03  0.27581371743E+03  0.92139696187E+02 0.  0.
        -11    1    3    3    0    0  0.26720404040E+02  0.28197335219E+02  0.80522284810E+02  0.89403065141E+02  0.00000000000E+00 0.  1.
         12    1    3    3    0    0 -0.35941410673E+01 -0.44776843899E+02  0.62142163307E+02  0.76678106784E+02  0.00000000000E+00 0. -1.
        -11    1    4    4    0    0 -0.11324129341E+03  0.86818558538E+02 -0.13674642994E+03  0.19763764505E+03  0.00000000000E+00 0. -1.
         11    1    4    4    0    0  0.76026271112E+01  0.20972240235E+02 -0.74925719840E+02  0.78176072381E+02  0.00000000000E+00 0.  1.
         21    1    1    2  503  502 -0.47592038605E+02  0.56890040816E+02 -0.28286756077E+03  0.29243039483E+03  0.00000000000E+00 0. -1.
         -4    1    1    2    0  503  0.13010444193E+03 -0.14810133091E+03 -0.69894629019E+03  0.72621421536E+03  0.00000000000E+00 0.  1.
<scales pt_clust_5="13000.00000" pt_clust_6="13000.00000" pt_clust_7="13000.00000" pt_clust_8="13000.00000" pt_clust_9="74.17195" pt_clust_10="148.80327"></scales>
<clustering>
<clus scale="   74.172">  2  9  1 -1</clus>
<clus scale="   80.126">  5  6 -1 -1</clus>
<clus scale="   84.742">  1  5  2 -1</clus>
<clus scale="   92.140">  7  8 -1 -1</clus>
<clus scale="  148.803">  2 10  1 -1</clus>
<clus scale="   74.172">  2  5  1 -1</clus>
</clustering>
</event>
<event>
10    4  0.3043429E-005  0.9415557E+02  0.7546771E-02  0.1301496E+00
         21   -1    0    0  501  502  0.00000000000E+00  0.00000000000E+00  0.11235902593E+03  0.11235902593E+03  0.00000000000E+00 0. -1.
          2   -1    0    0  503    0 -0.00000000000E+00 -0.00000000000E+00 -0.58129258007E+03  0.58129258007E+03  0.00000000000E+00 0. -1.
         24    2    1    2    0    0 -0.26810244559E+01 -0.12484388097E+01 -0.35210375436E+03  0.36105743085E+03  0.79854042145E+02 0.  0.
         23    2    1    2    0    0  0.79545502280E+02  0.45736483837E+02 -0.47177657849E+02  0.13925968157E+03  0.93531890947E+02 0.  0.
        -11    1    3    3    0    0 -0.49609463640E+01 -0.31090371429E+02 -0.63202305049E+02  0.70609868630E+02  0.00000000000E+00 0.  1.
         12    1    3    3    0    0  0.22799219081E+01  0.29841932619E+02 -0.28890144931E+03  0.29044756222E+03  0.00000000000E+00 0. -1.
        -11    1    4    4    0    0  0.64250606299E+02  0.12888199348E+02 -0.70433976419E+02  0.96203903904E+02  0.00000000000E+00 0.  1.
         11    1    4    4    0    0  0.15294895981E+02  0.32848284489E+02  0.23256318570E+02  0.43055777665E+02  0.00000000000E+00 0. -1.
         21    1    1    2  503  502 -0.41548359563E+02  0.18699464767E+02  0.40876664687E+02  0.61211419530E+02  0.00000000000E+00 0. -1.
          1    1    1    2  501    0 -0.35316118261E+02 -0.63187509794E+02 -0.11052880663E+03  0.13212307405E+03  0.00000000000E+00 0. -1.
<scales pt_clust_5="13000.00000" pt_clust_6="13000.00000" pt_clust_7="13000.00000" pt_clust_8="13000.00000" pt_clust_9="45.56244" pt_clust_10="73.51806"></scales>
<clustering>
<clus scale="   45.562">  1  9  2 -1</clus>
<clus scale="   73.518">  1 10  2 -1</clus>
<clus scale="   79.854">  5  6 -1 -1</clus>
<clus scale="   80.584">  2  5  1 -1</clus>
<clus scale="   93.532">  7  8 -1 -1</clus>
<clus scale="   45.562">  1  5  2 -1</clus>
</clustering>
</event>
<event>
10    4  0.3043429E-005  0.3247114E+03  0.7546771E-02  0.1073847E+00
         21   -1    0    0  501  502  0.00000000000E+00  0.00000000000E+00  0.27041261993E+03  0.27041261993E+03  0.00000000000E+00 0.  1.
          2   -1    0    0  503    0 -0.00000000000E+00 -0.00000000000E+00 -0.22395243915E+04  0.22395243915E+04  0.00000000000E+00 0. -1.
         24    2    1    2    0    0 -0.21147157942E+03  0.18749944236E+03 -0.52650508693E+03  0.60287931856E+03  0.79872375655E+02 0.  0.
         23    2    1    2    0    0  0.19179031031E+02 -0.53931550259E+03 -0.36049914894E+03  0.65539138741E+03  0.91373889802E+02 0.  0.
        -11    1    3    3    0    0 -0.12562530075E+03  0.58385456985E+02 -0.24002941104E+03  0.27713660159E+03  0.00000000000E+00 0.  1.
         12    1    3    3    0    0 -0.85846278669E+02  0.12911398538E+03 -0.28647567589E+03  0.32574271697E+03  0.00000000000E+00 0. -1.
        -11    1    4    4    0    0  0.39284662073E+02 -0.98326838940E+02 -0.68480967572E+02  0.12609954342E+03  0.00000000000E+00 0.  1.
         11    1    4    4    0    0 -0.20105631042E+02 -0.44098866365E+03 -0.29201818137E+03  0.52929184400E+03  0.00000000000E+00 0. -1.
         21    1    1    2  503  502  0.93749690530E+02  0.20824299843E+03 -0.91747552819E+02  0.24611331601E+03  0.00000000000E+00 0. -1.
          1    1    1    2  501    0  0.98542857857E+02  0.14357306180E+03 -0.99035998291E+03  0.10055529895E+04  0.00000000000E+00 0. -1.
<scales pt_clust_5="13000.00000" pt_clust_6="13000.00000" pt_clust_7="13000.00000" pt_clust_8="13000.00000" pt_clust_9="278.84828" pt_clust_10="174.13773"></scales>
<clustering>
<clus scale="   79.872">  5  6 -1 -1</clus>
<clus scale="   91.374">  7  8 -1 -1</clus>
<clus scale="  174.138">  1 10  2 -1</clus>
<clus scale="  278.848">  1  9  2 -1</clus>
<clus scale="  321.664">  2  5  1 -1</clus>
<clus scale="  174.138">  1  5  2 -1</clus>
</clustering>
</event>
<event>
10    4  0.3043429E-005  0.1027653E+03  0.7546771E-02  0.1281079E+00
         21   -1    0    0  503  502  0.00000000000E+00  0.00000000000E+00  0.20079884344E+03  0.20079884344E+03  0.00000000000E+00 0.  1.
         -1   -1    0    0    0  501 -0.00000000000E+00 -0.00000000000E+00 -0.22713829322E+03  0.22713829322E+03  0.00000000000E+00 0.  1.
         23    2    1    2    0    0  0.24128034546E+02 -0.47234481352E+02 -0.81954588759E+02  0.13441015504E+03  0.92391974111E+02 0.  0.
         24    2    1    2    0    0  0.45559491403E+02  0.23753052374E+02  0.11177830602E+03  0.14611985068E+03  0.78846346221E+02 0.  0.
        -11    1    4    4    0    0  0.74778906043E+01 -0.19731650867E+02  0.74281308980E+02  0.77220267791E+02  0.00000000000E+00 0.  1.
         12    1    4    4    0    0  0.38081600799E+02  0.43484703241E+02  0.37496997036E+02  0.68899582888E+02  0.00000000000E+00 0. -1.
        -13    1    3    3    0    0  0.44754214497E+02 -0.64314048878E+02 -0.70059899820E+02  0.10510768840E+03  0.00000000000E+00 0.  1.
         13    1    3    3    0    0 -0.20626179951E+02  0.17079567526E+02 -0.11894688939E+02  0.29302466640E+02  0.00000000000E+00 0. -1.
         21    1    1    2  503  501  0.81473980374E+01 -0.27030375285E+02  0.13582329539E+02  0.31328915694E+02  0.00000000000E+00 0. -1.
         -2    1    1    2    0  502 -0.77834923986E+02  0.50511804264E+02 -0.69745496581E+02  0.11607821525E+03  0.00000000000E+00 0.  1.
<scales pt_clust_5="13000.00000" pt_clust_6="13000.00000" pt_clust_7="13000.00000" pt_clust_8="13000.00000" pt_clust_9="28.23157" pt_clust_10="90.02062"></scales>
<clustering>
<clus scale="   28.232">  1  9  2 -1</clus>
<clus scale="   78.846">  5  6 -1 -1</clus>
<clus scale="   90.021">  1 10  2 -1</clus>
<clus scale="   90.781">  1  5  2 -1</clus>
<clus scale="   92.392">  7  8 -1 -1</clus>
<clus scale="   28.232">  1  5  2 -1</clus>
</clustering>
</event>
<event>
10    4  0.3043429E-005  0.1217689E+03  0.7546771E-02  0.1246348E+00
         21   -1    0    0  501  502  0.00000000000E+00  0.00000000000E+00  0.10564124288E+03  0.10564124288E+03  0.00000000000E+00 0.  1.
          2   -1    0    0  503    0 -0.00000000000E+00 -0.00000000000E+00 -0.35491875772E+03  0.35491875772E+03  0.00000000000E+00 0. -1.
         23    2    1    2    0    0  0.22563241140E+02  0.68761924793E+02 -0.63904958675E+02  0.13798983251E+03  0.98590303685E+02 0.  0.
         24    2    1    2    0    0  0.13972666785E+02 -0.69910100806E+02 -0.20757807276E+02  0.10943418907E+03  0.80388416844E+02 0.  0.
        -11    1    4    4    0    0  0.45284960976E+02 -0.58742533229E+02 -0.13100708291E+02  0.75319595448E+02  0.00000000000E+00 0.  1.
         12    1    4    4    0    0 -0.31312294191E+02 -0.11167567577E+02 -0.76570989847E+01  0.34114593621E+02  0.00000000000E+00 0. -1.
        -11    1    3    3    0    0 -0.21578490329E+02  0.47334747427E+02 -0.71412530858E+02  0.88351339109E+02  0.00000000000E+00 0. -1.
         11    1    3    3    0    0  0.44141731469E+02  0.21427177366E+02  0.75075721828E+01  0.49638493400E+02  0.00000000000E+00 0.  1.
         21    1    1    2  503  502 -0.56913448308E+02  0.42858822665E+02 -0.43613541501E+02  0.83535383406E+02  0.00000000000E+00 0.  1.
          1    1    1    2  501    0  0.20377540383E+02 -0.41710646652E+02 -0.12100120739E+03  0.12960059562E+03  0.00000000000E+00 0. -1.
<scales pt_clust_5="13000.00000" pt_clust_6="13000.00000" pt_clust_7="13000.00000" pt_clust_8="13000.00000" pt_clust_9="63.23397" pt_clust_10="46.42224"></scales>
<clustering>
<clus scale="   46.422">  1 10  2 -1</clus>
<clus scale="   63.234">  2  9  1 -1</clus>
<clus scale="   80.388">  5  6 -1 -1</clus>
<clus scale="   98.590">  7  8 -1 -1</clus>
<clus scale="  107.564">  1  5  2 -1</clus>
<clus scale="   46.422">  1  5  2 -1</clus>
</clustering>
</event>
<event>
10    4  0.3043429E-005  0.3083378E+03  0.7546771E-02  0.1103321E+00
         21   -1    0    0  501  502  0.00000000000E+00  0.00000000000E+00  0.34803693390E+03  0.34803693390E+03  0.00000000000E+00 0. -1.
          2   -1    0    0  503    0 -0.00000000000E+00 -0.00000000000E+00 -0.12175424262E+04  0.12175424262E+04  0.00000000000E+00 0. -1.
         24    2    1    2    0    0  0.14091995409E+03  0.49191513898E+01 -0.13235252006E+01  0.16665395855E+03  0.88820935992E+02 0.  0.
         23    2    1    2    0    0 -0.30377199670E+03  0.23093041417E+03 -0.98062003425E+03  0.10561700377E+04  0.90957214490E+02 0.  0.
        -13    1    3    3    0    0  0.29180480351E+02 -0.95692239098E+01 -0.37355455910E+02  0.48358045514E+02  0.00000000000E+00 0.  1.
         14    1    3    3    0    0  0.11173947374E+03  0.14488375300E+02  0.36031930709E+02  0.11829591303E+03  0.00000000000E+00 0. -1.
        -11    1    4    4    0    0 -0.19559832061E+03  0.10658812844E+03 -0.64255262734E+03  0.68006882817E+03  0.00000000000E+00 0.  1.
         11    1    4    4    0    0 -0.10817367609E+03  0.12434228573E+03 -0.33806740691E+03  0.37610120956E+03  0.00000000000E+00 0. -1.
         21    1    1    2  503  502  0.22730730651E+02  0.17147758313E+02  0.31442801745E+02  0.42419117301E+02  0.00000000000E+00 0.  1.
          1    1    1    2  501    0  0.14012131196E+03 -0.25299732387E+03  0.80995265412E+02  0.30033624652E+03  0.00000000000E+00 0. -1.
<scales pt_clust_5="13000.00000" pt_clust_6="13000.00000" pt_clust_7="13000.00000" pt_clust_8="13000.00000" pt_clust_9="28.47335" pt_clust_10="294.61664"></scales>
<clustering>
<clus scale="   28.473">  1  9  2 -1</clus>
<clus scale="   88.821">  5  6 -1 -1</clus>
<clus scale="   90.957">  7  8 -1 -1</clus>
<clus scale="  171.977">  2  5  1 -1</clus>
<clus scale="  294.617">  1 10  2 -1</clus>
<clus scale="   28.473">  1  5  2 -1</clus>
</clustering>
</event>
<event>
10    4  0.3043429E-005  0.3476448E+03  0.7546771E-02  0.1063773E+00
          2   -1    0    0  503    0 -0.00000000000E+00  0.00000000000E+00  0.14612872691E+04  0.14612872691E+04  0.00000000000E+00 0. -1.
         21   -1    0    0  501  502  0.00000000000E+00 -0.00000000000E+00 -0.28074990982E+03  0.28074990982E+03  0.00000000000E+00 0.  1.
         24    2    1    2    0    0 -0.21513927492E+03 -0.32501735317E+03  0.71951224737E+03  0.82270008209E+03  0.84949181720E+02 0.  0.
         23    2    1    2    0    0  0.23301498360E+03  0.15924955280E+03  0.28920526115E+03  0.41444119029E+03  0.92007687125E+02 0.  0.
        -11    1    3    3    0    0 -0.90216891373E+02 -0.67732771674E+02  0.19536349142E+03  0.22559634223E+03  0.00000000000E+00 0.  1.
         12    1    3    3    0    0 -0.12492238355E+03 -0.25728458150E+03  0.52414875596E+03  0.59710373986E+03  0.00000000000E+00 0. -1.
        -11    1    4    4    0    0  0.92117252605E+02  0.81395850694E+02  0.66837075848E+02  0.13992164752E+03  0.00000000000E+00 0. -1.
         11    1    4    4    0    0  0.14089773099E+03  0.77853702107E+02  0.22236818530E+03  0.27451954277E+03  0.00000000000E+00 0.  1.
         21    1    1    2  503  502  0.60511335080E+01  0.30253700464E+02 -0.15092098828E+03  0.15404235557E+03  0.00000000000E+00 0.  1.
          1    1    1    2  501    0 -0.23926842185E+02  0.13551409990E+03  0.32274083906E+03  0.35085355099E+03  0.00000000000E+00 0. -1.
<scales pt_clust_5="13000.00000" pt_clust_6="13000.00000" pt_clust_7="13000.00000" pt_clust_8="13000.00000" pt_clust_9="30.85292" pt_clust_10="140.76520"></scales>
<clustering>
<clus scale="   30.853">  2  9  1 -1</clus>
<clus scale="   84.949">  5  6 -1 -1</clus>
<clus scale="   92.008">  7  8 -1 -1</clus>
<clus scale="  140.765">  2 10  1 -1</clus>
<clus scale="  345.844">  1  5  2 -1</clus>
<clus scale="   30.853">  2  5  1 -1</clus>
</clustering>
</event>
<event>
10    4  0.3043429E-005  0.2213936E+03  0.7546771E-02  0.1134267E+00
          2   -1    0    0  503    0 -0.00000000000E+00  0.00000000000E+00  0.14857033711E+04  0.14857033711E+04  0.00000000000E+00 0. -1.
         21   -1    0    0  501  502  0.00000000000E+00 -0.00000000000E+00 -0.14770060828E+03  0.14770060828E+03  0.00000000000E+00 0. -1.
         23    2    1    2    0    0 -0.13548422437E+03 -0.17491504437E+03  0.67109537512E+03  0.71263671318E+03  0.92362517662E+02 0.  0.
         24    2    1    2    0    0  0.44732113554E+02  0.18482418872E+03  0.47577942451E+03  0.51747345403E+03  0.72469111513E+02 0.  0.
        -13    1    4    4    0    0  0.11464260049E+02  0.75312610330E+02  0.28490750915E+03  0.29491644122E+03  0.00000000000E+00 0.  1.
         14    1    4    4    0    0  0.33267853505E+02  0.10951157839E+03  0.19087191536E+03  0.22255701281E+03  0.00000000000E+00 0. -1.
        -13    1    3    3    0    0 -0.10566923315E+03 -0.14995299656E+03  0.62955135931E+03  0.65573378899E+03  0.00000000000E+00 0.  1.
         13    1    3    3    0    0 -0.29814991221E+02 -0.24962047809E+02  0.41544015811E+02  0.56902924196E+02  0.00000000000E+00 0. -1.
         21    1    1    2  503  502  0.25725742334E+02 -0.84666770883E+01 -0.10071389687E+03  0.10429183794E+03  0.00000000000E+00 0. -1.
          1    1    1    2  501    0  0.65026368480E+02 -0.14424672608E+01  0.29184186002E+03  0.29900197419E+03  0.00000000000E+00 0. -1.
<scales pt_clust_5="13000.00000" pt_clust_6="13000.00000" pt_clust_7="13000.00000" pt_clust_8="13000.00000" pt_clust_9="27.08318" pt_clust_10="67.09739"></scales>
<clustering>
<clus scale="   27.083">  2  9  1 -1</clus>
<clus scale="   67.097">  2 10  1 -1</clus>
<clus scale="   72.469">  5  6 -1 -1</clus>
<clus scale="   92.363">  7  8 -1 -1</clus>
<clus scale="  213.860">  2  5  1 -1</clus>
<clus scale="   27.083">  2  5  1 -1</clus>
</clustering>
</event>
<event>
10    4  0.3043429E-005  0.2316522E+03  0.7546771E-02  0.1126134E+00
         21   -1    0    0  501  502  0.00000000000E+00  0.00000000000E+00  0.70848137806E+03  0.70848137806E+03  0.00000000000E+00 0. -1.
          2   -1    0    0  503    0 -0.00000000000E+00 -0.00000000000E+00 -0.36088713570E+03  0.36088713570E+03  0.00000000000E+00 0. -1.
         24    2    1    2    0    0  0.78427820970E+02 -0.18008904530E+03 -0.17188978345E+03  0.27302548907E+03  0.80086407637E+02 0.  0.
         23    2    1    2    0    0 -0.24366750659E+03  0.25973248656E+03  0.28516584824E+03  0.46505115471E+03  0.90101038608E+02 0.  0.
        -11    1    3    3    0    0  0.60153864419E+02 -0.75399307707E+02 -0.12228151016E+03  0.15574437625E+03  0.00000000000E+00 0.  1.
         12    1    3    3    0    0  0.18273956551E+02 -0.10468973759E+03 -0.49608273294E+02  0.11728111282E+03  0.00000000000E+00 0. -1.
        -11    1    4    4    0    0 -0.12622633512E+03  0.11921074841E+03  0.83554293482E+02  0.19268007207E+03  0.00000000000E+00 0.  1.
         11    1    4    4    0    0 -0.11744117147E+03  0.14052173815E+03  0.20161155476E+03  0.27237108264E+03  0.00000000000E+00 0. -1.
         21    1    1    2  503  502  0.10954970379E+03 -0.29469547144E+02  0.22970517109E+03  0.25619144684E+03  0.00000000000E+00 0. -1.
          1    1    1    2  501    0  0.55689981823E+02 -0.50173894117E+02  0.46130064921E+01  0.75100423136E+02  0.00000000000E+00 0. -1.
<scales pt_clust_5="13000.00000" pt_clust_6="13000.00000" pt_clust_7="13000.00000" pt_clust_8="13000.00000" pt_clust_9="138.27318" pt_clust_10="74.95865"></scales>
<clustering>
<clus scale="   74.959">  1 10  2 -1</clus>
<clus scale="   80.086">  5  6 -1 -1</clus>
<clus scale="   90.101">  7  8 -1 -1</clus>
<clus scale="  138.273">  1  9  2 -1</clus>
<clus scale="  227.944">  2  5  1 -1</clus>
<clus scale="   74.959">  1  5  2 -1</clus>
</clustering>
</event>
<event>
10    4  0.3043429E-005  0.2007150E+03  0.7546771E-02  0.1156595E+00
         21   -1    0    0  503  502  0.00000000000E+00  0.00000000000E+00  0.41991405350E+03  0.41991405350E+03  0.00000000000E+00 0. -1.
          2   -1    0    0  502    0 -0.00000000000E+00 -0.00000000000E+00 -0.71921189371E+03  0.71921189371E+03  0.00000000000E+00 0. -1.
         24    2    1    2    0    0 -0.12723960495E+03 -0.64302590734E+02 -0.25215584377E+02  0.16592867488E+03  0.81066387671E+02 0.  0.
         23    2    1    2    0    0 -0.15223876063E+03  0.60559288535E+02  0.13691574074E+03  0.23353930332E+03  0.94607708269E+02 0.  0.
        -13    1    3    3    0    0 -0.54550042877E+02  0.14766552064E+02 -0.11218322890E+02  0.57616048166E+02  0.00000000000E+00 0.  1.
         14    1    3    3    0    0 -0.72689562070E+02 -0.79069142798E+02 -0.13997261486E+02  0.10831262671E+03  0.00000000000E+00 0. -1.
        -11    1    4    4    0    0 -0.21733855043E+02 -0.34692320290E+01  0.70247959816E+02  0.73615024854E+02  0.00000000000E+00 0. -1.
         11    1    4    4    0    0 -0.13050490559E+03  0.64028520564E+02  0.66667780927E+02  0.15992427846E+03  0.00000000000E+00 0.  1.
         21    1    1    2  503  501 -0.13699153231E+02 -0.18766509854E+02  0.12562523667E+03  0.12775581701E+03  0.00000000000E+00 0. -1.
          1    1    1    2  501    0  0.29317751881E+03  0.22509812053E+02 -0.53662323324E+03  0.61190215201E+03  0.00000000000E+00 0. -1.
<scales pt_clust_5="13000.00000" pt_clust_6="13000.00000" pt_clust_7="13000.00000" pt_clust_8="13000.00000" pt_clust_9="23.23464" pt_clust_10="177.01957"></scales>
<clustering>
<clus scale="   23.235">  1  9  2 -1</clus>
<clus scale="   81.066">  5  6 -1 -1</clus>
<clus scale="   94.608">  7  8 -1 -1</clus>
<clus scale="  168.354">  2  5  1 -1</clus>
<clus scale="  177.020">  1 10  2 -1</clus>
<clus scale="   23.235">  1  5  2 -1</clus>
</clustering>
</event>
<event>
10    4  0.3043429E-005  0.2604466E+03  0.7546771E-02  0.1107173E+00
         -1   -1    0    0    0  501 -0.00000000000E+00  0.00000000000E+00  0.17306997304E+04  0.17306997304E+04  0.00000000000E+00 0.  1.
         21   -1    0    0  503  502  0.00000000000E+00 -0.00000000000E+00 -0.87112337190E+02  0.87112337190E+02  0.00000000000E+00 0.  1.
         23    2    1    2    0    0  0.27096264398E+03 -0.46488886457E+02  0.11106061556E+04  0.11477612948E+04  0.91257798833E+02 0.  0.
         24    2    1    2    0    0 -0.16821469301E+03 -0.26731544034E+02  0.13848366863E+03  0.23555888427E+03  0.85437129472E+02 0.  0.
        -13    1    4    4    0    0 -0.19631864178E+02  0.93214214641E+01 -0.86286677806E+01  0.23382747847E+02  0.00000000000E+00 0.  1.
         14    1    4    4    0    0 -0.14858282883E+03 -0.36052965498E+02  0.14711233641E+03  0.21217613642E+03  0.00000000000E+00 0. -1.
        -13    1    3    3    0    0  0.13305065417E+03 -0.25426947253E+02  0.36743733794E+03  0.39161103602E+03  0.00000000000E+00 0.  1.
         13    1    3    3    0    0  0.13791198982E+03 -0.21061939204E+02  0.74316881768E+03  0.75615025873E+03  0.00000000000E+00 0. -1.
         21    1    1    2  503  501 -0.42376839530E+02 -0.31194341219E+02  0.65099721516E+02  0.83706972195E+02  0.00000000000E+00 0.  1.
         -2    1    1    2    0  502 -0.60371111449E+02  0.10441477171E+03  0.32939784747E+03  0.35078491639E+03  0.00000000000E+00 0.  1.
<scales pt_clust_5="13000.00000" pt_clust_6="13000.00000" pt_clust_7="13000.00000" pt_clust_8="13000.00000" pt_clust_9="52.62018" pt_clust_10="120.03061"></scales>
<clustering>
<clus scale="   52.620">  2  9  1 -1</clus>
<clus scale="   85.437">  5  6 -1 -1</clus>
<clus scale="   91.258">  7  8 -1 -1</clus>
<clus scale="  120.031">  2 10  1 -1</clus>
<clus scale="  258.465">  2  5  1 -1</clus>
<clus scale="   52.620">  2  5  1 -1</clus>
</clustering>
</event>
<event>
10    4  0.3043429E-005  0.1505686E+03  0.7546771E-02  0.1227376E+00
          2   -1    0    0  503    0 -0.00000000000E+00  0.00000000000E+00  0.18950998049E+03  0.18950998049E+03  0.00000000000E+00 0. -1.
         21   -1    0    0  501  502  0.00000000000E+00 -0.00000000000E+00 -0.53406395646E+03  0.53406395646E+03  0.00000000000E+00 0. -1.
         24    2    1    2    0    0 -0.22463219182E+02 -0.18128828803E+02  0.59809665901E+02  0.10296146191E+03  0.78680466784E+02 0.  0.
         23    2    1    2    0    0 -0.88834771047E+02 -0.34975228713E+01 -0.17332615546E+03  0.21563896801E+03  0.92489778599E+02 0.  0.
        -13    1    3    3    0    0  0.19906419671E+02 -0.14287596669E+02  0.54919686289E+02  0.60137948957E+02  0.00000000000E+00 0.  1.
         14    1    3    3    0    0 -0.42369638853E+02 -0.38412321332E+01  0.48899796121E+01  0.42823512951E+02  0.00000000000E+00 0. -1.
        -13    1    4    4    0    0 -0.38650274919E+02 -0.47101588485E+02 -0.95522613568E+02  0.11330036669E+03  0.00000000000E+00 0.  1.
         13    1    4    4    0    0 -0.50184496127E+02  0.43604065613E+02 -0.77803541891E+02  0.10233860132E+03  0.00000000000E+00 0. -1.
         21    1    1    2  503  502  0.14966457837E+03 -0.68339588055E+02 -0.25574336545E+03  0.30409612672E+03  0.00000000000E+00 0. -1.
          1    1    1    2  501    0 -0.38366588144E+02  0.89965939728E+02  0.24705879042E+02  0.10087738030E+03  0.00000000000E+00 0. -1.
<scales pt_clust_5="13000.00000" pt_clust_6="13000.00000" pt_clust_7="13000.00000" pt_clust_8="13000.00000" pt_clust_9="118.81312" pt_clust_10="94.62324"></scales>
<clustering>
<clus scale="   78.680">  5  6 -1 -1</clus>
<clus scale="   83.809">  1  5  2 -1</clus>
<clus scale="   92.490">  7  8 -1 -1</clus>
<clus scale="   94.623">  2 10  1 -1</clus>
<clus scale="  118.813">  2  9  1 -1</clus>
<clus scale="   94.623">  2  5  1 -1</clus>
</clustering>
</event>
<event>
10    4  0.3043429E-005  0.1126450E+03  0.7546771E-02  0.1260807E+00
         -3   -1    0    0    0  501 -0.00000000000E+00  0.00000000000E+00  0.13517095205E+03  0.13517095205E+03  0.00000000000E+00 0.  1.
         21   -1    0    0  501  502  0.00000000000E+00 -0.00000000000E+00 -0.39377079561E+03  0.39377079561E+03  0.00000000000E+00 0.  1.
         23    2    1    2    0    0  0.57607876707E+01  0.43800456145E+02 -0.35833998597E+02  0.10948052597E+03  0.93542736109E+02 0.  0.
         24    2    1    2    0    0  0.34143497388E+02 -0.11396681899E+03 -0.17312230637E+03  0.22490473640E+03  0.80352929309E+02 0.  0.
        -13    1    4    4    0    0  0.38447140202E+02 -0.12241488183E+03 -0.13761237387E+03  0.18815087384E+03  0.00000000000E+00 0.  1.
         14    1    4    4    0    0 -0.43036428142E+01  0.84480628420E+01 -0.35509932502E+02  0.36753862566E+02  0.00000000000E+00 0. -1.
        -11    1    3    3    0    0 -0.22609713104E+02 -0.61821905253E+01  0.18903232654E+02  0.30112303318E+02  0.00000000000E+00 0.  1.
         11    1    3    3    0    0  0.28370500774E+02  0.49982646670E+02 -0.54737231251E+02  0.79368222655E+02  0.00000000000E+00 0. -1.
         21    1    1    2  503  502 -0.45726982199E+02 -0.65391741163E+01 -0.94729436654E+02  0.10539157399E+03  0.00000000000E+00 0.  1.
         -4    1    1    2    0  503  0.58226971405E+01  0.76705536959E+02  0.45085898059E+02  0.89164911293E+02  0.00000000000E+00 0.  1.
<scales pt_clust_5="13000.00000" pt_clust_6="13000.00000" pt_clust_7="13000.00000" pt_clust_8="13000.00000" pt_clust_9="46.19218" pt_clust_10="76.25240"></scales>
<clustering>
<clus scale="   46.192">  2  9  1 -1</clus>
<clus scale="   76.252">  2 10  1 -1</clus>
<clus scale="   80.353">  5  6 -1 -1</clus>
<clus scale="   93.543">  7  8 -1 -1</clus>
<clus scale="  101.957">  2  5  1 -1</clus>
<clus scale="   46.192">  2  5  1 -1</clus>
</clustering>
</event>
<event>
10    4  0.3043429E-005  0.1542342E+03  0.7546771E-02  0.1196832E+00
         -3   -1    0    0    0  501 -0.00000000000E+00  0.00000000000E+00  0.93354301439E+02  0.93354301439E+02  0.00000000000E+00 0.  1.
         21   -1    0    0  503  502  0.00000000000E+00 -0.00000000000E+00 -0.52810581721E+03  0.52810581721E+03  0.00000000000E+00 0.  1.
         23    2    1    2    0    0  0.44811128172E+02  0.84433882334E+02 -0.18196514602E+03  0.22589404621E+03  0.93699989627E+02 0.  0.
         24    2    1    2    0    0  0.16570741452E+02 -0.16073368350E+03 -0.17585094713E+03  0.25364278849E+03  0.85447071699E+02 0.  0.
        -13    1    4    4    0    0  0.43583572675E+02 -0.12662759879E+03 -0.10364062158E+03  0.16933828576E+03  0.00000000000E+00 0.  1.
         14    1    4    4    0    0 -0.27012831223E+02 -0.34106084717E+02 -0.72210325544E+02  0.84304502730E+02  0.00000000000E+00 0. -1.
        -13    1    3    3    0    0 -0.15160214868E+02  0.46330114500E+02 -0.12708916531E+03  0.13611747706E+03  0.00000000000E+00 0.  1.
         13    1    3    3    0    0  0.59971343040E+02  0.38103767834E+02 -0.54875980710E+02  0.89776569148E+02  0.00000000000E+00 0. -1.
         21    1    1    2  503  501 -0.17466695443E+02  0.13967268024E+02 -0.59698866392E+02  0.63750487639E+02  0.00000000000E+00 0. -1.
         -4    1    1    2    0  502 -0.43915174182E+02  0.62332533145E+02 -0.17236556236E+02  0.78172796308E+02  0.00000000000E+00 0.  1.
<scales pt_clust_5="13000.00000" pt_clust_6="13000.00000" pt_clust_7="13000.00000" pt_clust_8="13000.00000" pt_clust_9="22.36448" pt_clust_10="78.44839"></scales>
<clustering>
<clus scale="   22.364">  2  9  1 -1</clus>
<clus scale="   78.448">  2 10  1 -1</clus>
<clus scale="   85.447">  5  6 -1 -1</clus>
<clus scale="   93.700">  7  8 -1 -1</clus>
<clus scale="  149.364">  2  5  1 -1</clus>
<clus scale="   22.364">  2  5  1 -1</clus>
</clustering>
</event>
<event>
10    4  0.3043429E-005  0.2086426E+03  0.7546771E-02  0.1153489E+00
          2   -1    0    0  502    0 -0.00000000000E+00  0.00000000000E+00  0.57745583264E+03  0.57745583264E+03  0.00000000000E+00 0. -1.
         21   -1    0    0  503  502  0.00000000000E+00 -0.00000000000E+00 -0.17935545278E+03  0.17935545278E+03  0.00000000000E+00 0. -1.
         24    2    1    2    0    0  0.49749458550E+02 -0.13251240846E+03  0.71876542758E+02  0.17675765330E+03  0.77733413532E+02 0.  0.
         23    2    1    2    0    0 -0.21713815994E+03  0.12666717812E+02  0.12256887358E+03  0.26579834897E+03  0.91193241552E+02 0.  0.
        -13    1    3    3    0    0  0.59175102892E+02 -0.55361516011E+02  0.52825980192E+02  0.96732489064E+02  0.00000000000E+00 0.  1.
         14    1    3    3    0    0 -0.94256443414E+01 -0.77150892450E+02  0.19050562567E+02  0.80025164237E+02  0.00000000000E+00 0. -1.
        -13    1    4    4    0    0 -0.25326639257E+02 -0.17638993233E+02  0.49463172932E+02  0.58302471773E+02  0.00000000000E+00 0.  1.
         13    1    4    4    0    0 -0.19181152068E+03  0.30305711044E+02  0.73105700651E+02  0.20749587720E+03  0.00000000000E+00 0. -1.
         21    1    1    2  503  501  0.21409938861E+02  0.96713145935E+01 -0.16004029632E+02  0.28426198698E+02  0.00000000000E+00 0.  1.
          1    1    1    2  501    0  0.14597876253E+03  0.11017437606E+03  0.21965899315E+03  0.28582908445E+03  0.00000000000E+00 0. -1.
<scales pt_clust_5="13000.00000" pt_clust_6="13000.00000" pt_clust_7="13000.00000" pt_clust_8="13000.00000" pt_clust_9="23.49297" pt_clust_10="187.65811"></scales>
<clustering>
<clus scale="   23.493">  2  9  1 -1</clus>
<clus scale="   77.733">  5  6 -1 -1</clus>
<clus scale="   91.193">  7  8 -1 -1</clus>
<clus scale="  161.227">  1  5  2 -1</clus>
<clus scale="  187.658">  2 10  1 -1</clus>
<clus scale="   23.493">  2  5  1 -1</clus>
</clustering>
</event>
<event>
10    4  0.3043429E-005  0.3745074E+03  0.7546771E-02  0.1052983E+00
         -1   -1    0    0    0  501 -0.00000000000E+00  0.00000000000E+00  0.55456456495E+03  0.55456456495E+03  0.00000000000E+00 0.  1.
         21   -1    0    0  501  502  0.00000000000E+00 -0.00000000000E+00 -0.48665398736E+03  0.48665398736E+03  0.00000000000E+00 0.  1.
         24    2    1    2    0    0  0.88808264685E+02 -0.14400685327E+03  0.72126400009E+02  0.20090745009E+03  0.80849887183E+02 0.  0.
         23    2    1    2    0    0  0.76689826210E+02 -0.10372443786E+03 -0.15369106793E+02  0.15991655978E+03  0.93257751386E+02 0.  0.
        -11    1    3    3    0    0  0.26591661209E+02 -0.44642305098E+01  0.34080783860E+02  0.43457400157E+02  0.00000000000E+00 0.  1.
         12    1    3    3    0    0  0.62216603476E+02 -0.13954262276E+03  0.38045616149E+02  0.15745004993E+03  0.00000000000E+00 0. -1.
        -11    1    4    4    0    0  0.54791406271E+02 -0.83977044027E+01  0.15135474314E+02  0.57460440505E+02  0.00000000000E+00 0. -1.
         11    1    4    4    0    0  0.21898419940E+02 -0.95326733460E+02 -0.30504581107E+02  0.10245611927E+03  0.00000000000E+00 0.  1.
         21    1    1    2  503  502 -0.64316613238E+00 -0.39224949461E+02 -0.25357995229E+03  0.25659657544E+03  0.00000000000E+00 0.  1.
         -2    1    1    2    0  503 -0.16485492476E+03  0.28695624060E+03  0.26473323667E+03  0.42379796700E+03  0.00000000000E+00 0.  1.
<scales pt_clust_5="13000.00000" pt_clust_6="13000.00000" pt_clust_7="13000.00000" pt_clust_8="13000.00000" pt_clust_9="39.23022" pt_clust_10="319.44289"></scales>
<clustering>
<clus scale="   39.230">  2  9  1 -1</clus>
<clus scale="   80.850">  5  6 -1 -1</clus>
<clus scale="   93.258">  7  8 -1 -1</clus>
<clus scale="  121.188">  5  7 -1 -1</clus>
<clus scale="  319.443">  2 10  1 -1</clus>
<clus scale="   39.230">  2  5  1 -1</clus>
</clustering>
</event>
<event>
10    4  0.3043429E-005  0.1452619E+03  0.7546771E-02  0.1209412E+00
          4   -1    0    0  503    0 -0.00000000000E+00  0.00000000000E+00  0.90707185809E+03  0.90707185809E+03  0.00000000000E+00 0. -1.
         21   -1    0    0  501  502  0.00000000000E+00 -0.00000000000E+00 -0.69577953321E+02  0.69577953321E+02  0.00000000000E+00 0. -1.
         24    2    1    2    0    0 -0.10057008112E+01  0.11668838007E+03  0.68524430780E+03  0.69969286347E+03  0.79957190653E+02 0.  0.
         23    2    1    2    0    0  0.34562427739E+02 -0.78949422735E+02  0.85855001011E+02  0.15405347739E+03  0.94518886658E+02 0.  0.
        -13    1    3    3    0    0 -0.10373089551E+02  0.37175254016E+02  0.76282395590E+02  0.85490375920E+02  0.00000000000E+00 0.  1.
         14    1    3    3    0    0  0.93673887397E+01  0.79513126052E+02  0.60896191221E+03  0.61420248755E+03  0.00000000000E+00 0. -1.
        -11    1    4    4    0    0  0.15866859862E+01  0.21011398842E+02  0.59336448264E+01  0.21890742213E+02  0.00000000000E+00 0. -1.
         11    1    4    4    0    0  0.32975741752E+02 -0.99960821576E+02  0.79921356185E+02  0.13216273517E+03  0.00000000000E+00 0.  1.
         21    1    1    2  503  502 -0.26637325544E+02 -0.13526647887E+02 -0.17968464288E+02  0.34862343926E+02  0.00000000000E+00 0.  1.
          3    1    1    2  501    0 -0.69194013838E+01 -0.24212309447E+02  0.84363060242E+02  0.88041126627E+02  0.00000000000E+00 0. -1.
<scales pt_clust_5="13000.00000" pt_clust_6="13000.00000" pt_clust_7="13000.00000" pt_clust_8="13000.00000" pt_clust_9="37.25759" pt_clust_10="25.18163"></scales>
<clustering>
<clus scale="   25.182">  2 10  1 -1</clus>
<clus scale="   37.258">  2  9  1 -1</clus>
<clus scale="   79.957">  5  6 -1 -1</clus>
<clus scale="   94.519">  7  8 -1 -1</clus>
<clus scale="  136.236">  1  5  2 -1</clus>
<clus scale="   25.182">  2  5  1 -1</clus>
</clustering>
</event>
<event>
10    4  0.3043429E-005  0.2460512E+03  0.7546771E-02  0.1116553E+00
         21   -1    0    0  501  502  0.00000000000E+00  0.00000000000E+00  0.34756529205E+03  0.34756529205E+03  0.00000000000E+00 0. -1.
          2   -1    0    0  503    0 -0.00000000000E+00 -0.00000000000E+00 -0.99906095225E+03  0.99906095225E+03  0.00000000000E+00 0. -1.
         24    2    1    2    0    0 -0.21431956230E+03  0.70088179101E+02 -0.63428564726E+03  0.67789551442E+03  0.79867506044E+02 0.  0.
         23    2    1    2    0    0  0.23256268343E+03 -0.40274727623E+02 -0.24081606348E+03  0.34964888511E+03  0.92490599608E+02 0.  0.
        -13    1    3    3    0    0 -0.13595216798E+03  0.11063226007E+02 -0.30088093623E+03  0.33035545211E+03  0.00000000000E+00 0.  1.
         14    1    3    3    0    0 -0.78367394317E+02  0.59024953094E+02 -0.33340471103E+03  0.34754006232E+03  0.00000000000E+00 0. -1.
        -11    1    4    4    0    0  0.72115005066E+02  0.22926240282E+02 -0.10853426906E+03  0.13230976536E+03  0.00000000000E+00 0. -1.
         11    1    4    4    0    0  0.16044767836E+03 -0.63200967905E+02 -0.13228179442E+03  0.21733911975E+03  0.00000000000E+00 0.  1.
         21    1    1    2  503  502 -0.46789886368E+02  0.54269191255E+02 -0.69752637473E+01  0.71993700351E+02  0.00000000000E+00 0. -1.
          1    1    1    2  501    0  0.28546765235E+02 -0.84082642733E+02  0.23058131429E+03  0.24708814442E+03  0.00000000000E+00 0. -1.
<scales pt_clust_5="13000.00000" pt_clust_6="13000.00000" pt_clust_7="13000.00000" pt_clust_8="13000.00000" pt_clust_9="71.65500" pt_clust_10="43.49727"></scales>
<clustering>
<clus scale="   71.655">  1  9  2 -1</clus>
<clus scale="   43.497">  1 10  2 -1</clus>
<clus scale="   79.868">  5  6 -1 -1</clus>
<clus scale="   92.491">  7  8 -1 -1</clus>
<clus scale="  241.590">  2  5  1 -1</clus>
<clus scale="   71.655">  1  5  2 -1</clus>
</clustering>
</event>
<event>
10    4  0.3043429E-005  0.1349834E+03  0.7546771E-02  0.1227363E+00
         21   -1    0    0  503  502  0.00000000000E+00  0.00000000000E+00  0.76880673626E+03  0.76880673626E+03  0.00000000000E+00 0. -1.
         -3   -1    0    0    0  501 -0.00000000000E+00 -0.00000000000E+00 -0.90970334498E+02  0.90970334498E+02  0.00000000000E+00 0.  1.
         24    2    1    2    0    0 -0.60811064255E+02 -0.66890981316E+02  0.45455647267E+03  0.46898768769E+03  0.71801639536E+02 0.  0.
         23    2    1    2    0    0 -0.66693168914E+02 -0.28826528105E+02  0.12043297957E+03  0.16711477614E+03  0.90245766296E+02 0.  0.
        -13    1    3    3    0    0 -0.72262766524E+02 -0.36672527826E+02  0.36176967621E+03  0.37073451464E+03  0.00000000000E+00 0.  1.
         14    1    3    3    0    0  0.11451702269E+02 -0.30218453490E+02  0.92786796466E+02  0.98253173051E+02  0.00000000000E+00 0. -1.
        -11    1    4    4    0    0 -0.61667195609E+02 -0.57463561610E+02  0.73138987426E+02  0.11159845612E+03  0.00000000000E+00 0. -1.
         11    1    4    4    0    0 -0.50259733050E+01  0.28637033504E+02  0.47293992141E+02  0.55516320017E+02  0.00000000000E+00 0.  1.
         21    1    1    2  503  501  0.10282579947E+02 -0.26859556205E+02  0.19050938214E+02  0.34497905106E+02  0.00000000000E+00 0. -1.
         -4    1    1    2    0  502  0.11722165322E+03  0.12257706563E+03  0.83796011311E+02  0.18917670183E+03  0.00000000000E+00 0.  1.
<scales pt_clust_5="13000.00000" pt_clust_6="13000.00000" pt_clust_7="13000.00000" pt_clust_8="13000.00000" pt_clust_9="28.76051" pt_clust_10="100.38048"></scales>
<clustering>
<clus scale="   28.761">  2  9  1 -1</clus>
<clus scale="   71.802">  5  6 -1 -1</clus>
<clus scale="   90.246">  7  8 -1 -1</clus>
<clus scale="  116.349">  2  5  1 -1</clus>
<clus scale="  100.380">  1 10  2 -1</clus>
<clus scale="  100.380">  1  5  2 -1</clus>
</clustering>
</event>
<event>
10    4  0.3043429E-005  0.9335410E+02  0.7546771E-02  0.1301292E+00
         21   -1    0    0  503  502  0.00000000000E+00  0.00000000000E+00  0.18940619239E+03  0.18940619239E+03  0.00000000000E+00 0.  1.
          2   -1    0    0  502    0 -0.00000000000E+00 -0.00000000000E+00 -0.38054793291E+03  0.38054793291E+03  0.00000000000E+00 0. -1.
         23    2    1    2    0    0  0.80841626100E+01 -0.10590268460E+02 -0.14715066160E+03  0.17449240769E+03  0.92826589205E+02 0.  0.
         24    2    1    2    0    0  0.45941337572E+01 -0.10517106078E+02  0.63573937477E+02  0.10470106197E+03  0.82395092485E+02 0.  0.
        -13    1    4    4    0    0  0.21722986415E+02 -0.22346662171E+02  0.74812547455E+02  0.81044300883E+02  0.00000000000E+00 0.  1.
         14    1    4    4    0    0 -0.17128852658E+02  0.11829556094E+02 -0.11238609978E+02  0.23656761084E+02  0.00000000000E+00 0. -1.
        -13    1    3    3    0    0 -0.13641144806E+01 -0.34030913727E+02 -0.10668626756E+02  0.35690103590E+02  0.00000000000E+00 0.  1.
         13    1    3    3    0    0  0.94482770906E+01  0.23440645267E+02 -0.13648203484E+03  0.13880230410E+03  0.00000000000E+00 0. -1.
         21    1    1    2  503  501  0.69536657021E+02 -0.17219781680E+02  0.64405846316E+02  0.96332655888E+02  0.00000000000E+00 0.  1.
          1    1    1    2  501    0 -0.82214953388E+02  0.38327156217E+02 -0.17197086271E+03  0.19442799975E+03  0.00000000000E+00 0. -1.
<scales pt_clust_5="13000.00000" pt_clust_6="13000.00000" pt_clust_7="13000.00000" pt_clust_8="13000.00000" pt_clust_9="71.63705" pt_clust_10="83.48240"></scales>
<clustering>
<clus scale="   71.637">  1  9  2 -1</clus>
<clus scale="   82.395">  5  6 -1 -1</clus>
<clus scale="   83.482">  1 10  2 -1</clus>
<clus scale="   82.989">  1  5  2 -1</clus>
<clus scale="   92.827">  7  8 -1 -1</clus>
<clus scale="   71.637">  1  5  2 -1</clus>
</clustering>
</event>
<event>
10    4  0.3043429E-005  0.1148280E+03  0.7546771E-02  0.1255388E+00
         21   -1    0    0  503  502  0.00000000000E+00  0.00000000000E+00  0.10654978599E+03  0.10654978599E+03  0.00000000000E+00 0. -1.
          2   -1    0    0  502    0 -0.00000000000E+00 -0.00000000000E+00 -0.54184956725E+03  0.54184956725E+03  0.00000000000E+00 0. -1.
         24    2    1    2    0    0 -0.60438768240E+02 -0.59842369280E+02 -0.61679317420E+02  0.13246967591E+03  0.80684093671E+02 0.  0.
         23    2    1    2    0    0  0.71864126414E+02 -0.21699276118E+02 -0.13216456965E+02  0.11846652595E+03  0.90688101687E+02 0.  0.
        -13    1    3    3    0    0 -0.13417497168E+02 -0.58096026513E+02 -0.61157327469E+02  0.85413091678E+02  0.00000000000E+00 0.  1.
         14    1    3    3    0    0 -0.47021271072E+02 -0.17463427671E+01 -0.52198995078E+00  0.47056584234E+02  0.00000000000E+00 0. -1.
        -11    1    4    4    0    0  0.57035227840E+02  0.23306842402E+00  0.32494089683E+02  0.65642496906E+02  0.00000000000E+00 0. -1.
         11    1    4    4    0    0  0.14828898574E+02 -0.21932344542E+02 -0.45710546648E+02  0.52824029048E+02  0.00000000000E+00 0.  1.
         21    1    1    2  503  501 -0.38534877026E+02 -0.10049145239E+02 -0.21297891317E+02  0.45161069983E+02  0.00000000000E+00 0. -1.
          1    1    1    2  501    0  0.27109518852E+02  0.91590790637E+02 -0.33910611556E+03  0.35230208139E+03  0.00000000000E+00 0. -1.
<scales pt_clust_5="13000.00000" pt_clust_6="13000.00000" pt_clust_7="13000.00000" pt_clust_8="13000.00000" pt_clust_9="39.82364" pt_clust_10="94.11408"></scales>
<clustering>
<clus scale="   39.824">  1  9  2 -1</clus>
<clus scale="   80.684">  5  6 -1 -1</clus>
<clus scale="   90.688">  7  8 -1 -1</clus>
<clus scale="   94.114">  1 10  2 -1</clus>
<clus scale="  107.103">  2  5  1 -1</clus>
<clus scale="   39.824">  1  5  2 -1</clus>
</clustering>
</event>
<event>
10    4  0.3043429E-005  0.1484840E+03  0.7546771E-02  0.1220707E+00
         -3   -1    0    0    0  501 -0.00000000000E+00  0.00000000000E+00  0.45744864452E+03  0.45744864452E+03  0.00000000000E+00 0.  1.
         21   -1    0    0  503  502  0.00000000000E+00 -0.00000000000E+00 -0.51966954609E+03  0.51966954609E+03  0.00000000000E+00 0.  1.
         23    2    1    2    0    0  0.38789484581E+02 -0.19311996547E+02 -0.31751372140E+02  0.10532776957E+03  0.90599183692E+02 0.  0.
         24    2    1    2    0    0  0.68233341557E+02  0.32885816263E+02  0.25062591425E+03  0.27645713606E+03  0.88757722883E+02 0.  0.
        -11    1    4    4    0    0  0.54778272422E+02  0.38481209446E+02  0.76223333731E+02  0.10144682950E+03  0.00000000000E+00 0.  1.
         12    1    4    4    0    0  0.13455069136E+02 -0.55953931828E+01  0.17440258052E+03  0.17501030656E+03  0.00000000000E+00 0. -1.
        -13    1    3    3    0    0  0.48143703228E+01  0.22643650889E+02  0.19962921767E+02  0.30568469583E+02  0.00000000000E+00 0. -1.
         13    1    3    3    0    0  0.33975114258E+02 -0.41955647435E+02 -0.51714293908E+02  0.74759299990E+02  0.00000000000E+00 0.  1.
         21    1    1    2  503  501  0.13857546282E+03  0.28210202196E+01 -0.31757114833E+03  0.34650043477E+03  0.00000000000E+00 0.  1.
         -4    1    1    2    0  502 -0.24559828895E+03 -0.16394839936E+02  0.36475704638E+02  0.24883285021E+03  0.00000000000E+00 0.  1.
<scales pt_clust_5="13000.00000" pt_clust_6="13000.00000" pt_clust_7="13000.00000" pt_clust_8="13000.00000" pt_clust_9="13000.00000" pt_clust_10="148.48398"></scales>
<clustering>
<clus scale="   88.758">  5  6 -1 -1</clus>
<clus scale="   90.599">  7  8 -1 -1</clus>
<clus scale="  100.428">  1  7  2 -1</clus>
<clus scale="  129.895">  1  5  2 -1</clus>
<clus scale="  148.484">  1 10  2 -1</clus>
<clus scale="  148.484">  2  5  1 -1</clus>
</clustering>
</event>
<event>
10    4  0.3043429E-005  0.3171079E+03  0.7546771E-02  0.1123729E+00
         21   -1    0    0  503  502  0.00000000000E+00  0.00000000000E+00  0.56749308915E+03  0.56749308915E+03  0.00000000000E+00 0. -1.
          2   -1    0    0  502    0 -0.00000000000E+00 -0.00000000000E+00 -0.46290068846E+03  0.46290068846E+03  0.00000000000E+00 0. -1.
         24    2    1    2    0    0  0.58356818855E+01 -0.48045189606E+02  0.33477797901E+02  0.99647041667E+02  0.80413770795E+02 0.  0.
         23    2    1    2    0    0 -0.32562260049E+03  0.54363867482E+02 -0.22033149641E+03  0.40721207678E+03  0.91050530616E+02 0.  0.
        -13    1    3    3    0    0 -0.99197298928E+00 -0.64996511724E+02  0.42072416024E+01  0.65140090793E+02  0.00000000000E+00 0.  1.
         14    1    3    3    0    0  0.68276548748E+01  0.16951322117E+02  0.29270556298E+02  0.34506950874E+02  0.00000000000E+00 0. -1.
        -13    1    4    4    0    0 -0.30622948586E+03  0.25523927767E+02 -0.19170222004E+03  0.36218463533E+03  0.00000000000E+00 0. -1.
         13    1    4    4    0    0 -0.19393114624E+02  0.28839939715E+02 -0.28629276375E+02  0.45027441448E+02  0.00000000000E+00 0.  1.
         21    1    1    2  503  501  0.44186410913E+02  0.50707037809E+01  0.23856519049E+03  0.24267571172E+03  0.00000000000E+00 0. -1.
          1    1    1    2  501    0  0.27560050769E+03 -0.11389381656E+02  0.52880908709E+02  0.28085894744E+03  0.00000000000E+00 0. -1.
<scales pt_clust_5="13000.00000" pt_clust_6="13000.00000" pt_clust_7="13000.00000" pt_clust_8="13000.00000" pt_clust_9="44.47641" pt_clust_10="303.75517"></scales>
<clustering>
<clus scale="   44.476">  1  9  2 -1</clus>
<clus scale="   80.414">  5  6 -1 -1</clus>
<clus scale="   91.051">  7  8 -1 -1</clus>
<clus scale="   94.322">  2  5  1 -1</clus>
<clus scale="  303.755">  1 10  2 -1</clus>
<clus scale="   44.476">  1  5  2 -1</clus>
</clustering>
</event>
<event>
10    4  0.3043429E-005  0.1365486E+03  0.7546771E-02  0.1233838E+00
         21   -1    0    0  501  502  0.00000000000E+00  0.00000000000E+00  0.20203957652E+03  0.20203957652E+03  0.00000000000E+00 0.  1.
          4   -1    0    0  503    0 -0.00000000000E+00 -0.00000000000E+00 -0.61201185828E+03  0.61201185828E+03  0.00000000000E+00 0. -1.
         23    2    1    2    0    0  0.35386094109E+02  0.17562549683E+02 -0.32211682330E+03  0.33702451556E+03  0.90915661065E+02 0.  0.
         24    2    1    2    0    0 -0.10313460775E+03  0.59043093902E+02 -0.16874212640E+01  0.14322826897E+03  0.79929064723E+02 0.  0.
        -11    1    4    4    0    0 -0.87240605758E+02  0.73728398896E+02  0.15924638096E+02  0.11532733499E+03  0.00000000000E+00 0.  1.
         12    1    4    4    0    0 -0.15894001997E+02 -0.14685304994E+02 -0.17612059360E+02  0.27900933983E+02  0.00000000000E+00 0. -1.
        -11    1    3    3    0    0 -0.64316955173E+01 -0.31951905224E+02 -0.80028716433E+02  0.86411147478E+02  0.00000000000E+00 0.  1.
         11    1    3    3    0    0  0.41817789626E+02  0.49514454906E+02 -0.24208810687E+03  0.25061336808E+03  0.00000000000E+00 0. -1.
         21    1    1    2  503  502  0.10362647090E+03 -0.28204674182E+02  0.94684212475E+02  0.14317489029E+03  0.00000000000E+00 0.  1.
          3    1    1    2  501    0 -0.35877957259E+02 -0.48400969403E+02 -0.18085224968E+03  0.19062375998E+03  0.00000000000E+00 0. -1.
<scales pt_clust_5="13000.00000" pt_clust_6="13000.00000" pt_clust_7="13000.00000" pt_clust_8="13000.00000" pt_clust_9="110.71069" pt_clust_10="60.24853"></scales>
<clustering>
<clus scale="   60.249">  1 10  2 -1</clus>
<clus scale="   79.929">  5  6 -1 -1</clus>
<clus scale="   90.916">  7  8 -1 -1</clus>
<clus scale="   98.342">  2  7  1 -1</clus>
<clus scale="  110.711">  1  9  2 -1</clus>
<clus scale="   60.249">  1  5  2 -1</clus>
</clustering>
</event>
<event>
10    4  0.3043429E-005  0.1519392E+03  0.7546771E-02  0.1200272E+00
         21   -1    0    0  501  502  0.00000000000E+00  0.00000000000E+00  0.13943358010E+03  0.13943358010E+03  0.00000000000E+00 0. -1.
          2   -1    0    0  503    0 -0.00000000000E+00 -0.00000000000E+00 -0.12208863025E+04  0.12208863025E+04  0.00000000000E+00 0. -1.
         24    2    1    2    0    0  0.47183119947E+02  0.99799638508E+02 -0.60877715973E+03  0.62383724551E+03  0.79856521467E+02 0.  0.
         23    2    1    2    0    0 -0.17722184173E+03 -0.68371033980E+02 -0.43927222277E+03  0.48733101326E+03  0.91919809179E+02 0.  0.
        -11    1    3    3    0    0  0.27425646160E+02 -0.26267204108E+01 -0.73580364483E+02  0.78569305488E+02  0.00000000000E+00 0.  1.
         12    1    3    3    0    0  0.19757473786E+02  0.10242635892E+03 -0.53519679525E+03  0.54526794002E+03  0.00000000000E+00 0. -1.
        -13    1    4    4    0    0 -0.95807179380E+02 -0.80009596870E+02 -0.21710316453E+03  0.25042830364E+03  0.00000000000E+00 0. -1.
         13    1    4    4    0    0 -0.81414662347E+02  0.11638562890E+02 -0.22216905823E+03  0.23690270962E+03  0.00000000000E+00 0.  1.
         21    1    1    2  503  502  0.45919517211E+02 -0.29368986589E+02  0.86756664565E+02  0.10245905661E+03  0.00000000000E+00 0. -1.
          1    1    1    2  501    0  0.84119204570E+02 -0.20596179389E+01 -0.12016000449E+03  0.14669256724E+03  0.00000000000E+00 0. -1.
<scales pt_clust_5="13000.00000" pt_clust_6="13000.00000" pt_clust_7="13000.00000" pt_clust_8="13000.00000" pt_clust_9="54.50816" pt_clust_10="98.29894"></scales>
<clustering>
<clus scale="   54.508">  1  9  2 -1</clus>
<clus scale="   79.857">  5  6 -1 -1</clus>
<clus scale="   91.920">  7  8 -1 -1</clus>
<clus scale="   98.299">  1 10  2 -1</clus>
<clus scale="  144.960">  2  5  1 -1</clus>
<clus scale="   54.508">  1  5  2 -1</clus>
</clustering>
</event>
<event>
10    4  0.3043429E-005  0.1691689E+03  0.7546771E-02  0.1210984E+00
          2   -1    0    0  503    0 -0.00000000000E+00  0.00000000000E+00  0.29278786467E+03  0.29278786467E+03  0.00000000000E+00 0. -1.
         21   -1    0    0  501  502  0.00000000000E+00 -0.00000000000E+00 -0.33950265976E+03  0.33950265976E+03  0.00000000000E+00 0. -1.
         24    2    1    2    0    0  0.21197583134E+02  0.22113615618E+02  0.17318005854E+03  0.19230263141E+03  0.77785730342E+02 0.  0.
         23    2    1    2    0    0 -0.15538272552E+03  0.15263893465E+02 -0.19945327074E+03  0.26923434486E+03  0.91261971308E+02 0.  0.
        -11    1    3    3    0    0 -0.76431166670E+01 -0.18546167219E+02  0.11005283235E+03  0.11186600672E+03  0.00000000000E+00 0.  1.
         12    1    3    3    0    0  0.28840699801E+02  0.40659782837E+02  0.63127226190E+02  0.80436624692E+02  0.00000000000E+00 0. -1.
        -13    1    4    4    0    0 -0.48478228161E+02  0.47768069885E+02 -0.61712758448E+02  0.91871604217E+02  0.00000000000E+00 0.  1.
         13    1    4    4    0    0 -0.10690449736E+03 -0.32504176419E+02 -0.13774051229E+03  0.17736274064E+03  0.00000000000E+00 0. -1.
         21    1    1    2  503  502  0.71396985361E+01 -0.30329702857E+02 -0.29870628017E+02  0.43163880603E+02  0.00000000000E+00 0. -1.
          1    1    1    2  501    0  0.12704544385E+03 -0.70478062265E+01  0.94290451337E+01  0.12758966756E+03  0.00000000000E+00 0. -1.
<scales pt_clust_5="13000.00000" pt_clust_6="13000.00000" pt_clust_7="13000.00000" pt_clust_8="13000.00000" pt_clust_9="31.15873" pt_clust_10="142.44082"></scales>
<clustering>
<clus scale="   31.159">  2  9  1 -1</clus>
<clus scale="   77.786">  5  6 -1 -1</clus>
<clus scale="   83.410">  1  5  2 -1</clus>
<clus scale="   91.262">  7  8 -1 -1</clus>
<clus scale="  142.441">  2 10  1 -1</clus>
<clus scale="   31.159">  2  5  1 -1</clus>
</clustering>
</event>
<event>
10    4  0.3043429E-005  0.1083538E+03  0.7546771E-02  0.1267570E+00
          2   -1    0    0  503    0 -0.00000000000E+00  0.00000000000E+00  0.73398106026E+03  0.73398106026E+03  0.00000000000E+00 0. -1.
         21   -1    0    0  501  502  0.00000000000E+00 -0.00000000000E+00 -0.54544396572E+02  0.54544396572E+02  0.00000000000E+00 0.  1.
         24    2    1    2    0    0  0.21841375049E+02 -0.63237349729E+02  0.35080662863E+03  0.36591061998E+03  0.79682388680E+02 0.  0.
         23    2    1    2    0    0 -0.14607255962E+01  0.39927932379E+02  0.52940883605E+02  0.11140585399E+03  0.89510634249E+02 0.  0.
        -11    1    3    3    0    0 -0.10991493980E+02 -0.69658145722E+02  0.24411099697E+03  0.25409299291E+03  0.00000000000E+00 0.  1.
         12    1    3    3    0    0  0.32832869030E+02  0.64207959934E+01  0.10669563166E+03  0.11181762707E+03  0.00000000000E+00 0. -1.
        -11    1    4    4    0    0 -0.37891098056E+02  0.37984188908E+02  0.52289092106E+02  0.74917842148E+02  0.00000000000E+00 0. -1.
         11    1    4    4    0    0  0.36430372459E+02  0.19437434710E+01  0.65179149918E+00  0.36488011845E+02  0.00000000000E+00 0.  1.
         21    1    1    2  503  502 -0.56913382589E+01 -0.57599599596E+02  0.78252538170E+02  0.97332239956E+02  0.00000000000E+00 0.  1.
          1    1    1    2  501    0 -0.14689311194E+02  0.80909016946E+02  0.19743661329E+03  0.21387674290E+03  0.00000000000E+00 0. -1.
<scales pt_clust_5="13000.00000" pt_clust_6="13000.00000" pt_clust_7="13000.00000" pt_clust_8="13000.00000" pt_clust_9="57.88009" pt_clust_10="72.12446"></scales>
<clustering>
<clus scale="   57.880">  2  9  1 -1</clus>
<clus scale="   72.124">  2 10  1 -1</clus>
<clus scale="   79.682">  5  6 -1 -1</clus>
<clus scale="   89.511">  7  8 -1 -1</clus>
<clus scale="  100.388">  1  5  2 -1</clus>
<clus scale="   57.880">  2  5  1 -1</clus>
</clustering>
</event>
<event>
10    4  0.3043429E-005  0.1021178E+03  0.7546771E-02  0.1277275E+00
          2   -1    0    0  502    0 -0.00000000000E+00  0.00000000000E+00  0.56024775424E+02  0.56024775424E+02  0.00000000000E+00 0. -1.
         21   -1    0    0  503  502  0.00000000000E+00 -0.00000000000E+00 -0.42095783852E+03  0.42095783852E+03  0.00000000000E+00 0.  1.
         23    2    1    2    0    0  0.26159675155E+02  0.80747891419E+01 -0.12295258385E+03  0.15148945843E+03  0.84155732526E+02 0.  0.
         24    2    1    2    0    0 -0.63689528528E+02 -0.66933070257E+02 -0.11655032415E+03  0.16932129151E+03  0.80927929420E+02 0.  0.
        -13    1    4    4    0    0 -0.82028695524E+02 -0.44750520466E+02 -0.95913564885E+02  0.13390566792E+03  0.00000000000E+00 0.  1.
         14    1    4    4    0    0  0.18339166997E+02 -0.22182549791E+02 -0.20636759269E+02  0.35415623593E+02  0.00000000000E+00 0. -1.
        -11    1    3    3    0    0  0.19609371997E+02 -0.36944571904E+02 -0.71266680226E+02  0.82633943230E+02  0.00000000000E+00 0.  1.
         11    1    3    3    0    0  0.65503031576E+01  0.45019361046E+02 -0.51685903626E+02  0.68855515205E+02  0.00000000000E+00 0. -1.
         21    1    1    2  503  501  0.23233830158E+02  0.17523334408E+02 -0.10297278266E+03  0.10700594414E+03  0.00000000000E+00 0. -1.
          1    1    1    2  501    0  0.14296023215E+02  0.41334946707E+02 -0.22457372431E+02  0.49165919858E+02  0.00000000000E+00 0. -1.
<scales pt_clust_5="13000.00000" pt_clust_6="13000.00000" pt_clust_7="13000.00000" pt_clust_8="13000.00000" pt_clust_9="29.10117" pt_clust_10="46.51146"></scales>
<clustering>
<clus scale="   29.101">  2  9  1 -1</clus>
<clus scale="   46.511">  2 10  1 -1</clus>
<clus scale="   80.928">  5  6 -1 -1</clus>
<clus scale="   84.156">  7  8 -1 -1</clus>
<clus scale="   99.475">  2  5  1 -1</clus>
<clus scale="   29.101">  2  5  1 -1</clus>
</clustering>
</event>
<event>
10    4  0.3043429E-005  0.4483827E+03  0.7546771E-02  0.1028357E+00
          2   -1    0    0  503    0 -0.00000000000E+00  0.00000000000E+00  0.25917362009E+04  0.25917362009E+04  0.00000000000E+00 0. -1.
         21   -1    0    0  501  502  0.00000000000E+00 -0.00000000000E+00 -0.19425314139E+03  0.19425314139E+03  0.00000000000E+00 0.  1.
         23    2    1    2    0    0  0.30695519724E+03  0.32261153199E+03  0.21752049095E+04  0.22221300139E+04  0.89697864619E+02 0.  0.
         24    2    1    2    0    0 -0.29368800031E+03 -0.27842885789E+03  0.17171340320E+03  0.44665504382E+03  0.78993448444E+02 0.  0.
        -13    1    4    4    0    0 -0.21081625508E+03 -0.21333950215E+03  0.89489512427E+02  0.31299458368E+03  0.00000000000E+00 0.  1.
         14    1    4    4    0    0 -0.82871745237E+02 -0.65089355738E+02  0.82223890775E+02  0.13366046013E+03  0.00000000000E+00 0. -1.
        -13    1    3    3    0    0  0.44239438530E+02  0.77835185298E+02  0.30966823388E+03  0.32235052205E+03  0.00000000000E+00 0. -1.
         13    1    3    3    0    0  0.26271575871E+03  0.24477634669E+03  0.18655366756E+04  0.18997794919E+04  0.00000000000E+00 0.  1.
         21    1    1    2  503  502 -0.52206807171E+02 -0.12974353996E+02  0.14751237475E+02  0.55780673926E+02  0.00000000000E+00 0.  1.
          1    1    1    2  501    0  0.38939610241E+02 -0.31208320107E+02  0.35813509393E+02  0.61423610645E+02  0.00000000000E+00 0. -1.
<scales pt_clust_5="13000.00000" pt_clust_6="13000.00000" pt_clust_7="13000.00000" pt_clust_8="13000.00000" pt_clust_9="50.57261" pt_clust_10="49.90243"></scales>
<clustering>
<clus scale="   49.902">  2 10  1 -1</clus>
<clus scale="   50.573">  2  9  1 -1</clus>
<clus scale="   78.993">  5  6 -1 -1</clus>
<clus scale="   89.698">  7  8 -1 -1</clus>
<clus scale="  446.365">  2  5  1 -1</clus>
<clus scale="   49.902">  2  5  1 -1</clus>
</clustering>
</event>
<event>
10    4  0.3043429E-005  0.1749620E+03  0.7546771E-02  0.1173327E+00
          2   -1    0    0  502    0 -0.00000000000E+00  0.00000000000E+00  0.12174369280E+03  0.12174369280E+03  0.00000000000E+00 0. -1.
         21   -1    0    0  503  502  0.00000000000E+00 -0.00000000000E+00 -0.45548626222E+03  0.45548626222E+03  0.00000000000E+00 0.  1.
         24    2    1    2    0    0  0.50998016028E+02  0.14100559430E+03 -0.12409257959E+03  0.21078473787E+03  0.80918861507E+02 0.  0.
         23    2    1    2    0    0  0.29014472308E+02 -0.16474740391E+03 -0.14887561405E+03  0.23971172235E+03  0.85523182090E+02 0.  0.
        -13    1    3    3    0    0  0.62027568629E+02  0.73697567195E+02 -0.98946751928E+02  0.13809131181E+03  0.00000000000E+00 0.  1.
         14    1    3    3    0    0 -0.11029552601E+02  0.67308027108E+02 -0.25145827657E+02  0.72693426060E+02  0.00000000000E+00 0. -1.
        -13    1    4    4    0    0 -0.21732233351E+02 -0.54148319907E+02 -0.82656528334E+02  0.10117525484E+03  0.00000000000E+00 0.  1.
         13    1    4    4    0    0  0.50746705659E+02 -0.11059908401E+03 -0.66219085711E+02  0.13853646751E+03  0.00000000000E+00 0. -1.
         21    1    1    2  503  501 -0.20533118685E+02  0.11342011186E+02 -0.61657535308E+02  0.65968946035E+02  0.00000000000E+00 0. -1.
          1    1    1    2  501    0 -0.59479369651E+02  0.12399798423E+02  0.88315951856E+00  0.60764548758E+02  0.00000000000E+00 0. -1.
<scales pt_clust_5="13000.00000" pt_clust_6="13000.00000" pt_clust_7="13000.00000" pt_clust_8="13000.00000" pt_clust_9="23.45741" pt_clust_10="62.47392"></scales>
<clustering>
<clus scale="   23.457">  2  9  1 -1</clus>
<clus scale="   62.474">  2 10  1 -1</clus>
<clus scale="   80.919">  5  6 -1 -1</clus>
<clus scale="   85.523">  7  8 -1 -1</clus>
<clus scale="  172.758">  1  5  2 -1</clus>
<clus scale="   23.457">  2  5  1 -1</clus>
</clustering>
</event>
<event>
10    4  0.3043429E-005  0.1024112E+03  0.7546771E-02  0.1280956E+00
         21   -1    0    0  503  502  0.00000000000E+00  0.00000000000E+00  0.97728821223E+02  0.97728821223E+02  0.00000000000E+00 0. -1.
         -1   -1    0    0    0  501 -0.00000000000E+00 -0.00000000000E+00 -0.39980720690E+03  0.39980720690E+03  0.00000000000E+00 0.  1.
         24    2    1    2    0    0 -0.13806245884E+02  0.54306776675E+02 -0.27394600233E+03  0.29101747943E+03  0.80653101156E+02 0.  0.
         23    2    1    2    0    0 -0.70255397005E+01 -0.11010872428E+02 -0.61808331859E+02  0.11194100632E+03  0.92411695624E+02 0.  0.
        -11    1    3    3    0    0 -0.18477195745E+02  0.24786070809E+02 -0.23599926766E+02  0.38893606314E+02  0.00000000000E+00 0.  1.
         12    1    3    3    0    0  0.46709498617E+01  0.29520705866E+02 -0.25034607556E+03  0.25212387312E+03  0.00000000000E+00 0. -1.
        -11    1    4    4    0    0  0.25306972770E+02  0.88047039607E+01 -0.68390671955E+02  0.73452363427E+02  0.00000000000E+00 0.  1.
         11    1    4    4    0    0 -0.32332512471E+02 -0.19815576388E+02  0.65823400956E+01  0.38488642888E+02  0.00000000000E+00 0. -1.
         21    1    1    2  503  501  0.47423029579E+02 -0.17864113823E+02  0.26132212713E+02  0.57017215281E+02  0.00000000000E+00 0. -1.
         -2    1    1    2    0  502 -0.26591243994E+02 -0.25431790424E+02  0.75437357993E+01  0.37560327091E+02  0.00000000000E+00 0.  1.
<scales pt_clust_5="13000.00000" pt_clust_6="13000.00000" pt_clust_7="13000.00000" pt_clust_8="13000.00000" pt_clust_9="45.71498" pt_clust_10="36.79498"></scales>
<clustering>
<clus scale="   36.795">  1 10  2 -1</clus>
<clus scale="   45.715">  1  9  2 -1</clus>
<clus scale="   80.653">  5  6 -1 -1</clus>
<clus scale="   91.940">  2  5  1 -1</clus>
<clus scale="   92.412">  7  8 -1 -1</clus>
<clus scale="   36.795">  1  5  2 -1</clus>
</clustering>
</event>
<event>
10    4  0.3043429E-005  0.1473336E+03  0.7546771E-02  0.1210562E+00
         21   -1    0    0  503  502  0.00000000000E+00  0.00000000000E+00  0.62970751209E+02  0.62970751209E+02  0.00000000000E+00 0.  1.
         -3   -1    0    0    0  501 -0.00000000000E+00 -0.00000000000E+00 -0.15685272113E+04  0.15685272113E+04  0.00000000000E+00 0.  1.
         24    2    1    2    0    0  0.11611719172E+03  0.68047850581E+02 -0.64488540137E+03  0.66374798110E+03  0.81058554977E+02 0.  0.
         23    2    1    2    0    0  0.29545943383E+01  0.96831648080E+02 -0.19331717097E+03  0.23250042043E+03  0.85438979472E+02 0.  0.
        -13    1    3    3    0    0  0.10422019514E+03  0.22343211536E+02 -0.37910291824E+03  0.39380209597E+03  0.00000000000E+00 0.  1.
         14    1    3    3    0    0  0.11896996582E+02  0.45704639045E+02 -0.26578248313E+03  0.26994588513E+03  0.00000000000E+00 0. -1.
        -13    1    4    4    0    0  0.16779623154E+02  0.20000498425E+02 -0.12823212994E+03  0.13086273282E+03  0.00000000000E+00 0. -1.
         13    1    4    4    0    0 -0.13825028816E+02  0.76831149654E+02 -0.65085041026E+02  0.10163768762E+03  0.00000000000E+00 0.  1.
         21    1    1    2  503  501 -0.65368346806E+01 -0.13759877516E+03 -0.14415925792E+03  0.19939419444E+03  0.00000000000E+00 0.  1.
         -4    1    1    2    0  502 -0.11253495138E+03 -0.27280723505E+02 -0.52319462987E+03  0.53585536657E+03  0.00000000000E+00 0.  1.
<scales pt_clust_5="13000.00000" pt_clust_6="13000.00000" pt_clust_7="13000.00000" pt_clust_8="13000.00000" pt_clust_9="123.03127" pt_clust_10="115.79450"></scales>
<clustering>
<clus scale="   81.059">  5  6 -1 -1</clus>
<clus scale="   85.439">  7  8 -1 -1</clus>
<clus scale="  115.795">  1 10  2 -1</clus>
<clus scale="  127.404">  1  7  2 -1</clus>
<clus scale="  123.031">  1  9  2 -1</clus>
<clus scale="  115.795">  1  5  2 -1</clus>
</clustering>
</event>
<event>
10    4  0.3043429E-005  0.1071818E+03  0.7546771E-02  0.1269364E+00
         21   -1    0    0  503  502  0.00000000000E+00  0.00000000000E+00  0.18639658231E+03  0.18639658231E+03  0.00000000000E+00 0.  1.
          2   -1    0    0  502    0 -0.00000000000E+00 -0.00000000000E+00 -0.90984750945E+03  0.90984750945E+03  0.00000000000E+00 0. -1.
         24    2    1    2    0    0  0.54561003164E+02  0.23976694906E+02 -0.80443525905E+03  0.81077365536E+03  0.81768265595E+02 0.  0.
         23    2    1    2    0    0  0.26623736993E+02 -0.69721660302E+02  0.60758362891E+02  0.13191338920E+03  0.90219899707E+02 0.  0.
        -13    1    3    3    0    0  0.30259729177E+02  0.14689326088E+02 -0.93565528569E+02  0.99428042559E+02  0.00000000000E+00 0.  1.
         14    1    3    3    0    0  0.24301273988E+02  0.92873688177E+01 -0.71086973048E+03  0.71134561280E+03  0.00000000000E+00 0. -1.
        -13    1    4    4    0    0  0.96161433472E+01 -0.87479235106E+02  0.61414077701E+02  0.10731624168E+03  0.00000000000E+00 0.  1.
         13    1    4    4    0    0  0.17007593646E+02  0.17757574804E+02 -0.65571480953E+00  0.24597147527E+02  0.00000000000E+00 0. -1.
         21    1    1    2  503  501  0.15968313992E+02  0.35697217487E+02  0.37718227473E+02  0.54331786937E+02  0.00000000000E+00 0. -1.
          1    1    1    2  501    0 -0.97153054150E+02  0.10047747909E+02 -0.17492258455E+02  0.99225260264E+02  0.00000000000E+00 0. -1.
<scales pt_clust_5="13000.00000" pt_clust_6="13000.00000" pt_clust_7="13000.00000" pt_clust_8="13000.00000" pt_clust_9="39.10599" pt_clust_10="94.73558"></scales>
<clustering>
<clus scale="   39.106">  1  9  2 -1</clus>
<clus scale="   81.768">  5  6 -1 -1</clus>
<clus scale="   90.220">  7  8 -1 -1</clus>
<clus scale="   94.736">  1 10  2 -1</clus>
<clus scale="  100.172">  2  5  1 -1</clus>
<clus scale="   39.106">  1  5  2 -1</clus>
</clustering>
</event>
<event>
10    4  0.3043429E-005  0.2235105E+03  0.7546771E-02  0.1131991E+00
         -1   -1    0    0    0  501 -0.00000000000E+00  0.00000000000E+00  0.61037492960E+03  0.61037492960E+03  0.00000000000E+00 0.  1.
         21   -1    0    0  503  502  0.00000000000E+00 -0.00000000000E+00 -0.37562369523E+03  0.37562369523E+03  0.00000000000E+00 0.  1.
         24    2    1    2    0    0  0.14203173595E+03  0.27608654557E+02  0.77252047823E+02  0.18290931673E+03  0.80948671572E+02 0.  0.
         23    2    1    2    0    0 -0.32541224777E+03 -0.90038948752E+02  0.14153221829E+03  0.37717874742E+03  0.90731997649E+02 0.  0.
        -11    1    3    3    0    0  0.12409698252E+03  0.49748445981E+02  0.47943301089E+02  0.14203354909E+03  0.00000000000E+00 0.  1.
         12    1    3    3    0    0  0.17934753437E+02 -0.22139791425E+02  0.29308746734E+02  0.40875767642E+02  0.00000000000E+00 0. -1.
        -11    1    4    4    0    0 -0.16314290427E+03 -0.78166608017E+02  0.39609718530E+02  0.18518789276E+03  0.00000000000E+00 0.  1.
         11    1    4    4    0    0 -0.16226934350E+03 -0.11872340735E+02  0.10192249976E+03  0.19199085466E+03  0.00000000000E+00 0. -1.
         21    1    1    2  503  501  0.39300833036E+02  0.22659319605E+02 -0.17649146368E+03  0.18222852959E+03  0.00000000000E+00 0.  1.
         -2    1    1    2    0  502  0.14407967878E+03  0.39770974590E+02  0.19245843193E+03  0.24368203110E+03  0.00000000000E+00 0.  1.
<scales pt_clust_5="13000.00000" pt_clust_6="13000.00000" pt_clust_7="13000.00000" pt_clust_8="13000.00000" pt_clust_9="45.36519" pt_clust_10="155.20574"></scales>
<clustering>
<clus scale="   45.365">  2  9  1 -1</clus>
<clus scale="   80.949">  5  6 -1 -1</clus>
<clus scale="   90.732">  7  8 -1 -1</clus>
<clus scale="  155.206">  2 10  1 -1</clus>
<clus scale="  219.721">  1  5  2 -1</clus>
<clus scale="   45.365">  2  5  1 -1</clus>
</clustering>
</event>
<event>
10    4  0.3043429E-005  0.1087763E+03  0.7546771E-02  0.1266898E+00
          2   -1    0    0  503    0 -0.00000000000E+00  0.00000000000E+00  0.31869369729E+03  0.31869369729E+03  0.00000000000E+00 0. -1.
         21   -1    0    0  501  502  0.00000000000E+00 -0.00000000000E+00 -0.13887378505E+03  0.13887378505E+03  0.00000000000E+00 0. -1.
         24    2    1    2    0    0 -0.15556862560E+02 -0.59233163174E+02  0.12383865818E+03  0.16014442245E+03  0.80991599509E+02 0.  0.
         23    2    1    2    0    0  0.77431758248E+02 -0.18271098589E+02 -0.41765848225E+02  0.12790836056E+03  0.91031051819E+02 0.  0.
        -11    1    3    3    0    0 -0.33622415590E+02 -0.80845131551E+01  0.13369103092E+02  0.37075046872E+02  0.00000000000E+00 0.  1.
         12    1    3    3    0    0  0.18065553030E+02 -0.51148650019E+02  0.11046955508E+03  0.12306937558E+03  0.00000000000E+00 0. -1.
        -11    1    4    4    0    0  0.22253918642E+02  0.35320550648E+02 -0.32191213920E+01  0.41870525857E+02  0.00000000000E+00 0.  1.
         11    1    4    4    0    0  0.55177839606E+02 -0.53591649237E+02 -0.38546726833E+02  0.86037834707E+02  0.00000000000E+00 0. -1.
         21    1    1    2  503  502 -0.82164291467E+01 -0.23076451689E+02  0.17411399627E+02  0.30053105787E+02  0.00000000000E+00 0.  1.
          1    1    1    2  501    0 -0.53658466541E+02  0.10058071345E+03  0.80335702667E+02  0.13946159354E+03  0.00000000000E+00 0. -1.
<scales pt_clust_5="13000.00000" pt_clust_6="13000.00000" pt_clust_7="13000.00000" pt_clust_8="13000.00000" pt_clust_9="24.49556" pt_clust_10="108.06466"></scales>
<clustering>
<clus scale="   24.496">  1  9  2 -1</clus>
<clus scale="   80.992">  5  6 -1 -1</clus>
<clus scale="   91.031">  7  8 -1 -1</clus>
<clus scale="  108.065">  2 10  1 -1</clus>
<clus scale="  100.525">  1  5  2 -1</clus>
<clus scale="  108.065">  2  5  1 -1</clus>
</clustering>
</event>
<event>
10    4  0.3043429E-005  0.1438415E+03  0.7546771E-02  0.1210103E+00
          2   -1    0    0  502    0 -0.00000000000E+00  0.00000000000E+00  0.58653247931E+02  0.58653247931E+02  0.00000000000E+00 0. -1.
         21   -1    0    0  503  502  0.00000000000E+00 -0.00000000000E+00 -0.64140858157E+03  0.64140858157E+03  0.00000000000E+00 0. -1.
         23    2    1    2    0    0 -0.72544694990E+02  0.63091893056E+02 -0.17260279128E+03  0.21660524422E+03  0.88785069261E+02 0.  0.
         24    2    1    2    0    0  0.96709692112E+02 -0.10402011114E+03 -0.30461931582E+03  0.34536006132E+03  0.79421006736E+02 0.  0.
        -11    1    4    4    0    0  0.50470203202E+02 -0.17609568561E+01 -0.94243563329E+02  0.10692142727E+03  0.00000000000E+00 0.  1.
         12    1    4    4    0    0  0.46239488910E+02 -0.10225915429E+03 -0.21037575249E+03  0.23843863405E+03  0.00000000000E+00 0. -1.
        -11    1    3    3    0    0 -0.93012681689E+02  0.45632231479E+02 -0.14324959283E+03  0.17678830660E+03  0.00000000000E+00 0. -1.
         11    1    3    3    0    0  0.20467986698E+02  0.17459661577E+02 -0.29353198453E+02  0.39816937618E+02  0.00000000000E+00 0.  1.
         21    1    1    2  503  501  0.16244152129E+02  0.27072822750E+02 -0.85049992859E+02  0.90721064232E+02  0.00000000000E+00 0. -1.
          1    1    1    2  501    0 -0.40409149251E+02  0.13855395335E+02 -0.20483233673E+02  0.47375459732E+02  0.00000000000E+00 0. -1.
<scales pt_clust_5="13000.00000" pt_clust_6="13000.00000" pt_clust_7="13000.00000" pt_clust_8="13000.00000" pt_clust_9="31.57230" pt_clust_10="42.35719"></scales>
<clustering>
<clus scale="   31.572">  2  9  1 -1</clus>
<clus scale="   42.357">  2 10  1 -1</clus>
<clus scale="   79.421">  5  6 -1 -1</clus>
<clus scale="   88.785">  7  8 -1 -1</clus>
<clus scale="  138.258">  2  5  1 -1</clus>
<clus scale="   31.572">  2  5  1 -1</clus>
</clustering>
</event>
<event>
10    4  0.3043429E-005  0.9216663E+02  0.7546771E-02  0.1304525E+00
         21   -1    0    0  501  502  0.00000000000E+00  0.00000000000E+00  0.29711465168E+03  0.29711465168E+03  0.00000000000E+00 0. -1.
          2   -1    0    0  503    0 -0.00000000000E+00 -0.00000000000E+00 -0.55691846432E+03  0.55691846432E+03  0.00000000000E+00 0. -1.
         24    2    1    2    0    0  0.11907001345E+02 -0.37773998877E+01 -0.49644638037E+03  0.50309271340E+03  0.80543306738E+02 0.  0.
         23    2    1    2    0    0  0.73710916351E+01 -0.35194451613E+02  0.54915724607E+01  0.98489733799E+02  0.91526432682E+02 0.  0.
        -13    1    3    3    0    0 -0.74832638464E+01 -0.34374357149E+02 -0.12414433135E+03  0.12903259539E+03  0.00000000000E+00 0.  1.
         14    1    3    3    0    0  0.19390265191E+02  0.30596957262E+02 -0.37230204902E+03  0.37406011801E+03  0.00000000000E+00 0. -1.
        -13    1    4    4    0    0 -0.24487088944E+02 -0.36757154061E+02  0.33978094045E+02  0.55724471954E+02  0.00000000000E+00 0.  1.
         13    1    4    4    0    0  0.31858180579E+02  0.15627024480E+01 -0.28486521584E+02  0.42765261845E+02  0.00000000000E+00 0. -1.
         21    1    1    2  503  502 -0.77661162733E+01 -0.20664261671E+02  0.12180740638E+02  0.25212987028E+02  0.00000000000E+00 0.  1.
          1    1    1    2  501    0 -0.11511976706E+02  0.59636113171E+02  0.21897025463E+03  0.22723768177E+03  0.00000000000E+00 0. -1.
<scales pt_clust_5="13000.00000" pt_clust_6="13000.00000" pt_clust_7="13000.00000" pt_clust_8="13000.00000" pt_clust_9="22.07542" pt_clust_10="46.58527"></scales>
<clustering>
<clus scale="   22.075">  1  9  2 -1</clus>
<clus scale="   46.585">  1 10  2 -1</clus>
<clus scale="   80.543">  5  6 -1 -1</clus>
<clus scale="   81.270">  2  5  1 -1</clus>
<clus scale="   91.526">  7  8 -1 -1</clus>
<clus scale="   22.075">  1  5  2 -1</clus>
</clustering>
</event>
<event>
10    4  0.3043429E-005  0.5158824E+03  0.7546771E-02  0.1009715E+00
          2   -1    0    0  503    0 -0.00000000000E+00  0.00000000000E+00  0.20618071757E+04  0.20618071757E+04  0.00000000000E+00 0. -1.
         21   -1    0    0  501  502  0.00000000000E+00 -0.00000000000E+00 -0.13694867036E+03  0.13694867036E+03  0.00000000000E+00 0.  1.
         24    2    1    2    0    0  0.20337608403E+02 -0.77171364199E+02  0.22582841457E+03  0.25252731846E+03  0.80015848280E+02 0.  0.
         23    2    1    2    0    0 -0.15024887544E+02 -0.40108943734E+03  0.84480263202E+03  0.93960203174E+03  0.89788679572E+02 0.  0.
        -13    1    3    3    0    0  0.43316955191E+02 -0.19561678173E+02  0.12961771778E+03  0.13805712811E+03  0.00000000000E+00 0.  1.
         14    1    3    3    0    0 -0.22979346787E+02 -0.57609686026E+02  0.96210696793E+02  0.11447019036E+03  0.00000000000E+00 0. -1.
        -13    1    4    4    0    0 -0.44334222769E+02 -0.27477642896E+03  0.51854209322E+03  0.58851806401E+03  0.00000000000E+00 0.  1.
         13    1    4    4    0    0  0.29309335224E+02 -0.12631300838E+03  0.32626053880E+03  0.35108396773E+03  0.00000000000E+00 0. -1.
         21    1    1    2  503  502 -0.11629061987E+02  0.17970063278E+02 -0.12823523840E+02  0.24951974282E+02  0.00000000000E+00 0. -1.
          1    1    1    2  501    0  0.63163411276E+01  0.46029073827E+03  0.86705098259E+03  0.98167452158E+03  0.00000000000E+00 0. -1.
<scales pt_clust_5="13000.00000" pt_clust_6="13000.00000" pt_clust_7="13000.00000" pt_clust_8="13000.00000" pt_clust_9="21.40463" pt_clust_10="469.01465"></scales>
<clustering>
<clus scale="   21.405">  2  9  1 -1</clus>
<clus scale="   80.016">  5  6 -1 -1</clus>
<clus scale="   89.789">  7  8 -1 -1</clus>
<clus scale="   92.706">  5  7 -1 -1</clus>
<clus scale="  469.015">  2 10  1 -1</clus>
<clus scale="   21.405">  2  5  1 -1</clus>
</clustering>
</event>
<event>
10    4  0.3043429E-005  0.1828233E+03  0.7546771E-02  0.1194145E+00
         21   -1    0    0  503  502  0.00000000000E+00  0.00000000000E+00  0.11224891288E+03  0.11224891288E+03  0.00000000000E+00 0.  1.
         -1   -1    0    0    0  501 -0.00000000000E+00 -0.00000000000E+00 -0.55128885806E+03  0.55128885806E+03  0.00000000000E+00 0.  1.
         24    2    1    2    0    0  0.36041119390E+02 -0.41674684205E+02 -0.13383227633E+03  0.16536087515E+03  0.79983743663E+02 0.  0.
         23    2    1    2    0    0 -0.11788692582E+03 -0.81278153762E+02 -0.16866600842E+03  0.24057379131E+03  0.94467248868E+02 0.  0.
        -11    1    3    3    0    0  0.49221183804E+02 -0.15758853111E+02 -0.12453886181E+03  0.13483691812E+03  0.00000000000E+00 0.  1.
         12    1    3    3    0    0 -0.13180064414E+02 -0.25915831095E+02 -0.92934145231E+01  0.30523957030E+02  0.00000000000E+00 0. -1.
        -13    1    4    4    0    0 -0.94162623940E+02 -0.99052939724E+02 -0.15838285448E+03  0.20919658986E+03  0.00000000000E+00 0.  1.
         13    1    4    4    0    0 -0.23724301885E+02  0.17774785962E+02 -0.10283153943E+02  0.31377201452E+02  0.00000000000E+00 0. -1.
         21    1    1    2  503  501 -0.36792057612E+02 -0.16811156945E+01  0.17132444643E+01  0.36870270678E+02  0.00000000000E+00 0.  1.
         -2    1    1    2    0  502  0.11863786405E+03  0.12463395366E+03 -0.13825490489E+03  0.22073283380E+03  0.00000000000E+00 0.  1.
<scales pt_clust_5="13000.00000" pt_clust_6="13000.00000" pt_clust_7="13000.00000" pt_clust_8="13000.00000" pt_clust_9="36.83044" pt_clust_10="156.52575"></scales>
<clustering>
<clus scale="   36.830">  1  9  2 -1</clus>
<clus scale="   79.984">  5  6 -1 -1</clus>
<clus scale="   94.467">  7  8 -1 -1</clus>
<clus scale="   95.111">  2  5  1 -1</clus>
<clus scale="  156.526">  1 10  2 -1</clus>
<clus scale="   36.830">  1  5  2 -1</clus>
</clustering>
</event>
<event>
10    4  0.3043429E-005  0.1865147E+03  0.7546771E-02  0.1194397E+00
          2   -1    0    0  502    0 -0.00000000000E+00  0.00000000000E+00  0.75347364468E+03  0.75347364468E+03  0.00000000000E+00 0. -1.
         21   -1    0    0  503  502  0.00000000000E+00 -0.00000000000E+00 -0.51190375833E+03  0.51190375833E+03  0.00000000000E+00 0. -1.
         24    2    1    2    0    0 -0.30754801159E+02 -0.26447784847E+02  0.55984333212E+03  0.56696260988E+03  0.79854250747E+02 0.  0.
         23    2    1    2    0    0  0.13011440087E+03 -0.11308826325E+03  0.58301903763E+02  0.20372958306E+03  0.91585579845E+02 0.  0.
        -11    1    3    3    0    0 -0.26494010014E+02  0.14295287981E+02  0.81740284040E+02  0.87107760044E+02  0.00000000000E+00 0.  1.
         12    1    3    3    0    0 -0.42607911457E+01 -0.40743072829E+02  0.47810304808E+03  0.47985484984E+03  0.00000000000E+00 0. -1.
        -11    1    4    4    0    0  0.96098659850E+02 -0.40207674354E+02  0.65383834702E+02  0.12299046850E+03  0.00000000000E+00 0. -1.
         11    1    4    4    0    0  0.34015741016E+02 -0.72880588892E+02 -0.70819309394E+01  0.80739114560E+02  0.00000000000E+00 0.  1.
         21    1    1    2  503  501  0.26767974020E+02  0.52991056963E+02 -0.32926050105E+03  0.33456995398E+03  0.00000000000E+00 0. -1.
          1    1    1    2  501    0 -0.12612757373E+03  0.86544991131E+02 -0.47314848482E+02  0.16011525608E+03  0.00000000000E+00 0. -1.
<scales pt_clust_5="13000.00000" pt_clust_6="13000.00000" pt_clust_7="13000.00000" pt_clust_8="13000.00000" pt_clust_9="59.36814" pt_clust_10="162.48015"></scales>
<clustering>
<clus scale="   59.368">  2  9  1 -1</clus>
<clus scale="   79.854">  5  6 -1 -1</clus>
<clus scale="   89.081">  1  5  2 -1</clus>
<clus scale="   91.586">  7  8 -1 -1</clus>
<clus scale="  162.480">  2 10  1 -1</clus>
<clus scale="   59.368">  2  5  1 -1</clus>
</clustering>
</event>
<event>
10    4  0.3043429E-005  0.2458596E+03  0.7546771E-02  0.1149078E+00
          2   -1    0    0  503    0 -0.00000000000E+00  0.00000000000E+00  0.11113850367E+04  0.11113850367E+04  0.00000000000E+00 0. -1.
         21   -1    0    0  501  502  0.00000000000E+00 -0.00000000000E+00 -0.38364865525E+03  0.38364865525E+03  0.00000000000E+00 0. -1.
         23    2    1    2    0    0  0.57444294599E+02 -0.30047006703E+02  0.13976367904E+03  0.17824320626E+03  0.89633057540E+02 0.  0.
         24    2    1    2    0    0 -0.24888219840E+03 -0.10067959622E+03  0.78750660971E+03  0.83590314605E+03  0.80552339930E+02 0.  0.
        -13    1    4    4    0    0 -0.13203310943E+03 -0.96181677752E+02  0.46274020940E+03  0.49072615430E+03  0.00000000000E+00 0.  1.
         14    1    4    4    0    0 -0.11684908897E+03 -0.44979184722E+01  0.32476640031E+03  0.34517699175E+03  0.00000000000E+00 0. -1.
        -11    1    3    3    0    0  0.30532893072E+02  0.17442917619E+02  0.11121832062E+03  0.11664487891E+03  0.00000000000E+00 0.  1.
         11    1    3    3    0    0  0.26911401527E+02 -0.47489924322E+02  0.28545358414E+02  0.61598327342E+02  0.00000000000E+00 0. -1.
         21    1    1    2  503  502  0.19715424794E+03  0.47720835536E+02 -0.29260984913E+03  0.35604437846E+03  0.00000000000E+00 0. -1.
          1    1    1    2  501    0 -0.57163441429E+01  0.83005767391E+02  0.93075941880E+02  0.12484296123E+03  0.00000000000E+00 0. -1.
<scales pt_clust_5="13000.00000" pt_clust_6="13000.00000" pt_clust_7="13000.00000" pt_clust_8="13000.00000" pt_clust_9="232.28918" pt_clust_10="83.20241"></scales>
<clustering>
<clus scale="   80.552">  5  6 -1 -1</clus>
<clus scale="   83.202">  2 10  1 -1</clus>
<clus scale="   89.633">  7  8 -1 -1</clus>
<clus scale="  109.364">  1  7  2 -1</clus>
<clus scale="  232.289">  2  9  1 -1</clus>
<clus scale="   83.202">  2  5  1 -1</clus>
</clustering>
</event>
<event>
10    4  0.3043429E-005  0.9592748E+02  0.7546771E-02  0.1294784E+00
         21   -1    0    0  503  502  0.00000000000E+00  0.00000000000E+00  0.50978518774E+03  0.50978518774E+03  0.00000000000E+00 0. -1.
         -1   -1    0    0    0  501 -0.00000000000E+00 -0.00000000000E+00 -0.44213342677E+02  0.44213342677E+02  0.00000000000E+00 0.  1.
         23    2    1    2    0    0  0.27624947640E+02  0.17981860806E+02  0.42051177934E+02  0.10491190701E+03  0.90286885078E+02 0.  0.
         24    2    1    2    0    0 -0.33404065872E+02 -0.36909806267E+01  0.17498047027E+03  0.19529392259E+03  0.79950586437E+02 0.  0.
        -13    1    4    4    0    0  0.24838119225E+02 -0.32130380596E+01  0.30180182436E+02  0.39218607728E+02  0.00000000000E+00 0.  1.
         14    1    4    4    0    0 -0.58242185097E+02 -0.47794256719E+00  0.14480028783E+03  0.15607531486E+03  0.00000000000E+00 0. -1.
        -13    1    3    3    0    0  0.20831441660E+01  0.45980769880E+02  0.48053102409E+02  0.66540749466E+02  0.00000000000E+00 0. -1.
         13    1    3    3    0    0  0.25541803474E+02 -0.27998909073E+02 -0.60019244753E+01  0.38371157546E+02  0.00000000000E+00 0.  1.
         21    1    1    2  503  501 -0.20012213110E+02 -0.13247645935E+02  0.15097715863E+03  0.15287279426E+03  0.00000000000E+00 0. -1.
         -2    1    1    2    0  502  0.25791331342E+02 -0.10432342449E+01  0.97563038228E+02  0.10091990655E+03  0.00000000000E+00 0.  1.
<scales pt_clust_5="13000.00000" pt_clust_6="13000.00000" pt_clust_7="13000.00000" pt_clust_8="13000.00000" pt_clust_9="23.99977" pt_clust_10="20.78392"></scales>
<clustering>
<clus scale="   24.000">  1  9  2 -1</clus>
<clus scale="   20.784">  1 10  2 -1</clus>
<clus scale="   79.951">  5  6 -1 -1</clus>
<clus scale="   86.270">  1  5  2 -1</clus>
<clus scale="   90.287">  7  8 -1 -1</clus>
<clus scale="   24.000">  1  5  2 -1</clus>
</clustering>
</event>
<event>
10    4  0.3043429E-005  0.4894902E+03  0.7546771E-02  0.1016559E+00
         21   -1    0    0  503  502  0.00000000000E+00  0.00000000000E+00  0.24972845977E+03  0.24972845977E+03  0.00000000000E+00 0.  1.
          2   -1    0    0  502    0 -0.00000000000E+00 -0.00000000000E+00 -0.12242611931E+04  0.12242611931E+04  0.00000000000E+00 0. -1.
         24    2    1    2    0    0  0.23397919645E+03 -0.24994336965E+03 -0.72095147796E+02  0.35904406580E+03  0.80603836442E+02 0.  0.
         23    2    1    2    0    0  0.57711333467E+02 -0.10472761749E+03 -0.10682790750E+03  0.18334173294E+03  0.88901728561E+02 0.  0.
        -13    1    3    3    0    0  0.13268003452E+03 -0.19409349893E+03 -0.35871424338E+02  0.23782984878E+03  0.00000000000E+00 0.  1.
         14    1    3    3    0    0  0.10129916193E+03 -0.55849870724E+02 -0.36223723458E+02  0.12121421702E+03  0.00000000000E+00 0. -1.
        -11    1    4    4    0    0  0.25933997711E+02  0.21590804941E+01 -0.54014988500E+02  0.59957091728E+02  0.00000000000E+00 0.  1.
         11    1    4    4    0    0  0.31777335756E+02 -0.10688669799E+03 -0.52812919004E+02  0.12338464122E+03  0.00000000000E+00 0. -1.
         21    1    1    2  503  501 -0.13968964965E+02  0.31028427490E+02 -0.65235994236E+01  0.34647548891E+02  0.00000000000E+00 0.  1.
          1    1    1    2  501    0 -0.27772156495E+03  0.32364255966E+03 -0.78908607861E+03  0.89695630524E+03  0.00000000000E+00 0. -1.
<scales pt_clust_5="13000.00000" pt_clust_6="13000.00000" pt_clust_7="13000.00000" pt_clust_8="13000.00000" pt_clust_9="34.02786" pt_clust_10="433.94339"></scales>
<clustering>
<clus scale="   34.028">  1  9  2 -1</clus>
<clus scale="   80.604">  5  6 -1 -1</clus>
<clus scale="   88.902">  7  8 -1 -1</clus>
<clus scale="  107.752">  5  7 -1 -1</clus>
<clus scale="  433.943">  1 10  2 -1</clus>
<clus scale="   34.028">  1  5  2 -1</clus>
</clustering>
</event>
<event>
10    4  0.3043429E-005  0.9394296E+02  0.7546771E-02  0.1301731E+00
         -3   -1    0    0    0  501 -0.00000000000E+00  0.00000000000E+00  0.34133754795E+03  0.34133754795E+03  0.00000000000E+00 0.  1.
         21   -1    0    0  503  502  0.00000000000E+00 -0.00000000000E+00 -0.11514634846E+03  0.11514634846E+03  0.00000000000E+00 0. -1.
         23    2    1    2    0    0 -0.25998607271E+02 -0.13552963518E+01  0.24381145647E+03  0.26180201163E+03  0.91752398225E+02 0.  0.
         24    2    1    2    0    0 -0.94582792219E+01  0.30996450188E+02  0.16057497607E+02  0.86181081444E+02  0.78224654677E+02 0.  0.
        -11    1    4    4    0    0 -0.23343781638E+02  0.15934746900E+02  0.43536461078E+02  0.51906374783E+02  0.00000000000E+00 0.  1.
         12    1    4    4    0    0  0.13885502416E+02  0.15061703288E+02 -0.27478963471E+02  0.34274706661E+02  0.00000000000E+00 0. -1.
        -11    1    3    3    0    0 -0.14744563610E+02  0.41284346626E+02  0.17227117998E+03  0.17776152251E+03  0.00000000000E+00 0.  1.
         11    1    3    3    0    0 -0.11254043661E+02 -0.42639642978E+02  0.71540276491E+02  0.84040489125E+02  0.00000000000E+00 0. -1.
         21    1    1    2  503  501  0.34834941116E+01 -0.49357210278E+02 -0.47389382825E+02  0.68512937043E+02  0.00000000000E+00 0. -1.
         -4    1    1    2    0  502  0.31973392381E+02  0.19716056442E+02  0.13711628239E+02  0.39987866296E+02  0.00000000000E+00 0.  1.
<scales pt_clust_5="13000.00000" pt_clust_6="13000.00000" pt_clust_7="13000.00000" pt_clust_8="13000.00000" pt_clust_9="43.86955" pt_clust_10="37.56356"></scales>
<clustering>
<clus scale="   37.564">  2 10  1 -1</clus>
<clus scale="   43.870">  2  9  1 -1</clus>
<clus scale="   78.225">  5  6 -1 -1</clus>
<clus scale="   80.783">  2  5  1 -1</clus>
<clus scale="   91.752">  7  8 -1 -1</clus>
<clus scale="   37.564">  2  5  1 -1</clus>
</clustering>
</event>
<event>
10    4  0.3043429E-005  0.9265941E+02  0.7546771E-02  0.1301841E+00
          2   -1    0    0  503    0 -0.00000000000E+00  0.00000000000E+00  0.25322334393E+03  0.25322334393E+03  0.00000000000E+00 0. -1.
         21   -1    0    0  501  502  0.00000000000E+00 -0.00000000000E+00 -0.29804702251E+03  0.29804702251E+03  0.00000000000E+00 0. -1.
         24    2    1    2    0    0 -0.20476255951E+01 -0.13412232560E+01  0.10040307464E+03  0.13073969600E+03  0.83702443587E+02 0.  0.
         23    2    1    2    0    0  0.84661177987E+02 -0.52711309098E+02 -0.21869582627E+03  0.25750164518E+03  0.92375514511E+02 0.  0.
        -13    1    3    3    0    0  0.21510841490E+02  0.17461558876E+02  0.19485184434E+01  0.27774431842E+02  0.00000000000E+00 0.  1.
         14    1    3    3    0    0 -0.23558467085E+02 -0.18802782132E+02  0.98454556192E+02  0.10296526415E+03  0.00000000000E+00 0. -1.
        -13    1    4    4    0    0  0.59197130202E+02 -0.79355208534E+02 -0.16324322069E+03  0.19091856496E+03  0.00000000000E+00 0. -1.
         13    1    4    4    0    0  0.25464047785E+02  0.26643899436E+02 -0.55452605573E+02  0.66583080220E+02  0.00000000000E+00 0.  1.
         21    1    1    2  503  502 -0.35834809709E+02  0.15444149702E+02 -0.25741249430E+02  0.46746842344E+02  0.00000000000E+00 0.  1.
          1    1    1    2  501    0 -0.46778742683E+02  0.38608382652E+02  0.99210322475E+02  0.11628218292E+03  0.00000000000E+00 0. -1.
<scales pt_clust_5="13000.00000" pt_clust_6="13000.00000" pt_clust_7="13000.00000" pt_clust_8="13000.00000" pt_clust_9="39.02122" pt_clust_10="61.87627"></scales>
<clustering>
<clus scale="   39.021">  2  9  1 -1</clus>
<clus scale="   61.876">  2 10  1 -1</clus>
<clus scale="   83.702">  5  6 -1 -1</clus>
<clus scale="   84.016">  1  5  2 -1</clus>
<clus scale="   92.376">  7  8 -1 -1</clus>
<clus scale="   39.021">  2  5  1 -1</clus>
</clustering>
</event>
<event>
10    4  0.3043429E-005  0.1789224E+03  0.7546771E-02  0.1184818E+00
         21   -1    0    0  501  502  0.00000000000E+00  0.00000000000E+00  0.10064942803E+03  0.10064942803E+03  0.00000000000E+00 0. -1.
          2   -1    0    0  503    0 -0.00000000000E+00 -0.00000000000E+00 -0.12274112028E+04  0.12274112028E+04  0.00000000000E+00 0. -1.
         24    2    1    2    0    0  0.10275581939E+03 -0.10404986026E+03 -0.58041756437E+03  0.60390628296E+03  0.80206718705E+02 0.  0.
         23    2    1    2    0    0 -0.11860765181E+03 -0.83835259897E+02 -0.25335891538E+03  0.30463030704E+03  0.86676167988E+02 0.  0.
        -13    1    3    3    0    0  0.78246624955E+02 -0.52944089173E+02 -0.22549252171E+03  0.24448412677E+03  0.00000000000E+00 0.  1.
         14    1    3    3    0    0  0.24509194437E+02 -0.51105771090E+02 -0.35492504266E+03  0.35942215619E+03  0.00000000000E+00 0. -1.
        -11    1    4    4    0    0 -0.17030473489E+02 -0.63241156387E+02 -0.99084692402E+02  0.11877397508E+03  0.00000000000E+00 0.  1.
         11    1    4    4    0    0 -0.10157717832E+03 -0.20594103510E+02 -0.15427422298E+03  0.18585633196E+03  0.00000000000E+00 0. -1.
         21    1    1    2  503  502 -0.73121950633E+02  0.48968099191E+02 -0.22408477784E+03  0.24074609460E+03  0.00000000000E+00 0. -1.
          1    1    1    2  501    0  0.88973783047E+02  0.13891702097E+03 -0.68900517134E+02  0.17877794620E+03  0.00000000000E+00 0. -1.
<scales pt_clust_5="13000.00000" pt_clust_6="13000.00000" pt_clust_7="13000.00000" pt_clust_8="13000.00000" pt_clust_9="88.00395" pt_clust_10="156.52629"></scales>
<clustering>
<clus scale="   80.207">  5  6 -1 -1</clus>
<clus scale="   86.676">  7  8 -1 -1</clus>
<clus scale="   88.004">  2  9  1 -1</clus>
<clus scale="  124.713">  2  5  1 -1</clus>
<clus scale="  156.526">  1 10  2 -1</clus>
<clus scale="  156.526">  1  5  2 -1</clus>
</clustering>
</event>
<event>
10    4  0.3043429E-005  0.2003655E+03  0.7546771E-02  0.1150050E+00
          2   -1    0    0  503    0 -0.00000000000E+00  0.00000000000E+00  0.11971948385E+04  0.11971948385E+04  0.00000000000E+00 0. -1.
         21   -1    0    0  501  502  0.00000000000E+00 -0.00000000000E+00 -0.15033714191E+03  0.15033714191E+03  0.00000000000E+00 0. -1.
         23    2    1    2    0    0 -0.13695127253E+03 -0.29669819504E+01  0.43216401324E+03  0.46213156834E+03  0.89640381998E+02 0.  0.
         24    2    1    2    0    0  0.31037581703E+03 -0.95435180878E+01  0.50849250775E+03  0.60155111671E+03  0.82914950705E+02 0.  0.
        -11    1    4    4    0    0  0.81387251190E+02  0.18557919130E+02  0.84047001687E+02  0.11845750087E+03  0.00000000000E+00 0.  1.
         12    1    4    4    0    0  0.22898856584E+03 -0.28101437218E+02  0.42444550606E+03  0.48309361585E+03  0.00000000000E+00 0. -1.
        -11    1    3    3    0    0 -0.41705939788E+02  0.41127069532E+02  0.16521044053E+03  0.17528636833E+03  0.00000000000E+00 0.  1.
         11    1    3    3    0    0 -0.95245332742E+02 -0.44094051482E+02  0.26695357271E+03  0.28684520001E+03  0.00000000000E+00 0. -1.
         21    1    1    2  503  502 -0.13091617657E+03 -0.19929894300E+01 -0.35122274067E+02  0.13556028707E+03  0.00000000000E+00 0. -1.
          1    1    1    2  501    0 -0.42508367930E+02  0.14503489468E+02  0.14132344964E+03  0.14828900825E+03  0.00000000000E+00 0. -1.
<scales pt_clust_5="13000.00000" pt_clust_6="13000.00000" pt_clust_7="13000.00000" pt_clust_8="13000.00000" pt_clust_9="155.75201" pt_clust_10="44.91453"></scales>
<clustering>
<clus scale="   44.915">  2 10  1 -1</clus>
<clus scale="   82.915">  5  6 -1 -1</clus>
<clus scale="   89.640">  7  8 -1 -1</clus>
<clus scale="  155.752">  2  9  1 -1</clus>
<clus scale="  197.448">  2  5  1 -1</clus>
<clus scale="   44.915">  2  5  1 -1</clus>
</clustering>
</event>
<event>
10    4  0.3043429E-005  0.1225083E+03  0.7546771E-02  0.1247962E+00
          2   -1    0    0  503    0 -0.00000000000E+00  0.00000000000E+00  0.33163269979E+03  0.33163269979E+03  0.00000000000E+00 0. -1.
         21   -1    0    0  501  502  0.00000000000E+00 -0.00000000000E+00 -0.27840857230E+03  0.27840857230E+03  0.00000000000E+00 0. -1.
         24    2    1    2    0    0  0.44963332467E+02 -0.63817071423E+01  0.89878804352E+02  0.12888152337E+03  0.80435192192E+02 0.  0.
         23    2    1    2    0    0 -0.71560381919E+02 -0.65589281469E+02 -0.21855291891E+03  0.26116864749E+03  0.10498019795E+03 0.  0.
        -11    1    3    3    0    0  0.88937737722E+01  0.23025160664E+02 -0.31287564314E+01  0.24880642121E+02  0.00000000000E+00 0.  1.
         12    1    3    3    0    0  0.36069558695E+02 -0.29406867807E+02  0.93007560784E+02  0.10400088125E+03  0.00000000000E+00 0. -1.
        -11    1    4    4    0    0  0.37302061449E+01 -0.66077113764E+02 -0.83517042182E+02  0.10656076077E+03  0.00000000000E+00 0. -1.
         11    1    4    4    0    0 -0.75290588064E+02  0.48783229501E+00 -0.13503587673E+03  0.15460788671E+03  0.00000000000E+00 0.  1.
         21    1    1    2  503  502  0.45314910062E+02  0.25165129224E+01  0.38308118145E+02  0.59390957452E+02  0.00000000000E+00 0. -1.
          1    1    1    2  501    0 -0.18717860611E+02  0.69454475689E+02  0.14359012391E+03  0.16060014378E+03  0.00000000000E+00 0. -1.
<scales pt_clust_5="13000.00000" pt_clust_6="13000.00000" pt_clust_7="13000.00000" pt_clust_8="13000.00000" pt_clust_9="45.38473" pt_clust_10="71.03346"></scales>
<clustering>
<clus scale="   45.385">  1  9  2 -1</clus>
<clus scale="   71.033">  2 10  1 -1</clus>
<clus scale="   80.435">  5  6 -1 -1</clus>
<clus scale="  102.261">  1  5  2 -1</clus>
<clus scale="  104.980">  7  8 -1 -1</clus>
<clus scale="   71.033">  2  5  1 -1</clus>
</clustering>
</event>
<event>
10    4  0.3043429E-005  0.1347828E+03  0.7546771E-02  0.1244052E+00
         21   -1    0    0  501  502  0.00000000000E+00  0.00000000000E+00  0.28372140047E+03  0.28372140047E+03  0.00000000000E+00 0. -1.
          2   -1    0    0  503    0 -0.00000000000E+00 -0.00000000000E+00 -0.77595416242E+03  0.77595416242E+03  0.00000000000E+00 0. -1.
         24    2    1    2    0    0 -0.86931634500E+01  0.15534661607E+02 -0.37869137374E+03  0.38756901164E+03  0.80533753399E+02 0.  0.
         23    2    1    2    0    0 -0.71805442158E+02  0.31125624604E+02 -0.29464544093E+03  0.31824655957E+03  0.91324207030E+02 0.  0.
        -11    1    3    3    0    0  0.21216356545E+02 -0.59534835581E+01 -0.31572680388E+02  0.38502102520E+02  0.00000000000E+00 0.  1.
         12    1    3    3    0    0 -0.29909519995E+02  0.21488145165E+02 -0.34711869335E+03  0.34906690912E+03  0.00000000000E+00 0. -1.
        -11    1    4    4    0    0 -0.17284926641E+02  0.57126487698E+02 -0.15521764985E+03  0.16629709292E+03  0.00000000000E+00 0.  1.
         11    1    4    4    0    0 -0.54520515517E+02 -0.26000863094E+02 -0.13942779107E+03  0.15194946665E+03  0.00000000000E+00 0. -1.
         21    1    1    2  503  502 -0.22824748215E+02  0.30480185601E+02  0.21675866466E+03  0.22007800788E+03  0.00000000000E+00 0. -1.
          1    1    1    2  501    0  0.10332335382E+03 -0.77140471812E+02 -0.35654611949E+02  0.13378198380E+03  0.00000000000E+00 0. -1.
<scales pt_clust_5="13000.00000" pt_clust_6="13000.00000" pt_clust_7="13000.00000" pt_clust_8="13000.00000" pt_clust_9="38.07901" pt_clust_10="99.12767"></scales>
<clustering>
<clus scale="   38.079">  1  9  2 -1</clus>
<clus scale="   80.534">  5  6 -1 -1</clus>
<clus scale="   83.070">  2  5  1 -1</clus>
<clus scale="   91.324">  7  8 -1 -1</clus>
<clus scale="   99.128">  1 10  2 -1</clus>
<clus scale="   38.079">  1  5  2 -1</clus>
</clustering>
</event>
<event>
10    4  0.3043429E-005  0.1791467E+03  0.7546771E-02  0.1191304E+00
         -1   -1    0    0    0  501 -0.00000000000E+00  0.00000000000E+00  0.26301903122E+03  0.26301903122E+03  0.00000000000E+00 0.  1.
         21   -1    0    0  503  502  0.00000000000E+00 -0.00000000000E+00 -0.78862704275E+03  0.78862704275E+03  0.00000000000E+00 0.  1.
         23    2    1    2    0    0  0.31633726223E+02 -0.70121646409E+01 -0.16723108539E+03  0.19293721333E+03  0.90601706823E+02 0.  0.
         24    2    1    2    0    0 -0.54272534194E+02 -0.15305612982E+03  0.17904479129E+03  0.25472817823E+03  0.80359944334E+02 0.  0.
        -11    1    4    4    0    0 -0.66385956190E+02 -0.15268597471E+03  0.17591592909E+03  0.24221171763E+03  0.00000000000E+00 0.  1.
         12    1    4    4    0    0  0.12113421996E+02 -0.37015511517E+00  0.31288622024E+01  0.12516460600E+02  0.00000000000E+00 0. -1.
        -11    1    3    3    0    0  0.65380911700E+01  0.20894910662E+02 -0.35927047003E+00  0.21896871991E+02  0.00000000000E+00 0. -1.
         11    1    3    3    0    0  0.25095635053E+02 -0.27907075303E+02 -0.16687181492E+03  0.17104034134E+03  0.00000000000E+00 0.  1.
         21    1    1    2  503  501  0.64769935141E+02 -0.21167892556E+01 -0.33495112336E+03  0.34116254239E+03  0.00000000000E+00 0. -1.
         -2    1    1    2    0  502 -0.42131127171E+02  0.16218508372E+03 -0.20247059407E+03  0.26281814001E+03  0.00000000000E+00 0.  1.
<scales pt_clust_5="13000.00000" pt_clust_6="13000.00000" pt_clust_7="13000.00000" pt_clust_8="13000.00000" pt_clust_9="64.80452" pt_clust_10="160.11188"></scales>
<clustering>
<clus scale="   64.805">  2  9  1 -1</clus>
<clus scale="   80.360">  5  6 -1 -1</clus>
<clus scale="   90.602">  7  8 -1 -1</clus>
<clus scale="  107.606">  1  7  2 -1</clus>
<clus scale="  160.112">  2 10  1 -1</clus>
<clus scale="   64.805">  2  5  1 -1</clus>
</clustering>
</event>
<event>
10    4  0.3043429E-005  0.2375922E+03  0.7546771E-02  0.1149502E+00
         21   -1    0    0  501  502  0.00000000000E+00  0.00000000000E+00  0.69501738034E+03  0.69501738034E+03  0.00000000000E+00 0. -1.
          2   -1    0    0  503    0 -0.00000000000E+00 -0.00000000000E+00 -0.30833264667E+03  0.30833264667E+03  0.00000000000E+00 0. -1.
         24    2    1    2    0    0 -0.44506834842E+01 -0.91356793033E+02 -0.71766810416E+02  0.14201571582E+03  0.81560506662E+02 0.  0.
         23    2    1    2    0    0  0.11940071247E+03  0.76320809239E+02  0.45532801726E+03  0.48703635647E+03  0.98991985304E+02 0.  0.
        -13    1    3    3    0    0  0.36534035855E+02 -0.59631404450E+02 -0.49090615138E+02  0.85443131188E+02  0.00000000000E+00 0.  1.
         14    1    3    3    0    0 -0.40984719340E+02 -0.31725388582E+02 -0.22676195278E+02  0.56572584635E+02  0.00000000000E+00 0. -1.
        -11    1    4    4    0    0  0.82867532519E+02  0.34399506638E+02  0.13618330430E+03  0.16308355641E+03  0.00000000000E+00 0.  1.
         11    1    4    4    0    0  0.36533179947E+02  0.41921302601E+02  0.31914471296E+03  0.32395280005E+03  0.00000000000E+00 0. -1.
         21    1    1    2  503  502  0.87922324377E+02  0.55051793071E+02  0.10165587885E+03  0.14524101607E+03  0.00000000000E+00 0.  1.
          1    1    1    2  501    0 -0.20287235336E+03 -0.40015809278E+02 -0.98532352023E+02  0.22905693865E+03  0.00000000000E+00 0. -1.
<scales pt_clust_5="13000.00000" pt_clust_6="13000.00000" pt_clust_7="13000.00000" pt_clust_8="13000.00000" pt_clust_9="103.73541" pt_clust_10="215.98765"></scales>
<clustering>
<clus scale="   81.561">  5  6 -1 -1</clus>
<clus scale="   98.992">  7  8 -1 -1</clus>
<clus scale="  103.735">  1  9  2 -1</clus>
<clus scale="  119.968">  2  5  1 -1</clus>
<clus scale="  215.988">  1 10  2 -1</clus>
<clus scale="  103.735">  1  5  2 -1</clus>
</clustering>
</event>
<event>
10    4  0.3043429E-005  0.2372520E+03  0.7546771E-02  0.1154191E+00
         21   -1    0    0  501  502  0.00000000000E+00  0.00000000000E+00  0.10163114384E+03  0.10163114384E+03  0.00000000000E+00 0. -1.
          2   -1    0    0  503    0 -0.00000000000E+00 -0.00000000000E+00 -0.24454088798E+04  0.24454088798E+04  0.00000000000E+00 0. -1.
         24    2    1    2    0    0  0.60849925899E+02  0.27213408656E+02 -0.42365400184E+03  0.43629940176E+03  0.80194585886E+02 0.  0.
         23    2    1    2    0    0 -0.53478827739E+02 -0.24859675113E+03 -0.13523762079E+04  0.13791205711E+04  0.91606834391E+02 0.  0.
        -13    1    3    3    0    0 -0.64719294730E+01  0.35585009955E+02 -0.13267029164E+03  0.13751212705E+03  0.00000000000E+00 0.  1.
         14    1    3    3    0    0  0.67321855372E+02 -0.83716012989E+01 -0.29098371021E+03  0.29878727470E+03  0.00000000000E+00 0. -1.
        -11    1    4    4    0    0 -0.34140823883E+02 -0.44316202716E+02 -0.16714238970E+03  0.17625578037E+03  0.00000000000E+00 0.  1.
         11    1    4    4    0    0 -0.19338003856E+02 -0.20428054841E+03 -0.11852338182E+04  0.12028647907E+04  0.00000000000E+00 0. -1.
         21    1    1    2  503  502 -0.72462573442E+02  0.16047570234E+03 -0.20623208103E+02  0.17728111096E+03  0.00000000000E+00 0. -1.
          1    1    1    2  501    0  0.65091475282E+02  0.60907640132E+02 -0.54712431803E+03  0.55433893978E+03  0.00000000000E+00 0. -1.
<scales pt_clust_5="13000.00000" pt_clust_6="13000.00000" pt_clust_7="13000.00000" pt_clust_8="13000.00000" pt_clust_9="218.85317" pt_clust_10="89.14398"></scales>
<clustering>
<clus scale="   80.195">  5  6 -1 -1</clus>
<clus scale="   89.144">  1 10  2 -1</clus>
<clus scale="   91.607">  7  8 -1 -1</clus>
<clus scale="  107.853">  2  5  1 -1</clus>
<clus scale="  218.853">  1  9  2 -1</clus>
<clus scale="   89.144">  1  5  2 -1</clus>
</clustering>
</event>
<event>
10    4  0.3043429E-005  0.1551698E+03  0.7546771E-02  0.1196399E+00
         21   -1    0    0  501  502  0.00000000000E+00  0.00000000000E+00  0.15669528585E+04  0.15669528585E+04  0.00000000000E+00 0. -1.
          2   -1    0    0  503    0 -0.00000000000E+00 -0.00000000000E+00 -0.38850632773E+02  0.38850632773E+02  0.00000000000E+00 0. -1.
         23    2    1    2    0    0  0.32893406139E+02 -0.10099915762E+03  0.42196270772E+03  0.44456484678E+03  0.91118440944E+02 0.  0.
         24    2    1    2    0    0 -0.56862096650E+02  0.17030793543E+03  0.94489287285E+03  0.96499267664E+03  0.78423426954E+02 0.  0.
        -13    1    4    4    0    0  0.19178404468E+02  0.49638481925E+02  0.24428959080E+03  0.25001838784E+03  0.00000000000E+00 0.  1.
         14    1    4    4    0    0 -0.76040501118E+02  0.12066945350E+03  0.70060328205E+03  0.71497428880E+03  0.00000000000E+00 0. -1.
        -11    1    3    3    0    0 -0.16180307642E+02 -0.77300603321E+02  0.31198133993E+03  0.32182222125E+03  0.00000000000E+00 0.  1.
         11    1    3    3    0    0  0.49073713782E+02 -0.23698554298E+02  0.10998136779E+03  0.12274262553E+03  0.00000000000E+00 0. -1.
         21    1    1    2  503  502  0.36653635211E+01  0.19754567074E+02  0.35980586922E+02  0.41210198317E+02  0.00000000000E+00 0.  1.
          1    1    1    2  501    0  0.20303326989E+02 -0.89063344883E+02  0.12526605820E+03  0.15503576951E+03  0.00000000000E+00 0. -1.
<scales pt_clust_5="13000.00000" pt_clust_6="13000.00000" pt_clust_7="13000.00000" pt_clust_8="13000.00000" pt_clust_9="20.09173" pt_clust_10="83.83506"></scales>
<clustering>
<clus scale="   20.092">  2  9  1 -1</clus>
<clus scale="   78.423">  5  6 -1 -1</clus>
<clus scale="   83.835">  1 10  2 -1</clus>
<clus scale="   91.118">  7  8 -1 -1</clus>
<clus scale="  148.072">  1  5  2 -1</clus>
<clus scale="   83.835">  1  5  2 -1</clus>
</clustering>
</event>
<event>
10    4  0.3043429E-005  0.1862569E+03  0.7546771E-02  0.1197604E+00
         21   -1    0    0  503  502  0.00000000000E+00  0.00000000000E+00  0.66242439091E+02  0.66242439091E+02  0.00000000000E+00 0. -1.
          2   -1    0    0  502    0 -0.00000000000E+00 -0.00000000000E+00 -0.10028677153E+04  0.10028677153E+04  0.00000000000E+00 0. -1.
         24    2    1    2    0    0 -0.66545258305E+01 -0.12241525182E+02 -0.20855351168E+03  0.22444521429E+03  0.81773769202E+02 0.  0.
         23    2    1    2    0    0  0.11192292699E+02 -0.13885658256E+03 -0.19091281740E+03  0.25397899445E+03  0.93011869332E+02 0.  0.
        -11    1    3    3    0    0 -0.40476530374E+02 -0.24016052187E+02 -0.11370385324E+03  0.12305968680E+03  0.00000000000E+00 0.  1.
         12    1    3    3    0    0  0.33822004544E+02  0.11774527005E+02 -0.94849658442E+02  0.10138552749E+03  0.00000000000E+00 0. -1.
        -13    1    4    4    0    0 -0.19839763983E+02 -0.37380449111E+02 -0.11765077748E+03  0.12503047490E+03  0.00000000000E+00 0. -1.
         13    1    4    4    0    0  0.31032056681E+02 -0.10147613345E+03 -0.73262039922E+02  0.12894851955E+03  0.00000000000E+00 0.  1.
         21    1    1    2  503  501  0.23262846502E+02 -0.25927744595E+02 -0.13746047029E+02  0.37448121129E+02  0.00000000000E+00 0. -1.
          1    1    1    2  501    0 -0.27800613370E+02  0.17702585234E+03 -0.52341290012E+03  0.55323782455E+03  0.00000000000E+00 0. -1.
<scales pt_clust_5="13000.00000" pt_clust_6="13000.00000" pt_clust_7="13000.00000" pt_clust_8="13000.00000" pt_clust_9="34.83401" pt_clust_10="161.37057"></scales>
<clustering>
<clus scale="   34.834">  1  9  2 -1</clus>
<clus scale="   81.774">  5  6 -1 -1</clus>
<clus scale="   83.394">  2  5  1 -1</clus>
<clus scale="   93.012">  7  8 -1 -1</clus>
<clus scale="  161.371">  1 10  2 -1</clus>
<clus scale="   34.834">  1  5  2 -1</clus>
</clustering>
</event>
<event>
10    4  0.3043429E-005  0.2069008E+03  0.7546771E-02  0.1152341E+00
          2   -1    0    0  502    0 -0.00000000000E+00  0.00000000000E+00  0.23113370093E+04  0.23113370093E+04  0.00000000000E+00 0. -1.
         21   -1    0    0  503  502  0.00000000000E+00 -0.00000000000E+00 -0.86678077129E+02  0.86678077129E+02  0.00000000000E+00 0. -1.
         23    2    1    2    0    0 -0.13961523164E+03 -0.64291559115E+02  0.73841354173E+03  0.75948078873E+03  0.89054434821E+02 0.  0.
         24    2    1    2    0    0 -0.75879731743E+02 -0.20488384914E+03  0.28471083058E+03  0.36771724387E+03  0.80128578297E+02 0.  0.
        -11    1    4    4    0    0 -0.22073719197E+02 -0.31338829445E+02  0.10660485570E+03  0.11328709799E+03  0.00000000000E+00 0.  1.
         12    1    4    4    0    0 -0.53806012547E+02 -0.17354501970E+03  0.17810597488E+03  0.25443014588E+03  0.00000000000E+00 0. -1.
        -13    1    3    3    0    0 -0.81180855568E+02  0.10829031667E+02  0.31140676192E+03  0.32199653819E+03  0.00000000000E+00 0.  1.
         13    1    3    3    0    0 -0.58434376071E+02 -0.75120590781E+02  0.42700677981E+03  0.43748425054E+03  0.00000000000E+00 0. -1.
         21    1    1    2  503  501  0.34939559987E+02  0.66380664790E+02  0.56185167335E+02  0.93722668221E+02  0.00000000000E+00 0. -1.
          1    1    1    2  501    0  0.18055540339E+03  0.20279474347E+03  0.11453493925E+04  0.11770943856E+04  0.00000000000E+00 0. -1.
<scales pt_clust_5="13000.00000" pt_clust_6="13000.00000" pt_clust_7="13000.00000" pt_clust_8="13000.00000" pt_clust_9="75.01444" pt_clust_10="190.75484"></scales>
<clustering>
<clus scale="   75.014">  2  9  1 -1</clus>
<clus scale="   80.129">  5  6 -1 -1</clus>
<clus scale="   89.054">  7  8 -1 -1</clus>
<clus scale="  169.867">  1  7  2 -1</clus>
<clus scale="  190.755">  2 10  1 -1</clus>
<clus scale="   75.014">  2  5  1 -1</clus>
</clustering>
</event>
<event>
10    4  0.3043429E-005  0.4385236E+03  0.7546771E-02  0.1061557E+00
          2   -1    0    0  502    0 -0.00000000000E+00  0.00000000000E+00  0.35762764878E+04  0.35762764878E+04  0.00000000000E+00 0. -1.
         21   -1    0    0  503  502  0.00000000000E+00 -0.00000000000E+00 -0.37614281448E+03  0.37614281448E+03  0.00000000000E+00 0. -1.
         24    2    1    2    0    0 -0.10424728861E+03  0.13462417624E+03  0.73982593842E+03  0.76468107095E+03  0.91670906478E+02 0.  0.
         23    2    1    2    0    0  0.29700963853E+03  0.22135108963E+03  0.16134264916E+04  0.16594312235E+04  0.11556777881E+03 0.  0.
        -13    1    3    3    0    0 -0.56001371232E+02  0.85346961647E+01  0.17478141335E+03  0.18373224288E+03  0.00000000000E+00 0.  1.
         14    1    3    3    0    0 -0.48245917382E+02  0.12608948007E+03  0.56504452507E+03  0.58094882807E+03  0.00000000000E+00 0. -1.
        -11    1    4    4    0    0  0.23872757786E+03  0.11711372482E+03  0.11995804277E+04  0.12286983697E+04  0.00000000000E+00 0. -1.
         11    1    4    4    0    0  0.58282060666E+02  0.10423736480E+03  0.41384606383E+03  0.43073285382E+03  0.00000000000E+00 0.  1.
         21    1    1    2  503  501  0.16047262104E+03  0.80309141810E+01 -0.26289733311E+03  0.30810869096E+03  0.00000000000E+00 0. -1.
          1    1    1    2  501    0 -0.35323497096E+03 -0.36400618005E+03  0.11097785765E+04  0.12201983169E+04  0.00000000000E+00 0. -1.
<scales pt_clust_5="13000.00000" pt_clust_6="13000.00000" pt_clust_7="13000.00000" pt_clust_8="13000.00000" pt_clust_9="160.67345" pt_clust_10="423.02132"></scales>
<clustering>
<clus scale="   91.671">  5  6 -1 -1</clus>
<clus scale="  115.568">  7  8 -1 -1</clus>
<clus scale="  160.673">  2  9  1 -1</clus>
<clus scale="  183.273">  1  5  2 -1</clus>
<clus scale="  423.021">  2 10  1 -1</clus>
<clus scale="  160.673">  2  5  1 -1</clus>
</clustering>
</event>
<event>
10    4  0.3155739E-005  0.2459099E+03  0.7546771E-02  0.1150720E+00
         21   -1    0    0  501  502  0.00000000000E+00  0.00000000000E+00  0.65944299831E+03  0.65944299831E+03  0.00000000000E+00 0.  1.
          2   -1    0    0  503    0 -0.00000000000E+00 -0.00000000000E+00 -0.56556968500E+03  0.56556968500E+03  0.00000000000E+00 0. -1.
         23    2    1    2    0    0  0.46125222153E+02  0.10274675431E+02 -0.10975251398E+03  0.15188603387E+03  0.93758455014E+02 0.  0.
         24    2    1    2    0    0 -0.22641947767E+03 -0.78322105901E+02  0.52935237574E+03  0.58640320793E+03  0.79086360630E+02 0.  0.
        -11    1    4    4    0    0 -0.22184850199E+03 -0.56670628968E+02  0.46429560956E+03  0.51768593865E+03  0.00000000000E+00 0.  1.
         12    1    4    4    0    0 -0.45709756771E+01 -0.21651476933E+02  0.65056766179E+02  0.68717269283E+02  0.00000000000E+00 0. -1.
        -11    1    3    3    0    0  0.29802855915E+02 -0.37903118911E+02 -0.78679681343E+02  0.92278648127E+02  0.00000000000E+00 0. -1.
         11    1    3    3    0    0  0.16322366238E+02  0.48177794341E+02 -0.31072832634E+02  0.59607385743E+02  0.00000000000E+00 0.  1.
         21    1    1    2  503  502  0.13314740498E+02 -0.22987891986E+02  0.55032938129E+02  0.61109326388E+02  0.00000000000E+00 0.  1.
          1    1    1    2  501    0  0.16697951502E+03  0.91035322456E+02 -0.38075948658E+03  0.42561411512E+03  0.00000000000E+00 0. -1.
<scales pt_clust_5="13000.00000" pt_clust_6="13000.00000" pt_clust_7="13000.00000" pt_clust_8="13000.00000" pt_clust_9="26.56549" pt_clust_10="232.84558"></scales>
<clustering>
<clus scale="   26.565">  1  9  2 -1</clus>
<clus scale="   79.086">  5  6 -1 -1</clus>
<clus scale="   93.758">  7  8 -1 -1</clus>
<clus scale="  105.124">  2  7  1 -1</clus>
<clus scale="  232.846">  1 10  2 -1</clus>
<clus scale="   26.565">  1  5  2 -1</clus>
</clustering>
</event>
<event>
10    4  0.3043429E-005  0.2666285E+03  0.7546771E-02  0.1103906E+00
          2   -1    0    0  503    0 -0.00000000000E+00  0.00000000000E+00  0.88380226153E+03  0.88380226153E+03  0.00000000000E+00 0. -1.
         21   -1    0    0  501  502  0.00000000000E+00 -0.00000000000E+00 -0.29418181937E+03  0.29418181937E+03  0.00000000000E+00 0. -1.
         24    2    1    2    0    0  0.22050210934E+03  0.17055836666E+03  0.70862655503E+03  0.76867553231E+03  0.10487679827E+03 0.  0.
         23    2    1    2    0    0 -0.15834696069E+03 -0.42630841440E+02  0.26535440137E+02  0.19011289124E+03  0.92453411136E+02 0.  0.
        -11    1    3    3    0    0  0.78367519676E+02  0.34222370796E+01  0.18660561985E+03  0.20242242269E+03  0.00000000000E+00 0.  1.
         12    1    3    3    0    0  0.14213458966E+03  0.16713612958E+03  0.52202093518E+03  0.56625310962E+03  0.00000000000E+00 0. -1.
        -11    1    4    4    0    0 -0.14002539496E+03  0.17700364551E+01  0.16091319695E+02  0.14095806055E+03  0.00000000000E+00 0. -1.
         11    1    4    4    0    0 -0.18321565725E+02 -0.44400877896E+02  0.10444120442E+02  0.49154830692E+02  0.00000000000E+00 0.  1.
         21    1    1    2  503  502  0.14073693131E+01 -0.79557765510E+02 -0.98031488085E+02  0.12626001504E+03  0.00000000000E+00 0. -1.
          1    1    1    2  501    0 -0.63562517962E+02 -0.48369759710E+02 -0.47510064919E+02  0.92935642317E+02  0.00000000000E+00 0. -1.
<scales pt_clust_5="13000.00000" pt_clust_6="13000.00000" pt_clust_7="13000.00000" pt_clust_8="13000.00000" pt_clust_9="79.57021" pt_clust_10="101.10386"></scales>
<clustering>
<clus scale="   79.570">  2  9  1 -1</clus>
<clus scale="   92.453">  7  8 -1 -1</clus>
<clus scale="  101.104">  2 10  1 -1</clus>
<clus scale="  104.877">  5  6 -1 -1</clus>
<clus scale="  261.991">  2  7  1 -1</clus>
<clus scale="   79.570">  2  5  1 -1</clus>
</clustering>
</event>
<event>
10    4  0.3043429E-005  0.1385590E+03  0.7546771E-02  0.1219689E+00
         21   -1    0    0  503  502  0.00000000000E+00  0.00000000000E+00  0.23293172086E+03  0.23293172086E+03  0.00000000000E+00 0. -1.
          2   -1    0    0  502    0 -0.00000000000E+00 -0.00000000000E+00 -0.22827616311E+03  0.22827616311E+03  0.00000000000E+00 0. -1.
         23    2    1    2    0    0 -0.55198969889E+02 -0.40041991100E+02 -0.10826150242E+02  0.11358904500E+03  0.90194114476E+02 0.  0.
         24    2    1    2    0    0  0.13722683270E+03  0.24085624361E+02  0.41861064776E+02  0.18043043045E+03  0.10673083234E+03 0.  0.
        -11    1    4    4    0    0  0.77992219306E+02 -0.64879757245E+00 -0.30458848778E+02  0.83731407963E+02  0.00000000000E+00 0.  1.
         12    1    4    4    0    0  0.59234613396E+02  0.24734421933E+02  0.72319913554E+02  0.96699022482E+02  0.00000000000E+00 0. -1.
        -11    1    3    3    0    0  0.98811984323E+01 -0.41792918035E+02 -0.20814666864E+02  0.47723541748E+02  0.00000000000E+00 0. -1.
         11    1    3    3    0    0 -0.65080168321E+02  0.17509269351E+01  0.99885166216E+01  0.65865503248E+02  0.00000000000E+00 0.  1.
         21    1    1    2  503  501  0.25105188238E+02 -0.33851692177E+02  0.10476702077E+02  0.43427742586E+02  0.00000000000E+00 0. -1.
          1    1    1    2  501    0 -0.10713305105E+03  0.49808058916E+02 -0.36856058861E+02  0.12376066595E+03  0.00000000000E+00 0. -1.
<scales pt_clust_5="13000.00000" pt_clust_6="13000.00000" pt_clust_7="13000.00000" pt_clust_8="13000.00000" pt_clust_9="42.14508" pt_clust_10="110.41399"></scales>
<clustering>
<clus scale="   42.145">  1  9  2 -1</clus>
<clus scale="   90.194">  7  8 -1 -1</clus>
<clus scale="  106.731">  5  6 -1 -1</clus>
<clus scale="  110.414">  1 10  2 -1</clus>
<clus scale="  126.262">  2  7  1 -1</clus>
<clus scale="   42.145">  1  5  2 -1</clus>
</clustering>
</event>
<event>
10    4  0.3043429E-005  0.2687437E+03  0.7546771E-02  0.1137405E+00
         21   -1    0    0  501  502  0.00000000000E+00  0.00000000000E+00  0.38283137526E+02  0.38283137526E+02  0.00000000000E+00 0. -1.
          2   -1    0    0  503    0 -0.00000000000E+00 -0.00000000000E+00 -0.33482001077E+04  0.33482001077E+04  0.00000000000E+00 0. -1.
         24    2    1    2    0    0  0.24943555613E+02 -0.73228971387E+02 -0.10163432265E+04  0.10221845811E+04  0.76961682389E+02 0.  0.
         23    2    1    2    0    0  0.12028557187E+03 -0.16964358544E+03 -0.95334833170E+03  0.97987639572E+03  0.89650122383E+02 0.  0.
        -13    1    3    3    0    0 -0.11272028412E+02 -0.43033708709E+02 -0.22032985474E+03  0.22477589640E+03  0.00000000000E+00 0.  1.
         14    1    3    3    0    0  0.36215584025E+02 -0.30195262677E+02 -0.79601337174E+03  0.79740868468E+03  0.00000000000E+00 0. -1.
        -11    1    4    4    0    0  0.27654297177E+02  0.45602800715E+01 -0.15467093125E+03  0.15718986380E+03  0.00000000000E+00 0.  1.
         11    1    4    4    0    0  0.92631274691E+02 -0.17420386551E+03 -0.79867740045E+03  0.82268653192E+03  0.00000000000E+00 0. -1.
         21    1    1    2  503  502  0.99115695240E+00 -0.28583173996E+02 -0.47594115611E+02  0.55526390740E+02  0.00000000000E+00 0. -1.
          1    1    1    2  501    0 -0.14622028443E+03  0.27145573082E+03 -0.12926312964E+04  0.13288958777E+04  0.00000000000E+00 0. -1.
<scales pt_clust_5="13000.00000" pt_clust_6="13000.00000" pt_clust_7="13000.00000" pt_clust_8="13000.00000" pt_clust_9="28.60035" pt_clust_10="253.34971"></scales>
<clustering>
<clus scale="   28.600">  1  9  2 -1</clus>
<clus scale="   76.962">  5  6 -1 -1</clus>
<clus scale="   89.650">  7  8 -1 -1</clus>
<clus scale="  110.789">  2  5  1 -1</clus>
<clus scale="  253.350">  1 10  2 -1</clus>
<clus scale="   28.600">  1  5  2 -1</clus>
</clustering>
</event>
<event>
10    4  0.3043429E-005  0.1231470E+03  0.7546771E-02  0.1240588E+00
         21   -1    0    0  503  502  0.00000000000E+00  0.00000000000E+00  0.79896696626E+02  0.79896696626E+02  0.00000000000E+00 0.  1.
         -1   -1    0    0    0  501 -0.00000000000E+00 -0.00000000000E+00 -0.45820592503E+03  0.45820592503E+03  0.00000000000E+00 0.  1.
         23    2    1    2    0    0  0.63867238877E+02  0.32947994789E+02 -0.14730272262E+03  0.18677360151E+03  0.89563896567E+02 0.  0.
         24    2    1    2    0    0 -0.47555048541E+02 -0.10559669232E+03 -0.13978563794E+03  0.19863381059E+03  0.80642557394E+02 0.  0.
        -13    1    4    4    0    0 -0.46097885007E+01 -0.85441896702E+02 -0.11965070445E+03  0.14709812690E+03  0.00000000000E+00 0.  1.
         14    1    4    4    0    0 -0.42945260040E+02 -0.20154795620E+02 -0.20134933489E+02  0.51535683686E+02  0.00000000000E+00 0. -1.
        -11    1    3    3    0    0  0.84338474933E+02  0.18640676426E+02 -0.92550305655E+02  0.12659388709E+03  0.00000000000E+00 0.  1.
         11    1    3    3    0    0 -0.20471236057E+02  0.14307318363E+02 -0.54752416968E+02  0.60179714425E+02  0.00000000000E+00 0. -1.
         21    1    1    2  503  501 -0.20191094773E+02  0.36213461385E+02  0.12000212562E+02  0.43163644368E+02  0.00000000000E+00 0.  1.
         -2    1    1    2    0  502  0.38789044370E+01  0.36435236148E+02 -0.10322108040E+03  0.10953156518E+03  0.00000000000E+00 0.  1.
<scales pt_clust_5="13000.00000" pt_clust_6="13000.00000" pt_clust_7="13000.00000" pt_clust_8="13000.00000" pt_clust_9="52.77009" pt_clust_10="36.64115"></scales>
<clustering>
<clus scale="   36.641">  1 10  2 -1</clus>
<clus scale="   52.770">  1  9  2 -1</clus>
<clus scale="   80.643">  5  6 -1 -1</clus>
<clus scale="   89.564">  7  8 -1 -1</clus>
<clus scale="  116.819">  1  5  2 -1</clus>
<clus scale="   36.641">  1  5  2 -1</clus>
</clustering>
</event>
<event>
10    4  0.3043429E-005  0.1078341E+03  0.7546771E-02  0.1271297E+00
         21   -1    0    0  501  502  0.00000000000E+00  0.00000000000E+00  0.39131221867E+02  0.39131221867E+02  0.00000000000E+00 0.  1.
          2   -1    0    0  503    0 -0.00000000000E+00 -0.00000000000E+00 -0.69711178947E+03  0.69711178947E+03  0.00000000000E+00 0. -1.
         23    2    1    2    0    0  0.60412275336E+02 -0.23474707970E+02 -0.46429080594E+03  0.47749691513E+03  0.90755972571E+02 0.  0.
         24    2    1    2    0    0 -0.35416532293E+02  0.61649689329E+01 -0.51817863259E+02  0.97800288619E+02  0.74749367219E+02 0.  0.
        -13    1    4    4    0    0 -0.22541560442E+02  0.21959428057E+02  0.97519928926E+01  0.32946013311E+02  0.00000000000E+00 0.  1.
         14    1    4    4    0    0 -0.12874971851E+02 -0.15794459124E+02 -0.61569856152E+02  0.64854275308E+02  0.00000000000E+00 0. -1.
        -11    1    3    3    0    0  0.82860252308E+02 -0.68680873167E+01 -0.36535298243E+03  0.37469426711E+03  0.00000000000E+00 0. -1.
         11    1    3    3    0    0 -0.22447976972E+02 -0.16606620654E+02 -0.98937823509E+02  0.10280264802E+03  0.00000000000E+00 0.  1.
         21    1    1    2  503  502 -0.43454705108E+01  0.34970432977E+02 -0.31459104956E+02  0.47238644998E+02  0.00000000000E+00 0. -1.
          1    1    1    2  501    0 -0.20650272533E+02 -0.17660693940E+02 -0.11041279346E+03  0.11370716259E+03  0.00000000000E+00 0. -1.
<scales pt_clust_5="13000.00000" pt_clust_6="13000.00000" pt_clust_7="13000.00000" pt_clust_8="13000.00000" pt_clust_9="32.43933" pt_clust_10="27.17231"></scales>
<clustering>
<clus scale="   27.172">  1 10  2 -1</clus>
<clus scale="   32.439">  1  9  2 -1</clus>
<clus scale="   74.749">  5  6 -1 -1</clus>
<clus scale="   90.756">  7  8 -1 -1</clus>
<clus scale="   94.758">  1  5  2 -1</clus>
<clus scale="   27.172">  1  5  2 -1</clus>
</clustering>
</event>
<event>
10    4  0.3043429E-005  0.7965346E+02  0.7546771E-02  0.1331589E+00
         21   -1    0    0  501  502  0.00000000000E+00  0.00000000000E+00  0.46025459438E+03  0.46025459438E+03  0.00000000000E+00 0.  1.
          2   -1    0    0  503    0 -0.00000000000E+00 -0.00000000000E+00 -0.14242504214E+03  0.14242504214E+03  0.00000000000E+00 0. -1.
         23    2    1    2    0    0  0.28967067732E+02 -0.24859567869E+01 -0.77161623508E+02  0.11277436075E+03  0.76934188146E+02 0.  0.
         24    2    1    2    0    0  0.50599510045E+02 -0.87676812331E+01  0.14159422683E+02  0.95357779785E+02  0.79091303338E+02 0.  0.
        -11    1    4    4    0    0  0.68997442464E+02 -0.56666122885E+01 -0.39691637731E+01  0.69343433882E+02  0.00000000000E+00 0.  1.
         12    1    4    4    0    0 -0.18397932419E+02 -0.31010689446E+01  0.18128586456E+02  0.26014345903E+02  0.00000000000E+00 0. -1.
        -11    1    3    3    0    0  0.21121968486E+02  0.16386409035E+02  0.57808836774E+01  0.27350878777E+02  0.00000000000E+00 0.  1.
         11    1    3    3    0    0  0.78450992460E+01 -0.18872365822E+02 -0.82942507186E+02  0.85423481972E+02  0.00000000000E+00 0. -1.
         21    1    1    2  503  502 -0.48589938809E+02 -0.45083922321E+01  0.32597312189E+03  0.32960549745E+03  0.00000000000E+00 0.  1.
          1    1    1    2  501    0 -0.30976638969E+02  0.15762030252E+02  0.54858631178E+02  0.64941998539E+02  0.00000000000E+00 0. -1.
<scales pt_clust_5="13000.00000" pt_clust_6="13000.00000" pt_clust_7="13000.00000" pt_clust_8="13000.00000" pt_clust_9="74.42717" pt_clust_10="34.75620"></scales>
<clustering>
<clus scale="   34.756">  1 10  2 -1</clus>
<clus scale="   74.427">  1  9  2 -1</clus>
<clus scale="   76.934">  7  8 -1 -1</clus>
<clus scale="   77.512">  2  7  1 -1</clus>
<clus scale="   79.091">  5  6 -1 -1</clus>
<clus scale="   34.756">  1  5  2 -1</clus>
</clustering>
</event>
<event>
10    4  0.3043429E-005  0.1226081E+03  0.7546771E-02  0.1241585E+00
         -1   -1    0    0    0  501 -0.00000000000E+00  0.00000000000E+00  0.41814495894E+03  0.41814495894E+03  0.00000000000E+00 0.  1.
         21   -1    0    0  503  502  0.00000000000E+00 -0.00000000000E+00 -0.12164771062E+03  0.12164771062E+03  0.00000000000E+00 0. -1.
         23    2    1    2    0    0 -0.67709837092E+02  0.14811532813E+02  0.24399278354E+03  0.26965900867E+03  0.91539603413E+02 0.  0.
         24    2    1    2    0    0  0.12941677413E+03 -0.10244785472E+02  0.69386074455E+02  0.16873162832E+03  0.82475923818E+02 0.  0.
        -13    1    4    4    0    0  0.12112682755E+03  0.15883857511E+02  0.40001905438E+02  0.12854632519E+03  0.00000000000E+00 0.  1.
         14    1    4    4    0    0  0.82899465861E+01 -0.26128642984E+02  0.29384169017E+02  0.40185303127E+02  0.00000000000E+00 0. -1.
        -13    1    3    3    0    0 -0.42913074273E+02 -0.37109391616E+02  0.10798754594E+03  0.12198339628E+03  0.00000000000E+00 0.  1.
         13    1    3    3    0    0 -0.24796762820E+02  0.51920924429E+02  0.13600523759E+03  0.14767561238E+03  0.00000000000E+00 0. -1.
         21    1    1    2  503  501 -0.22247998143E+02 -0.46245745799E+01 -0.46705613045E+02  0.51940103979E+02  0.00000000000E+00 0. -1.
         -2    1    1    2    0  502 -0.39458938899E+02  0.57827239212E-01  0.29824003377E+02  0.49461928596E+02  0.00000000000E+00 0.  1.
<scales pt_clust_5="13000.00000" pt_clust_6="13000.00000" pt_clust_7="13000.00000" pt_clust_8="13000.00000" pt_clust_9="22.72356" pt_clust_10="42.48319"></scales>
<clustering>
<clus scale="   22.724">  2  9  1 -1</clus>
<clus scale="   42.483">  2 10  1 -1</clus>
<clus scale="   82.476">  5  6 -1 -1</clus>
<clus scale="   91.540">  7  8 -1 -1</clus>
<clus scale="  115.998">  2  5  1 -1</clus>
<clus scale="   22.724">  2  5  1 -1</clus>
</clustering>
</event>
<event>
10    4  0.3043429E-005  0.1500469E+03  0.7546771E-02  0.1203939E+00
         -1   -1    0    0    0  501 -0.00000000000E+00  0.00000000000E+00  0.21092044805E+04  0.21092044805E+04  0.00000000000E+00 0.  1.
         21   -1    0    0  503  502  0.00000000000E+00 -0.00000000000E+00 -0.29332908541E+02  0.29332908541E+02  0.00000000000E+00 0.  1.
         24    2    1    2    0    0 -0.11304874474E+03 -0.78515963707E+02  0.85367102758E+03  0.86840906010E+03  0.80220303436E+02 0.  0.
         23    2    1    2    0    0  0.89304080580E+02 -0.43864727227E+00  0.39117761472E+03  0.41305527120E+03  0.98078130007E+02 0.  0.
        -13    1    3    3    0    0 -0.88761988604E+02 -0.93518472056E+02  0.74365381227E+03  0.75474855928E+03  0.00000000000E+00 0.  1.
         14    1    3    3    0    0 -0.24286756140E+02  0.15002508349E+02  0.11001721531E+03  0.11366050081E+03  0.00000000000E+00 0. -1.
        -13    1    4    4    0    0  0.83405678222E+02 -0.39949568309E+02  0.28375775686E+03  0.29844754941E+03  0.00000000000E+00 0. -1.
         13    1    4    4    0    0  0.58984023576E+01  0.39510921037E+02  0.10741985786E+03  0.11460772179E+03  0.00000000000E+00 0.  1.
         21    1    1    2  503  501 -0.17651837943E+01 -0.22844410208E+02  0.93330145893E+01  0.24740414566E+02  0.00000000000E+00 0.  1.
         -2    1    1    2    0  502  0.25509847958E+02  0.10179902119E+03  0.82568991503E+03  0.83233264315E+03  0.00000000000E+00 0.  1.
<scales pt_clust_5="13000.00000" pt_clust_6="13000.00000" pt_clust_7="13000.00000" pt_clust_8="13000.00000" pt_clust_9="22.91251" pt_clust_10="101.47974"></scales>
<clustering>
<clus scale="   22.913">  2  9  1 -1</clus>
<clus scale="   80.220">  5  6 -1 -1</clus>
<clus scale="   98.078">  7  8 -1 -1</clus>
<clus scale="  101.480">  2 10  1 -1</clus>
<clus scale="  139.033">  1  5  2 -1</clus>
<clus scale="   22.913">  2  5  1 -1</clus>
</clustering>
</event>
<event>
10    4  0.3043429E-005  0.2192433E+03  0.7546771E-02  0.1147306E+00
         21   -1    0    0  501  502  0.00000000000E+00  0.00000000000E+00  0.56162289152E+03  0.56162289152E+03  0.00000000000E+00 0.  1.
          2   -1    0    0  503    0 -0.00000000000E+00 -0.00000000000E+00 -0.65586424969E+03  0.65586424969E+03  0.00000000000E+00 0. -1.
         24    2    1    2    0    0  0.15877135942E+03 -0.10145507709E+02 -0.69110112266E+02  0.18976697119E+03  0.76967654492E+02 0.  0.
         23    2    1    2    0    0 -0.69606298356E+02 -0.18500362574E+03 -0.12276141365E+03  0.25108684019E+03  0.94354959222E+02 0.  0.
        -11    1    3    3    0    0  0.23562724249E+02  0.24410987739E+02  0.24429939531E+00  0.33928719083E+02  0.00000000000E+00 0.  1.
         12    1    3    3    0    0  0.13520863517E+03 -0.34556495448E+02 -0.69354411662E+02  0.15583825211E+03  0.00000000000E+00 0. -1.
        -11    1    4    4    0    0 -0.93068401545E+02 -0.15424250301E+03 -0.96921953815E+02  0.20456378524E+03  0.00000000000E+00 0. -1.
         11    1    4    4    0    0  0.23462103189E+02 -0.30761122730E+02 -0.25839459832E+02  0.46523054952E+02  0.00000000000E+00 0.  1.
         21    1    1    2  503  502  0.73944996663E+02  0.23467975249E+03  0.37731645293E+03  0.45045549659E+03  0.00000000000E+00 0.  1.
          1    1    1    2  501    0 -0.16311005773E+03 -0.39530619038E+02 -0.27968628519E+03  0.32617783324E+03  0.00000000000E+00 0. -1.
<scales pt_clust_5="13000.00000" pt_clust_6="13000.00000" pt_clust_7="13000.00000" pt_clust_8="13000.00000" pt_clust_9="197.90095" pt_clust_10="167.83203"></scales>
<clustering>
<clus scale="   76.968">  5  6 -1 -1</clus>
<clus scale="   94.355">  7  8 -1 -1</clus>
<clus scale="  167.832">  1 10  2 -1</clus>
<clus scale="  160.857">  2  5  1 -1</clus>
<clus scale="  197.901">  1  9  2 -1</clus>
<clus scale="  167.832">  1  5  2 -1</clus>
</clustering>
</event>
<event>
10    4  0.3043429E-005  0.2435724E+03  0.7546771E-02  0.1163545E+00
          2   -1    0    0  503    0 -0.00000000000E+00  0.00000000000E+00  0.81840959397E+03  0.81840959397E+03  0.00000000000E+00 0. -1.
         21   -1    0    0  501  502  0.00000000000E+00 -0.00000000000E+00 -0.12419185026E+03  0.12419185026E+03  0.00000000000E+00 0. -1.
         24    2    1    2    0    0  0.10717454815E+02  0.44477590938E+00  0.23335498584E+03  0.24667342720E+03  0.79234895131E+02 0.  0.
         23    2    1    2    0    0 -0.63331185284E+01 -0.21392443518E+03  0.26970106646E+03  0.35599293169E+03  0.90490495661E+02 0.  0.
        -11    1    3    3    0    0 -0.16338164357E+02  0.30371816977E+02  0.65344601348E+02  0.73887074691E+02  0.00000000000E+00 0.  1.
         12    1    3    3    0    0  0.27055619172E+02 -0.29927041068E+02  0.16801038449E+03  0.17278635251E+03  0.00000000000E+00 0. -1.
        -11    1    4    4    0    0 -0.40085156626E+02 -0.18010232054E+03  0.21061738863E+03  0.28000598215E+03  0.00000000000E+00 0. -1.
         11    1    4    4    0    0  0.33752038097E+02 -0.33822114641E+02  0.59083677831E+02  0.75986949541E+02  0.00000000000E+00 0.  1.
         21    1    1    2  503  502  0.20634516185E+02 -0.29943098495E+02  0.26206845924E+02  0.44823779169E+02  0.00000000000E+00 0. -1.
          1    1    1    2  501    0 -0.25018852471E+02  0.24342275777E+03  0.16495484548E+03  0.29511130617E+03  0.00000000000E+00 0. -1.
<scales pt_clust_5="13000.00000" pt_clust_6="13000.00000" pt_clust_7="13000.00000" pt_clust_8="13000.00000" pt_clust_9="36.36444" pt_clust_10="226.13928"></scales>
<clustering>
<clus scale="   36.364">  2  9  1 -1</clus>
<clus scale="   79.235">  5  6 -1 -1</clus>
<clus scale="   80.136">  1  5  2 -1</clus>
<clus scale="   90.490">  7  8 -1 -1</clus>
<clus scale="  226.139">  2 10  1 -1</clus>
<clus scale="   36.364">  2  5  1 -1</clus>
</clustering>
</event>
<event>
10    4  0.3043429E-005  0.9185548E+02  0.7546771E-02  0.1302990E+00
          2   -1    0    0  503    0 -0.00000000000E+00  0.00000000000E+00  0.10614671624E+04  0.10614671624E+04  0.00000000000E+00 0. -1.
         21   -1    0    0  501  502  0.00000000000E+00 -0.00000000000E+00 -0.22930164435E+02  0.22930164435E+02  0.00000000000E+00 0.  1.
         23    2    1    2    0    0  0.90613125850E+01 -0.10007097835E+02  0.50033606648E+03  0.50835679520E+03  0.88928074350E+02 0.  0.
         24    2    1    2    0    0 -0.15487573317E+02  0.24410931358E+02  0.11390147307E+03  0.14286470664E+03  0.81246663548E+02 0.  0.
        -13    1    4    4    0    0 -0.30957878054E+01  0.52379284675E+02  0.89445592742E+02  0.10369998759E+03  0.00000000000E+00 0.  1.
         14    1    4    4    0    0 -0.12391785512E+02 -0.27968353316E+02  0.24455880332E+02  0.39164719049E+02  0.00000000000E+00 0. -1.
        -13    1    3    3    0    0  0.96888105288E+01 -0.49436044866E+02  0.29444824740E+03  0.29872657394E+03  0.00000000000E+00 0.  1.
         13    1    3    3    0    0 -0.62749794384E+00  0.39428947031E+02  0.20588781908E+03  0.20963022126E+03  0.00000000000E+00 0. -1.
         21    1    1    2  503  502 -0.33062446393E+02 -0.25147404590E+02  0.14286422245E+03  0.14878072246E+03  0.00000000000E+00 0. -1.
          1    1    1    2  501    0  0.39488707126E+02  0.10743571066E+02  0.28143523592E+03  0.28439510251E+03  0.00000000000E+00 0. -1.
<scales pt_clust_5="13000.00000" pt_clust_6="13000.00000" pt_clust_7="13000.00000" pt_clust_8="13000.00000" pt_clust_9="36.36944" pt_clust_10="40.92412"></scales>
<clustering>
<clus scale="   40.924">  2 10  1 -1</clus>
<clus scale="   36.369">  1  9  2 -1</clus>
<clus scale="   81.247">  5  6 -1 -1</clus>
<clus scale="   84.441">  2  5  1 -1</clus>
<clus scale="   88.928">  7  8 -1 -1</clus>
<clus scale="   40.924">  2  5  1 -1</clus>
</clustering>
</event>
<event>
10    4  0.3043429E-005  0.9713864E+02  0.7546771E-02  0.1293713E+00
          4   -1    0    0  503    0 -0.00000000000E+00  0.00000000000E+00  0.69078492637E+03  0.69078492637E+03  0.00000000000E+00 0. -1.
         21   -1    0    0  501  502  0.00000000000E+00 -0.00000000000E+00 -0.86863827304E+02  0.86863827304E+02  0.00000000000E+00 0. -1.
         24    2    1    2    0    0 -0.63865881671E+01 -0.28232377129E+02  0.56462489111E+03  0.57105948586E+03  0.80435148455E+02 0.  0.
         23    2    1    2    0    0  0.25297414801E+02  0.41319901391E+00  0.54916053806E+02  0.11125791029E+03  0.93393895454E+02 0.  0.
        -11    1    3    3    0    0 -0.23263623558E+02 -0.41594079305E+02  0.19246897377E+03  0.19828154094E+03  0.00000000000E+00 0.  1.
         12    1    3    3    0    0  0.16877035391E+02  0.13361702176E+02  0.37215591734E+03  0.37277794492E+03  0.00000000000E+00 0. -1.
        -11    1    4    4    0    0 -0.84241669537E+01 -0.23965665633E+02 -0.15287944270E+02  0.29648624894E+02  0.00000000000E+00 0.  1.
         11    1    4    4    0    0  0.33721581754E+02  0.24378864647E+02  0.70203998076E+02  0.81609285399E+02  0.00000000000E+00 0. -1.
         21    1    1    2  503  502  0.30899643308E+02 -0.88107710324E+01 -0.34498818837E+01  0.32315929938E+02  0.00000000000E+00 0. -1.
          3    1    1    2  501    0 -0.49810469941E+02  0.36629949148E+02 -0.12169963966E+02  0.63015427581E+02  0.00000000000E+00 0. -1.
<scales pt_clust_5="13000.00000" pt_clust_6="13000.00000" pt_clust_7="13000.00000" pt_clust_8="13000.00000" pt_clust_9="32.13126" pt_clust_10="45.82718"></scales>
<clustering>
<clus scale="   32.131">  2  9  1 -1</clus>
<clus scale="   45.827">  2 10  1 -1</clus>
<clus scale="   80.435">  5  6 -1 -1</clus>
<clus scale="   84.754">  1  5  2 -1</clus>
<clus scale="   93.394">  7  8 -1 -1</clus>
<clus scale="   32.131">  2  5  1 -1</clus>
</clustering>
</event>
<event>
10    4  0.3043429E-005  0.1257503E+03  0.7546771E-02  0.1238032E+00
          2   -1    0    0  503    0 -0.00000000000E+00  0.00000000000E+00  0.93667276867E+03  0.93667276867E+03  0.00000000000E+00 0. -1.
         21   -1    0    0  501  502  0.00000000000E+00 -0.00000000000E+00 -0.64259060100E+02  0.64259060100E+02  0.00000000000E+00 0.  1.
         24    2    1    2    0    0  0.91545982616E+01  0.78994551261E+02  0.45779460921E+03  0.47083418054E+03  0.76059026686E+02 0.  0.
         23    2    1    2    0    0  0.30401589545E+02 -0.11987175235E+03  0.19292479877E+03  0.24648737491E+03  0.90788514435E+02 0.  0.
        -11    1    3    3    0    0  0.28580402965E+02  0.82640050928E+02  0.32420111233E+03  0.33578650760E+03  0.00000000000E+00 0.  1.
         12    1    3    3    0    0 -0.19425804704E+02 -0.36454996676E+01  0.13359349689E+03  0.13504767294E+03  0.00000000000E+00 0. -1.
        -13    1    4    4    0    0  0.12956071022E+01 -0.12288272736E+03  0.14234245081E+03  0.18805110099E+03  0.00000000000E+00 0.  1.
         13    1    4    4    0    0  0.29105982443E+02  0.30109750154E+01  0.50582347959E+02  0.58436273919E+02  0.00000000000E+00 0. -1.
         21    1    1    2  503  502 -0.81914994541E+02 -0.56823124558E+00  0.37453534597E+02  0.90073061851E+02  0.00000000000E+00 0.  1.
          1    1    1    2  501    0  0.42358806734E+02  0.41445432334E+02  0.18424076599E+03  0.19353721147E+03  0.00000000000E+00 0. -1.
<scales pt_clust_5="13000.00000" pt_clust_6="13000.00000" pt_clust_7="13000.00000" pt_clust_8="13000.00000" pt_clust_9="65.65711" pt_clust_10="59.26209"></scales>
<clustering>
<clus scale="   59.262">  2 10  1 -1</clus>
<clus scale="   65.657">  2  9  1 -1</clus>
<clus scale="   76.059">  5  6 -1 -1</clus>
<clus scale="   90.789">  7  8 -1 -1</clus>
<clus scale="  115.566">  1  5  2 -1</clus>
<clus scale="   59.262">  2  5  1 -1</clus>
</clustering>
</event>
<event>
10    4  0.3043429E-005  0.1379256E+03  0.7546771E-02  0.1231504E+00
         21   -1    0    0  501  502  0.00000000000E+00  0.00000000000E+00  0.70420629495E+02  0.70420629495E+02  0.00000000000E+00 0. -1.
          2   -1    0    0  503    0 -0.00000000000E+00 -0.00000000000E+00 -0.13090494818E+04  0.13090494818E+04  0.00000000000E+00 0. -1.
         23    2    1    2    0    0 -0.22936860342E+02  0.41689460352E+02 -0.95931953240E+02  0.14052548715E+03  0.90996495639E+02 0.  0.
         24    2    1    2    0    0 -0.76573276427E+02 -0.70840088444E+02 -0.34572745127E+03  0.37001230420E+03  0.80621646603E+02 0.  0.
        -13    1    4    4    0    0 -0.18799147654E+02  0.17682562747E+02 -0.78657728544E+02  0.82783568645E+02  0.00000000000E+00 0.  1.
         14    1    4    4    0    0 -0.57774128773E+02 -0.88522651191E+02 -0.26706972273E+03  0.28722873555E+03  0.00000000000E+00 0. -1.
        -13    1    3    3    0    0 -0.53179486577E+02  0.44766182869E+02 -0.50743493610E+02  0.86063761625E+02  0.00000000000E+00 0.  1.
         13    1    3    3    0    0  0.30242626235E+02 -0.30767225174E+01 -0.45188459630E+02  0.54461725522E+02  0.00000000000E+00 0. -1.
         21    1    1    2  503  502 -0.10558721608E+02 -0.20302334693E+02  0.27444986463E+02  0.35733719061E+02  0.00000000000E+00 0. -1.
          1    1    1    2  501    0  0.11006885838E+03  0.49452962785E+02 -0.82441443427E+03  0.83319860090E+03  0.00000000000E+00 0. -1.
<scales pt_clust_5="13000.00000" pt_clust_6="13000.00000" pt_clust_7="13000.00000" pt_clust_8="13000.00000" pt_clust_9="22.88387" pt_clust_10="111.90905"></scales>
<clustering>
<clus scale="   22.884">  1  9  2 -1</clus>
<clus scale="   80.622">  5  6 -1 -1</clus>
<clus scale="   90.996">  7  8 -1 -1</clus>
<clus scale="  100.116">  2  7  1 -1</clus>
<clus scale="  111.909">  1 10  2 -1</clus>
<clus scale="   22.884">  1  5  2 -1</clus>
</clustering>
</event>
<event>
10    4  0.3043429E-005  0.1305673E+03  0.7546771E-02  0.1229465E+00
         21   -1    0    0  503  502  0.00000000000E+00  0.00000000000E+00  0.55440574802E+02  0.55440574802E+02  0.00000000000E+00 0.  1.
         -1   -1    0    0    0  501 -0.00000000000E+00 -0.00000000000E+00 -0.87042481871E+03  0.87042481871E+03  0.00000000000E+00 0.  1.
         24    2    1    2    0    0 -0.86446865696E+02 -0.55554854092E+02 -0.50036290918E+03  0.51730105535E+03  0.81718655063E+02 0.  0.
         23    2    1    2    0    0  0.22517581760E+02  0.85096635057E+02 -0.23682792142E+03  0.26909401114E+03  0.92604771373E+02 0.  0.
        -13    1    3    3    0    0 -0.99916385150E+02 -0.43198717813E+02 -0.37056698485E+03  0.38622442116E+03  0.00000000000E+00 0.  1.
         14    1    3    3    0    0  0.13469519454E+02 -0.12356136279E+02 -0.12979592433E+03  0.13107663419E+03  0.00000000000E+00 0. -1.
        -11    1    4    4    0    0 -0.18477594603E+02  0.12135452364E+02 -0.50585463746E+01  0.22677733524E+02  0.00000000000E+00 0.  1.
         11    1    4    4    0    0  0.40995176362E+02  0.72961182693E+02 -0.23176937505E+03  0.24641627762E+03  0.00000000000E+00 0. -1.
         21    1    1    2  503  501 -0.51534252822E+01 -0.32519981116E+02 -0.59406064319E+02  0.67920449364E+02  0.00000000000E+00 0.  1.
         -2    1    1    2    0  502  0.69082709219E+02  0.29782001517E+01 -0.18387348986E+02  0.71549877651E+02  0.00000000000E+00 0.  1.
<scales pt_clust_5="13000.00000" pt_clust_6="13000.00000" pt_clust_7="13000.00000" pt_clust_8="13000.00000" pt_clust_9="32.92578" pt_clust_10="67.84768"></scales>
<clustering>
<clus scale="   32.926">  1  9  2 -1</clus>
<clus scale="   67.848">  1 10  2 -1</clus>
<clus scale="   81.719">  5  6 -1 -1</clus>
<clus scale="   92.605">  7  8 -1 -1</clus>
<clus scale="  123.086">  2  5  1 -1</clus>
<clus scale="   32.926">  1  5  2 -1</clus>
</clustering>
</event>
<event>
10    4  0.3043429E-005  0.1770369E+03  0.7546771E-02  0.1179190E+00
         21   -1    0    0  501  502  0.00000000000E+00  0.00000000000E+00  0.34015271610E+03  0.34015271610E+03  0.00000000000E+00 0. -1.
          2   -1    0    0  503    0 -0.00000000000E+00 -0.00000000000E+00 -0.10706911989E+04  0.10706911989E+04  0.00000000000E+00 0. -1.
         23    2    1    2    0    0 -0.72257601244E+02 -0.10346988487E+03 -0.32451470010E+03  0.36017699449E+03  0.92143902499E+02 0.  0.
         24    2    1    2    0    0  0.10205954629E+03 -0.80749318092E+02 -0.67226753113E+03  0.68942610925E+03  0.80175578252E+02 0.  0.
        -13    1    4    4    0    0  0.35952810452E+02 -0.42717883242E+02 -0.12542738720E+03  0.13729330496E+03  0.00000000000E+00 0.  1.
         14    1    4    4    0    0  0.66106735839E+02 -0.38031434851E+02 -0.54684014393E+03  0.55213280429E+03  0.00000000000E+00 0. -1.
        -13    1    3    3    0    0 -0.66488728690E+02 -0.22889509209E+02 -0.19752496549E+03  0.20966829199E+03  0.00000000000E+00 0.  1.
         13    1    3    3    0    0 -0.57688725539E+01 -0.80580375662E+02 -0.12698973462E+03  0.15050870251E+03  0.00000000000E+00 0. -1.
         21    1    1    2  503  502 -0.48051404582E+02  0.10225757302E+03  0.39898970053E+02  0.11982268789E+03  0.00000000000E+00 0. -1.
          1    1    1    2  501    0  0.18249459535E+02  0.81961629943E+02  0.22634477841E+03  0.24141812333E+03  0.00000000000E+00 0. -1.
<scales pt_clust_5="13000.00000" pt_clust_6="13000.00000" pt_clust_7="13000.00000" pt_clust_8="13000.00000" pt_clust_9="157.84151" pt_clust_10="83.96875"></scales>
<clustering>
<clus scale="   80.176">  5  6 -1 -1</clus>
<clus scale="   83.969">  1 10  2 -1</clus>
<clus scale="   92.144">  7  8 -1 -1</clus>
<clus scale="  146.040">  2  7  1 -1</clus>
<clus scale="  157.842">  1  9  2 -1</clus>
<clus scale="   83.969">  1  5  2 -1</clus>
</clustering>
</event>
<event>
10    4  0.3043429E-005  0.1658285E+03  0.7546771E-02  0.1184328E+00
         21   -1    0    0  501  502  0.00000000000E+00  0.00000000000E+00  0.15722095788E+03  0.15722095788E+03  0.00000000000E+00 0.  1.
          2   -1    0    0  503    0 -0.00000000000E+00 -0.00000000000E+00 -0.27606459275E+03  0.27606459275E+03  0.00000000000E+00 0. -1.
         23    2    1    2    0    0 -0.12994076779E+03 -0.76797895431E+02 -0.97959230738E+02  0.20247416121E+03  0.92829172118E+02 0.  0.
         24    2    1    2    0    0  0.95855697757E+02  0.69092168125E+02  0.88952679414E+01  0.14227055753E+03  0.78738448417E+02 0.  0.
        -13    1    4    4    0    0  0.87799243385E+02  0.75609882179E+02  0.29184911412E+02  0.11948774195E+03  0.00000000000E+00 0.  1.
         14    1    4    4    0    0  0.80564543727E+01 -0.65177140542E+01 -0.20289643471E+02  0.22782815579E+02  0.00000000000E+00 0. -1.
        -13    1    3    3    0    0 -0.38698619358E+02 -0.73418059708E+02 -0.28491944934E+02  0.87747282337E+02  0.00000000000E+00 0.  1.
         13    1    3    3    0    0 -0.91242148428E+02 -0.33798357234E+01 -0.69467285804E+02  0.11472687887E+03  0.00000000000E+00 0. -1.
         21    1    1    2  503  502 -0.45786246802E+01  0.23444786131E+02  0.14292514860E+02  0.27836985859E+02  0.00000000000E+00 0. -1.
          1    1    1    2  501    0  0.38663694709E+02 -0.15739058825E+02 -0.44072186935E+02  0.60703846027E+02  0.00000000000E+00 0. -1.
<scales pt_clust_5="13000.00000" pt_clust_6="13000.00000" pt_clust_7="13000.00000" pt_clust_8="13000.00000" pt_clust_9="23.88769" pt_clust_10="40.96379"></scales>
<clustering>
<clus scale="   23.888">  1  9  2 -1</clus>
<clus scale="   40.964">  1 10  2 -1</clus>
<clus scale="   78.738">  5  6 -1 -1</clus>
<clus scale="   92.829">  7  8 -1 -1</clus>
<clus scale="  158.372">  1  5  2 -1</clus>
<clus scale="   23.888">  1  5  2 -1</clus>
</clustering>
</event>
<event>
10    4  0.3043429E-005  0.1252267E+03  0.7546771E-02  0.1237870E+00
          2   -1    0    0  503    0 -0.00000000000E+00  0.00000000000E+00  0.13755077931E+04  0.13755077931E+04  0.00000000000E+00 0. -1.
         21   -1    0    0  501  502  0.00000000000E+00 -0.00000000000E+00 -0.35409845191E+02  0.35409845191E+02  0.00000000000E+00 0.  1.
         23    2    1    2    0    0 -0.50377988473E+02  0.51642328687E+02  0.46180419741E+03  0.47609767578E+03  0.90559418614E+02 0.  0.
         24    2    1    2    0    0  0.54647908227E+02 -0.12283992580E+03  0.22626453366E+03  0.27491060464E+03  0.79398741216E+02 0.  0.
        -11    1    4    4    0    0  0.70213729143E+02 -0.63670973250E+02  0.14381649183E+03  0.17224152785E+03  0.00000000000E+00 0.  1.
         12    1    4    4    0    0 -0.15565820916E+02 -0.59168952549E+02  0.82448041827E+02  0.10266907678E+03  0.00000000000E+00 0. -1.
        -11    1    3    3    0    0  0.26154950060E+02  0.20171234304E+02  0.13332744617E+03  0.13735781015E+03  0.00000000000E+00 0.  1.
         11    1    3    3    0    0 -0.76532938532E+02  0.31471094384E+02  0.32847675124E+03  0.33873986563E+03  0.00000000000E+00 0. -1.
         21    1    1    2  503  502  0.31455316350E+02  0.21223935838E+02  0.18450577029E+03  0.18836738478E+03  0.00000000000E+00 0. -1.
          1    1    1    2  501    0 -0.35725236105E+02  0.49973661274E+02  0.46752344650E+03  0.47154197305E+03  0.00000000000E+00 0. -1.
<scales pt_clust_5="13000.00000" pt_clust_6="13000.00000" pt_clust_7="13000.00000" pt_clust_8="13000.00000" pt_clust_9="37.94591" pt_clust_10="62.83579"></scales>
<clustering>
<clus scale="   37.946">  1  9  2 -1</clus>
<clus scale="   62.836">  2 10  1 -1</clus>
<clus scale="   79.399">  5  6 -1 -1</clus>
<clus scale="   90.559">  7  8 -1 -1</clus>
<clus scale="  117.409">  2  5  1 -1</clus>
<clus scale="   62.836">  2  5  1 -1</clus>
</clustering>
</event>
<event>
10    4  0.3043429E-005  0.1488592E+03  0.7546771E-02  0.1222201E+00
         21   -1    0    0  501  502  0.00000000000E+00  0.00000000000E+00  0.81369291925E+02  0.81369291925E+02  0.00000000000E+00 0.  1.
          2   -1    0    0  503    0 -0.00000000000E+00 -0.00000000000E+00 -0.91707068089E+03  0.91707068089E+03  0.00000000000E+00 0. -1.
         23    2    1    2    0    0 -0.12181576552E+02  0.18003120708E+02 -0.21380717796E+03  0.23339474175E+03  0.91033471692E+02 0.  0.
         24    2    1    2    0    0 -0.86875971258E+02 -0.13279969741E+03 -0.30265099642E+03  0.35084459882E+03  0.79442513001E+02 0.  0.
        -13    1    4    4    0    0 -0.81187902403E+02 -0.61510933971E+02 -0.13969594000E+03  0.17288732211E+03  0.00000000000E+00 0.  1.
         14    1    4    4    0    0 -0.56880688556E+01 -0.71288763443E+02 -0.16295505642E+03  0.17795727671E+03  0.00000000000E+00 0. -1.
        -11    1    3    3    0    0 -0.19489877533E+02  0.48683651448E+02 -0.78108751216E+02  0.94079382763E+02  0.00000000000E+00 0.  1.
         11    1    3    3    0    0  0.73083009811E+01 -0.30680530740E+02 -0.13569842674E+03  0.13931535899E+03  0.00000000000E+00 0. -1.
         21    1    1    2  503  502  0.94632542461E+02  0.22358650720E+02 -0.17776946683E+02  0.98849619059E+02  0.00000000000E+00 0.  1.
          1    1    1    2  501    0  0.44250053492E+01  0.92437925987E+02 -0.30146626790E+03  0.31535101318E+03  0.00000000000E+00 0. -1.
<scales pt_clust_5="13000.00000" pt_clust_6="13000.00000" pt_clust_7="13000.00000" pt_clust_8="13000.00000" pt_clust_9="125.88865" pt_clust_10="92.54382"></scales>
<clustering>
<clus scale="   79.443">  5  6 -1 -1</clus>
<clus scale="   91.033">  7  8 -1 -1</clus>
<clus scale="   92.544">  1 10  2 -1</clus>
<clus scale="   96.601">  2  7  1 -1</clus>
<clus scale="  125.889">  1  9  2 -1</clus>
<clus scale="   92.544">  1  5  2 -1</clus>
</clustering>
</event>
<event>
10    4  0.3043429E-005  0.2005264E+03  0.7546771E-02  0.1179155E+00
          4   -1    0    0  502    0 -0.00000000000E+00  0.00000000000E+00  0.81822075710E+03  0.81822075710E+03  0.00000000000E+00 0. -1.
         21   -1    0    0  503  502  0.00000000000E+00 -0.00000000000E+00 -0.12947392929E+03  0.12947392929E+03  0.00000000000E+00 0. -1.
         23    2    1    2    0    0  0.54256802358E+02  0.10113014387E+02  0.19247063554E+02  0.10878847406E+03  0.91751888109E+02 0.  0.
         24    2    1    2    0    0 -0.30302627923E+01  0.19641700300E+03  0.20912608890E+03  0.29744594809E+03  0.78431813797E+02 0.  0.
        -11    1    4    4    0    0  0.15851109996E+02  0.18637093122E+03  0.16951494964E+03  0.25242959383E+03  0.00000000000E+00 0.  1.
         12    1    4    4    0    0 -0.18881372788E+02  0.10046071776E+02  0.39611139265E+02  0.45016354255E+02  0.00000000000E+00 0. -1.
        -13    1    3    3    0    0  0.65061520986E+02  0.34002247980E+02  0.31455863144E+02  0.79866298943E+02  0.00000000000E+00 0. -1.
         13    1    3    3    0    0 -0.10804718628E+02 -0.23889233593E+02 -0.12208799589E+02  0.28922175121E+02  0.00000000000E+00 0.  1.
         21    1    1    2  503  501 -0.30919506656E+02 -0.27354349248E+02 -0.57419070585E+01  0.41680280845E+02  0.00000000000E+00 0. -1.
          3    1    1    2  501    0 -0.20307032910E+02 -0.17917566814E+03  0.46611558240E+03  0.49977998339E+03  0.00000000000E+00 0. -1.
<scales pt_clust_5="13000.00000" pt_clust_6="13000.00000" pt_clust_7="13000.00000" pt_clust_8="13000.00000" pt_clust_9="41.28288" pt_clust_10="184.55166"></scales>
<clustering>
<clus scale="   41.283">  2  9  1 -1</clus>
<clus scale="   78.432">  5  6 -1 -1</clus>
<clus scale="   91.752">  7  8 -1 -1</clus>
<clus scale="  100.575">  1  7  2 -1</clus>
<clus scale="  184.552">  2 10  1 -1</clus>
<clus scale="   41.283">  2  5  1 -1</clus>
</clustering>
</event>
<event>
10    4  0.3043429E-005  0.2992837E+03  0.7546771E-02  0.1126988E+00
         21   -1    0    0  503  502  0.00000000000E+00  0.00000000000E+00  0.12638474619E+03  0.12638474619E+03  0.00000000000E+00 0.  1.
         -3   -1    0    0    0  501 -0.00000000000E+00 -0.00000000000E+00 -0.14325718646E+04  0.14325718646E+04  0.00000000000E+00 0.  1.
         23    2    1    2    0    0  0.56015421472E+00 -0.45585314527E+02 -0.12553825918E+03  0.16284414821E+03  0.93166664710E+02 0.  0.
         24    2    1    2    0    0  0.10475923401E+03 -0.23720208941E+03 -0.60267222754E+03  0.66112781984E+03  0.81466876685E+02 0.  0.
        -13    1    4    4    0    0  0.92797927022E+02 -0.22245484902E+03 -0.48132728429E+03  0.53830620441E+03  0.00000000000E+00 0.  1.
         14    1    4    4    0    0  0.11961306987E+02 -0.14747240384E+02 -0.12134494325E+03  0.12282161543E+03  0.00000000000E+00 0. -1.
        -11    1    3    3    0    0  0.31863468054E+02  0.62126580649E+01 -0.82277813125E+02  0.88450643012E+02  0.00000000000E+00 0. -1.
         11    1    3    3    0    0 -0.31303313839E+02 -0.51797972592E+02 -0.43260446057E+02  0.74393505193E+02  0.00000000000E+00 0.  1.
         21    1    1    2  503  501  0.63392687217E+02  0.12934012825E+02  0.10901072786E+02  0.65610630757E+02  0.00000000000E+00 0.  1.
         -4    1    1    2    0  502 -0.16871207544E+03  0.26985339111E+03 -0.58887770444E+03  0.66937401195E+03  0.00000000000E+00 0.  1.
<scales pt_clust_5="13000.00000" pt_clust_6="13000.00000" pt_clust_7="13000.00000" pt_clust_8="13000.00000" pt_clust_9="64.69870" pt_clust_10="287.98241"></scales>
<clustering>
<clus scale="   64.699">  1  9  2 -1</clus>
<clus scale="   81.467">  5  6 -1 -1</clus>
<clus scale="   93.167">  7  8 -1 -1</clus>
<clus scale="  103.496">  2  7  1 -1</clus>
<clus scale="  287.982">  1 10  2 -1</clus>
<clus scale="   64.699">  1  5  2 -1</clus>
</clustering>
</event>
<event>
10    4  0.3043429E-005  0.1362072E+03  0.7546771E-02  0.1233528E+00
         21   -1    0    0  501  502  0.00000000000E+00  0.00000000000E+00  0.13123404384E+03  0.13123404384E+03  0.00000000000E+00 0.  1.
         -1   -1    0    0    0  501 -0.00000000000E+00 -0.00000000000E+00 -0.52904126460E+03  0.52904126460E+03  0.00000000000E+00 0.  1.
         23    2    1    2    0    0 -0.33049902739E+01  0.29133855105E+02  0.46941425860E+02  0.10793931494E+03  0.92669810479E+02 0.  0.
         24    2    1    2    0    0  0.90179530756E+02 -0.33731246015E+01 -0.38129187862E+03  0.40217495535E+03  0.90650274516E+02 0.  0.
        -11    1    4    4    0    0  0.10757351191E+03 -0.94263722351E+01 -0.30059153616E+03  0.31939973164E+03  0.00000000000E+00 0.  1.
         12    1    4    4    0    0 -0.17393981154E+02  0.60532476337E+01 -0.80700342457E+02  0.82775223708E+02  0.00000000000E+00 0. -1.
        -11    1    3    3    0    0  0.82771807362E+01 -0.22540878098E+02 -0.13526471200E+02  0.27560267225E+02  0.00000000000E+00 0. -1.
         11    1    3    3    0    0 -0.11582171010E+02  0.51674733203E+02  0.60467897061E+02  0.80379047717E+02  0.00000000000E+00 0.  1.
         21    1    1    2  503  502  0.17092528876E+02  0.10459254829E+02  0.48232832386E+01  0.20611031419E+02  0.00000000000E+00 0.  1.
         -2    1    1    2    0  503 -0.10396706936E+03 -0.36219985333E+02 -0.68280051235E+02  0.12955000673E+03  0.00000000000E+00 0.  1.
<scales pt_clust_5="13000.00000" pt_clust_6="13000.00000" pt_clust_7="13000.00000" pt_clust_8="13000.00000" pt_clust_9="20.03873" pt_clust_10="101.66084"></scales>
<clustering>
<clus scale="   20.039">  1  9  2 -1</clus>
<clus scale="   90.650">  5  6 -1 -1</clus>
<clus scale="   92.670">  7  8 -1 -1</clus>
<clus scale="   99.716">  2  7  1 -1</clus>
<clus scale="  101.661">  1 10  2 -1</clus>
<clus scale="   20.039">  1  5  2 -1</clus>
</clustering>
</event>
<event>
10    4  0.3043429E-005  0.4822000E+03  0.7546771E-02  0.1067203E+00
          2   -1    0    0  503    0 -0.00000000000E+00  0.00000000000E+00  0.13146890365E+04  0.13146890365E+04  0.00000000000E+00 0. -1.
         21   -1    0    0  501  502  0.00000000000E+00 -0.00000000000E+00 -0.31193888167E+03  0.31193888167E+03  0.00000000000E+00 0.  1.
         23    2    1    2    0    0 -0.73904940962E+02  0.12248190913E+02  0.25063019623E+03  0.27695763419E+03  0.90983940293E+02 0.  0.
         24    2    1    2    0    0 -0.58214010766E+02  0.84873279635E+02  0.78158271725E+02  0.15447928489E+03  0.84633263997E+02 0.  0.
        -11    1    4    4    0    0 -0.36650727743E+01  0.76486589740E+02  0.56628044382E+02  0.95238472158E+02  0.00000000000E+00 0.  1.
         12    1    4    4    0    0 -0.54548937991E+02  0.83866898954E+01  0.21530227343E+02  0.59240812729E+02  0.00000000000E+00 0. -1.
        -11    1    3    3    0    0 -0.26805175031E+02 -0.39297016973E+02  0.11380090888E+03  0.12334269258E+03  0.00000000000E+00 0.  1.
         11    1    3    3    0    0 -0.47099765931E+02  0.51545207886E+02  0.13682928736E+03  0.15361494161E+03  0.00000000000E+00 0. -1.
         21    1    1    2  503  502 -0.16008573273E+02  0.43462248190E+03  0.28712879185E+03  0.52114865375E+03  0.00000000000E+00 0.  1.
          1    1    1    2  501    0  0.14812752500E+03 -0.53174395245E+03  0.38683289500E+03  0.67404234532E+03  0.00000000000E+00 0. -1.
<scales pt_clust_5="13000.00000" pt_clust_6="13000.00000" pt_clust_7="13000.00000" pt_clust_8="13000.00000" pt_clust_9="13000.00000" pt_clust_10="482.20003"></scales>
<clustering>
<clus scale="   84.633">  5  6 -1 -1</clus>
<clus scale="   90.984">  7  8 -1 -1</clus>
<clus scale="  117.856">  1  7  2 -1</clus>
<clus scale="  137.864">  1  5  2 -1</clus>
<clus scale="  482.200">  1 10  2 -1</clus>
<clus scale="  482.200">  2  5  1 -1</clus>
</clustering>
</event>
<event>
10    4  0.3043429E-005  0.1744832E+03  0.7546771E-02  0.1174584E+00
         -3   -1    0    0    0  501 -0.00000000000E+00  0.00000000000E+00  0.35932417954E+03  0.35932417954E+03  0.00000000000E+00 0.  1.
         21   -1    0    0  503  502  0.00000000000E+00 -0.00000000000E+00 -0.90477275786E+03  0.90477275786E+03  0.00000000000E+00 0.  1.
         23    2    1    2    0    0 -0.12574037491E+03 -0.82963828883E+02  0.24527555818E+03  0.30223042513E+03  0.92138437415E+02 0.  0.
         24    2    1    2    0    0  0.18787606466E+03 -0.64086989409E+02 -0.95943085574E+02  0.23518199358E+03  0.81859248428E+02 0.  0.
        -11    1    4    4    0    0  0.13744330441E+02 -0.32001374826E+02 -0.23565306221E+01  0.34907704688E+02  0.00000000000E+00 0.  1.
         12    1    4    4    0    0  0.17413173422E+03 -0.32085614584E+02 -0.93586554952E+02  0.20027428889E+03  0.00000000000E+00 0. -1.
        -11    1    3    3    0    0 -0.73317283786E+02 -0.97153845680E+02  0.18045241910E+03  0.21766343145E+03  0.00000000000E+00 0.  1.
         11    1    3    3    0    0 -0.52423091129E+02  0.14190016797E+02  0.64823139077E+02  0.84566993680E+02  0.00000000000E+00 0. -1.
         21    1    1    2  503  501  0.24799107165E+02 -0.15047544216E+02 -0.92450957393E+02  0.96894808045E+02  0.00000000000E+00 0.  1.
         -4    1    1    2    0  502 -0.86934796908E+02  0.16209836251E+03 -0.60233009354E+03  0.62978971063E+03  0.00000000000E+00 0.  1.
<scales pt_clust_5="13000.00000" pt_clust_6="13000.00000" pt_clust_7="13000.00000" pt_clust_8="13000.00000" pt_clust_9="29.00731" pt_clust_10="165.32169"></scales>
<clustering>
<clus scale="   29.007">  2  9  1 -1</clus>
<clus scale="   81.859">  5  6 -1 -1</clus>
<clus scale="   92.138">  7  8 -1 -1</clus>
<clus scale="  165.322">  2 10  1 -1</clus>
<clus scale="  169.280">  2  5  1 -1</clus>
<clus scale="   29.007">  2  5  1 -1</clus>
</clustering>
</event>
<event>
10    4  0.3043429E-005  0.1183999E+03  0.7546771E-02  0.1248943E+00
         21   -1    0    0  501  502  0.00000000000E+00  0.00000000000E+00  0.37272058696E+03  0.37272058696E+03  0.00000000000E+00 0. -1.
          4   -1    0    0  503    0 -0.00000000000E+00 -0.00000000000E+00 -0.99150554739E+02  0.99150554739E+02  0.00000000000E+00 0. -1.
         24    2    1    2    0    0  0.53154240563E+02 -0.43183084666E+02  0.12395527801E+02  0.10667881581E+03  0.80849047876E+02 0.  0.
         23    2    1    2    0    0 -0.68121380366E+02  0.57578833966E+02  0.60836594063E+02  0.14097564631E+03  0.90648756694E+02 0.  0.
        -13    1    3    3    0    0  0.30384521836E+02 -0.45584263343E+02  0.42159549407E+02  0.69127214886E+02  0.00000000000E+00 0.  1.
         14    1    3    3    0    0  0.22769718728E+02  0.24011786771E+01 -0.29764021605E+02  0.37551600926E+02  0.00000000000E+00 0. -1.
        -13    1    4    4    0    0 -0.51408143349E+02 -0.22956915077E+01  0.59679150604E+02  0.78801449345E+02  0.00000000000E+00 0. -1.
         13    1    4    4    0    0 -0.16713237017E+02  0.59874525473E+02  0.11574434591E+01  0.62174196960E+02  0.00000000000E+00 0.  1.
         21    1    1    2  503  502 -0.33732618326E+02  0.21047992054E+02  0.67077801690E+02  0.77976528444E+02  0.00000000000E+00 0. -1.
          3    1    1    2  501    0  0.48699758128E+02 -0.35443741354E+02  0.13326010866E+03  0.14624015113E+03  0.00000000000E+00 0. -1.
<scales pt_clust_5="13000.00000" pt_clust_6="13000.00000" pt_clust_7="13000.00000" pt_clust_8="13000.00000" pt_clust_9="39.76063" pt_clust_10="41.79017"></scales>
<clustering>
<clus scale="   39.761">  1  9  2 -1</clus>
<clus scale="   41.790">  1 10  2 -1</clus>
<clus scale="   80.849">  5  6 -1 -1</clus>
<clus scale="   90.649">  7  8 -1 -1</clus>
<clus scale="  111.076">  2  5  1 -1</clus>
<clus scale="   39.761">  1  5  2 -1</clus>
</clustering>
</event>
<event>
10    4  0.3043429E-005  0.1898452E+03  0.7546771E-02  0.1193957E+00
          4   -1    0    0  502    0 -0.00000000000E+00  0.00000000000E+00  0.60758109699E+03  0.60758109699E+03  0.00000000000E+00 0. -1.
         21   -1    0    0  503  502  0.00000000000E+00 -0.00000000000E+00 -0.11487299279E+03  0.11487299279E+03  0.00000000000E+00 0. -1.
         24    2    1    2    0    0  0.16653638187E+02 -0.24451509168E+02  0.13970118769E+03  0.16315021749E+03  0.78907234523E+02 0.  0.
         23    2    1    2    0    0 -0.19911221309E+03  0.12516197824E+02  0.12176005124E+03  0.25120110933E+03  0.92055193446E+02 0.  0.
        -13    1    3    3    0    0  0.43659118779E+02 -0.38004977348E+01  0.46286687788E+02  0.63741822236E+02  0.00000000000E+00 0.  1.
         14    1    3    3    0    0 -0.27005480592E+02 -0.20651011434E+02  0.93414499899E+02  0.99408395252E+02  0.00000000000E+00 0. -1.
        -11    1    4    4    0    0 -0.85664724004E+02 -0.33907981936E+02  0.79044776779E+02  0.12139305134E+03  0.00000000000E+00 0.  1.
         11    1    4    4    0    0 -0.11344748908E+03  0.46424179760E+02  0.42715274457E+02  0.12980805799E+03  0.00000000000E+00 0. -1.
         21    1    1    2  503  501  0.38127240161E+02  0.17680281251E-01  0.36034974786E+01  0.38297153275E+02  0.00000000000E+00 0. -1.
          3    1    1    2  501    0  0.14433133474E+03  0.11917631063E+02  0.22764336779E+03  0.26980560969E+03  0.00000000000E+00 0. -1.
<scales pt_clust_5="13000.00000" pt_clust_6="13000.00000" pt_clust_7="13000.00000" pt_clust_8="13000.00000" pt_clust_9="38.12724" pt_clust_10="166.03334"></scales>
<clustering>
<clus scale="   38.127">  2  9  1 -1</clus>
<clus scale="   78.907">  5  6 -1 -1</clus>
<clus scale="   85.294">  1  5  2 -1</clus>
<clus scale="   92.055">  7  8 -1 -1</clus>
<clus scale="  166.033">  2 10  1 -1</clus>
<clus scale="   38.127">  2  5  1 -1</clus>
</clustering>
</event>
<event>
10    4  0.3043429E-005  0.1264959E+03  0.7546771E-02  0.1247692E+00
          2   -1    0    0  503    0 -0.00000000000E+00  0.00000000000E+00  0.65985912522E+03  0.65985912522E+03  0.00000000000E+00 0. -1.
         21   -1    0    0  501  502  0.00000000000E+00 -0.00000000000E+00 -0.52505946687E+02  0.52505946687E+02  0.00000000000E+00 0. -1.
         23    2    1    2    0    0  0.12397351954E+02  0.49440175900E+01  0.86986619009E+02  0.12704540701E+03  0.91628193867E+02 0.  0.
         24    2    1    2    0    0 -0.93755067262E+02 -0.53884873461E+02  0.33764686140E+03  0.36339791157E+03  0.79743632282E+02 0.  0.
        -11    1    4    4    0    0 -0.45543033255E+02  0.11440499859E+02  0.74991422392E+02  0.88480316159E+02  0.00000000000E+00 0.  1.
         12    1    4    4    0    0 -0.48212034007E+02 -0.65325373319E+02  0.26265543901E+03  0.27491759541E+03  0.00000000000E+00 0. -1.
        -11    1    3    3    0    0  0.19330083927E+02 -0.34521973816E+02  0.10878978387E+02  0.41033778665E+02  0.00000000000E+00 0.  1.
         11    1    3    3    0    0 -0.69327319729E+01  0.39465991406E+02  0.76107640621E+02  0.86011628349E+02  0.00000000000E+00 0. -1.
         21    1    1    2  503  502 -0.10311567170E+02  0.25901794391E+02  0.22188932921E+02  0.35631167737E+02  0.00000000000E+00 0.  1.
          1    1    1    2  501    0  0.91669282479E+02  0.23039061480E+02  0.16053076520E+03  0.18629058559E+03  0.00000000000E+00 0. -1.
<scales pt_clust_5="13000.00000" pt_clust_6="13000.00000" pt_clust_7="13000.00000" pt_clust_8="13000.00000" pt_clust_9="27.87887" pt_clust_10="98.19450"></scales>
<clustering>
<clus scale="   27.879">  2  9  1 -1</clus>
<clus scale="   79.744">  5  6 -1 -1</clus>
<clus scale="   91.628">  7  8 -1 -1</clus>
<clus scale="   93.396">  1  7  2 -1</clus>
<clus scale="   98.195">  2 10  1 -1</clus>
<clus scale="   27.879">  2  5  1 -1</clus>
</clustering>
</event>
<event>
10    4  0.3043429E-005  0.1920073E+03  0.7546771E-02  0.1157638E+00
          2   -1    0    0  502    0 -0.00000000000E+00  0.00000000000E+00  0.58277641497E+03  0.58277641497E+03  0.00000000000E+00 0. -1.
         21   -1    0    0  503  502  0.00000000000E+00 -0.00000000000E+00 -0.21532632084E+03  0.21532632084E+03  0.00000000000E+00 0.  1.
         24    2    1    2    0    0 -0.17536838949E+03  0.29160973484E+02  0.27106313917E+03  0.33376146438E+03  0.79479904899E+02 0.  0.
         23    2    1    2    0    0  0.14498287741E+03  0.31251268850E+02 -0.61424816443E+02  0.18366003266E+03  0.89226245999E+02 0.  0.
        -13    1    3    3    0    0 -0.10949565863E+03  0.52554175687E+02  0.20062609115E+03  0.23452519927E+03  0.00000000000E+00 0.  1.
         14    1    3    3    0    0 -0.65872730853E+02 -0.23393202204E+02  0.70437048014E+02  0.99236265106E+02  0.00000000000E+00 0. -1.
        -11    1    4    4    0    0  0.52977934924E+02  0.35687836248E+02 -0.65457176318E+02  0.91459964883E+02  0.00000000000E+00 0.  1.
         11    1    4    4    0    0  0.92004942484E+02 -0.44365673977E+01  0.40323598752E+01  0.92200067776E+02  0.00000000000E+00 0. -1.
         21    1    1    2  503  501  0.37826890973E+01  0.64182175915E+02 -0.14963872355E+02  0.66011952841E+02  0.00000000000E+00 0.  1.
          1    1    1    2  501    0  0.26602822980E+02 -0.12459441825E+03  0.17277564376E+03  0.21466928594E+03  0.00000000000E+00 0. -1.
<scales pt_clust_5="13000.00000" pt_clust_6="13000.00000" pt_clust_7="13000.00000" pt_clust_8="13000.00000" pt_clust_9="64.29355" pt_clust_10="119.99505"></scales>
<clustering>
<clus scale="   64.294">  2  9  1 -1</clus>
<clus scale="   79.480">  5  6 -1 -1</clus>
<clus scale="   89.226">  7  8 -1 -1</clus>
<clus scale="  119.995">  2 10  1 -1</clus>
<clus scale="  187.677">  1  5  2 -1</clus>
<clus scale="   64.294">  2  5  1 -1</clus>
</clustering>
</event>
<event>
10    4  0.3043429E-005  0.1176544E+03  0.7546771E-02  0.1251313E+00
          4   -1    0    0  502    0 -0.00000000000E+00  0.00000000000E+00  0.27512142996E+03  0.27512142996E+03  0.00000000000E+00 0. -1.
         21   -1    0    0  503  502  0.00000000000E+00 -0.00000000000E+00 -0.23099055303E+03  0.23099055303E+03  0.00000000000E+00 0.  1.
         24    2    1    2    0    0  0.55882258423E+02 -0.58433989440E+02  0.18604000690E+03  0.21769564851E+03  0.79013627223E+02 0.  0.
         23    2    1    2    0    0 -0.36926925183E+02  0.32411183841E+02 -0.28640443894E+01  0.10416914239E+03  0.91809176203E+02 0.  0.
        -13    1    3    3    0    0  0.59019194391E+02 -0.51530842982E+02  0.19243675684E+03  0.20777535577E+03  0.00000000000E+00 0.  1.
         14    1    3    3    0    0 -0.31369359672E+01 -0.69031464585E+01 -0.63967499385E+01  0.99202927409E+01  0.00000000000E+00 0. -1.
        -13    1    4    4    0    0 -0.12768223475E+02 -0.32117594554E+02  0.45828025443E+01  0.34865018138E+02  0.00000000000E+00 0.  1.
         13    1    4    4    0    0 -0.24158701708E+02  0.64528778395E+02 -0.74468469337E+01  0.69304124254E+02  0.00000000000E+00 0. -1.
         21    1    1    2  503  501  0.15309512011E+02  0.22503583691E+02 -0.14649811365E+03  0.14900499904E+03  0.00000000000E+00 0.  1.
          3    1    1    2  501    0 -0.34264845251E+02  0.35192219085E+01  0.74530280717E+01  0.35242193041E+02  0.00000000000E+00 0. -1.
<scales pt_clust_5="13000.00000" pt_clust_6="13000.00000" pt_clust_7="13000.00000" pt_clust_8="13000.00000" pt_clust_9="27.21750" pt_clust_10="32.53330"></scales>
<clustering>
<clus scale="   27.218">  2  9  1 -1</clus>
<clus scale="   32.533">  2 10  1 -1</clus>
<clus scale="   79.014">  5  6 -1 -1</clus>
<clus scale="   91.809">  7  8 -1 -1</clus>
<clus scale="  107.967">  1  5  2 -1</clus>
<clus scale="   27.218">  2  5  1 -1</clus>
</clustering>
</event>
<event>
10    4  0.3043429E-005  0.3636994E+03  0.7546771E-02  0.1057129E+00
         21   -1    0    0  503  502  0.00000000000E+00  0.00000000000E+00  0.88790401086E+03  0.88790401086E+03  0.00000000000E+00 0.  1.
          4   -1    0    0  502    0 -0.00000000000E+00 -0.00000000000E+00 -0.96712174781E+03  0.96712174781E+03  0.00000000000E+00 0. -1.
         24    2    1    2    0    0 -0.14120656728E+03 -0.61883146050E+02 -0.24423187425E+03  0.29972406062E+03  0.80102969416E+02 0.  0.
         23    2    1    2    0    0 -0.12398806275E+03 -0.37673293925E+02 -0.32839431740E+03  0.36591882023E+03  0.96236367970E+02 0.  0.
        -13    1    3    3    0    0 -0.13971513934E+03 -0.42109377614E+02 -0.17577060139E+03  0.22844873419E+03  0.00000000000E+00 0.  1.
         14    1    3    3    0    0 -0.14914279393E+01 -0.19773768436E+02 -0.68461272860E+02  0.71275326426E+02  0.00000000000E+00 0. -1.
        -11    1    4    4    0    0 -0.79178339769E+02  0.15456241390E+02 -0.10786162670E+03  0.13469311564E+03  0.00000000000E+00 0. -1.
         11    1    4    4    0    0 -0.44809722977E+02 -0.53129535315E+02 -0.22053269070E+03  0.23122570459E+03  0.00000000000E+00 0.  1.
         21    1    1    2  503  501 -0.78384462410E+02 -0.51777687015E+02  0.73627539574E+03  0.74224423958E+03  0.00000000000E+00 0.  1.
          3    1    1    2  501    0  0.34357909243E+03  0.15133412699E+03 -0.24286694104E+03  0.44713863823E+03  0.00000000000E+00 0. -1.
<scales pt_clust_5="13000.00000" pt_clust_6="13000.00000" pt_clust_7="13000.00000" pt_clust_8="13000.00000" pt_clust_9="93.94175" pt_clust_10="311.98916"></scales>
<clustering>
<clus scale="   80.103">  5  6 -1 -1</clus>
<clus scale="   93.942">  1  9  2 -1</clus>
<clus scale="   96.236">  7  8 -1 -1</clus>
<clus scale="  110.460">  5  7 -1 -1</clus>
<clus scale="  311.989">  1 10  2 -1</clus>
<clus scale="   93.942">  1  5  2 -1</clus>
</clustering>
</event>
<event>
10    4  0.3043429E-005  0.1350221E+03  0.7546771E-02  0.1239532E+00
         21   -1    0    0  501  502  0.00000000000E+00  0.00000000000E+00  0.10291325520E+03  0.10291325520E+03  0.00000000000E+00 0. -1.
          2   -1    0    0  503    0 -0.00000000000E+00 -0.00000000000E+00 -0.53489016489E+03  0.53489016489E+03  0.00000000000E+00 0. -1.
         24    2    1    2    0    0 -0.10642534158E+02  0.45435068792E+02 -0.27948195649E+03  0.29433450224E+03  0.79655672704E+02 0.  0.
         23    2    1    2    0    0  0.20408424402E+01  0.80030203296E+02 -0.15005824147E+03  0.19261277413E+03  0.90405787677E+02 0.  0.
        -11    1    3    3    0    0  0.25102115095E+02  0.29108907459E+02 -0.21803031920E+03  0.22139255807E+03  0.00000000000E+00 0.  1.
         12    1    3    3    0    0 -0.35744649253E+02  0.16326161333E+02 -0.61451637293E+02  0.72941944176E+02  0.00000000000E+00 0. -1.
        -13    1    4    4    0    0 -0.27501720187E+02  0.28447042614E+02 -0.11928402684E+03  0.12567520800E+03  0.00000000000E+00 0.  1.
         13    1    4    4    0    0  0.29542562627E+02  0.51583160681E+02 -0.30774214629E+02  0.66937566123E+02  0.00000000000E+00 0. -1.
         21    1    1    2  503  502  0.36910991285E+02 -0.34795598813E+02 -0.19507667729E+02  0.54347990530E+02  0.00000000000E+00 0. -1.
          1    1    1    2  501    0 -0.28309299568E+02 -0.90669673275E+02  0.17070956013E+02  0.96508153194E+02  0.00000000000E+00 0. -1.
<scales pt_clust_5="13000.00000" pt_clust_6="13000.00000" pt_clust_7="13000.00000" pt_clust_8="13000.00000" pt_clust_9="50.72627" pt_clust_10="100.28837"></scales>
<clustering>
<clus scale="   50.726">  1  9  2 -1</clus>
<clus scale="   79.656">  5  6 -1 -1</clus>
<clus scale="   90.406">  7  8 -1 -1</clus>
<clus scale="   90.549">  2  5  1 -1</clus>
<clus scale="  100.288">  1 10  2 -1</clus>
<clus scale="   50.726">  1  5  2 -1</clus>
</clustering>
</event>
<event>
10    4  0.3043429E-005  0.1988435E+03  0.7546771E-02  0.1151375E+00
          2   -1    0    0  503    0 -0.00000000000E+00  0.00000000000E+00  0.94047150908E+03  0.94047150908E+03  0.00000000000E+00 0. -1.
         21   -1    0    0  501  502  0.00000000000E+00 -0.00000000000E+00 -0.11406137181E+03  0.11406137181E+03  0.00000000000E+00 0.  1.
         23    2    1    2    0    0 -0.22476852848E+03 -0.13598852331E+02  0.67453068853E+03  0.71697293051E+03  0.91393178798E+02 0.  0.
         24    2    1    2    0    0  0.10096778205E+03 -0.52337422848E+01  0.13768630306E+03  0.19682767663E+03  0.97784104869E+02 0.  0.
        -13    1    4    4    0    0  0.10608262189E+03 -0.33958031369E+02  0.10615224378E+03  0.15386672616E+03  0.00000000000E+00 0.  1.
         14    1    4    4    0    0 -0.51148398364E+01  0.28724289084E+02  0.31534059284E+02  0.42960950465E+02  0.00000000000E+00 0. -1.
        -13    1    3    3    0    0 -0.17154610729E+03 -0.75516843270E+01  0.37175869552E+03  0.40949923389E+03  0.00000000000E+00 0. -1.
         13    1    3    3    0    0 -0.53222421184E+02 -0.60471680045E+01  0.30277199302E+03  0.30747369662E+03  0.00000000000E+00 0.  1.
         21    1    1    2  503  502  0.77301470661E+02  0.26999922071E+01 -0.21091642622E+02  0.80172718008E+02  0.00000000000E+00 0.  1.
          1    1    1    2  501    0  0.46499275767E+02  0.16132602409E+02  0.35284788290E+02  0.60559555745E+02  0.00000000000E+00 0. -1.
<scales pt_clust_5="13000.00000" pt_clust_6="13000.00000" pt_clust_7="13000.00000" pt_clust_8="13000.00000" pt_clust_9="101.08812" pt_clust_10="49.21832"></scales>
<clustering>
<clus scale="   49.218">  2 10  1 -1</clus>
<clus scale="   91.393">  7  8 -1 -1</clus>
<clus scale="   97.784">  5  6 -1 -1</clus>
<clus scale="  101.088">  2  9  1 -1</clus>
<clus scale="  195.780">  1  7  2 -1</clus>
<clus scale="   49.218">  2  5  1 -1</clus>
</clustering>
</event>
<event>
10    4  0.3043429E-005  0.1025002E+03  0.7546771E-02  0.1281984E+00
         -3   -1    0    0    0  501 -0.00000000000E+00  0.00000000000E+00  0.30254063413E+03  0.30254063413E+03  0.00000000000E+00 0.  1.
         21   -1    0    0  503  502  0.00000000000E+00 -0.00000000000E+00 -0.16869986313E+03  0.16869986313E+03  0.00000000000E+00 0. -1.
         24    2    1    2    0    0  0.42915192008E+02  0.23672068599E+02  0.48365229842E+02  0.10299027772E+03  0.76587997172E+02 0.  0.
         23    2    1    2    0    0 -0.30536373288E+02 -0.33114766475E+02 -0.49340627690E+01  0.10167732862E+03  0.91021296012E+02 0.  0.
        -11    1    3    3    0    0  0.42846988159E+02  0.27031157641E+02 -0.37193423765E+01  0.50797454517E+02  0.00000000000E+00 0.  1.
         12    1    3    3    0    0  0.68203848681E-01 -0.33590890415E+01  0.52084572219E+02  0.52192823206E+02  0.00000000000E+00 0. -1.
        -11    1    4    4    0    0  0.11399206664E+02 -0.51653238391E+02 -0.14483067787E+02  0.54843032386E+02  0.00000000000E+00 0. -1.
         11    1    4    4    0    0 -0.41935579952E+02  0.18538471915E+02  0.95490050183E+01  0.46834296234E+02  0.00000000000E+00 0.  1.
         21    1    1    2  503  501 -0.77772620305E+02 -0.17594368306E+02 -0.60370446664E+02  0.10001366454E+03  0.00000000000E+00 0. -1.
         -4    1    1    2    0  502  0.65393801585E+02  0.27037066182E+02  0.15078005060E+03  0.16655922638E+03  0.00000000000E+00 0.  1.
<scales pt_clust_5="13000.00000" pt_clust_6="13000.00000" pt_clust_7="13000.00000" pt_clust_8="13000.00000" pt_clust_9="45.34915" pt_clust_10="70.76268"></scales>
<clustering>
<clus scale="   70.763">  2 10  1 -1</clus>
<clus scale="   45.349">  2  9  1 -1</clus>
<clus scale="   76.588">  5  6 -1 -1</clus>
<clus scale="   89.928">  1  5  2 -1</clus>
<clus scale="   91.021">  7  8 -1 -1</clus>
<clus scale="   70.763">  2  5  1 -1</clus>
</clustering>
</event>
<event>
10    4  0.3043429E-005  0.1611123E+03  0.7546771E-02  0.1218953E+00
         21   -1    0    0  503  502  0.00000000000E+00  0.00000000000E+00  0.70168503163E+02  0.70168503163E+02  0.00000000000E+00 0.  1.
          2   -1    0    0  502    0 -0.00000000000E+00 -0.00000000000E+00 -0.13289489536E+04  0.13289489536E+04  0.00000000000E+00 0. -1.
         24    2    1    2    0    0 -0.87467613153E+01 -0.15040320141E+02 -0.28793726768E+03  0.29926694623E+03  0.79687627168E+02 0.  0.
         23    2    1    2    0    0 -0.18767319483E+03  0.81495558272E+02 -0.23058237644E+03  0.32088398043E+03  0.89081661930E+02 0.  0.
        -11    1    3    3    0    0 -0.24123123574E+02 -0.42491261665E+02 -0.19959878438E+03  0.20549235298E+03  0.00000000000E+00 0.  1.
         12    1    3    3    0    0  0.15376362258E+02  0.27450941524E+02 -0.88338483299E+02  0.93774593245E+02  0.00000000000E+00 0. -1.
        -11    1    4    4    0    0 -0.14327287988E+03  0.31010409324E+02 -0.19748928053E+03  0.24594873352E+03  0.00000000000E+00 0.  1.
         11    1    4    4    0    0 -0.44400314953E+02  0.50485148948E+02 -0.33093095915E+02  0.74935246910E+02  0.00000000000E+00 0. -1.
         21    1    1    2  503  501  0.86734196659E+02 -0.17418854323E+02 -0.13166952792E+03  0.15862881812E+03  0.00000000000E+00 0. -1.
          1    1    1    2  501    0  0.10968575949E+03 -0.49036383808E+02 -0.60859127843E+03  0.62033771202E+03  0.00000000000E+00 0. -1.
<scales pt_clust_5="13000.00000" pt_clust_6="13000.00000" pt_clust_7="13000.00000" pt_clust_8="13000.00000" pt_clust_9="87.70935" pt_clust_10="134.24474"></scales>
<clustering>
<clus scale="   79.688">  5  6 -1 -1</clus>
<clus scale="   81.565">  2  5  1 -1</clus>
<clus scale="   87.709">  1  9  2 -1</clus>
<clus scale="   89.082">  7  8 -1 -1</clus>
<clus scale="  134.245">  1 10  2 -1</clus>
<clus scale="   87.709">  1  5  2 -1</clus>
</clustering>
</event>
<event>
10    4  0.3043429E-005  0.2932092E+03  0.7546771E-02  0.1136531E+00
         21   -1    0    0  501  502  0.00000000000E+00  0.00000000000E+00  0.32045585861E+03  0.32045585861E+03  0.00000000000E+00 0. -1.
          2   -1    0    0  503    0 -0.00000000000E+00 -0.00000000000E+00 -0.18000472988E+04  0.18000472988E+04  0.00000000000E+00 0. -1.
         24    2    1    2    0    0  0.11765410206E+02 -0.28405166086E+02 -0.41077787376E+03  0.41992307031E+03  0.81557618113E+02 0.  0.
         23    2    1    2    0    0  0.60765960731E+01  0.30321445792E+03 -0.12753288329E+04  0.13141276178E+04  0.92151132798E+02 0.  0.
        -13    1    3    3    0    0  0.56957077902E+01 -0.48764746217E+02 -0.14087115004E+03  0.14918150849E+03  0.00000000000E+00 0.  1.
         14    1    3    3    0    0  0.60697024161E+01  0.20359580131E+02 -0.26990672371E+03  0.27074156182E+03  0.00000000000E+00 0. -1.
        -13    1    4    4    0    0 -0.27964059461E+02  0.16060926064E+03 -0.81021472260E+03  0.82645339853E+03  0.00000000000E+00 0.  1.
         13    1    4    4    0    0  0.34040655534E+02  0.14260519728E+03 -0.46511411027E+03  0.48767421922E+03  0.00000000000E+00 0. -1.
         21    1    1    2  503  502  0.20591685806E+02  0.13695024485E+02  0.50479286774E+02  0.56211472256E+02  0.00000000000E+00 0. -1.
          1    1    1    2  501    0 -0.38433692086E+02 -0.28850431632E+03  0.15603597966E+03  0.33024099710E+03  0.00000000000E+00 0. -1.
<scales pt_clust_5="13000.00000" pt_clust_6="13000.00000" pt_clust_7="13000.00000" pt_clust_8="13000.00000" pt_clust_9="24.72997" pt_clust_10="278.35193"></scales>
<clustering>
<clus scale="   24.730">  1  9  2 -1</clus>
<clus scale="   81.558">  5  6 -1 -1</clus>
<clus scale="   87.133">  2  5  1 -1</clus>
<clus scale="   92.151">  7  8 -1 -1</clus>
<clus scale="  278.352">  1 10  2 -1</clus>
<clus scale="   24.730">  1  5  2 -1</clus>
</clustering>
</event>
<event>
10    4  0.3043429E-005  0.1287291E+03  0.7546771E-02  0.1247601E+00
         21   -1    0    0  501  502  0.00000000000E+00  0.00000000000E+00  0.22656576477E+03  0.22656576477E+03  0.00000000000E+00 0. -1.
          2   -1    0    0  503    0 -0.00000000000E+00 -0.00000000000E+00 -0.44495989882E+03  0.44495989882E+03  0.00000000000E+00 0. -1.
         24    2    1    2    0    0 -0.23315092708E+01  0.53051816056E+02 -0.99351802719E+02  0.13366236526E+03  0.71936889426E+02 0.  0.
         23    2    1    2    0    0  0.86664016826E+02 -0.14460201003E+02 -0.29497188789E+03  0.32022648386E+03  0.88412878576E+02 0.  0.
        -11    1    3    3    0    0 -0.69660656908E+01  0.60154354441E+02 -0.10653848771E+03  0.12254599868E+03  0.00000000000E+00 0.  1.
         12    1    3    3    0    0  0.46345564200E+01 -0.71025383849E+01  0.71866849895E+01  0.11116366576E+02  0.00000000000E+00 0. -1.
        -11    1    4    4    0    0  0.25776153050E+02 -0.10769195106E+02 -0.11406695799E+02  0.30174465005E+02  0.00000000000E+00 0.  1.
         11    1    4    4    0    0  0.60887863776E+02 -0.36910058970E+01 -0.28356519209E+03  0.29005201886E+03  0.00000000000E+00 0. -1.
         21    1    1    2  503  502  0.18311267843E+02 -0.11818080271E+02  0.25116910320E+02  0.33254003298E+02  0.00000000000E+00 0.  1.
          1    1    1    2  501    0 -0.10264377540E+03 -0.26773534782E+02  0.15081264623E+03  0.18438281117E+03  0.00000000000E+00 0. -1.
<scales pt_clust_5="13000.00000" pt_clust_6="13000.00000" pt_clust_7="13000.00000" pt_clust_8="13000.00000" pt_clust_9="21.79380" pt_clust_10="93.56468"></scales>
<clustering>
<clus scale="   21.794">  1  9  2 -1</clus>
<clus scale="   71.937">  5  6 -1 -1</clus>
<clus scale="   88.413">  7  8 -1 -1</clus>
<clus scale="   88.781">  2  5  1 -1</clus>
<clus scale="   93.565">  1 10  2 -1</clus>
<clus scale="   21.794">  1  5  2 -1</clus>
</clustering>
</event>
<event>
10    4  0.3043429E-005  0.1691809E+03  0.7546771E-02  0.1198003E+00
         21   -1    0    0  503  502  0.00000000000E+00  0.00000000000E+00  0.18973654072E+03  0.18973654072E+03  0.00000000000E+00 0.  1.
         -1   -1    0    0    0  501 -0.00000000000E+00 -0.00000000000E+00 -0.63924071010E+03  0.63924071010E+03  0.00000000000E+00 0.  1.
         23    2    1    2    0    0  0.14117337162E+02  0.57641847391E+02 -0.39849623667E+03  0.41316063302E+03  0.91545487358E+02 0.  0.
         24    2    1    2    0    0  0.13242150600E+02  0.98141786479E+02 -0.51932600487E+02  0.13781758139E+03  0.80557593935E+02 0.  0.
        -11    1    4    4    0    0  0.42066706978E+02  0.68982661291E+02 -0.53298818498E+02  0.96793488666E+02  0.00000000000E+00 0.  1.
         12    1    4    4    0    0 -0.28824556378E+02  0.29159125188E+02  0.13662180108E+01  0.41024092723E+02  0.00000000000E+00 0. -1.
        -11    1    3    3    0    0  0.40752504998E+02  0.59186896522E+02 -0.35447527468E+03  0.36168574169E+03  0.00000000000E+00 0.  1.
         11    1    3    3    0    0 -0.26635167837E+02 -0.15450491305E+01 -0.44020961996E+02  0.51474891331E+02  0.00000000000E+00 0. -1.
         21    1    1    2  503  501 -0.36698857703E+02  0.54894889643E+02  0.10669082249E+02  0.66888596799E+02  0.00000000000E+00 0.  1.
         -2    1    1    2    0  502  0.93393699408E+01 -0.21067852351E+03 -0.97444144772E+01  0.21111043961E+03  0.00000000000E+00 0.  1.
<scales pt_clust_5="13000.00000" pt_clust_6="13000.00000" pt_clust_7="13000.00000" pt_clust_8="13000.00000" pt_clust_9="66.03223" pt_clust_10="148.77043"></scales>
<clustering>
<clus scale="   66.032">  1  9  2 -1</clus>
<clus scale="   80.558">  5  6 -1 -1</clus>
<clus scale="   91.545">  7  8 -1 -1</clus>
<clus scale="  110.317">  2  7  1 -1</clus>
<clus scale="  148.770">  1 10  2 -1</clus>
<clus scale="   66.032">  1  5  2 -1</clus>
</clustering>
</event>
<event>
10    4  0.3043429E-005  0.2293354E+03  0.7546771E-02  0.1127949E+00
          2   -1    0    0  503    0 -0.00000000000E+00  0.00000000000E+00  0.68645417010E+03  0.68645417010E+03  0.00000000000E+00 0. -1.
         21   -1    0    0  501  502  0.00000000000E+00 -0.00000000000E+00 -0.17463656240E+03  0.17463656240E+03  0.00000000000E+00 0. -1.
         24    2    1    2    0    0 -0.10510264689E+03 -0.20304050517E+03  0.46964487671E+03  0.52839260501E+03  0.79752251969E+02 0.  0.
         23    2    1    2    0    0  0.41772456717E+02  0.17035393810E+03  0.10295630991E+03  0.22329932912E+03  0.92180183713E+02 0.  0.
        -13    1    3    3    0    0 -0.78209486849E+01 -0.27140890214E+02  0.13578550913E+03  0.13869210378E+03  0.00000000000E+00 0.  1.
         14    1    3    3    0    0 -0.97281698204E+02 -0.17589961496E+03  0.33385936758E+03  0.38970050124E+03  0.00000000000E+00 0. -1.
        -13    1    4    4    0    0 -0.38079075224E+01  0.11697857649E+03  0.27465566935E+02  0.12021998538E+03  0.00000000000E+00 0.  1.
         13    1    4    4    0    0  0.45580364240E+02  0.53375361609E+02  0.75490742977E+02  0.10307934374E+03  0.00000000000E+00 0. -1.
         21    1    1    2  503  502  0.16766078864E+02 -0.16078619053E+02 -0.11776205231E+02  0.26044239301E+02  0.00000000000E+00 0. -1.
          1    1    1    2  501    0  0.46564111308E+02  0.48765186120E+02 -0.49007373693E+02  0.83354559056E+02  0.00000000000E+00 0. -1.
<scales pt_clust_5="13000.00000" pt_clust_6="13000.00000" pt_clust_7="13000.00000" pt_clust_8="13000.00000" pt_clust_9="23.22980" pt_clust_10="68.12378"></scales>
<clustering>
<clus scale="   23.230">  2  9  1 -1</clus>
<clus scale="   68.124">  2 10  1 -1</clus>
<clus scale="   79.752">  5  6 -1 -1</clus>
<clus scale="   92.180">  7  8 -1 -1</clus>
<clus scale="  224.629">  1  5  2 -1</clus>
<clus scale="   23.230">  2  5  1 -1</clus>
</clustering>
</event>
<event>
10    4  0.3043429E-005  0.1555078E+03  0.7546771E-02  0.1214607E+00
         21   -1    0    0  501  502  0.00000000000E+00  0.00000000000E+00  0.22858582942E+03  0.22858582942E+03  0.00000000000E+00 0. -1.
          2   -1    0    0  503    0 -0.00000000000E+00 -0.00000000000E+00 -0.32165652865E+03  0.32165652865E+03  0.00000000000E+00 0. -1.
         23    2    1    2    0    0 -0.13364482149E+02  0.34298260155E+02 -0.10527630132E+03  0.14584510669E+03  0.93982527592E+02 0.  0.
         24    2    1    2    0    0 -0.25250560602E+02  0.11454605385E+03 -0.98034339000E+02  0.17335956886E+03  0.81758297617E+02 0.  0.
        -11    1    4    4    0    0 -0.32265126513E+02  0.68943729966E+02 -0.13863131014E+02  0.77372234633E+02  0.00000000000E+00 0.  1.
         12    1    4    4    0    0  0.70145659110E+01  0.45602323885E+02 -0.84171207985E+02  0.95987334229E+02  0.00000000000E+00 0. -1.
        -13    1    3    3    0    0 -0.47931937206E+02  0.32010347808E+02 -0.34837649413E+02  0.67348309464E+02  0.00000000000E+00 0. -1.
         13    1    3    3    0    0  0.34567455057E+02  0.22879123476E+01 -0.70438651905E+02  0.78496797223E+02  0.00000000000E+00 0.  1.
         21    1    1    2  503  502  0.57764768426E+02 -0.17003736346E+02  0.68992667114E+02  0.91574470441E+02  0.00000000000E+00 0. -1.
          1    1    1    2  501    0 -0.19149725675E+02 -0.13184057766E+03  0.41247273972E+02  0.13946321207E+03  0.00000000000E+00 0. -1.
<scales pt_clust_5="13000.00000" pt_clust_6="13000.00000" pt_clust_7="13000.00000" pt_clust_8="13000.00000" pt_clust_9="60.21541" pt_clust_10="132.28099"></scales>
<clustering>
<clus scale="   60.215">  1  9  2 -1</clus>
<clus scale="   81.758">  5  6 -1 -1</clus>
<clus scale="   93.983">  7  8 -1 -1</clus>
<clus scale="   99.422">  2  7  1 -1</clus>
<clus scale="  132.281">  1 10  2 -1</clus>
<clus scale="   60.215">  1  5  2 -1</clus>
</clustering>
</event>
<event>
10    4  0.3043429E-005  0.1603877E+03  0.7546771E-02  0.1209062E+00
          2   -1    0    0  502    0 -0.00000000000E+00  0.00000000000E+00  0.22085641247E+04  0.22085641247E+04  0.00000000000E+00 0. -1.
         21   -1    0    0  503  502  0.00000000000E+00 -0.00000000000E+00 -0.48662613573E+02  0.48662613573E+02  0.00000000000E+00 0. -1.
         23    2    1    2    0    0  0.31725052784E+02  0.55268435935E+02  0.12081738545E+03  0.16224543250E+03  0.87553759230E+02 0.  0.
         24    2    1    2    0    0 -0.16015941771E+03 -0.44623069402E+01  0.12303409358E+04  0.12432918107E+04  0.79779426596E+02 0.  0.
        -13    1    4    4    0    0 -0.72094722255E+02  0.28691003095E+02  0.38586338167E+03  0.39358781987E+03  0.00000000000E+00 0.  1.
         14    1    4    4    0    0 -0.88064695454E+02 -0.33153310036E+02  0.84447755417E+03  0.84970399084E+03  0.00000000000E+00 0. -1.
        -13    1    3    3    0    0 -0.23007669163E+02  0.30265776503E+02  0.82686989036E+02  0.91008286565E+02  0.00000000000E+00 0.  1.
         13    1    3    3    0    0  0.54732721947E+02  0.25002659432E+02  0.38130396416E+02  0.71237145937E+02  0.00000000000E+00 0. -1.
         21    1    1    2  503  501  0.48838599891E+01 -0.25256498560E+02 -0.66688827757E+01  0.26574739988E+02  0.00000000000E+00 0. -1.
          1    1    1    2  501    0  0.12355050494E+03 -0.25549630434E+02  0.81541207263E+03  0.82511475510E+03  0.00000000000E+00 0. -1.
<scales pt_clust_5="13000.00000" pt_clust_6="13000.00000" pt_clust_7="13000.00000" pt_clust_8="13000.00000" pt_clust_9="25.72436" pt_clust_10="139.13826"></scales>
<clustering>
<clus scale="   25.724">  2  9  1 -1</clus>
<clus scale="   79.779">  5  6 -1 -1</clus>
<clus scale="   87.554">  7  8 -1 -1</clus>
<clus scale="  101.975">  1  7  2 -1</clus>
<clus scale="  139.138">  2 10  1 -1</clus>
<clus scale="   25.724">  2  5  1 -1</clus>
</clustering>
</event>
<event>
10    4  0.3043429E-005  0.1092715E+03  0.7546771E-02  0.1266938E+00
          2   -1    0    0  503    0 -0.00000000000E+00  0.00000000000E+00  0.48183752372E+03  0.48183752372E+03  0.00000000000E+00 0. -1.
         21   -1    0    0  501  502  0.00000000000E+00 -0.00000000000E+00 -0.99462064441E+02  0.99462064441E+02  0.00000000000E+00 0. -1.
         23    2    1    2    0    0 -0.46241060065E+02 -0.17473342316E+02  0.19121661986E+03  0.21772416438E+03  0.91632214403E+02 0.  0.
         24    2    1    2    0    0  0.72862316039E+02  0.13806362706E+02  0.14068996450E+03  0.17767381105E+03  0.79213535921E+02 0.  0.
        -11    1    4    4    0    0  0.11496388684E+02 -0.30306812067E+02  0.34532513074E+02  0.47362055167E+02  0.00000000000E+00 0.  1.
         12    1    4    4    0    0  0.61365927355E+02  0.44113174773E+02  0.10615745143E+03  0.13031175589E+03  0.00000000000E+00 0. -1.
        -11    1    3    3    0    0 -0.72187420466E+02  0.97504219256E-01  0.14357018956E+03  0.16069670971E+03  0.00000000000E+00 0. -1.
         11    1    3    3    0    0  0.25946360401E+02 -0.17570846535E+02  0.47646430301E+02  0.57027454673E+02  0.00000000000E+00 0.  1.
         21    1    1    2  503  502 -0.40667914339E+02  0.25783035847E+02 -0.57384981665E+02  0.74911149469E+02  0.00000000000E+00 0. -1.
          1    1    1    2  501    0  0.14046658365E+02 -0.22116056237E+02  0.10785385658E+03  0.11099046326E+03  0.00000000000E+00 0. -1.
<scales pt_clust_5="13000.00000" pt_clust_6="13000.00000" pt_clust_7="13000.00000" pt_clust_8="13000.00000" pt_clust_9="33.00683" pt_clust_10="26.19979"></scales>
<clustering>
<clus scale="   26.200">  2 10  1 -1</clus>
<clus scale="   33.007">  2  9  1 -1</clus>
<clus scale="   79.214">  5  6 -1 -1</clus>
<clus scale="   91.632">  7  8 -1 -1</clus>
<clus scale="   99.089">  2  5  1 -1</clus>
<clus scale="   26.200">  2  5  1 -1</clus>
</clustering>
</event>
<event>
10    4  0.3043429E-005  0.2035082E+03  0.7546771E-02  0.1148149E+00
         21   -1    0    0  501  502  0.00000000000E+00  0.00000000000E+00  0.19854553421E+03  0.19854553421E+03  0.00000000000E+00 0. -1.
         -1   -1    0    0    0  501 -0.00000000000E+00 -0.00000000000E+00 -0.83647394962E+03  0.83647394962E+03  0.00000000000E+00 0.  1.
         23    2    1    2    0    0  0.16508889968E+03  0.40356079590E+02 -0.62864127051E+03  0.65743541647E+03  0.90269163508E+02 0.  0.
         24    2    1    2    0    0 -0.21798305737E+03 -0.38304383541E+02  0.33516005550E+01  0.24432698970E+03  0.10344373141E+03 0.  0.
        -11    1    4    4    0    0 -0.26412944748E+02  0.26761355508E+02  0.17583251115E+02  0.41508848679E+02  0.00000000000E+00 0.  1.
         12    1    4    4    0    0 -0.19157011262E+03 -0.65065739049E+02 -0.14231650560E+02  0.20281814102E+03  0.00000000000E+00 0. -1.
        -13    1    3    3    0    0  0.65714697365E+02 -0.26878644085E+02 -0.27392432976E+03  0.28297600851E+03  0.00000000000E+00 0.  1.
         13    1    3    3    0    0  0.99374202315E+02  0.67234723675E+02 -0.35471694075E+03  0.37445940796E+03  0.00000000000E+00 0. -1.
         21    1    1    2  503  502  0.24470506062E+02  0.39482725630E+02  0.39364726301E+02  0.60887379372E+02  0.00000000000E+00 0.  1.
         -2    1    1    2    0  503  0.28423651629E+02 -0.41534421679E+02 -0.52003471752E+02  0.72369698289E+02  0.00000000000E+00 0.  1.
<scales pt_clust_5="13000.00000" pt_clust_6="13000.00000" pt_clust_7="13000.00000" pt_clust_8="13000.00000" pt_clust_9="46.45096" pt_clust_10="49.12827"></scales>
<clustering>
<clus scale="   46.451">  1  9  2 -1</clus>
<clus scale="   49.128">  1 10  2 -1</clus>
<clus scale="   90.269">  7  8 -1 -1</clus>
<clus scale="  103.444">  5  6 -1 -1</clus>
<clus scale="  197.138">  2  7  1 -1</clus>
<clus scale="   46.451">  1  5  2 -1</clus>
</clustering>
</event>
<event>
10    4  0.3043429E-005  0.1290141E+03  0.7546771E-02  0.1232884E+00
          2   -1    0    0  502    0 -0.00000000000E+00  0.00000000000E+00  0.86499363927E+03  0.86499363927E+03  0.00000000000E+00 0. -1.
         21   -1    0    0  503  502  0.00000000000E+00 -0.00000000000E+00 -0.62984915996E+02  0.62984915996E+02  0.00000000000E+00 0.  1.
         23    2    1    2    0    0  0.55183117544E+02  0.85274569623E+02  0.28649690978E+03  0.31752009070E+03  0.91769275883E+02 0.  0.
         24    2    1    2    0    0  0.62420840406E+02 -0.97179231554E+02  0.23749840780E+03  0.27506501503E+03  0.76909716036E+02 0.  0.
        -13    1    4    4    0    0  0.17314282617E+02 -0.74086092309E+02  0.83595940186E+02  0.11303457290E+03  0.00000000000E+00 0.  1.
         14    1    4    4    0    0  0.45106557789E+02 -0.23093139245E+02  0.15390246762E+03  0.16203044212E+03  0.00000000000E+00 0. -1.
        -13    1    3    3    0    0  0.25070133382E+02  0.59114388332E+02  0.61149636727E+02  0.88669614681E+02  0.00000000000E+00 0.  1.
         13    1    3    3    0    0  0.30112984162E+02  0.26160181290E+02  0.22534727306E+03  0.22885047602E+03  0.00000000000E+00 0. -1.
         21    1    1    2  503  501 -0.48501391787E+02 -0.42755199928E+02  0.28273997421E+02  0.70567776331E+02  0.00000000000E+00 0. -1.
          1    1    1    2  501    0 -0.69102566163E+02  0.54659861859E+02  0.24973940827E+03  0.26482567321E+03  0.00000000000E+00 0. -1.
<scales pt_clust_5="13000.00000" pt_clust_6="13000.00000" pt_clust_7="13000.00000" pt_clust_8="13000.00000" pt_clust_9="64.65595" pt_clust_10="90.90987"></scales>
<clustering>
<clus scale="   64.656">  2  9  1 -1</clus>
<clus scale="   76.910">  5  6 -1 -1</clus>
<clus scale="   90.910">  2 10  1 -1</clus>
<clus scale="   91.769">  7  8 -1 -1</clus>
<clus scale="  118.904">  2  5  1 -1</clus>
<clus scale="   64.656">  2  5  1 -1</clus>
</clustering>
</event>
<event>
10    4  0.3043429E-005  0.1222356E+03  0.7546771E-02  0.1252077E+00
         21   -1    0    0  501  502  0.00000000000E+00  0.00000000000E+00  0.16098812564E+03  0.16098812564E+03  0.00000000000E+00 0.  1.
          2   -1    0    0  503    0 -0.00000000000E+00 -0.00000000000E+00 -0.99514368896E+03  0.99514368896E+03  0.00000000000E+00 0. -1.
         24    2    1    2    0    0 -0.36057424897E+01  0.55597447244E+02 -0.75414198065E+02  0.11800636082E+03  0.71652790637E+02 0.  0.
         23    2    1    2    0    0 -0.15594859557E+02  0.44208460730E+02  0.25763105604E+02  0.11294546670E+03  0.99475389884E+02 0.  0.
        -11    1    3    3    0    0  0.12852607931E+02  0.68588722089E+02 -0.58861745419E+02  0.91292427956E+02  0.00000000000E+00 0.  1.
         12    1    3    3    0    0 -0.16458350421E+02 -0.12991274844E+02 -0.16552452646E+02  0.26713932867E+02  0.00000000000E+00 0. -1.
        -11    1    4    4    0    0 -0.38246465651E+02  0.55600697235E+02 -0.10909533841E+02  0.68361155611E+02  0.00000000000E+00 0.  1.
         11    1    4    4    0    0  0.22651606094E+02 -0.11392236505E+02  0.36672639445E+02  0.44584311087E+02  0.00000000000E+00 0. -1.
         21    1    1    2  503  502 -0.21993296687E+01  0.28611427047E+02  0.62213129304E+02  0.68512219833E+02  0.00000000000E+00 0.  1.
          1    1    1    2  501    0  0.21399931716E+02 -0.12841733502E+03 -0.84671760016E+03  0.85666776725E+03  0.00000000000E+00 0. -1.
<scales pt_clust_5="13000.00000" pt_clust_6="13000.00000" pt_clust_7="13000.00000" pt_clust_8="13000.00000" pt_clust_9="28.69583" pt_clust_10="71.03661"></scales>
<clustering>
<clus scale="   28.696">  1  9  2 -1</clus>
<clus scale="   71.653">  5  6 -1 -1</clus>
<clus scale="   94.821">  2  5  1 -1</clus>
<clus scale="   71.037">  1 10  2 -1</clus>
<clus scale="   99.475">  7  8 -1 -1</clus>
<clus scale="   28.696">  1  5  2 -1</clus>
</clustering>
</event>
<event>
10    4  0.3043429E-005  0.1222050E+03  0.7546771E-02  0.1239930E+00
          2   -1    0    0  503    0 -0.00000000000E+00  0.00000000000E+00  0.85942402359E+03  0.85942402359E+03  0.00000000000E+00 0. -1.
         21   -1    0    0  501  502  0.00000000000E+00 -0.00000000000E+00 -0.12253819197E+03  0.12253819197E+03  0.00000000000E+00 0. -1.
         24    2    1    2    0    0  0.76662997716E+02  0.18480650910E+02  0.45572493763E+03  0.47097497516E+03  0.88957623488E+02 0.  0.
         23    2    1    2    0    0 -0.10799396195E+03  0.49538151559E+02  0.11041304975E+03  0.18568291430E+03  0.90390147854E+02 0.  0.
        -11    1    3    3    0    0  0.74822689786E+02  0.81028316650E+01  0.18067451627E+03  0.19572269060E+03  0.00000000000E+00 0.  1.
         12    1    3    3    0    0  0.18403079296E+01  0.10377819245E+02  0.27505042136E+03  0.27525228456E+03  0.00000000000E+00 0. -1.
        -11    1    4    4    0    0 -0.45290249897E+01  0.32783221415E+02  0.61890673957E+02  0.70183382623E+02  0.00000000000E+00 0.  1.
         11    1    4    4    0    0 -0.10346493696E+03  0.16754930144E+02  0.48522375795E+02  0.11549953167E+03  0.00000000000E+00 0. -1.
         21    1    1    2  503  502  0.10896253021E+02 -0.36933463279E+02 -0.70968350232E+02  0.80742279967E+02  0.00000000000E+00 0. -1.
          1    1    1    2  501    0  0.20434711210E+02 -0.31085339190E+02  0.24171619448E+03  0.24456204613E+03  0.00000000000E+00 0. -1.
<scales pt_clust_5="13000.00000" pt_clust_6="13000.00000" pt_clust_7="13000.00000" pt_clust_8="13000.00000" pt_clust_9="61.17736" pt_clust_10="37.20050"></scales>
<clustering>
<clus scale="   37.200">  2 10  1 -1</clus>
<clus scale="   61.177">  2  9  1 -1</clus>
<clus scale="   88.958">  5  6 -1 -1</clus>
<clus scale="   90.390">  7  8 -1 -1</clus>
<clus scale="  121.149">  1  5  2 -1</clus>
<clus scale="   37.200">  2  5  1 -1</clus>
</clustering>
</event>
<event>
10    4  0.3043429E-005  0.1057561E+03  0.7546771E-02  0.1273825E+00
          2   -1    0    0  503    0 -0.00000000000E+00  0.00000000000E+00  0.32530810694E+03  0.32530810694E+03  0.00000000000E+00 0. -1.
         21   -1    0    0  501  502  0.00000000000E+00 -0.00000000000E+00 -0.12908998352E+03  0.12908998352E+03  0.00000000000E+00 0. -1.
         23    2    1    2    0    0  0.36514585795E+02 -0.12906608541E+02  0.12426280453E+03  0.15957989139E+03  0.92328769225E+02 0.  0.
         24    2    1    2    0    0 -0.68700620472E+02  0.16803648865E+01  0.10780795790E+03  0.15112939017E+03  0.80591177614E+02 0.  0.
        -11    1    4    4    0    0 -0.19887068406E+02  0.30548612784E+02  0.95528934700E+01  0.37682502657E+02  0.00000000000E+00 0.  1.
         12    1    4    4    0    0 -0.48813552067E+02 -0.28868247898E+02  0.98255064427E+02  0.11344688752E+03  0.00000000000E+00 0. -1.
        -13    1    3    3    0    0  0.62560038073E+02 -0.12495507903E+02  0.50535801555E+02  0.81386505763E+02  0.00000000000E+00 0.  1.
         13    1    3    3    0    0 -0.26045452278E+02 -0.41110063723E+00  0.73727002975E+02  0.78193385627E+02  0.00000000000E+00 0. -1.
         21    1    1    2  503  502 -0.13419766072E+01 -0.56308247733E+02 -0.38530072738E+02  0.68242114337E+02  0.00000000000E+00 0. -1.
          1    1    1    2  501    0  0.33528011285E+02  0.67534491387E+02  0.26774337340E+01  0.75446694553E+02  0.00000000000E+00 0. -1.
<scales pt_clust_5="13000.00000" pt_clust_6="13000.00000" pt_clust_7="13000.00000" pt_clust_8="13000.00000" pt_clust_9="56.32424" pt_clust_10="52.14649"></scales>
<clustering>
<clus scale="   56.324">  2  9  1 -1</clus>
<clus scale="   52.146">  2 10  1 -1</clus>
<clus scale="   80.591">  5  6 -1 -1</clus>
<clus scale="   92.329">  7  8 -1 -1</clus>
<clus scale="   95.680">  2  5  1 -1</clus>
<clus scale="   56.324">  2  5  1 -1</clus>
</clustering>
</event>
<event>
10    4  0.3043429E-005  0.1731162E+03  0.7546771E-02  0.1201811E+00
          2   -1    0    0  502    0 -0.00000000000E+00  0.00000000000E+00  0.12636880402E+04  0.12636880402E+04  0.00000000000E+00 0. -1.
         21   -1    0    0  503  502  0.00000000000E+00 -0.00000000000E+00 -0.19752867623E+03  0.19752867623E+03  0.00000000000E+00 0.  1.
         24    2    1    2    0    0 -0.59167333637E+02  0.13274050152E+02  0.55790617522E+03  0.56579044733E+03  0.71989972676E+02 0.  0.
         23    2    1    2    0    0 -0.23040638595E+02 -0.11378321939E+03  0.53059521206E+02  0.15489203981E+03  0.87742459293E+02 0.  0.
        -13    1    3    3    0    0 -0.48436270717E+02  0.39778229427E+02  0.31245433011E+03  0.31867865988E+03  0.00000000000E+00 0.  1.
         14    1    3    3    0    0 -0.10731062920E+02 -0.26504179276E+02  0.24545184511E+03  0.24711178745E+03  0.00000000000E+00 0. -1.
        -11    1    4    4    0    0  0.30610212388E+02 -0.17460741440E+02  0.11644075353E+02  0.37113974254E+02  0.00000000000E+00 0. -1.
         11    1    4    4    0    0 -0.53650850983E+02 -0.96322477955E+02  0.41415445853E+02  0.11777806555E+03  0.00000000000E+00 0.  1.
         21    1    1    2  503  501 -0.25318162892E+02 -0.36125179921E+02 -0.12620560945E+03  0.13369328275E+03  0.00000000000E+00 0.  1.
          1    1    1    2  501    0  0.10752613512E+03  0.13663434916E+03  0.58139927695E+03  0.60684094650E+03  0.00000000000E+00 0. -1.
<scales pt_clust_5="13000.00000" pt_clust_6="13000.00000" pt_clust_7="13000.00000" pt_clust_8="13000.00000" pt_clust_9="44.11392" pt_clust_10="149.23305"></scales>
<clustering>
<clus scale="   44.114">  2  9  1 -1</clus>
<clus scale="   71.990">  5  6 -1 -1</clus>
<clus scale="   87.742">  7  8 -1 -1</clus>
<clus scale="   94.789">  1  5  2 -1</clus>
<clus scale="  149.233">  2 10  1 -1</clus>
<clus scale="   44.114">  2  5  1 -1</clus>
</clustering>
</event>
<event>
10    4  0.3043429E-005  0.2055038E+03  0.7546771E-02  0.1171259E+00
          2   -1    0    0  503    0 -0.00000000000E+00  0.00000000000E+00  0.88079385648E+03  0.88079385648E+03  0.00000000000E+00 0. -1.
         21   -1    0    0  501  502  0.00000000000E+00 -0.00000000000E+00 -0.16872156328E+03  0.16872156328E+03  0.00000000000E+00 0.  1.
         23    2    1    2    0    0 -0.58793674178E+02  0.28543451199E+02  0.29022299369E+03  0.31099683692E+03  0.90654408503E+02 0.  0.
         24    2    1    2    0    0  0.13782704134E+03 -0.64912346685E+02  0.36848040092E+02  0.17853501646E+03  0.85481389605E+02 0.  0.
        -13    1    4    4    0    0  0.69241938608E+02  0.13262384899E+02  0.19026161462E+02  0.73022816540E+02  0.00000000000E+00 0.  1.
         14    1    4    4    0    0  0.68585102727E+02 -0.78174731584E+02  0.17821878630E+02  0.10551219992E+03  0.00000000000E+00 0. -1.
        -13    1    3    3    0    0 -0.46442106531E+02  0.56185961257E+02  0.25145086179E+03  0.26180387200E+03  0.00000000000E+00 0. -1.
         13    1    3    3    0    0 -0.12351567648E+02 -0.27642510058E+02  0.38772131903E+02  0.49192964924E+02  0.00000000000E+00 0.  1.
         21    1    1    2  503  502  0.96887533309E+02  0.70763429196E+02 -0.15714629539E+02  0.12100250660E+03  0.00000000000E+00 0.  1.
          1    1    1    2  501    0 -0.17592090047E+03 -0.34394533711E+02  0.40071588896E+03  0.43898105977E+03  0.00000000000E+00 0. -1.
<scales pt_clust_5="13000.00000" pt_clust_6="13000.00000" pt_clust_7="13000.00000" pt_clust_8="13000.00000" pt_clust_9="117.31424" pt_clust_10="186.88172"></scales>
<clustering>
<clus scale="   85.481">  5  6 -1 -1</clus>
<clus scale="   90.654">  7  8 -1 -1</clus>
<clus scale="  111.757">  1  7  2 -1</clus>
<clus scale="  117.314">  2  9  1 -1</clus>
<clus scale="  186.882">  2 10  1 -1</clus>
<clus scale="  117.314">  2  5  1 -1</clus>
</clustering>
</event>
<event>
10    4  0.3043429E-005  0.1309470E+03  0.7546771E-02  0.1239351E+00
         21   -1    0    0  503  502  0.00000000000E+00  0.00000000000E+00  0.55077443392E+02  0.55077443392E+02  0.00000000000E+00 0. -1.
          2   -1    0    0  502    0 -0.00000000000E+00 -0.00000000000E+00 -0.16091297288E+04  0.16091297288E+04  0.00000000000E+00 0. -1.
         23    2    1    2    0    0 -0.12510933152E+02  0.40937692299E+02 -0.44940376214E+03  0.46071267737E+03  0.91978321176E+02 0.  0.
         24    2    1    2    0    0 -0.39308928632E+02  0.10961936303E+03 -0.18967442013E+03  0.23661485866E+03  0.80303231986E+02 0.  0.
        -11    1    4    4    0    0 -0.26966464315E+02  0.22961595795E+01 -0.71764475594E+02  0.76698125817E+02  0.00000000000E+00 0.  1.
         12    1    4    4    0    0 -0.12342464317E+02  0.10732320345E+03 -0.11790994454E+03  0.15991673285E+03  0.00000000000E+00 0. -1.
        -13    1    3    3    0    0 -0.36449424235E+02  0.59331652219E+02 -0.34854273289E+03  0.35543050254E+03  0.00000000000E+00 0. -1.
         13    1    3    3    0    0  0.23938491084E+02 -0.18393959920E+02 -0.10086102924E+03  0.10528217483E+03  0.00000000000E+00 0.  1.
         21    1    1    2  503  501  0.23068638144E+02 -0.21687230893E+02  0.94743268664E+01  0.33049370935E+02  0.00000000000E+00 0.  1.
          1    1    1    2  501    0  0.28751223639E+02 -0.12886982443E+03 -0.92444843002E+03  0.93383026523E+03  0.00000000000E+00 0. -1.
<scales pt_clust_5="13000.00000" pt_clust_6="13000.00000" pt_clust_7="13000.00000" pt_clust_8="13000.00000" pt_clust_9="31.66225" pt_clust_10="103.43362"></scales>
<clustering>
<clus scale="   31.662">  1  9  2 -1</clus>
<clus scale="   80.303">  5  6 -1 -1</clus>
<clus scale="   91.978">  7  8 -1 -1</clus>
<clus scale="   99.634">  2  7  1 -1</clus>
<clus scale="  103.434">  1 10  2 -1</clus>
<clus scale="   31.662">  1  5  2 -1</clus>
</clustering>
</event>
<event>
10    4  0.3043429E-005  0.2205752E+03  0.7546771E-02  0.1169668E+00
          2   -1    0    0  503    0 -0.00000000000E+00  0.00000000000E+00  0.15111468680E+04  0.15111468680E+04  0.00000000000E+00 0. -1.
         21   -1    0    0  501  502  0.00000000000E+00 -0.00000000000E+00 -0.17662004076E+03  0.17662004076E+03  0.00000000000E+00 0.  1.
         24    2    1    2    0    0 -0.30868845898E+02 -0.42914957202E+02  0.59933230951E+03  0.60661654212E+03  0.77394009824E+02 0.  0.
         23    2    1    2    0    0  0.11696856038E+03 -0.59261964652E+02  0.71930417252E+02  0.17466317567E+03  0.90219817322E+02 0.  0.
        -13    1    3    3    0    0 -0.34030814702E+02 -0.50704728227E+02  0.25604644858E+03  0.26322775242E+03  0.00000000000E+00 0.  1.
         14    1    3    3    0    0  0.31619688040E+01  0.77897710256E+01  0.34328586093E+03  0.34338878970E+03  0.00000000000E+00 0. -1.
        -13    1    4    4    0    0  0.12134756681E+03 -0.24827395085E+02  0.62263476687E+02  0.13863034317E+03  0.00000000000E+00 0. -1.
         13    1    4    4    0    0 -0.43790064271E+01 -0.34434569566E+02  0.96669405651E+01  0.36032832506E+02  0.00000000000E+00 0.  1.
         21    1    1    2  503  502 -0.61639063284E+02  0.23154021597E+03  0.97065676430E+01  0.23980088238E+03  0.00000000000E+00 0.  1.
          1    1    1    2  501    0 -0.24460651201E+02 -0.12936329412E+03  0.65355753285E+03  0.66668630860E+03  0.00000000000E+00 0. -1.
<scales pt_clust_5="13000.00000" pt_clust_6="13000.00000" pt_clust_7="13000.00000" pt_clust_8="13000.00000" pt_clust_9="13000.00000" pt_clust_10="220.57523"></scales>
<clustering>
<clus scale="   77.394">  5  6 -1 -1</clus>
<clus scale="   90.220">  7  8 -1 -1</clus>
<clus scale="   93.725">  1  5  2 -1</clus>
<clus scale="  158.414">  1  7  2 -1</clus>
<clus scale="  220.575">  1 10  2 -1</clus>
<clus scale="  220.575">  2  5  1 -1</clus>
</clustering>
</event>
<event>
10    4  0.3043429E-005  0.9333817E+02  0.7546771E-02  0.1302817E+00
         21   -1    0    0  503  502  0.00000000000E+00  0.00000000000E+00  0.62130744064E+02  0.62130744064E+02  0.00000000000E+00 0. -1.
          2   -1    0    0  502    0 -0.00000000000E+00 -0.00000000000E+00 -0.39199747786E+03  0.39199747786E+03  0.00000000000E+00 0. -1.
         23    2    1    2    0    0  0.13809296732E+00  0.79106283220E+01 -0.11380337586E+03  0.14640086443E+03  0.91757330152E+02 0.  0.
         24    2    1    2    0    0  0.35172662620E+02 -0.17009668621E+01 -0.81780494070E+02  0.11896972713E+03  0.78903341375E+02 0.  0.
        -11    1    4    4    0    0 -0.12593597725E+02  0.21397871635E+02 -0.45076157770E+01  0.25234623321E+02  0.00000000000E+00 0.  1.
         12    1    4    4    0    0  0.47766260345E+02 -0.23098838497E+02 -0.77272878293E+02  0.93735103813E+02  0.00000000000E+00 0. -1.
        -13    1    3    3    0    0  0.31709998986E+02 -0.21549453664E+02 -0.88265405641E+02  0.96232452020E+02  0.00000000000E+00 0.  1.
         13    1    3    3    0    0 -0.31571906018E+02  0.29460081986E+02 -0.25537970224E+02  0.50168412407E+02  0.00000000000E+00 0. -1.
         21    1    1    2  503  501  0.36515484013E+02  0.69129997280E+01 -0.14647987935E+01  0.37192953277E+02  0.00000000000E+00 0. -1.
          1    1    1    2  501    0 -0.71826239600E+02 -0.13122661188E+02 -0.13281806507E+03  0.15156467708E+03  0.00000000000E+00 0. -1.
<scales pt_clust_5="13000.00000" pt_clust_6="13000.00000" pt_clust_7="13000.00000" pt_clust_8="13000.00000" pt_clust_9="37.16410" pt_clust_10="65.14601"></scales>
<clustering>
<clus scale="   37.164">  1  9  2 -1</clus>
<clus scale="   65.146">  1 10  2 -1</clus>
<clus scale="   78.903">  5  6 -1 -1</clus>
<clus scale="   80.736">  1  5  2 -1</clus>
<clus scale="   91.757">  7  8 -1 -1</clus>
<clus scale="   37.164">  1  5  2 -1</clus>
</clustering>
</event>
<event>
10    4  0.3043429E-005  0.1804285E+03  0.7546771E-02  0.1198533E+00
          2   -1    0    0  502    0 -0.00000000000E+00  0.00000000000E+00  0.24903202099E+03  0.24903202099E+03  0.00000000000E+00 0. -1.
         21   -1    0    0  503  502  0.00000000000E+00 -0.00000000000E+00 -0.27236927422E+03  0.27236927422E+03  0.00000000000E+00 0. -1.
         24    2    1    2    0    0  0.15246098713E+02  0.69101475667E+02 -0.29155671997E+02  0.94510854156E+02  0.55450796912E+02 0.  0.
         23    2    1    2    0    0  0.97690154788E+02 -0.16672201385E+03  0.11155901141E+03  0.24087044565E+03  0.90738979024E+02 0.  0.
        -11    1    3    3    0    0  0.29877843736E+02  0.28053470562E+02  0.18542933499E+01  0.41025859659E+02  0.00000000000E+00 0.  1.
         12    1    3    3    0    0 -0.14631745023E+02  0.41048005105E+02 -0.31009965347E+02  0.53484994497E+02  0.00000000000E+00 0. -1.
        -13    1    4    4    0    0  0.49787505484E+01 -0.38168196649E+02  0.65230983411E+02  0.75740876607E+02  0.00000000000E+00 0.  1.
         13    1    4    4    0    0  0.92711404240E+02 -0.12855381720E+03  0.46328028004E+02  0.16512956904E+03  0.00000000000E+00 0. -1.
         21    1    1    2  503  501 -0.69999899760E+02  0.77405946347E+02 -0.83268076238E+02  0.13351119435E+03  0.00000000000E+00 0. -1.
          1    1    1    2  501    0 -0.42936353741E+02  0.20214591834E+02 -0.22472516408E+02  0.52508801065E+02  0.00000000000E+00 0. -1.
<scales pt_clust_5="13000.00000" pt_clust_6="13000.00000" pt_clust_7="13000.00000" pt_clust_8="13000.00000" pt_clust_9="22.74821" pt_clust_10="159.55834"></scales>
<clustering>
<clus scale="   22.748">  9 10 -1 -1</clus>
<clus scale="   55.451">  5  6 -1 -1</clus>
<clus scale="   89.901">  1  5  2 -1</clus>
<clus scale="   90.739">  7  8 -1 -1</clus>
<clus scale="  159.558">  2  9  1 -1</clus>
<clus scale="  159.558">  2  5  1 -1</clus>
</clustering>
</event>
<event>
10    4  0.3043429E-005  0.1269385E+03  0.7546771E-02  0.1243569E+00
         21   -1    0    0  503  502  0.00000000000E+00  0.00000000000E+00  0.14433793928E+03  0.14433793928E+03  0.00000000000E+00 0.  1.
          2   -1    0    0  502    0 -0.00000000000E+00 -0.00000000000E+00 -0.23579939280E+03  0.23579939280E+03  0.00000000000E+00 0. -1.
         24    2    1    2    0    0  0.20466047771E+01 -0.59073255513E+02 -0.12848288793E+03  0.16278554421E+03  0.80606716875E+02 0.  0.
         23    2    1    2    0    0 -0.55718074226E+02  0.57181547419E+02  0.18112166569E+02  0.13867068101E+03  0.11192530560E+03 0.  0.
        -11    1    3    3    0    0  0.29538617689E+02  0.49055207627E+01 -0.32339446103E+02  0.44073051213E+02  0.00000000000E+00 0.  1.
         12    1    3    3    0    0 -0.27492012912E+02 -0.63978776276E+02 -0.96143441822E+02  0.11871249300E+03  0.00000000000E+00 0. -1.
        -11    1    4    4    0    0 -0.61451265674E+02  0.31741838760E+02  0.58505526526E+02  0.90590832951E+02  0.00000000000E+00 0.  1.
         11    1    4    4    0    0  0.57331914477E+01  0.25439708660E+02 -0.40393359957E+02  0.48079848060E+02  0.00000000000E+00 0. -1.
         21    1    1    2  503  501  0.90222441607E+01  0.22642932543E+02 -0.34300062589E+01  0.24614390644E+02  0.00000000000E+00 0. -1.
          1    1    1    2  501    0  0.44649225288E+02 -0.20751224449E+02  0.22339274100E+02  0.54066716215E+02  0.00000000000E+00 0. -1.
<scales pt_clust_5="13000.00000" pt_clust_6="13000.00000" pt_clust_7="13000.00000" pt_clust_8="13000.00000" pt_clust_9="24.37423" pt_clust_10="49.33908"></scales>
<clustering>
<clus scale="   24.374">  1  9  2 -1</clus>
<clus scale="   49.339">  1 10  2 -1</clus>
<clus scale="   80.607">  5  6 -1 -1</clus>
<clus scale="  100.417">  2  5  1 -1</clus>
<clus scale="  111.925">  7  8 -1 -1</clus>
<clus scale="   24.374">  1  5  2 -1</clus>
</clustering>
</event>
<event>
10    4  0.3043429E-005  0.1394468E+03  0.7546771E-02  0.1217443E+00
         21   -1    0    0  501  502  0.00000000000E+00  0.00000000000E+00  0.73367091770E+02  0.73367091770E+02  0.00000000000E+00 0. -1.
         -3   -1    0    0    0  501 -0.00000000000E+00 -0.00000000000E+00 -0.76752676740E+03  0.76752676740E+03  0.00000000000E+00 0.  1.
         23    2    1    2    0    0 -0.31942684557E+02  0.67678523174E+02 -0.16873448877E+03  0.20788751739E+03  0.95630406208E+02 0.  0.
         24    2    1    2    0    0  0.12363519765E+03 -0.97805650544E+02 -0.18512898946E+03  0.25629646049E+03  0.81015588277E+02 0.  0.
        -11    1    4    4    0    0  0.36395480944E+01 -0.40549945021E+02 -0.23496759702E+02  0.47006830014E+02  0.00000000000E+00 0.  1.
         12    1    4    4    0    0  0.11999564955E+03 -0.57255705523E+02 -0.16163222976E+03  0.20928963047E+03  0.00000000000E+00 0. -1.
        -11    1    3    3    0    0 -0.62236679395E+02  0.21957354092E+02 -0.81888769149E+02  0.10517271592E+03  0.00000000000E+00 0. -1.
         11    1    3    3    0    0  0.30293994838E+02  0.45721169083E+02 -0.86845719620E+02  0.10271480147E+03  0.00000000000E+00 0.  1.
         21    1    1    2  503  502 -0.30129572706E+02 -0.54907000531E+01 -0.16443984603E+01  0.30669903568E+02  0.00000000000E+00 0. -1.
         -4    1    1    2    0  503 -0.61562940382E+02  0.35617827423E+02 -0.33865179893E+03  0.34603997772E+03  0.00000000000E+00 0.  1.
<scales pt_clust_5="13000.00000" pt_clust_6="13000.00000" pt_clust_7="13000.00000" pt_clust_8="13000.00000" pt_clust_9="30.62579" pt_clust_10="72.59906"></scales>
<clustering>
<clus scale="   30.626">  1  9  2 -1</clus>
<clus scale="   72.599">  1 10  2 -1</clus>
<clus scale="   81.016">  5  6 -1 -1</clus>
<clus scale="   95.630">  7  8 -1 -1</clus>
<clus scale="  129.861">  1  5  2 -1</clus>
<clus scale="   30.626">  1  5  2 -1</clus>
</clustering>
</event>
<event>
10    4  0.3043429E-005  0.2639118E+03  0.7546771E-02  0.1142741E+00
          2   -1    0    0  503    0 -0.00000000000E+00  0.00000000000E+00  0.10182133669E+04  0.10182133669E+04  0.00000000000E+00 0. -1.
         21   -1    0    0  501  502  0.00000000000E+00 -0.00000000000E+00 -0.18785417736E+03  0.18785417736E+03  0.00000000000E+00 0. -1.
         24    2    1    2    0    0 -0.27342352638E+02 -0.60561557668E+02  0.18003015897E+03  0.20734209797E+03  0.78514845319E+02 0.  0.
         23    2    1    2    0    0 -0.12684410369E+03  0.28188392384E+03  0.22666989387E+03  0.40060712297E+03  0.11644248807E+03 0.  0.
        -11    1    3    3    0    0  0.24276358244E+02 -0.35730627086E+02  0.99941784002E+02  0.10887781900E+03  0.00000000000E+00 0.  1.
         12    1    3    3    0    0 -0.51618710882E+02 -0.24830930583E+02  0.80088374970E+02  0.98464278965E+02  0.00000000000E+00 0. -1.
        -11    1    4    4    0    0 -0.11520845520E+03  0.21066170750E+03  0.11158927675E+03  0.26477067406E+03  0.00000000000E+00 0. -1.
         11    1    4    4    0    0 -0.11635648487E+02  0.71222216334E+02  0.11508061712E+03  0.13583644891E+03  0.00000000000E+00 0.  1.
         21    1    1    2  503  502  0.10152678278E+02 -0.18412492249E+03  0.42896870189E+02  0.18932830066E+03  0.00000000000E+00 0. -1.
          1    1    1    2  501    0  0.14403377805E+03 -0.37197443679E+02  0.38076226653E+03  0.40879002269E+03  0.00000000000E+00 0. -1.
<scales pt_clust_5="13000.00000" pt_clust_6="13000.00000" pt_clust_7="13000.00000" pt_clust_8="13000.00000" pt_clust_9="236.83456" pt_clust_10="146.72279"></scales>
<clustering>
<clus scale="   78.515">  5  6 -1 -1</clus>
<clus scale="  102.859">  1  5  2 -1</clus>
<clus scale="  116.442">  7  8 -1 -1</clus>
<clus scale="  146.723">  2 10  1 -1</clus>
<clus scale="  236.835">  2  9  1 -1</clus>
<clus scale="  146.723">  2  5  1 -1</clus>
</clustering>
</event>
<event>
10    4  0.3043429E-005  0.1685241E+03  0.7546771E-02  0.1205007E+00
         -1   -1    0    0    0  501 -0.00000000000E+00  0.00000000000E+00  0.14779717025E+04  0.14779717025E+04  0.00000000000E+00 0.  1.
         21   -1    0    0  501  502  0.00000000000E+00 -0.00000000000E+00 -0.12858356857E+03  0.12858356857E+03  0.00000000000E+00 0.  1.
         23    2    1    2    0    0 -0.20884569915E+02  0.38122128540E+02  0.43773506748E+02  0.11001737722E+03  0.91094683998E+02 0.  0.
         24    2    1    2    0    0  0.92168929823E+02 -0.13599145864E+03  0.11665744275E+04  0.11805576680E+04  0.76365726264E+02 0.  0.
        -13    1    4    4    0    0  0.90130010214E+02 -0.13266832282E+03  0.91483988331E+03  0.92879293425E+03  0.00000000000E+00 0.  1.
         14    1    4    4    0    0  0.20389196091E+01 -0.33231358216E+01  0.25173454421E+03  0.25176473378E+03  0.00000000000E+00 0. -1.
        -13    1    3    3    0    0  0.12730480355E+01  0.46808302816E+02 -0.12882736629E+02  0.48565448282E+02  0.00000000000E+00 0.  1.
         13    1    3    3    0    0 -0.22157617951E+02 -0.86861742758E+01  0.56656243377E+02  0.61451928940E+02  0.00000000000E+00 0. -1.
         21    1    1    2  503  502  0.80338683702E+02 -0.27171861302E+02  0.61242843472E+02  0.10461022905E+03  0.00000000000E+00 0.  1.
         -2    1    1    2    0  503 -0.15162304361E+03  0.12504119141E+03  0.77797356194E+02  0.21136999676E+03  0.00000000000E+00 0.  1.
<scales pt_clust_5="13000.00000" pt_clust_6="13000.00000" pt_clust_7="13000.00000" pt_clust_8="13000.00000" pt_clust_9="84.80928" pt_clust_10="150.22870"></scales>
<clustering>
<clus scale="   76.366">  5  6 -1 -1</clus>
<clus scale="   84.809">  2  9  1 -1</clus>
<clus scale="   91.095">  7  8 -1 -1</clus>
<clus scale="   95.899">  1  7  2 -1</clus>
<clus scale="  150.229">  2 10  1 -1</clus>
<clus scale="   84.809">  2  5  1 -1</clus>
</clustering>
</event>
<event>
10    4  0.3043429E-005  0.9556448E+02  0.7546771E-02  0.1290901E+00
          4   -1    0    0  502    0 -0.00000000000E+00  0.00000000000E+00  0.35832004129E+03  0.35832004129E+03  0.00000000000E+00 0. -1.
         21   -1    0    0  503  502  0.00000000000E+00 -0.00000000000E+00 -0.14022548381E+03  0.14022548381E+03  0.00000000000E+00 0.  1.
         23    2    1    2    0    0  0.21576122846E+02  0.26924621073E+02  0.46186242722E+02  0.10750038313E+03  0.90734222094E+02 0.  0.
         24    2    1    2    0    0 -0.40460144567E+02  0.81526847007E+02  0.11426557194E+02  0.12772705970E+03  0.88881862548E+02 0.  0.
        -11    1    4    4    0    0 -0.40912214346E+02  0.88560804444E+02  0.34597680073E+02  0.10350760761E+03  0.00000000000E+00 0.  1.
         12    1    4    4    0    0  0.45206977935E+00 -0.70339574366E+01 -0.23171122879E+02  0.24219452095E+02  0.00000000000E+00 0. -1.
        -13    1    3    3    0    0  0.14585202290E+02  0.51111244387E+02 -0.19394880633E+01  0.53186925485E+02  0.00000000000E+00 0.  1.
         13    1    3    3    0    0  0.69909205559E+01 -0.24186623314E+02  0.48125730785E+02  0.54313457643E+02  0.00000000000E+00 0. -1.
         21    1    1    2  503  501 -0.46164889801E+02 -0.52060178065E+02 -0.11941411534E+02  0.70597850533E+02  0.00000000000E+00 0. -1.
          3    1    1    2  501    0  0.65048911522E+02 -0.56391290015E+02  0.17242316910E+03  0.19272023174E+03  0.00000000000E+00 0. -1.
<scales pt_clust_5="13000.00000" pt_clust_6="13000.00000" pt_clust_7="13000.00000" pt_clust_8="13000.00000" pt_clust_9="69.58059" pt_clust_10="86.30456"></scales>
<clustering>
<clus scale="   69.581">  2  9  1 -1</clus>
<clus scale="   86.305">  2 10  1 -1</clus>
<clus scale="   88.882">  5  6 -1 -1</clus>
<clus scale="   90.734">  7  8 -1 -1</clus>
<clus scale="   93.808">  2  5  1 -1</clus>
<clus scale="   69.581">  2  5  1 -1</clus>
</clustering>
</event>
<event>
10    4  0.3043429E-005  0.8233097E+02  0.7546771E-02  0.1323630E+00
         21   -1    0    0  503  502  0.00000000000E+00  0.00000000000E+00  0.10619279685E+03  0.10619279685E+03  0.00000000000E+00 0. -1.
          4   -1    0    0  502    0 -0.00000000000E+00 -0.00000000000E+00 -0.22836488765E+03  0.22836488765E+03  0.00000000000E+00 0. -1.
         24    2    1    2    0    0 -0.97791704882E+01 -0.26294231492E+01 -0.14944041862E+03  0.16988890342E+03  0.80170161181E+02 0.  0.
         23    2    1    2    0    0  0.74083174579E+01  0.58609125584E+01  0.39494267393E+02  0.91260903167E+02  0.81728341634E+02 0.  0.
        -11    1    3    3    0    0  0.34976490153E+02 -0.75145058108E+01 -0.64772482161E+02  0.73995250566E+02  0.00000000000E+00 0.  1.
         12    1    3    3    0    0 -0.44755660641E+02  0.48850826616E+01 -0.84667936462E+02  0.95893652850E+02  0.00000000000E+00 0. -1.
        -13    1    4    4    0    0  0.17109886963E+02  0.26737373620E+02 -0.12720095078E+02  0.34197020320E+02  0.00000000000E+00 0.  1.
         13    1    4    4    0    0 -0.97015695052E+01 -0.20876461061E+02  0.52214362471E+02  0.57063882847E+02  0.00000000000E+00 0. -1.
         21    1    1    2  503  501 -0.24768031124E+02 -0.10822431180E+02  0.17694430209E+02  0.32305932007E+02  0.00000000000E+00 0. -1.
          3    1    1    2  501    0  0.27138884155E+02  0.75909417704E+01 -0.29920369772E+02  0.41101945908E+02  0.00000000000E+00 0. -1.
<scales pt_clust_5="13000.00000" pt_clust_6="13000.00000" pt_clust_7="13000.00000" pt_clust_8="13000.00000" pt_clust_9="27.02925" pt_clust_10="26.33861"></scales>
<clustering>
<clus scale="   27.029">  1  9  2 -1</clus>
<clus scale="   26.339">  1 10  2 -1</clus>
<clus scale="   80.170">  5  6 -1 -1</clus>
<clus scale="   80.784">  2  5  1 -1</clus>
<clus scale="   81.728">  7  8 -1 -1</clus>
<clus scale="   27.029">  1  5  2 -1</clus>
</clustering>
</event>
<event>
10    4  0.3043429E-005  0.1360854E+03  0.7546771E-02  0.1223899E+00
         21   -1    0    0  503  502  0.00000000000E+00  0.00000000000E+00  0.10353588573E+03  0.10353588573E+03  0.00000000000E+00 0. -1.
          4   -1    0    0  502    0 -0.00000000000E+00 -0.00000000000E+00 -0.93182021505E+03  0.93182021505E+03  0.00000000000E+00 0. -1.
         24    2    1    2    0    0 -0.12001763318E+03 -0.64024462280E+02 -0.45841791743E+02  0.16471519306E+03  0.80785276580E+02 0.  0.
         23    2    1    2    0    0 -0.55815226677E+02  0.90966565473E+02 -0.26780989405E+03  0.30185389457E+03  0.89461604918E+02 0.  0.
        -13    1    3    3    0    0 -0.14185121383E+02 -0.14883544539E+02 -0.43378345560E+02  0.48004358450E+02  0.00000000000E+00 0.  1.
         14    1    3    3    0    0 -0.10583251180E+03 -0.49140917740E+02 -0.24634461836E+01  0.11671083461E+03  0.00000000000E+00 0. -1.
        -11    1    4    4    0    0 -0.78725458910E+02  0.65677351206E+02 -0.22378930149E+03  0.24615617767E+03  0.00000000000E+00 0. -1.
         11    1    4    4    0    0  0.22910232232E+02  0.25289214268E+02 -0.44020592558E+02  0.55697716905E+02  0.00000000000E+00 0.  1.
         21    1    1    2  503  501  0.63816172168E+02  0.16038506100E+02 -0.35309519392E+02  0.74675964458E+02  0.00000000000E+00 0. -1.
          3    1    1    2  501    0  0.11201668769E+03 -0.42980609294E+02 -0.47932312414E+03  0.49411104868E+03  0.00000000000E+00 0. -1.
<scales pt_clust_5="13000.00000" pt_clust_6="13000.00000" pt_clust_7="13000.00000" pt_clust_8="13000.00000" pt_clust_9="65.80074" pt_clust_10="102.54690"></scales>
<clustering>
<clus scale="   65.801">  1  9  2 -1</clus>
<clus scale="   80.785">  5  6 -1 -1</clus>
<clus scale="   89.462">  7  8 -1 -1</clus>
<clus scale="  122.031">  2  5  1 -1</clus>
<clus scale="  102.547">  1 10  2 -1</clus>
<clus scale="   65.801">  1  5  2 -1</clus>
</clustering>
</event>
<event>
10    4  0.3043429E-005  0.1146963E+03  0.7546771E-02  0.1256358E+00
         21   -1    0    0  503  502  0.00000000000E+00  0.00000000000E+00  0.26030497938E+03  0.26030497938E+03  0.00000000000E+00 0. -1.
          2   -1    0    0  502    0 -0.00000000000E+00 -0.00000000000E+00 -0.43004817704E+03  0.43004817704E+03  0.00000000000E+00 0. -1.
         23    2    1    2    0    0  0.43534404049E+02  0.60365162387E+02 -0.30759661520E+03  0.32940061688E+03  0.91377741027E+02 0.  0.
         24    2    1    2    0    0 -0.89691637835E+02  0.23975688426E+02 -0.35248633074E+01  0.12223790198E+03  0.79437122847E+02 0.  0.
        -13    1    4    4    0    0  0.10223228573E+01 -0.20936972734E+02 -0.85397178134E+00  0.20979305019E+02  0.00000000000E+00 0.  1.
         14    1    4    4    0    0 -0.90713960692E+02  0.44912661160E+02 -0.26708915261E+01  0.10125859696E+03  0.00000000000E+00 0. -1.
        -13    1    3    3    0    0  0.32281037581E+02 -0.16788049066E+02 -0.63878945738E+02  0.73514785502E+02  0.00000000000E+00 0.  1.
         13    1    3    3    0    0  0.11253366468E+02  0.77153211452E+02 -0.24371766946E+03  0.25588583138E+03  0.00000000000E+00 0. -1.
         21    1    1    2  503  501 -0.46717475758E+02 -0.19270498153E+02  0.10999839442E+03  0.12105173032E+03  0.00000000000E+00 0. -1.
          1    1    1    2  501    0  0.92874709543E+02 -0.65070352659E+02  0.31379886429E+02  0.11766290724E+03  0.00000000000E+00 0. -1.
<scales pt_clust_5="13000.00000" pt_clust_6="13000.00000" pt_clust_7="13000.00000" pt_clust_8="13000.00000" pt_clust_9="50.53587" pt_clust_10="101.78760"></scales>
<clustering>
<clus scale="   50.536">  1  9  2 -1</clus>
<clus scale="   79.437">  5  6 -1 -1</clus>
<clus scale="   91.378">  7  8 -1 -1</clus>
<clus scale="  101.788">  1 10  2 -1</clus>
<clus scale="  105.431">  1  5  2 -1</clus>
<clus scale="   50.536">  1  5  2 -1</clus>
</clustering>
</event>
<event>
10    4  0.3043429E-005  0.5870096E+03  0.7546771E-02  0.1043772E+00
          2   -1    0    0  502    0 -0.00000000000E+00  0.00000000000E+00  0.80620956552E+03  0.80620956552E+03  0.00000000000E+00 0. -1.
         21   -1    0    0  503  502  0.00000000000E+00 -0.00000000000E+00 -0.14450660190E+04  0.14450660190E+04  0.00000000000E+00 0. -1.
         23    2    1    2    0    0  0.56922533525E+02  0.38457774570E+02 -0.18883778704E+03  0.22920155358E+03  0.11024729975E+03 0.  0.
         24    2    1    2    0    0 -0.54900489019E+02  0.55315176237E+03  0.57623523867E+03  0.80449711273E+03  0.78597825690E+02 0.  0.
        -11    1    4    4    0    0 -0.17640719586E+02  0.54508020855E+02  0.92284143814E+02  0.10862174057E+03  0.00000000000E+00 0.  1.
         12    1    4    4    0    0 -0.37259769433E+02  0.49864374151E+03  0.48395109486E+03  0.69587537216E+03  0.00000000000E+00 0. -1.
        -13    1    3    3    0    0 -0.47278891658E+01  0.53717735992E+02 -0.13696695443E+03  0.14720018581E+03  0.00000000000E+00 0. -1.
         13    1    3    3    0    0  0.61650422691E+02 -0.15259961423E+02 -0.51870832609E+02  0.82001367770E+02  0.00000000000E+00 0.  1.
         21    1    1    2  503  501 -0.30632693630E+02 -0.20567666952E+02 -0.25418602416E+03  0.25685000627E+03  0.00000000000E+00 0.  1.
          1    1    1    2  501    0  0.28610649124E+02 -0.57104186998E+03 -0.77206788093E+03  0.96072691192E+03  0.00000000000E+00 0. -1.
<scales pt_clust_5="13000.00000" pt_clust_6="13000.00000" pt_clust_7="13000.00000" pt_clust_8="13000.00000" pt_clust_9="36.89703" pt_clust_10="581.72386"></scales>
<clustering>
<clus scale="   36.897">  2  9  1 -1</clus>
<clus scale="   78.598">  5  6 -1 -1</clus>
<clus scale="  110.247">  7  8 -1 -1</clus>
<clus scale="  126.590">  1  7  2 -1</clus>
<clus scale="  581.724">  2 10  1 -1</clus>
<clus scale="   36.897">  2  5  1 -1</clus>
</clustering>
</event>
<event>
10    4  0.3043429E-005  0.1395885E+03  0.7546771E-02  0.1227932E+00
          2   -1    0    0  503    0 -0.00000000000E+00  0.00000000000E+00  0.15847672232E+03  0.15847672232E+03  0.00000000000E+00 0. -1.
         21   -1    0    0  501  502  0.00000000000E+00 -0.00000000000E+00 -0.16916022135E+03  0.16916022135E+03  0.00000000000E+00 0. -1.
         24    2    1    2    0    0  0.31602544820E+02 -0.45519017338E+02 -0.22825162414E+02  0.10032597247E+03  0.80458753000E+02 0.  0.
         23    2    1    2    0    0 -0.29443787336E+02  0.75883108972E+02 -0.21040435565E+02  0.14904725860E+03  0.12307397177E+03 0.  0.
        -13    1    3    3    0    0  0.33915885594E+02  0.13674424111E+02  0.72974396670E+00  0.36576080936E+02  0.00000000000E+00 0.  1.
         14    1    3    3    0    0 -0.23133407739E+01 -0.59193441448E+02 -0.23554906380E+02  0.63749891534E+02  0.00000000000E+00 0. -1.
        -13    1    4    4    0    0 -0.14352981846E+02  0.89519344438E+02  0.28872772029E+02  0.95149135998E+02  0.00000000000E+00 0. -1.
         13    1    4    4    0    0 -0.15090805490E+02 -0.13636235466E+02 -0.49913207594E+02  0.53898122605E+02  0.00000000000E+00 0.  1.
         21    1    1    2  503  502 -0.24162966918E+02 -0.67023706512E+01 -0.76286825911E+01  0.26210065637E+02  0.00000000000E+00 0. -1.
          1    1    1    2  501    0  0.22004209434E+02 -0.23661720983E+02  0.40810781530E+02  0.52053646960E+02  0.00000000000E+00 0. -1.
<scales pt_clust_5="13000.00000" pt_clust_6="13000.00000" pt_clust_7="13000.00000" pt_clust_8="13000.00000" pt_clust_9="25.07530" pt_clust_10="31.89620"></scales>
<clustering>
<clus scale="   25.075">  2  9  1 -1</clus>
<clus scale="   31.896">  2 10  1 -1</clus>
<clus scale="   80.459">  5  6 -1 -1</clus>
<clus scale="  103.978">  1  5  2 -1</clus>
<clus scale="  123.074">  7  8 -1 -1</clus>
<clus scale="   25.075">  2  5  1 -1</clus>
</clustering>
</event>
<event>
10    4  0.3043429E-005  0.1312063E+03  0.7546771E-02  0.1231155E+00
         21   -1    0    0  501  502  0.00000000000E+00  0.00000000000E+00  0.40464721913E+03  0.40464721913E+03  0.00000000000E+00 0. -1.
          2   -1    0    0  503    0 -0.00000000000E+00 -0.00000000000E+00 -0.91337633115E+02  0.91337633115E+02  0.00000000000E+00 0. -1.
         24    2    1    2    0    0  0.50323683787E+02 -0.31663411892E+02  0.96418311418E+02  0.13876728016E+03  0.80154990261E+02 0.  0.
         23    2    1    2    0    0 -0.34618013495E+02  0.12622999790E+03  0.10178305136E+03  0.19341882965E+03  0.99592343549E+02 0.  0.
        -11    1    3    3    0    0  0.65231710514E+02 -0.42780130452E+02  0.89981807125E+02  0.11908837572E+03  0.00000000000E+00 0.  1.
         12    1    3    3    0    0 -0.14908026727E+02  0.11116718561E+02  0.64365042937E+01  0.19678904440E+02  0.00000000000E+00 0. -1.
        -11    1    4    4    0    0 -0.46168793412E+02  0.10139986019E+03  0.11743354402E+03  0.16187688653E+03  0.00000000000E+00 0. -1.
         11    1    4    4    0    0  0.11550779917E+02  0.24830137705E+02 -0.15650492665E+02  0.31541943120E+02  0.00000000000E+00 0.  1.
         21    1    1    2  503  502 -0.39294240659E+02 -0.44120869700E+02  0.73392560970E+02  0.94218663214E+02  0.00000000000E+00 0.  1.
          1    1    1    2  501    0  0.23588570366E+02 -0.50445716305E+02  0.41715662272E+02  0.69580079220E+02  0.00000000000E+00 0. -1.
<scales pt_clust_5="13000.00000" pt_clust_6="13000.00000" pt_clust_7="13000.00000" pt_clust_8="13000.00000" pt_clust_9="65.52315" pt_clust_10="55.68837"></scales>
<clustering>
<clus scale="   55.688">  1 10  2 -1</clus>
<clus scale="   65.523">  1  9  2 -1</clus>
<clus scale="   80.155">  5  6 -1 -1</clus>
<clus scale="   99.592">  7  8 -1 -1</clus>
<clus scale="  117.138">  2  5  1 -1</clus>
<clus scale="   55.688">  1  5  2 -1</clus>
</clustering>
</event>
<event>
10    4  0.3043429E-005  0.1366639E+03  0.7546771E-02  0.1236068E+00
          2   -1    0    0  502    0 -0.00000000000E+00  0.00000000000E+00  0.67248633373E+03  0.67248633373E+03  0.00000000000E+00 0. -1.
         21   -1    0    0  503  502  0.00000000000E+00 -0.00000000000E+00 -0.13137958599E+03  0.13137958599E+03  0.00000000000E+00 0. -1.
         24    2    1    2    0    0 -0.21818721348E+02 -0.44802942087E+02  0.36517621304E+03  0.37719996192E+03  0.80266957611E+02 0.  0.
         23    2    1    2    0    0 -0.78014669933E+02  0.83042973566E+02  0.20420408305E+03  0.25153947216E+03  0.92684272331E+02 0.  0.
        -13    1    3    3    0    0  0.23595345842E+02 -0.28484085457E+02  0.82197993038E+02  0.90136527164E+02  0.00000000000E+00 0.  1.
         14    1    3    3    0    0 -0.45414067190E+02 -0.16318856630E+02  0.28297822000E+03  0.28706343476E+03  0.00000000000E+00 0. -1.
        -11    1    4    4    0    0 -0.43196984239E+02  0.75336299783E+02  0.19681373991E+03  0.21512132793E+03  0.00000000000E+00 0. -1.
         11    1    4    4    0    0 -0.34817685694E+02  0.77066737829E+01  0.73903431450E+01  0.36418144237E+02  0.00000000000E+00 0.  1.
         21    1    1    2  503  501  0.19220009885E+02  0.69793300607E+01 -0.70574232675E+02  0.73476813661E+02  0.00000000000E+00 0. -1.
          1    1    1    2  501    0  0.80613381396E+02 -0.45219361540E+02  0.42300684317E+02  0.10164967197E+03  0.00000000000E+00 0. -1.
<scales pt_clust_5="13000.00000" pt_clust_6="13000.00000" pt_clust_7="13000.00000" pt_clust_8="13000.00000" pt_clust_9="20.44798" pt_clust_10="100.43235"></scales>
<clustering>
<clus scale="   20.448">  2  9  1 -1</clus>
<clus scale="   80.267">  5  6 -1 -1</clus>
<clus scale="   92.684">  7  8 -1 -1</clus>
<clus scale="   93.713">  1  5  2 -1</clus>
<clus scale="  100.432">  2 10  1 -1</clus>
<clus scale="   20.448">  2  5  1 -1</clus>
</clustering>
</event>
<event>
10    4  0.3043429E-005  0.1446699E+03  0.7546771E-02  0.1208850E+00
         21   -1    0    0  501  502  0.00000000000E+00  0.00000000000E+00  0.81201214162E+02  0.81201214162E+02  0.00000000000E+00 0.  1.
          2   -1    0    0  503    0 -0.00000000000E+00 -0.00000000000E+00 -0.82792806847E+03  0.82792806847E+03  0.00000000000E+00 0. -1.
         23    2    1    2    0    0 -0.61028067565E+02  0.10947361805E+03 -0.26571893142E+03  0.30702799591E+03  0.89166931535E+02 0.  0.
         24    2    1    2    0    0  0.29678160774E+02 -0.99035460965E+02 -0.17803333752E+03  0.22111096806E+03  0.80655905998E+02 0.  0.
        -13    1    4    4    0    0 -0.24733578432E+02 -0.22054893966E+02 -0.71823239560E+02  0.79099595389E+02  0.00000000000E+00 0.  1.
         14    1    4    4    0    0  0.54411739206E+02 -0.76980567000E+02 -0.10621009796E+03  0.14201137267E+03  0.00000000000E+00 0. -1.
        -11    1    3    3    0    0  0.10506532360E+02  0.34618984853E+02 -0.13773062475E+03  0.14240290140E+03  0.00000000000E+00 0.  1.
         11    1    3    3    0    0 -0.71534599925E+02  0.74854633197E+02 -0.12798830667E+03  0.16462509451E+03  0.00000000000E+00 0. -1.
         21    1    1    2  503  502  0.52541350886E+01 -0.55068939148E+02  0.16210526506E+02  0.57645252745E+02  0.00000000000E+00 0.  1.
          1    1    1    2  501    0  0.26095771702E+02  0.44630782063E+02 -0.31918511188E+03  0.32334506592E+03  0.00000000000E+00 0. -1.
<scales pt_clust_5="13000.00000" pt_clust_6="13000.00000" pt_clust_7="13000.00000" pt_clust_8="13000.00000" pt_clust_9="38.42157" pt_clust_10="51.70008"></scales>
<clustering>
<clus scale="   51.700">  1 10  2 -1</clus>
<clus scale="   38.422">  1  9  2 -1</clus>
<clus scale="   80.656">  5  6 -1 -1</clus>
<clus scale="   89.167">  7  8 -1 -1</clus>
<clus scale="  139.585">  1  5  2 -1</clus>
<clus scale="   51.700">  1  5  2 -1</clus>
</clustering>
</event>
<event>
10    4  0.3875189E-005  0.4630118E+03  0.7546771E-02  0.1048380E+00
         21   -1    0    0  503  502  0.00000000000E+00  0.00000000000E+00  0.39236184828E+03  0.39236184828E+03  0.00000000000E+00 0. -1.
          2   -1    0    0  502    0 -0.00000000000E+00 -0.00000000000E+00 -0.92115064993E+03  0.92115064993E+03  0.00000000000E+00 0. -1.
         24    2    1    2    0    0  0.23723375024E+02 -0.21384479991E+03 -0.14397772476E+03  0.27061008413E+03  0.78789818081E+02 0.  0.
         23    2    1    2    0    0 -0.45458974140E+03  0.51615190578E+02 -0.11464412759E+03  0.48197198343E+03  0.99185462319E+02 0.  0.
        -11    1    3    3    0    0  0.37607720776E+02 -0.10712330495E+03 -0.38405749521E+02  0.11985301298E+03  0.00000000000E+00 0.  1.
         12    1    3    3    0    0 -0.13884345752E+02 -0.10672149497E+03 -0.10557197524E+03  0.15075707115E+03  0.00000000000E+00 0. -1.
        -11    1    4    4    0    0 -0.18899973539E+03 -0.13213885576E+02 -0.82701184768E+02  0.20672443666E+03  0.00000000000E+00 0.  1.
         11    1    4    4    0    0 -0.26559000601E+03  0.64829076154E+02 -0.31942942819E+02  0.27524754677E+03  0.00000000000E+00 0. -1.
         21    1    1    2  503  501 -0.12560793064E+02  0.19162545066E+02 -0.12195458861E+01  0.22944802199E+02  0.00000000000E+00 0. -1.
          1    1    1    2  501    0  0.44342715944E+03  0.14306706427E+03 -0.26894740341E+03  0.53798562844E+03  0.00000000000E+00 0. -1.
<scales pt_clust_5="13000.00000" pt_clust_6="13000.00000" pt_clust_7="13000.00000" pt_clust_8="13000.00000" pt_clust_9="22.91237" pt_clust_10="452.26359"></scales>
<clustering>
<clus scale="   22.912">  1  9  2 -1</clus>
<clus scale="   78.790">  5  6 -1 -1</clus>
<clus scale="   99.185">  7  8 -1 -1</clus>
<clus scale="  225.955">  2  5  1 -1</clus>
<clus scale="  452.264">  1 10  2 -1</clus>
<clus scale="   22.912">  1  5  2 -1</clus>
</clustering>
</event>
<event>
10    4  0.3043429E-005  0.1339544E+03  0.7546771E-02  0.1226917E+00
         21   -1    0    0  503  502  0.00000000000E+00  0.00000000000E+00  0.32073360035E+03  0.32073360035E+03  0.00000000000E+00 0. -1.
         -3   -1    0    0    0  501 -0.00000000000E+00 -0.00000000000E+00 -0.12502870421E+03  0.12502870421E+03  0.00000000000E+00 0.  1.
         24    2    1    2    0    0  0.99108898959E+02 -0.95199999468E+01 -0.13956869624E+02  0.12934331560E+03  0.81373796949E+02 0.  0.
         23    2    1    2    0    0 -0.67623603841E+02  0.61230582902E+01  0.71369697170E+02  0.14082372388E+03  0.10063420836E+03 0.  0.
        -11    1    3    3    0    0  0.81814572264E+02 -0.41869506139E+02 -0.99137306361E+01  0.92438962750E+02  0.00000000000E+00 0.  1.
         12    1    3    3    0    0  0.17294326695E+02  0.32349506192E+02 -0.40431389882E+01  0.36904352854E+02  0.00000000000E+00 0. -1.
        -11    1    4    4    0    0 -0.64893350040E+02  0.41533167993E+02  0.22222371331E+02  0.80187185451E+02  0.00000000000E+00 0.  1.
         11    1    4    4    0    0 -0.27302538016E+01 -0.35410109703E+02  0.49147325839E+02  0.60636538424E+02  0.00000000000E+00 0. -1.
         21    1    1    2  503  501 -0.22586839530E+02 -0.34743915365E+02  0.12879145086E+03  0.13529428217E+03  0.00000000000E+00 0. -1.
         -4    1    1    2    0  502 -0.88984555871E+01  0.38140857021E+02  0.95006177292E+01  0.40300982909E+02  0.00000000000E+00 0.  1.
<scales pt_clust_5="13000.00000" pt_clust_6="13000.00000" pt_clust_7="13000.00000" pt_clust_8="13000.00000" pt_clust_9="31.92739" pt_clust_10="39.16515"></scales>
<clustering>
<clus scale="   39.165">  1 10  2 -1</clus>
<clus scale="   31.927">  1  9  2 -1</clus>
<clus scale="   81.374">  5  6 -1 -1</clus>
<clus scale="  100.634">  7  8 -1 -1</clus>
<clus scale="  120.159">  2  5  1 -1</clus>
<clus scale="   39.165">  1  5  2 -1</clus>
</clustering>
</event>
<event>
10    4  0.3043429E-005  0.1132990E+03  0.7546771E-02  0.1256591E+00
          2   -1    0    0  502    0 -0.00000000000E+00  0.00000000000E+00  0.37432649519E+03  0.37432649519E+03  0.00000000000E+00 0. -1.
         21   -1    0    0  503  502  0.00000000000E+00 -0.00000000000E+00 -0.10201804932E+03  0.10201804932E+03  0.00000000000E+00 0. -1.
         23    2    1    2    0    0 -0.51751433380E+02  0.27272115876E+02  0.15892271420E+03  0.19125817094E+03  0.88889142759E+02 0.  0.
         24    2    1    2    0    0  0.55898923198E+02 -0.64805651336E+02 -0.77631188236E+01  0.12754879512E+03  0.94254798625E+02 0.  0.
        -13    1    4    4    0    0  0.50745858833E+02 -0.12145181968E+02  0.32134606590E+02  0.61280344112E+02  0.00000000000E+00 0.  1.
         14    1    4    4    0    0  0.51530643648E+01 -0.52660469368E+02 -0.39897725413E+02  0.66268451012E+02  0.00000000000E+00 0. -1.
        -13    1    3    3    0    0  0.13103416655E+02  0.33116228968E+02  0.28991716874E+02  0.45922802576E+02  0.00000000000E+00 0.  1.
         13    1    3    3    0    0 -0.64854850035E+02 -0.58441130917E+01  0.12993099732E+03  0.14533536836E+03  0.00000000000E+00 0. -1.
         21    1    1    2  503  501 -0.11360840659E+02 -0.19713066549E+02 -0.65145008429E+00  0.22761767955E+02  0.00000000000E+00 0.  1.
          1    1    1    2  501    0  0.72133508406E+01  0.57246602009E+02  0.12180030058E+03  0.13477581049E+03  0.00000000000E+00 0. -1.
<scales pt_clust_5="13000.00000" pt_clust_6="13000.00000" pt_clust_7="13000.00000" pt_clust_8="13000.00000" pt_clust_9="22.75244" pt_clust_10="56.19580"></scales>
<clustering>
<clus scale="   22.752">  2  9  1 -1</clus>
<clus scale="   56.196">  2 10  1 -1</clus>
<clus scale="   88.889">  7  8 -1 -1</clus>
<clus scale="   94.255">  5  6 -1 -1</clus>
<clus scale="  108.876">  1  7  2 -1</clus>
<clus scale="   22.752">  2  5  1 -1</clus>
</clustering>
</event>
<event>
10    4  0.3043429E-005  0.2333154E+03  0.7546771E-02  0.1155777E+00
         21   -1    0    0  501  502  0.00000000000E+00  0.00000000000E+00  0.58994084911E+03  0.58994084911E+03  0.00000000000E+00 0.  1.
         -1   -1    0    0    0  501 -0.00000000000E+00 -0.00000000000E+00 -0.22024986996E+03  0.22024986996E+03  0.00000000000E+00 0.  1.
         23    2    1    2    0    0 -0.65766066925E+02  0.12728760011E+02  0.84273613319E+02  0.14029028999E+03  0.89956248658E+02 0.  0.
         24    2    1    2    0    0 -0.15460797378E+03  0.84074670214E+02 -0.92001141665E+02  0.21445623314E+03  0.80963511139E+02 0.  0.
        -11    1    4    4    0    0 -0.12593222469E+03  0.99986717481E+02 -0.73474052383E+02  0.17679000329E+03  0.00000000000E+00 0.  1.
         12    1    4    4    0    0 -0.28675749086E+02 -0.15912047266E+02 -0.18527089282E+02  0.37666229850E+02  0.00000000000E+00 0. -1.
        -13    1    3    3    0    0 -0.17486411036E+01  0.26836110961E+02 -0.71184190901E+01  0.27819174818E+02  0.00000000000E+00 0.  1.
         13    1    3    3    0    0 -0.64017425822E+02 -0.14107350950E+02  0.91392032409E+02  0.11247111517E+03  0.00000000000E+00 0. -1.
         21    1    1    2  503  502  0.19636981781E+02 -0.12979012775E+02  0.10092606902E+03  0.10363463337E+03  0.00000000000E+00 0.  1.
         -2    1    1    2    0  503  0.20073705892E+03 -0.83824417451E+02  0.27649243848E+03  0.35180956258E+03  0.00000000000E+00 0.  1.
<scales pt_clust_5="13000.00000" pt_clust_6="13000.00000" pt_clust_7="13000.00000" pt_clust_8="13000.00000" pt_clust_9="23.53860" pt_clust_10="218.81729"></scales>
<clustering>
<clus scale="   23.539">  1  9  2 -1</clus>
<clus scale="   80.964">  5  6 -1 -1</clus>
<clus scale="   89.956">  7  8 -1 -1</clus>
<clus scale="  109.261">  2  7  1 -1</clus>
<clus scale="  218.817">  1 10  2 -1</clus>
<clus scale="   23.539">  1  5  2 -1</clus>
</clustering>
</event>
<event>
10    4  0.3043429E-005  0.1388715E+03  0.7546771E-02  0.1217338E+00
         -1   -1    0    0    0  501 -0.00000000000E+00  0.00000000000E+00  0.50222177493E+03  0.50222177493E+03  0.00000000000E+00 0.  1.
         21   -1    0    0  501  502  0.00000000000E+00 -0.00000000000E+00 -0.22042656747E+03  0.22042656747E+03  0.00000000000E+00 0.  1.
         24    2    1    2    0    0 -0.76904413175E+02 -0.75998952989E+02  0.24950672147E+03  0.28344320743E+03  0.79976985183E+02 0.  0.
         23    2    1    2    0    0  0.90133624595E+02  0.25148242956E+02 -0.68453199627E+02  0.14751238284E+03  0.91200647720E+02 0.  0.
        -11    1    3    3    0    0 -0.73396888799E+02 -0.36115172516E+02  0.10281763360E+03  0.13138825956E+03  0.00000000000E+00 0.  1.
         12    1    3    3    0    0 -0.35075243766E+01 -0.39883780473E+02  0.14668908786E+03  0.15205494787E+03  0.00000000000E+00 0. -1.
        -11    1    4    4    0    0  0.23038469219E+02  0.22960641617E+01  0.22444460769E+02  0.32245880261E+02  0.00000000000E+00 0. -1.
         11    1    4    4    0    0  0.67095155376E+02  0.22852178795E+02 -0.90897660396E+02  0.11526650258E+03  0.00000000000E+00 0.  1.
         21    1    1    2  503  502  0.36966136815E+02  0.20881124545E+02 -0.86056734520E+02  0.95959773809E+02  0.00000000000E+00 0.  1.
         -2    1    1    2    0  503 -0.50195348234E+02  0.29969585488E+02  0.18679842014E+03  0.19573297833E+03  0.00000000000E+00 0.  1.
<scales pt_clust_5="13000.00000" pt_clust_6="13000.00000" pt_clust_7="13000.00000" pt_clust_8="13000.00000" pt_clust_9="42.45606" pt_clust_10="57.74949"></scales>
<clustering>
<clus scale="   42.456">  2  9  1 -1</clus>
<clus scale="   57.749">  2 10  1 -1</clus>
<clus scale="   79.977">  5  6 -1 -1</clus>
<clus scale="   91.201">  7  8 -1 -1</clus>
<clus scale="  131.773">  1  5  2 -1</clus>
<clus scale="   42.456">  2  5  1 -1</clus>
</clustering>
</event>
<event>
10    4  0.3043429E-005  0.7130521E+03  0.7546771E-02  0.9695168E-01
         21   -1    0    0  503  502  0.00000000000E+00  0.00000000000E+00  0.34353623196E+03  0.34353623196E+03  0.00000000000E+00 0. -1.
          2   -1    0    0  502    0 -0.00000000000E+00 -0.00000000000E+00 -0.24509582198E+04  0.24509582198E+04  0.00000000000E+00 0. -1.
         24    2    1    2    0    0  0.24681477686E+03 -0.46466964356E+03 -0.21976262915E+03  0.57600637689E+03  0.81561763852E+02 0.  0.
         23    2    1    2    0    0  0.49676177951E+02 -0.15965573800E+03 -0.86645678244E+02  0.20594651150E+03  0.83359550786E+02 0.  0.
        -13    1    3    3    0    0  0.11633600175E+03 -0.22269626697E+03 -0.61021298706E+02  0.25855616706E+03  0.00000000000E+00 0.  1.
         14    1    3    3    0    0  0.13047877510E+03 -0.24197337659E+03 -0.15874133045E+03  0.31745020983E+03  0.00000000000E+00 0. -1.
        -11    1    4    4    0    0 -0.11876111154E+02 -0.98533652350E+02 -0.36467878660E+02  0.10573470970E+03  0.00000000000E+00 0.  1.
         11    1    4    4    0    0  0.61552289105E+02 -0.61122085654E+02 -0.50177799584E+02  0.10021180180E+03  0.00000000000E+00 0. -1.
         21    1    1    2  503  501 -0.80681084380E+02 -0.24576765019E+02  0.18263336234E+01  0.84361070702E+02  0.00000000000E+00 0. -1.
          1    1    1    2  501    0 -0.21580987043E+03  0.64890214658E+03 -0.18028400140E+04  0.19281804927E+04  0.00000000000E+00 0. -1.
<scales pt_clust_5="13000.00000" pt_clust_6="13000.00000" pt_clust_7="13000.00000" pt_clust_8="13000.00000" pt_clust_9="84.34130" pt_clust_10="684.52069"></scales>
<clustering>
<clus scale="   81.562">  5  6 -1 -1</clus>
<clus scale="   83.360">  7  8 -1 -1</clus>
<clus scale="   84.341">  1  9  2 -1</clus>
<clus scale="   89.363">  5  7 -1 -1</clus>
<clus scale="  684.521">  1 10  2 -1</clus>
<clus scale="   84.341">  1  5  2 -1</clus>
</clustering>
</event>
<event>
10    4  0.3043429E-005  0.1080430E+03  0.7546771E-02  0.1269364E+00
          2   -1    0    0  503    0 -0.00000000000E+00  0.00000000000E+00  0.36840185629E+03  0.36840185629E+03  0.00000000000E+00 0. -1.
         21   -1    0    0  501  502  0.00000000000E+00 -0.00000000000E+00 -0.17319928625E+03  0.17319928625E+03  0.00000000000E+00 0. -1.
         23    2    1    2    0    0  0.54725041991E+02 -0.48324224230E+01  0.15129419964E+03  0.18457238149E+03  0.90326334120E+02 0.  0.
         24    2    1    2    0    0 -0.79604460820E+02  0.23942502195E+02 -0.48607856249E+02  0.12378383462E+03  0.77779177360E+02 0.  0.
        -11    1    4    4    0    0 -0.91401963571E+02  0.25172418141E+02 -0.26084163544E+02  0.98327784311E+02  0.00000000000E+00 0.  1.
         12    1    4    4    0    0  0.11797502751E+02 -0.12299159458E+01 -0.22523692705E+02  0.25456050311E+02  0.00000000000E+00 0. -1.
        -11    1    3    3    0    0  0.41387122541E+02  0.39946655768E+02  0.67970578025E+02  0.89042847531E+02  0.00000000000E+00 0. -1.
         11    1    3    3    0    0  0.13337919451E+02 -0.44779078191E+02  0.83323621613E+02  0.95529533955E+02  0.00000000000E+00 0.  1.
         21    1    1    2  503  502 -0.14748554509E+02 -0.14718708755E+02 -0.66301727665E+02  0.69498772212E+02  0.00000000000E+00 0. -1.
          1    1    1    2  501    0  0.39627973338E+02 -0.43913710174E+01  0.15881795431E+03  0.16374615422E+03  0.00000000000E+00 0. -1.
<scales pt_clust_5="13000.00000" pt_clust_6="13000.00000" pt_clust_7="13000.00000" pt_clust_8="13000.00000" pt_clust_9="20.83651" pt_clust_10="39.56730"></scales>
<clustering>
<clus scale="   20.837">  2  9  1 -1</clus>
<clus scale="   39.567">  2 10  1 -1</clus>
<clus scale="   77.779">  5  6 -1 -1</clus>
<clus scale="   90.326">  7  8 -1 -1</clus>
<clus scale="   97.796">  2  5  1 -1</clus>
<clus scale="   20.837">  2  5  1 -1</clus>
</clustering>
</event>
<event>
10    4  0.3043429E-005  0.1209652E+03  0.7546771E-02  0.1256022E+00
          2   -1    0    0  502    0 -0.00000000000E+00  0.00000000000E+00  0.62337098997E+03  0.62337098997E+03  0.00000000000E+00 0. -1.
         21   -1    0    0  503  502  0.00000000000E+00 -0.00000000000E+00 -0.64488818721E+02  0.64488818721E+02  0.00000000000E+00 0. -1.
         24    2    1    2    0    0  0.34221853068E+02 -0.21284268727E+02  0.33507826236E+03  0.34674691658E+03  0.79572777584E+02 0.  0.
         23    2    1    2    0    0  0.37187148580E+02 -0.23774254904E+02  0.10920618936E+03  0.15023490935E+03  0.93254688759E+02 0.  0.
        -11    1    3    3    0    0  0.14908130446E+02  0.23852238967E+02  0.49109015481E+02  0.56593966628E+02  0.00000000000E+00 0.  1.
         12    1    3    3    0    0  0.19313722621E+02 -0.45136507695E+02  0.28596924688E+03  0.29015294996E+03  0.00000000000E+00 0. -1.
        -11    1    4    4    0    0 -0.75583204557E+01  0.21457454678E+02  0.74214425312E+02  0.77623008791E+02  0.00000000000E+00 0.  1.
         11    1    4    4    0    0  0.44745469036E+02 -0.45231709581E+02  0.34991764050E+02  0.72611900555E+02  0.00000000000E+00 0. -1.
         21    1    1    2  503  501  0.16900764901E+02 -0.13450994690E+02 -0.12865002823E+02  0.25141070184E+02  0.00000000000E+00 0. -1.
          1    1    1    2  501    0 -0.88309766548E+02  0.58509518320E+02  0.12746272235E+03  0.16573691258E+03  0.00000000000E+00 0. -1.
<scales pt_clust_5="13000.00000" pt_clust_6="13000.00000" pt_clust_7="13000.00000" pt_clust_8="13000.00000" pt_clust_9="21.60012" pt_clust_10="77.04640"></scales>
<clustering>
<clus scale="   21.600">  2  9  1 -1</clus>
<clus scale="   79.573">  5  6 -1 -1</clus>
<clus scale="   90.474">  1  5  2 -1</clus>
<clus scale="   77.046">  2 10  1 -1</clus>
<clus scale="   93.255">  7  8 -1 -1</clus>
<clus scale="   21.600">  2  5  1 -1</clus>
</clustering>
</event>
<event>
10    4  0.3043429E-005  0.1879894E+03  0.7546771E-02  0.1192339E+00
          2   -1    0    0  503    0 -0.00000000000E+00  0.00000000000E+00  0.99174373274E+03  0.99174373274E+03  0.00000000000E+00 0. -1.
         21   -1    0    0  501  502  0.00000000000E+00 -0.00000000000E+00 -0.74089856076E+02  0.74089856076E+02  0.00000000000E+00 0. -1.
         24    2    1    2    0    0 -0.64429317929E+01  0.30089379531E+02  0.19806733762E+03  0.21725156545E+03  0.83789559780E+02 0.  0.
         23    2    1    2    0    0  0.97450196661E+02  0.11083952819E+03  0.18246259562E+03  0.25166076648E+03  0.90876843836E+02 0.  0.
        -11    1    3    3    0    0  0.32555760041E+02 -0.91357625690E+01  0.69417749629E+02  0.77215047971E+02  0.00000000000E+00 0.  1.
         12    1    3    3    0    0 -0.38998691834E+02  0.39225142100E+02  0.12864958799E+03  0.14003651748E+03  0.00000000000E+00 0. -1.
        -13    1    4    4    0    0  0.12753669504E+02  0.43209025094E+02  0.72457984466E+01  0.45630883517E+02  0.00000000000E+00 0.  1.
         13    1    4    4    0    0  0.84696527157E+02  0.67630503100E+02  0.17521679718E+03  0.20602988297E+03  0.00000000000E+00 0. -1.
         21    1    1    2  503  502 -0.10226023926E+02  0.28541050450E+02  0.26494478322E+01  0.30433249908E+02  0.00000000000E+00 0. -1.
          1    1    1    2  501    0 -0.80781240942E+02 -0.16946995817E+03  0.53447449559E+03  0.56648800697E+03  0.00000000000E+00 0. -1.
<scales pt_clust_5="13000.00000" pt_clust_6="13000.00000" pt_clust_7="13000.00000" pt_clust_8="13000.00000" pt_clust_9="30.31770" pt_clust_10="164.56440"></scales>
<clustering>
<clus scale="   30.318">  2  9  1 -1</clus>
<clus scale="   83.790">  5  6 -1 -1</clus>
<clus scale="   90.877">  7  8 -1 -1</clus>
<clus scale="   91.025">  1  5  2 -1</clus>
<clus scale="  164.564">  2 10  1 -1</clus>
<clus scale="   30.318">  2  5  1 -1</clus>
</clustering>
</event>
<event>
10    4  0.3043429E-005  0.3762418E+03  0.7546771E-02  0.1052332E+00
          2   -1    0    0  502    0 -0.00000000000E+00  0.00000000000E+00  0.15115054663E+04  0.15115054663E+04  0.00000000000E+00 0. -1.
         21   -1    0    0  503  502  0.00000000000E+00 -0.00000000000E+00 -0.94589389186E+02  0.94589389186E+02  0.00000000000E+00 0.  1.
         24    2    1    2    0    0  0.53967716409E+02 -0.13496211415E+03  0.20000918087E+03  0.26001735212E+03  0.80486423082E+02 0.  0.
         23    2    1    2    0    0  0.15156895289E+03 -0.11246799303E+03  0.27552170653E+03  0.34635508781E+03  0.91801084653E+02 0.  0.
        -13    1    3    3    0    0  0.23808401557E+02 -0.10963091162E+03  0.92112439100E+02  0.14515673668E+03  0.00000000000E+00 0.  1.
         14    1    3    3    0    0  0.30159314853E+02 -0.25331202529E+02  0.10789674177E+03  0.11486061543E+03  0.00000000000E+00 0. -1.
        -13    1    4    4    0    0  0.14391720760E+02 -0.58230646648E+02  0.10463434822E+03  0.12060794610E+03  0.00000000000E+00 0. -1.
         13    1    4    4    0    0  0.13717723213E+03 -0.54237346384E+02  0.17088735831E+03  0.22574714171E+03  0.00000000000E+00 0.  1.
         21    1    1    2  503  501 -0.22010659410E+02  0.27421976827E+02  0.37014235680E+02  0.51053771493E+02  0.00000000000E+00 0.  1.
          1    1    1    2  501    0 -0.18352600989E+03  0.22000813035E+03  0.90437095399E+03  0.94866864402E+03  0.00000000000E+00 0. -1.
<scales pt_clust_5="13000.00000" pt_clust_6="13000.00000" pt_clust_7="13000.00000" pt_clust_8="13000.00000" pt_clust_9="34.63098" pt_clust_10="336.50995"></scales>
<clustering>
<clus scale="   34.631">  9 10 -1 -1</clus>
<clus scale="   80.486">  5  6 -1 -1</clus>
<clus scale="   91.801">  7  8 -1 -1</clus>
<clus scale="  121.890">  5  7 -1 -1</clus>
<clus scale="  336.510">  2  9  1 -1</clus>
<clus scale="  336.510">  2  5  1 -1</clus>
</clustering>
</event>
<event>
10    4  0.3043429E-005  0.9987012E+02  0.7546771E-02  0.1285296E+00
         21   -1    0    0  501  502  0.00000000000E+00  0.00000000000E+00  0.37474529976E+03  0.37474529976E+03  0.00000000000E+00 0.  1.
          4   -1    0    0  503    0 -0.00000000000E+00 -0.00000000000E+00 -0.34994687042E+03  0.34994687042E+03  0.00000000000E+00 0. -1.
         23    2    1    2    0    0  0.21653593877E+02  0.15207261785E+01 -0.33996896226E+02  0.98100222311E+02  0.89424123863E+02 0.  0.
         24    2    1    2    0    0 -0.47415717868E+02  0.11110159057E+03 -0.87000872817E+00  0.14475539996E+03  0.79759357919E+02 0.  0.
        -11    1    4    4    0    0 -0.63584235147E+02  0.10180416128E+03  0.14079725605E+02  0.12085231023E+03  0.00000000000E+00 0.  1.
         12    1    4    4    0    0  0.16168517279E+02  0.92974292839E+01 -0.14949734334E+02  0.23903089736E+02  0.00000000000E+00 0. -1.
        -11    1    3    3    0    0 -0.23750185260E+02  0.17781203349E+02 -0.39672915843E+02  0.49539708759E+02  0.00000000000E+00 0.  1.
         11    1    3    3    0    0  0.45403779137E+02 -0.16260477171E+02  0.56760196172E+01  0.48560513552E+02  0.00000000000E+00 0. -1.
         21    1    1    2  503  502 -0.10802188582E+02 -0.45009828893E+02  0.26165394140E+03  0.26571668564E+03  0.00000000000E+00 0.  1.
          3    1    1    2  501    0  0.36564312573E+02 -0.67612487854E+02 -0.20198860711E+03  0.21611986227E+03  0.00000000000E+00 0. -1.
<scales pt_clust_5="13000.00000" pt_clust_6="13000.00000" pt_clust_7="13000.00000" pt_clust_8="13000.00000" pt_clust_9="46.28792" pt_clust_10="79.08248"></scales>
<clustering>
<clus scale="   46.288">  1  9  2 -1</clus>
<clus scale="   79.082">  1 10  2 -1</clus>
<clus scale="   79.759">  5  6 -1 -1</clus>
<clus scale="   89.424">  7  8 -1 -1</clus>
<clus scale="   91.318">  1  5  2 -1</clus>
<clus scale="   46.288">  1  5  2 -1</clus>
</clustering>
</event>
<event>
10    4  0.3043429E-005  0.1120168E+03  0.7546771E-02  0.1260666E+00
          2   -1    0    0  503    0 -0.00000000000E+00  0.00000000000E+00  0.10493707513E+04  0.10493707513E+04  0.00000000000E+00 0. -1.
         21   -1    0    0  501  502  0.00000000000E+00 -0.00000000000E+00 -0.50683896480E+02  0.50683896480E+02  0.00000000000E+00 0. -1.
         24    2    1    2    0    0 -0.13148653055E+02 -0.42102185070E+02  0.21962594601E+03  0.23782482542E+03  0.79872463080E+02 0.  0.
         23    2    1    2    0    0 -0.18319454658E+02  0.12620981108E+03  0.25032908241E+03  0.29503737271E+03  0.90099295006E+02 0.  0.
        -13    1    3    3    0    0  0.75609436313E+01 -0.61505938899E+02  0.13440784475E+03  0.14800546314E+03  0.00000000000E+00 0.  1.
         14    1    3    3    0    0 -0.20709596686E+02  0.19403753830E+02  0.85218101257E+02  0.89819362275E+02  0.00000000000E+00 0. -1.
        -13    1    4    4    0    0  0.29004904365E+02  0.94119131892E+02  0.16935342626E+03  0.19590885240E+03  0.00000000000E+00 0. -1.
         13    1    4    4    0    0 -0.47324359023E+02  0.32090679188E+02  0.80975656153E+02  0.99128520301E+02  0.00000000000E+00 0.  1.
         21    1    1    2  503  502 -0.17115535443E+02 -0.10948635014E+02 -0.90821403566E+01  0.22255323759E+02  0.00000000000E+00 0. -1.
          1    1    1    2  501    0  0.48583643155E+02 -0.73158990998E+02  0.53781396679E+03  0.54493712594E+03  0.00000000000E+00 0. -1.
<scales pt_clust_5="13000.00000" pt_clust_6="13000.00000" pt_clust_7="13000.00000" pt_clust_8="13000.00000" pt_clust_9="20.31783" pt_clust_10="87.81044"></scales>
<clustering>
<clus scale="   20.318">  2  9  1 -1</clus>
<clus scale="   79.872">  5  6 -1 -1</clus>
<clus scale="   87.810">  2 10  1 -1</clus>
<clus scale="   90.099">  7  8 -1 -1</clus>
<clus scale="  103.969">  1  5  2 -1</clus>
<clus scale="   20.318">  2  5  1 -1</clus>
</clustering>
</event>
<event>
10    4  0.3043429E-005  0.1114845E+03  0.7546771E-02  0.1261197E+00
          2   -1    0    0  503    0 -0.00000000000E+00  0.00000000000E+00  0.18643341138E+04  0.18643341138E+04  0.00000000000E+00 0. -1.
         21   -1    0    0  501  502  0.00000000000E+00 -0.00000000000E+00 -0.85348312713E+02  0.85348312713E+02  0.00000000000E+00 0. -1.
         24    2    1    2    0    0  0.53924498846E+02  0.51102874052E+02  0.15622902018E+04  0.15661222108E+04  0.80428535894E+02 0.  0.
         23    2    1    2    0    0 -0.42602317410E+01 -0.39936497886E+02  0.26984135631E+03  0.28710876964E+03  0.89465158529E+02 0.  0.
        -13    1    3    3    0    0 -0.37787944142E+01  0.23288277087E+02  0.11398189182E+03  0.11639800170E+03  0.00000000000E+00 0.  1.
         14    1    3    3    0    0  0.57703293260E+02  0.27814596965E+02  0.14483083100E+04  0.14497242091E+04  0.00000000000E+00 0. -1.
        -11    1    4    4    0    0 -0.28607913186E+02 -0.52639396407E+02  0.11318092473E+03  0.12805951926E+03  0.00000000000E+00 0.  1.
         11    1    4    4    0    0  0.24347681445E+02  0.12702898522E+02  0.15666043158E+03  0.15904925037E+03  0.00000000000E+00 0. -1.
         21    1    1    2  503  502 -0.29116461525E+01 -0.25385097227E+02 -0.37041075302E+02  0.44999134481E+02  0.00000000000E+00 0. -1.
          1    1    1    2  501    0 -0.46752620952E+02  0.14218721060E+02 -0.16104681681E+02  0.51452311576E+02  0.00000000000E+00 0. -1.
<scales pt_clust_5="13000.00000" pt_clust_6="13000.00000" pt_clust_7="13000.00000" pt_clust_8="13000.00000" pt_clust_9="25.55153" pt_clust_10="49.23876"></scales>
<clustering>
<clus scale="   25.552">  2  9  1 -1</clus>
<clus scale="   49.239">  2 10  1 -1</clus>
<clus scale="   80.429">  5  6 -1 -1</clus>
<clus scale="   89.465">  7  8 -1 -1</clus>
<clus scale="  104.372">  1  5  2 -1</clus>
<clus scale="   25.552">  2  5  1 -1</clus>
</clustering>
</event>
<event>
10    4  0.3043429E-005  0.2222887E+03  0.7546771E-02  0.1162060E+00
         21   -1    0    0  501  502  0.00000000000E+00  0.00000000000E+00  0.14772062344E+03  0.14772062344E+03  0.00000000000E+00 0.  1.
         -3   -1    0    0    0  501 -0.00000000000E+00 -0.00000000000E+00 -0.80823341328E+03  0.80823341328E+03  0.00000000000E+00 0.  1.
         24    2    1    2    0    0 -0.51599543407E+02 -0.50747996578E+02 -0.27328577044E+03  0.29394103671E+03  0.80488189829E+02 0.  0.
         23    2    1    2    0    0 -0.14498997178E+03  0.17521037061E+03 -0.26784714078E+03  0.36299818825E+03  0.91130828829E+02 0.  0.
        -11    1    3    3    0    0 -0.66220889691E+02 -0.56262047567E+02 -0.18637021146E+03  0.20563190401E+03  0.00000000000E+00 0.  1.
         12    1    3    3    0    0  0.14621346284E+02  0.55140509887E+01 -0.86915558980E+02  0.88309132700E+02  0.00000000000E+00 0. -1.
        -13    1    4    4    0    0 -0.12252685946E+03  0.17872040324E+03 -0.26105606326E+03  0.33926992497E+03  0.00000000000E+00 0.  1.
         13    1    4    4    0    0 -0.22463112327E+02 -0.35100326332E+01 -0.67910775188E+01  0.23728263282E+02  0.00000000000E+00 0. -1.
         21    1    1    2  503  502  0.26528752894E+02 -0.43254358910E+02  0.29636254029E+02  0.58762418668E+02  0.00000000000E+00 0. -1.
         -4    1    1    2    0  503  0.17006076230E+03 -0.81208015121E+02 -0.14901613265E+03  0.24025239309E+03  0.00000000000E+00 0.  1.
<scales pt_clust_5="13000.00000" pt_clust_6="13000.00000" pt_clust_7="13000.00000" pt_clust_8="13000.00000" pt_clust_9="50.74164" pt_clust_10="202.74970"></scales>
<clustering>
<clus scale="   50.742">  1  9  2 -1</clus>
<clus scale="   80.488">  5  6 -1 -1</clus>
<clus scale="   91.131">  7  8 -1 -1</clus>
<clus scale="  109.118">  2  5  1 -1</clus>
<clus scale="  202.750">  1 10  2 -1</clus>
<clus scale="   50.742">  1  5  2 -1</clus>
</clustering>
</event>
<event>
10    4  0.3043429E-005  0.1081283E+03  0.7546771E-02  0.1268698E+00
          4   -1    0    0  503    0 -0.00000000000E+00  0.00000000000E+00  0.56981254454E+03  0.56981254454E+03  0.00000000000E+00 0. -1.
         21   -1    0    0  501  502  0.00000000000E+00 -0.00000000000E+00 -0.49386209906E+02  0.49386209906E+02  0.00000000000E+00 0. -1.
         24    2    1    2    0    0  0.36326510388E+02 -0.78083290377E+02  0.24474449619E+03  0.27166244861E+03  0.80523300835E+02 0.  0.
         23    2    1    2    0    0 -0.27485203828E+01  0.99996248302E+01  0.74876787414E+02  0.11883776361E+03  0.91696967807E+02 0.  0.
        -13    1    3    3    0    0 -0.24689194285E+02 -0.11717565549E+02  0.67098389141E+02  0.72450338040E+02  0.00000000000E+00 0.  1.
         14    1    3    3    0    0  0.61015704673E+02 -0.66365724828E+02  0.17764610705E+03  0.19921211057E+03  0.00000000000E+00 0. -1.
        -11    1    4    4    0    0 -0.28475400578E+02 -0.18595927606E+02 -0.72040140249E+00  0.34017288836E+02  0.00000000000E+00 0.  1.
         11    1    4    4    0    0  0.25726880195E+02  0.28595552436E+02  0.75597188817E+02  0.84820474773E+02  0.00000000000E+00 0. -1.
         21    1    1    2  503  502 -0.17847439580E+02 -0.14292346732E+02  0.24785482421E+02  0.33721245730E+02  0.00000000000E+00 0.  1.
          3    1    1    2  501    0 -0.15730550424E+02  0.82376012280E+02  0.17601956861E+03  0.19497729649E+03  0.00000000000E+00 0. -1.
<scales pt_clust_5="13000.00000" pt_clust_6="13000.00000" pt_clust_7="13000.00000" pt_clust_8="13000.00000" pt_clust_9="22.86487" pt_clust_10="81.71987"></scales>
<clustering>
<clus scale="   22.865">  2  9  1 -1</clus>
<clus scale="   80.523">  5  6 -1 -1</clus>
<clus scale="   81.720">  2 10  1 -1</clus>
<clus scale="   91.697">  7  8 -1 -1</clus>
<clus scale="   98.830">  1  5  2 -1</clus>
<clus scale="   22.865">  2  5  1 -1</clus>
</clustering>
</event>
<event>
10    4  0.3043429E-005  0.1892230E+03  0.7546771E-02  0.1179866E+00
          2   -1    0    0  502    0 -0.00000000000E+00  0.00000000000E+00  0.11382249668E+04  0.11382249668E+04  0.00000000000E+00 0. -1.
         21   -1    0    0  503  502  0.00000000000E+00 -0.00000000000E+00 -0.44899883706E+03  0.44899883706E+03  0.00000000000E+00 0. -1.
         23    2    1    2    0    0 -0.49776083491E+02 -0.87259734198E+02  0.26958266302E+03  0.30172886919E+03  0.90959213933E+02 0.  0.
         24    2    1    2    0    0  0.17735073711E+03 -0.57038922481E+02  0.31910493029E+03  0.37865362748E+03  0.82727809355E+02 0.  0.
        -13    1    4    4    0    0  0.14268392217E+03 -0.36229194106E+02  0.17349460605E+03  0.22753380953E+03  0.00000000000E+00 0.  1.
         14    1    4    4    0    0  0.34666814938E+02 -0.20809728375E+02  0.14561032424E+03  0.15111981795E+03  0.00000000000E+00 0. -1.
        -11    1    3    3    0    0 -0.12696178630E+02 -0.45563069345E+02  0.22608246827E+03  0.23097720385E+03  0.00000000000E+00 0. -1.
         11    1    3    3    0    0 -0.37079904861E+02 -0.41696664853E+02  0.43500194751E+02  0.70751665336E+02  0.00000000000E+00 0.  1.
         21    1    1    2  503  501  0.16456798081E+02  0.98346759239E+02 -0.38531540558E+03  0.39800863437E+03  0.00000000000E+00 0. -1.
          1    1    1    2  501    0 -0.14403145170E+03  0.45951897441E+02  0.48585394203E+03  0.50883267283E+03  0.00000000000E+00 0. -1.
<scales pt_clust_5="13000.00000" pt_clust_6="13000.00000" pt_clust_7="13000.00000" pt_clust_8="13000.00000" pt_clust_9="99.71415" pt_clust_10="170.18078"></scales>
<clustering>
<clus scale="   82.728">  5  6 -1 -1</clus>
<clus scale="   90.959">  7  8 -1 -1</clus>
<clus scale="   99.714">  2  9  1 -1</clus>
<clus scale="  117.797">  1  7  2 -1</clus>
<clus scale="  170.181">  2 10  1 -1</clus>
<clus scale="   99.714">  2  5  1 -1</clus>
</clustering>
</event>
<event>
10    4  0.3043429E-005  0.9089649E+02  0.7546771E-02  0.1306449E+00
         -1   -1    0    0    0  501 -0.00000000000E+00  0.00000000000E+00  0.18064668133E+03  0.18064668133E+03  0.00000000000E+00 0.  1.
         21   -1    0    0  501  502  0.00000000000E+00 -0.00000000000E+00 -0.38403290200E+03  0.38403290200E+03  0.00000000000E+00 0.  1.
         23    2    1    2    0    0  0.60621806945E+01 -0.14840063888E+02  0.81745683814E+02  0.12325697093E+03  0.90845729290E+02 0.  0.
         24    2    1    2    0    0  0.41905630348E+02 -0.59501121938E+02 -0.57722415375E+02  0.12373259831E+03  0.81739912405E+02 0.  0.
        -11    1    4    4    0    0  0.62720701544E+02 -0.61355958475E+02 -0.40427369547E+02  0.96606481413E+02  0.00000000000E+00 0.  1.
         12    1    4    4    0    0 -0.20815071196E+02  0.18548365370E+01 -0.17295045828E+02  0.27126116893E+02  0.00000000000E+00 0. -1.
        -13    1    3    3    0    0 -0.16015238926E+02  0.27335244189E+02  0.37786165576E+01  0.31905820720E+02  0.00000000000E+00 0.  1.
         13    1    3    3    0    0  0.22077419620E+02 -0.42175308077E+02  0.77967067257E+02  0.91351150212E+02  0.00000000000E+00 0. -1.
         21    1    1    2  503  502  0.10138787617E+02  0.34078608091E+02 -0.24276002696E+03  0.24534990775E+03  0.00000000000E+00 0.  1.
         -2    1    1    2    0  503 -0.58106598660E+02  0.40262577735E+02  0.15350537855E+02  0.72340106346E+02  0.00000000000E+00 0.  1.
<scales pt_clust_5="13000.00000" pt_clust_6="13000.00000" pt_clust_7="13000.00000" pt_clust_8="13000.00000" pt_clust_9="35.55484" pt_clust_10="73.27081"></scales>
<clustering>
<clus scale="   35.555">  2  9  1 -1</clus>
<clus scale="   73.271">  2 10  1 -1</clus>
<clus scale="   81.740">  5  6 -1 -1</clus>
<clus scale="   81.796">  2  5  1 -1</clus>
<clus scale="   90.846">  7  8 -1 -1</clus>
<clus scale="   35.555">  2  5  1 -1</clus>
</clustering>
</event>
<event>
10    4  0.3043429E-005  0.1840573E+03  0.7546771E-02  0.1165298E+00
          2   -1    0    0  502    0 -0.00000000000E+00  0.00000000000E+00  0.60295195363E+03  0.60295195363E+03  0.00000000000E+00 0. -1.
         21   -1    0    0  503  502  0.00000000000E+00 -0.00000000000E+00 -0.16746184971E+03  0.16746184971E+03  0.00000000000E+00 0.  1.
         23    2    1    2    0    0  0.16212817229E+03  0.64029568251E+00  0.48696292580E+03  0.52141402589E+03  0.91944227957E+02 0.  0.
         24    2    1    2    0    0 -0.14144227672E+03 -0.22467043930E+02 -0.54697068164E+02  0.17287842625E+03  0.79903036812E+02 0.  0.
        -13    1    4    4    0    0 -0.86564761984E+02 -0.51907802782E+02 -0.41981534207E+02  0.10931755221E+03  0.00000000000E+00 0.  1.
         14    1    4    4    0    0 -0.54877514733E+02  0.29440758852E+02 -0.12715533957E+02  0.63560874041E+02  0.00000000000E+00 0. -1.
        -11    1    3    3    0    0  0.12053175291E+03 -0.41133136301E+02  0.33978525736E+03  0.36286892879E+03  0.00000000000E+00 0. -1.
         11    1    3    3    0    0  0.41596419380E+02  0.41773431983E+02  0.14717766844E+03  0.15854509709E+03  0.00000000000E+00 0.  1.
         21    1    1    2  503  501 -0.32206170839E+00 -0.24336460594E+02 -0.54102339749E+01  0.24932662707E+02  0.00000000000E+00 0.  1.
          1    1    1    2  501    0 -0.20363833863E+02  0.46163208841E+02  0.86344802529E+01  0.51188688491E+02  0.00000000000E+00 0. -1.
<scales pt_clust_5="13000.00000" pt_clust_6="13000.00000" pt_clust_7="13000.00000" pt_clust_8="13000.00000" pt_clust_9="24.33859" pt_clust_10="47.38354"></scales>
<clustering>
<clus scale="   24.339">  2  9  1 -1</clus>
<clus scale="   47.384">  2 10  1 -1</clus>
<clus scale="   79.903">  5  6 -1 -1</clus>
<clus scale="   91.944">  7  8 -1 -1</clus>
<clus scale="  178.348">  2  5  1 -1</clus>
<clus scale="   24.339">  2  5  1 -1</clus>
</clustering>
</event>
<event>
10    4  0.3043429E-005  0.2095431E+03  0.7546771E-02  0.1173299E+00
         21   -1    0    0  501  502  0.00000000000E+00  0.00000000000E+00  0.63144328245E+02  0.63144328245E+02  0.00000000000E+00 0. -1.
          2   -1    0    0  503    0 -0.00000000000E+00 -0.00000000000E+00 -0.19021610922E+04  0.19021610922E+04  0.00000000000E+00 0. -1.
         24    2    1    2    0    0 -0.44167521559E+02 -0.44074436381E+02 -0.45711132150E+03  0.46830547401E+03  0.80411011937E+02 0.  0.
         23    2    1    2    0    0 -0.17360598308E+03 -0.17330229612E+02 -0.33369977563E+03  0.38750439824E+03  0.91458975398E+02 0.  0.
        -13    1    3    3    0    0  0.17002937787E+02 -0.28831673533E+02 -0.94446945684E+02  0.10020274867E+03  0.00000000000E+00 0.  1.
         14    1    3    3    0    0 -0.61170459346E+02 -0.15242762849E+02 -0.36266437582E+03  0.36810272534E+03  0.00000000000E+00 0. -1.
        -13    1    4    4    0    0 -0.16437651645E+03  0.30484297994E+01 -0.32358081384E+03  0.36295106443E+03  0.00000000000E+00 0. -1.
         13    1    4    4    0    0 -0.92294666317E+01 -0.20378659411E+02 -0.10118961794E+02  0.24553333816E+02  0.00000000000E+00 0.  1.
         21    1    1    2  503  502 -0.48038495912E+01  0.26823191559E+02  0.88936788340E+01  0.28664579179E+02  0.00000000000E+00 0.  1.
          1    1    1    2  501    0  0.22257735423E+03  0.34581474434E+02 -0.10570993457E+04  0.10808309690E+04  0.00000000000E+00 0. -1.
<scales pt_clust_5="13000.00000" pt_clust_6="13000.00000" pt_clust_7="13000.00000" pt_clust_8="13000.00000" pt_clust_9="27.24996" pt_clust_10="188.53008"></scales>
<clustering>
<clus scale="   27.250">  1  9  2 -1</clus>
<clus scale="   80.411">  5  6 -1 -1</clus>
<clus scale="   91.459">  7  8 -1 -1</clus>
<clus scale="  100.630">  2  5  1 -1</clus>
<clus scale="  188.530">  1 10  2 -1</clus>
<clus scale="   27.250">  1  5  2 -1</clus>
</clustering>
</event>
<event>
10    4  0.3043429E-005  0.2165646E+03  0.7546771E-02  0.1137759E+00
         21   -1    0    0  501  502  0.00000000000E+00  0.00000000000E+00  0.24166921615E+03  0.24166921615E+03  0.00000000000E+00 0.  1.
          2   -1    0    0  503    0 -0.00000000000E+00 -0.00000000000E+00 -0.12415357614E+04  0.12415357614E+04  0.00000000000E+00 0. -1.
         24    2    1    2    0    0 -0.18279526781E+03 -0.76331150910E+02 -0.87585069266E+03  0.90097595980E+03  0.73502991655E+02 0.  0.
         23    2    1    2    0    0  0.16225930908E+03  0.10859290212E+03 -0.29977615808E+03  0.36909280341E+03  0.90792349895E+02 0.  0.
        -13    1    3    3    0    0 -0.14109789677E+03 -0.87069445298E+02 -0.63393013790E+03  0.65525348112E+03  0.00000000000E+00 0.  1.
         14    1    3    3    0    0 -0.41697371045E+02  0.10738294387E+02 -0.24192055476E+03  0.24572247869E+03  0.00000000000E+00 0. -1.
        -13    1    4    4    0    0  0.88193200304E+02  0.66843534967E+02 -0.24256031606E+03  0.26661133823E+03  0.00000000000E+00 0. -1.
         13    1    4    4    0    0  0.74066108774E+02  0.41749367150E+02 -0.57215842026E+02  0.10248146518E+03  0.00000000000E+00 0.  1.
         21    1    1    2  503  502 -0.58541634326E+01 -0.35715003836E+02  0.18219458418E+03  0.18575440569E+03  0.00000000000E+00 0.  1.
          1    1    1    2  501    0  0.26390122169E+02  0.34532526304E+01 -0.64342786774E+01  0.27381808631E+02  0.00000000000E+00 0. -1.
<scales pt_clust_5="13000.00000" pt_clust_6="13000.00000" pt_clust_7="13000.00000" pt_clust_8="13000.00000" pt_clust_9="36.27981" pt_clust_10="26.61510"></scales>
<clustering>
<clus scale="   26.615">  1 10  2 -1</clus>
<clus scale="   36.280">  1  9  2 -1</clus>
<clus scale="   73.503">  5  6 -1 -1</clus>
<clus scale="   90.792">  7  8 -1 -1</clus>
<clus scale="  209.904">  2  5  1 -1</clus>
<clus scale="   26.615">  1  5  2 -1</clus>
</clustering>
</event>
<event>
10    4  0.3043429E-005  0.5544985E+03  0.7546771E-02  0.1051587E+00
         -1   -1    0    0    0  501 -0.00000000000E+00  0.00000000000E+00  0.79773514633E+03  0.79773514633E+03  0.00000000000E+00 0.  1.
         21   -1    0    0  501  502  0.00000000000E+00 -0.00000000000E+00 -0.67009767201E+03  0.67009767201E+03  0.00000000000E+00 0. -1.
         24    2    1    2    0    0  0.67432819881E+02 -0.57632612262E+02  0.23551113863E+03  0.26419781112E+03  0.80413206542E+02 0.  0.
         23    2    1    2    0    0  0.24223886887E+03 -0.43437470141E+03  0.18337607177E+02  0.50965283559E+03  0.10976654392E+03 0.  0.
        -11    1    3    3    0    0  0.71699925726E+02 -0.12452779704E+02  0.16512942456E+03  0.18045408814E+03  0.00000000000E+00 0.  1.
         12    1    3    3    0    0 -0.42671058448E+01 -0.45179832558E+02  0.70381714073E+02  0.83743722977E+02  0.00000000000E+00 0. -1.
        -13    1    4    4    0    0  0.21429494798E+03 -0.40562916419E+03 -0.12732281022E+02  0.45893295214E+03  0.00000000000E+00 0. -1.
         13    1    4    4    0    0  0.27943920889E+02 -0.28745537220E+02  0.31069888199E+02  0.50719883452E+02  0.00000000000E+00 0.  1.
         21    1    1    2  503  502  0.23485287432E+02  0.11717748740E+01 -0.97250595414E+02  0.10005303639E+03  0.00000000000E+00 0. -1.
         -2    1    1    2    0  503 -0.33315697619E+03  0.49083553880E+03 -0.28960676066E+02  0.59392913524E+03  0.00000000000E+00 0.  1.
<scales pt_clust_5="13000.00000" pt_clust_6="13000.00000" pt_clust_7="13000.00000" pt_clust_8="13000.00000" pt_clust_9="23.51450" pt_clust_10="543.52565"></scales>
<clustering>
<clus scale="   23.515">  2  9  1 -1</clus>
<clus scale="   80.413">  5  6 -1 -1</clus>
<clus scale="  109.767">  7  8 -1 -1</clus>
<clus scale="  120.048">  1  5  2 -1</clus>
<clus scale="  543.526">  2 10  1 -1</clus>
<clus scale="   23.515">  2  5  1 -1</clus>
</clustering>
</event>
<event>
10    4  0.3043429E-005  0.7635915E+03  0.7546771E-02  0.1012261E+00
         21   -1    0    0  503  502  0.00000000000E+00  0.00000000000E+00  0.22489158577E+03  0.22489158577E+03  0.00000000000E+00 0. -1.
          2   -1    0    0  502    0 -0.00000000000E+00 -0.00000000000E+00 -0.39916734711E+04  0.39916734711E+04  0.00000000000E+00 0. -1.
         23    2    1    2    0    0 -0.73181383143E+02 -0.10554627495E+03 -0.22086371811E+03  0.27085802580E+03  0.89931958564E+02 0.  0.
         24    2    1    2    0    0 -0.76670051498E+03 -0.33873944217E+02 -0.19295755236E+04  0.20786466448E+04  0.92374502792E+02 0.  0.
        -13    1    4    4    0    0 -0.85694550258E+02  0.12608938585E+02 -0.28995184617E+03  0.30261297787E+03  0.00000000000E+00 0.  1.
         14    1    4    4    0    0 -0.68100596472E+03 -0.46482882802E+02 -0.16396236775E+04  0.17760336669E+04  0.00000000000E+00 0. -1.
        -11    1    3    3    0    0 -0.72937514447E+02 -0.46327800377E+02 -0.78787588884E+02  0.11693429892E+03  0.00000000000E+00 0.  1.
         11    1    3    3    0    0 -0.24386869561E+00 -0.59218474570E+02 -0.14207612923E+03  0.15392372688E+03  0.00000000000E+00 0. -1.
         21    1    1    2  503  501  0.99712234940E+02  0.40734349322E+02 -0.27003125371E+02  0.11104497193E+03  0.00000000000E+00 0.  1.
          1    1    1    2  501    0  0.74016966319E+03  0.98685869842E+02 -0.15893395182E+04  0.17560154143E+04  0.00000000000E+00 0. -1.
<scales pt_clust_5="13000.00000" pt_clust_6="13000.00000" pt_clust_7="13000.00000" pt_clust_8="13000.00000" pt_clust_9="107.71173" pt_clust_10="757.98389"></scales>
<clustering>
<clus scale="   89.932">  7  8 -1 -1</clus>
<clus scale="   92.375">  5  6 -1 -1</clus>
<clus scale="  107.712">  1  9  2 -1</clus>
<clus scale="  147.071">  2  7  1 -1</clus>
<clus scale="  757.984">  1 10  2 -1</clus>
<clus scale="  107.712">  1  5  2 -1</clus>
</clustering>
</event>
<event>
10    4  0.3043429E-005  0.1039297E+03  0.7546771E-02  0.1276138E+00
         21   -1    0    0  501  502  0.00000000000E+00  0.00000000000E+00  0.10155220258E+03  0.10155220258E+03  0.00000000000E+00 0. -1.
          2   -1    0    0  503    0 -0.00000000000E+00 -0.00000000000E+00 -0.31113851201E+03  0.31113851201E+03  0.00000000000E+00 0. -1.
         24    2    1    2    0    0  0.55958665318E+02 -0.24847966578E+02 -0.77421275404E+02  0.12863808031E+03  0.82491867196E+02 0.  0.
         23    2    1    2    0    0  0.31427102845E+02  0.76577119900E+02 -0.17976272637E+02  0.12442331475E+03  0.91138887367E+02 0.  0.
        -13    1    3    3    0    0  0.30066460242E+02  0.28971284622E+02 -0.41887650276E+02  0.59143068992E+02  0.00000000000E+00 0.  1.
         14    1    3    3    0    0  0.25892205076E+02 -0.53819251200E+02 -0.35533625128E+02  0.69495011319E+02  0.00000000000E+00 0. -1.
        -13    1    4    4    0    0  0.11342768528E+02 -0.17080025370E+02  0.12368712532E+02  0.23945160559E+02  0.00000000000E+00 0.  1.
         13    1    4    4    0    0  0.20084334317E+02  0.93657145270E+02 -0.30344985169E+02  0.10047815419E+03  0.00000000000E+00 0. -1.
         21    1    1    2  503  502 -0.22030130566E+02 -0.18445947112E+02 -0.67018855617E+01  0.29504150347E+02  0.00000000000E+00 0. -1.
          1    1    1    2  501    0 -0.65355637597E+02 -0.33283206210E+02 -0.10748687582E+03  0.13012516918E+03  0.00000000000E+00 0. -1.
<scales pt_clust_5="13000.00000" pt_clust_6="13000.00000" pt_clust_7="13000.00000" pt_clust_8="13000.00000" pt_clust_9="28.73290" pt_clust_10="76.86271"></scales>
<clustering>
<clus scale="   28.733">  1  9  2 -1</clus>
<clus scale="   76.863">  1 10  2 -1</clus>
<clus scale="   82.492">  5  6 -1 -1</clus>
<clus scale="   91.139">  7  8 -1 -1</clus>
<clus scale="   96.436">  2  5  1 -1</clus>
<clus scale="   28.733">  1  5  2 -1</clus>
</clustering>
</event>
<event>
10    4  0.3043429E-005  0.2220244E+03  0.7546771E-02  0.1146995E+00
         21   -1    0    0  503  502  0.00000000000E+00  0.00000000000E+00  0.43734132701E+03  0.43734132701E+03  0.00000000000E+00 0.  1.
         -3   -1    0    0    0  501 -0.00000000000E+00 -0.00000000000E+00 -0.24777569017E+03  0.24777569017E+03  0.00000000000E+00 0.  1.
         23    2    1    2    0    0  0.49216233332E+02 -0.11310007591E+03 -0.60222938780E+01  0.15404213967E+03  0.92080660167E+02 0.  0.
         24    2    1    2    0    0  0.18660486719E+03  0.95773846965E+02  0.55202878729E+02  0.23095677450E+03  0.79370445673E+02 0.  0.
        -11    1    4    4    0    0  0.18745934794E+03  0.10062314828E+03  0.62862769156E+02  0.22185074453E+03  0.00000000000E+00 0.  1.
         12    1    4    4    0    0 -0.85448075032E+00 -0.48493013128E+01 -0.76598904279E+01  0.91060299770E+01  0.00000000000E+00 0. -1.
        -13    1    3    3    0    0  0.12162541043E+01 -0.41043471629E+02  0.38847374983E+02  0.56525785094E+02  0.00000000000E+00 0. -1.
         13    1    3    3    0    0  0.47999979228E+02 -0.72056604277E+02 -0.44869668861E+02  0.97516354574E+02  0.00000000000E+00 0.  1.
         21    1    1    2  503  501 -0.13147318388E+02 -0.20190277748E+02  0.52576786242E+02  0.57834399347E+02  0.00000000000E+00 0.  1.
         -4    1    1    2    0  502 -0.22267378214E+03  0.37516506689E+02  0.87808265753E+02  0.24228370366E+03  0.00000000000E+00 0.  1.
<scales pt_clust_5="13000.00000" pt_clust_6="13000.00000" pt_clust_7="13000.00000" pt_clust_8="13000.00000" pt_clust_9="24.09355" pt_clust_10="207.35285"></scales>
<clustering>
<clus scale="   24.094">  1  9  2 -1</clus>
<clus scale="   79.370">  5  6 -1 -1</clus>
<clus scale="   92.081">  7  8 -1 -1</clus>
<clus scale="  156.040">  2  7  1 -1</clus>
<clus scale="  207.353">  1 10  2 -1</clus>
<clus scale="   24.094">  1  5  2 -1</clus>
</clustering>
</event>
<event>
10    4  0.3043429E-005  0.1231146E+03  0.7546771E-02  0.1240166E+00
          2   -1    0    0  503    0 -0.00000000000E+00  0.00000000000E+00  0.88868171533E+03  0.88868171533E+03  0.00000000000E+00 0. -1.
         21   -1    0    0  501  502  0.00000000000E+00 -0.00000000000E+00 -0.83262890772E+02  0.83262890772E+02  0.00000000000E+00 0.  1.
         24    2    1    2    0    0  0.43913227436E+02  0.51596018108E+02  0.39729503207E+03  0.41157408358E+03  0.83422797484E+02 0.  0.
         23    2    1    2    0    0 -0.11743154378E+03 -0.47982035056E+02  0.35630162323E+03  0.38891515757E+03  0.90618485479E+02 0.  0.
        -11    1    3    3    0    0  0.39591292818E+02  0.65876568705E+02  0.20891803242E+03  0.22260713609E+03  0.00000000000E+00 0.  1.
         12    1    3    3    0    0  0.43219346183E+01 -0.14280550597E+02  0.18837699965E+03  0.18896694749E+03  0.00000000000E+00 0. -1.
        -13    1    4    4    0    0 -0.62112837131E+02 -0.17032495974E+02  0.29047822248E+03  0.29753270104E+03  0.00000000000E+00 0. -1.
         13    1    4    4    0    0 -0.55318706653E+02 -0.30949539082E+02  0.65823400752E+02  0.91382456531E+02  0.00000000000E+00 0.  1.
         21    1    1    2  503  502  0.52287270223E+02  0.24955567125E+02 -0.41703193139E+02  0.71385539684E+02  0.00000000000E+00 0.  1.
          1    1    1    2  501    0  0.21231046124E+02 -0.28569550177E+02  0.93525362403E+02  0.10006982527E+03  0.00000000000E+00 0. -1.
<scales pt_clust_5="13000.00000" pt_clust_6="13000.00000" pt_clust_7="13000.00000" pt_clust_8="13000.00000" pt_clust_9="67.46337" pt_clust_10="35.59463"></scales>
<clustering>
<clus scale="   35.595">  2 10  1 -1</clus>
<clus scale="   67.463">  2  9  1 -1</clus>
<clus scale="   83.423">  5  6 -1 -1</clus>
<clus scale="   90.618">  7  8 -1 -1</clus>
<clus scale="  117.919">  1  5  2 -1</clus>
<clus scale="   35.595">  2  5  1 -1</clus>
</clustering>
</event>
<event>
10    4  0.3043429E-005  0.1037604E+03  0.7546771E-02  0.1277565E+00
         21   -1    0    0  503  502  0.00000000000E+00  0.00000000000E+00  0.10155602964E+03  0.10155602964E+03  0.00000000000E+00 0. -1.
         -1   -1    0    0    0  501 -0.00000000000E+00 -0.00000000000E+00 -0.22522813617E+03  0.22522813617E+03  0.00000000000E+00 0.  1.
         23    2    1    2    0    0  0.30026030993E+02  0.26576959296E+02 -0.86664602842E+02  0.13223497315E+03  0.91473698061E+02 0.  0.
         24    2    1    2    0    0 -0.44742348070E+02 -0.45138310070E+02 -0.33484146271E+02  0.10795501341E+03  0.80583820479E+02 0.  0.
        -11    1    4    4    0    0 -0.21187824569E+02  0.17120207883E+02 -0.31105770105E+02  0.41347241284E+02  0.00000000000E+00 0.  1.
         12    1    4    4    0    0 -0.23554523501E+02 -0.62258517953E+02 -0.23783761656E+01  0.66607772131E+02  0.00000000000E+00 0. -1.
        -11    1    3    3    0    0 -0.27276143192E+02  0.18109211510E+02 -0.60251984574E+02  0.68572831165E+02  0.00000000000E+00 0.  1.
         11    1    3    3    0    0  0.57302174185E+02  0.84677477860E+01 -0.26412618268E+02  0.63662141990E+02  0.00000000000E+00 0. -1.
         21    1    1    2  503  501  0.15647629583E+02 -0.23028111483E+02  0.23963107636E+02  0.36733809463E+02  0.00000000000E+00 0. -1.
         -2    1    1    2    0  502 -0.93131250676E+00  0.41589462258E+02 -0.27486465055E+02  0.49860369785E+02  0.00000000000E+00 0.  1.
<scales pt_clust_5="13000.00000" pt_clust_6="13000.00000" pt_clust_7="13000.00000" pt_clust_8="13000.00000" pt_clust_9="27.84138" pt_clust_10="38.00236"></scales>
<clustering>
<clus scale="   27.841">  1  9  2 -1</clus>
<clus scale="   38.002">  1 10  2 -1</clus>
<clus scale="   80.584">  5  6 -1 -1</clus>
<clus scale="   91.474">  7  8 -1 -1</clus>
<clus scale="   94.300">  1  5  2 -1</clus>
<clus scale="   27.841">  1  5  2 -1</clus>
</clustering>
</event>
<event>
10    4  0.3043429E-005  0.1256191E+03  0.7546771E-02  0.1243834E+00
         -1   -1    0    0    0  501 -0.00000000000E+00  0.00000000000E+00  0.43346995601E+03  0.43346995601E+03  0.00000000000E+00 0.  1.
         21   -1    0    0  503  502  0.00000000000E+00 -0.00000000000E+00 -0.10008503905E+03  0.10008503905E+03  0.00000000000E+00 0. -1.
         23    2    1    2    0    0 -0.48391346922E+01 -0.52111892501E+02  0.12859662207E+03  0.16572219854E+03  0.90485851477E+02 0.  0.
         24    2    1    2    0    0  0.47185153850E+02 -0.62725157583E+02  0.27175135746E+02  0.11599783461E+03  0.80969904862E+02 0.  0.
        -11    1    4    4    0    0 -0.23860896325E+00 -0.54974602227E+02  0.37886386903E+02  0.66765575986E+02  0.00000000000E+00 0.  1.
         12    1    4    4    0    0  0.47423762813E+02 -0.77505553560E+01 -0.10711251156E+02  0.49232258622E+02  0.00000000000E+00 0. -1.
        -13    1    3    3    0    0 -0.17904555896E+02 -0.74143469098E+02  0.11086512371E+03  0.13456932335E+03  0.00000000000E+00 0. -1.
         13    1    3    3    0    0  0.13065421204E+02  0.22031576597E+02  0.17731498353E+02  0.31152875187E+02  0.00000000000E+00 0.  1.
         21    1    1    2  503  501  0.30728632804E+02  0.12589773093E+02 -0.12530928490E+01  0.33231333140E+02  0.00000000000E+00 0.  1.
         -2    1    1    2    0  502 -0.73074651962E+02  0.10224727699E+03  0.17886625200E+03  0.21860362878E+03  0.00000000000E+00 0.  1.
<scales pt_clust_5="13000.00000" pt_clust_6="13000.00000" pt_clust_7="13000.00000" pt_clust_8="13000.00000" pt_clust_9="33.20770" pt_clust_10="96.04187"></scales>
<clustering>
<clus scale="   33.208">  2  9  1 -1</clus>
<clus scale="   80.970">  5  6 -1 -1</clus>
<clus scale="   90.486">  7  8 -1 -1</clus>
<clus scale="  103.061">  1  7  2 -1</clus>
<clus scale="   96.042">  2 10  1 -1</clus>
<clus scale="   33.208">  2  5  1 -1</clus>
</clustering>
</event>
<event>
10    4  0.3043429E-005  0.9800204E+02  0.7546771E-02  0.1290554E+00
         21   -1    0    0  501  502  0.00000000000E+00  0.00000000000E+00  0.29733813918E+02  0.29733813918E+02  0.00000000000E+00 0. -1.
          2   -1    0    0  503    0 -0.00000000000E+00 -0.00000000000E+00 -0.15544450916E+04  0.15544450916E+04  0.00000000000E+00 0. -1.
         24    2    1    2    0    0 -0.33089748917E+02 -0.14367095829E+01 -0.11551947217E+04  0.11584682200E+04  0.80478419421E+02 0.  0.
         23    2    1    2    0    0  0.44558197248E+02  0.24941276564E+02 -0.17500085109E+03  0.20408228570E+03  0.91743017371E+02 0.  0.
        -13    1    3    3    0    0  0.35669496598E+01  0.22851466608E+02 -0.11281233174E+03  0.11515873762E+03  0.00000000000E+00 0.  1.
         14    1    3    3    0    0 -0.36656698577E+02 -0.24288176191E+02 -0.10423823900E+04  0.10433094824E+04  0.00000000000E+00 0. -1.
        -13    1    4    4    0    0 -0.24964630487E+02  0.11277966964E+02 -0.86379843699E+02  0.90619549280E+02  0.00000000000E+00 0.  1.
         13    1    4    4    0    0  0.69522827734E+02  0.13663309600E+02 -0.88621007394E+02  0.11346273642E+03  0.00000000000E+00 0. -1.
         21    1    1    2  503  502  0.34400389781E+02 -0.19847004652E+02 -0.27290118706E+02  0.48187560529E+02  0.00000000000E+00 0.  1.
          1    1    1    2  501    0 -0.45868838112E+02 -0.36575623292E+01 -0.16722558615E+03  0.17344083929E+03  0.00000000000E+00 0. -1.
<scales pt_clust_5="13000.00000" pt_clust_6="13000.00000" pt_clust_7="13000.00000" pt_clust_8="13000.00000" pt_clust_9="39.71512" pt_clust_10="40.90413"></scales>
<clustering>
<clus scale="   39.715">  1  9  2 -1</clus>
<clus scale="   40.904">  1 10  2 -1</clus>
<clus scale="   80.478">  5  6 -1 -1</clus>
<clus scale="   87.547">  2  5  1 -1</clus>
<clus scale="   91.743">  7  8 -1 -1</clus>
<clus scale="   39.715">  1  5  2 -1</clus>
</clustering>
</event>
<event>
10    4  0.3043429E-005  0.1245869E+03  0.7546771E-02  0.1239900E+00
         -1   -1    0    0    0  501 -0.00000000000E+00  0.00000000000E+00  0.55610976155E+03  0.55610976155E+03  0.00000000000E+00 0.  1.
         21   -1    0    0  503  502  0.00000000000E+00 -0.00000000000E+00 -0.33168785522E+03  0.33168785522E+03  0.00000000000E+00 0. -1.
         24    2    1    2    0    0  0.65208683145E+02  0.47674041441E+02  0.43108709982E+03  0.44569987290E+03  0.79292512203E+02 0.  0.
         23    2    1    2    0    0 -0.13413122774E+03 -0.52759383348E+02 -0.21776862338E+03  0.27734328696E+03  0.93388364952E+02 0.  0.
        -13    1    3    3    0    0  0.70194991288E+02  0.53697285515E+02  0.26341681485E+03  0.27784735669E+03  0.00000000000E+00 0.  1.
         14    1    3    3    0    0 -0.49863081421E+01 -0.60232440737E+01  0.16767028497E+03  0.16785251621E+03  0.00000000000E+00 0. -1.
        -11    1    4    4    0    0 -0.66922272258E+02 -0.63110093231E+02 -0.73119128381E+02  0.11750694161E+03  0.00000000000E+00 0.  1.
         11    1    4    4    0    0 -0.67208955486E+02  0.10350709883E+02 -0.14464949500E+03  0.15983634535E+03  0.00000000000E+00 0. -1.
         21    1    1    2  503  501 -0.34010388079E+02  0.23522781974E+02 -0.31351622769E+02  0.51893660685E+02  0.00000000000E+00 0. -1.
         -2    1    1    2    0  502  0.10293293268E+03 -0.18437440067E+02  0.42455052663E+02  0.11286079622E+03  0.00000000000E+00 0.  1.
<scales pt_clust_5="13000.00000" pt_clust_6="13000.00000" pt_clust_7="13000.00000" pt_clust_8="13000.00000" pt_clust_9="41.35248" pt_clust_10="100.02665"></scales>
<clustering>
<clus scale="   41.352">  2  9  1 -1</clus>
<clus scale="   79.293">  5  6 -1 -1</clus>
<clus scale="   93.388">  7  8 -1 -1</clus>
<clus scale="  100.027">  2 10  1 -1</clus>
<clus scale="  114.402">  1  5  2 -1</clus>
<clus scale="   41.352">  2  5  1 -1</clus>
</clustering>
</event>
<event>
10    4  0.3043429E-005  0.1587301E+03  0.7546771E-02  0.1217821E+00
         21   -1    0    0  501  502  0.00000000000E+00  0.00000000000E+00  0.69501375181E+02  0.69501375181E+02  0.00000000000E+00 0. -1.
          2   -1    0    0  503    0 -0.00000000000E+00 -0.00000000000E+00 -0.13627222013E+04  0.13627222013E+04  0.00000000000E+00 0. -1.
         24    2    1    2    0    0 -0.22011517707E+02 -0.26515683773E+02 -0.97542141247E+03  0.97929882262E+03  0.79947881039E+02 0.  0.
         23    2    1    2    0    0  0.42917914139E+02 -0.99202396714E+02 -0.13511281216E+03  0.19570665661E+03  0.91447036939E+02 0.  0.
        -11    1    3    3    0    0 -0.41134129432E+01  0.21814397772E+02 -0.10341551971E+03  0.10577125239E+03  0.00000000000E+00 0.  1.
         12    1    3    3    0    0 -0.17898104764E+02 -0.48330081545E+02 -0.87200589277E+03  0.87352757023E+03  0.00000000000E+00 0. -1.
        -11    1    4    4    0    0  0.73588693960E+01 -0.98010177474E+02 -0.67276396151E+02  0.11910609273E+03  0.00000000000E+00 0. -1.
         11    1    4    4    0    0  0.35559044743E+02 -0.11922192397E+01 -0.67836416004E+02  0.76600563876E+02  0.00000000000E+00 0.  1.
         21    1    1    2  503  502 -0.49351338370E+01 -0.26179799576E+02 -0.15729503128E+02  0.30937917196E+02  0.00000000000E+00 0.  1.
          1    1    1    2  501    0 -0.15971262594E+02  0.15189788006E+03 -0.16695709841E+03  0.22628018010E+03  0.00000000000E+00 0. -1.
<scales pt_clust_5="13000.00000" pt_clust_6="13000.00000" pt_clust_7="13000.00000" pt_clust_8="13000.00000" pt_clust_9="26.64090" pt_clust_10="129.74084"></scales>
<clustering>
<clus scale="   26.641">  1  9  2 -1</clus>
<clus scale="   79.948">  5  6 -1 -1</clus>
<clus scale="   87.351">  2  5  1 -1</clus>
<clus scale="   91.447">  7  8 -1 -1</clus>
<clus scale="  129.741">  1 10  2 -1</clus>
<clus scale="   26.641">  1  5  2 -1</clus>
</clustering>
</event>
<event>
10    4  0.3043429E-005  0.1019900E+03  0.7546771E-02  0.1281014E+00
         21   -1    0    0  501  502  0.00000000000E+00  0.00000000000E+00  0.45948264182E+02  0.45948264182E+02  0.00000000000E+00 0.  1.
          2   -1    0    0  503    0 -0.00000000000E+00 -0.00000000000E+00 -0.59424333406E+03  0.59424333406E+03  0.00000000000E+00 0. -1.
         23    2    1    2    0    0 -0.15880363184E+02 -0.34019992660E+02 -0.43916791952E+03  0.45066176493E+03  0.93904307670E+02 0.  0.
         24    2    1    2    0    0  0.42135209834E+02  0.37883999175E+02 -0.42266975599E+02  0.10981244141E+03  0.84033932195E+02 0.  0.
        -13    1    4    4    0    0  0.58078485555E+02  0.52500531439E+02 -0.25154982405E+02  0.82232532647E+02  0.00000000000E+00 0.  1.
         14    1    4    4    0    0 -0.15943275721E+02 -0.14616532264E+02 -0.17111993194E+02  0.27579908760E+02  0.00000000000E+00 0. -1.
        -13    1    3    3    0    0 -0.52894378896E+02 -0.34733857441E+02 -0.30397309506E+03  0.31048977228E+03  0.00000000000E+00 0. -1.
         13    1    3    3    0    0  0.37014015713E+02  0.71386478131E+00 -0.13519482446E+03  0.14017199265E+03  0.00000000000E+00 0.  1.
         21    1    1    2  503  502 -0.15499170930E+02  0.15044232615E+02 -0.31241745527E+02  0.37981573138E+02  0.00000000000E+00 0. -1.
          1    1    1    2  501    0 -0.10755675720E+02 -0.18908239130E+02 -0.35618429237E+02  0.41735818771E+02  0.00000000000E+00 0. -1.
<scales pt_clust_5="13000.00000" pt_clust_6="13000.00000" pt_clust_7="13000.00000" pt_clust_8="13000.00000" pt_clust_9="21.59984" pt_clust_10="21.41717"></scales>
<clustering>
<clus scale="   21.600">  1  9  2 -1</clus>
<clus scale="   21.417">  1 10  2 -1</clus>
<clus scale="   84.034">  5  6 -1 -1</clus>
<clus scale="   92.982">  1  5  2 -1</clus>
<clus scale="   93.904">  7  8 -1 -1</clus>
<clus scale="   21.600">  1  5  2 -1</clus>
</clustering>
</event>
<event>
10    4  0.3043429E-005  0.1986404E+03  0.7546771E-02  0.1152342E+00
         21   -1    0    0  503  502  0.00000000000E+00  0.00000000000E+00  0.62480816018E+03  0.62480816018E+03  0.00000000000E+00 0. -1.
          4   -1    0    0  502    0 -0.00000000000E+00 -0.00000000000E+00 -0.19335790140E+03  0.19335790140E+03  0.00000000000E+00 0. -1.
         23    2    1    2    0    0  0.14165991544E+03 -0.66351286350E+02 -0.14900259191E+02  0.18037408559E+03  0.88559404843E+02 0.  0.
         24    2    1    2    0    0 -0.22713864566E+03  0.15800943456E+03  0.31663547456E+03  0.42666773260E+03  0.72307568934E+02 0.  0.
        -13    1    4    4    0    0 -0.72908612094E+02  0.19470894100E+02  0.57880732151E+02  0.95104997707E+02  0.00000000000E+00 0.  1.
         14    1    4    4    0    0 -0.15423003357E+03  0.13853854046E+03  0.25875474241E+03  0.33156273489E+03  0.00000000000E+00 0. -1.
        -13    1    3    3    0    0  0.84466056513E+02 -0.49076182839E+02  0.33720719357E+02  0.10334444029E+03  0.00000000000E+00 0.  1.
         13    1    3    3    0    0  0.57193858925E+02 -0.17275103512E+02 -0.48620978548E+02  0.77029645300E+02  0.00000000000E+00 0. -1.
         21    1    1    2  503  501  0.21658672480E+02 -0.14965319803E+01  0.91804601504E+02  0.94336750839E+02  0.00000000000E+00 0. -1.
          3    1    1    2  501    0  0.63820057743E+02 -0.90161616233E+02  0.37910441903E+02  0.11678749256E+03  0.00000000000E+00 0. -1.
<scales pt_clust_5="13000.00000" pt_clust_6="13000.00000" pt_clust_7="13000.00000" pt_clust_8="13000.00000" pt_clust_9="21.71031" pt_clust_10="112.48776"></scales>
<clustering>
<clus scale="   21.710">  1  9  2 -1</clus>
<clus scale="   72.308">  5  6 -1 -1</clus>
<clus scale="   88.559">  7  8 -1 -1</clus>
<clus scale="  112.488">  1 10  2 -1</clus>
<clus scale="  191.947">  1  5  2 -1</clus>
<clus scale="   21.710">  1  5  2 -1</clus>
</clustering>
</event>
<event>
10    4  0.3043429E-005  0.2351881E+03  0.7546771E-02  0.1159418E+00
          2   -1    0    0  502    0 -0.00000000000E+00  0.00000000000E+00  0.17405807997E+04  0.17405807997E+04  0.00000000000E+00 0. -1.
         21   -1    0    0  503  502  0.00000000000E+00 -0.00000000000E+00 -0.17211546500E+03  0.17211546500E+03  0.00000000000E+00 0. -1.
         23    2    1    2    0    0 -0.34724270917E+00 -0.32619185288E+02  0.12520887926E+03  0.15804457830E+03  0.90756230965E+02 0.  0.
         24    2    1    2    0    0  0.78507519966E+02 -0.16808873090E+03  0.12219900332E+04  0.12394534355E+04  0.92563088620E+02 0.  0.
        -11    1    4    4    0    0 -0.19496140323E+02 -0.49627099752E+02  0.28810260433E+03  0.29299498143E+03  0.00000000000E+00 0.  1.
         12    1    4    4    0    0  0.98003660289E+02 -0.11846163114E+03  0.93388742883E+03  0.94645845403E+03  0.00000000000E+00 0. -1.
        -13    1    3    3    0    0 -0.21434472386E+02  0.15693445015E+02  0.91961031321E+02  0.95721220764E+02  0.00000000000E+00 0.  1.
         13    1    3    3    0    0  0.21087229677E+02 -0.48312630303E+02  0.33247847934E+02  0.62323357535E+02  0.00000000000E+00 0. -1.
         21    1    1    2  503  501  0.16125870342E+02 -0.15618547669E+02 -0.10788441912E+03  0.11019542011E+03  0.00000000000E+00 0. -1.
          1    1    1    2  501    0 -0.94286147599E+02  0.21632646385E+03  0.32915084142E+03  0.40500283085E+03  0.00000000000E+00 0. -1.
<scales pt_clust_5="13000.00000" pt_clust_6="13000.00000" pt_clust_7="13000.00000" pt_clust_8="13000.00000" pt_clust_9="22.44956" pt_clust_10="216.20716"></scales>
<clustering>
<clus scale="   22.450">  2  9  1 -1</clus>
<clus scale="   90.756">  7  8 -1 -1</clus>
<clus scale="   92.563">  5  6 -1 -1</clus>
<clus scale="   97.966">  1  7  2 -1</clus>
<clus scale="  216.207">  2 10  1 -1</clus>
<clus scale="   22.450">  2  5  1 -1</clus>
</clustering>
</event>
<event>
10    4  0.3043429E-005  0.3163471E+03  0.7546771E-02  0.1114163E+00
          2   -1    0    0  503    0 -0.00000000000E+00  0.00000000000E+00  0.48573508901E+03  0.48573508901E+03  0.00000000000E+00 0. -1.
         21   -1    0    0  501  502  0.00000000000E+00 -0.00000000000E+00 -0.35119010830E+03  0.35119010830E+03  0.00000000000E+00 0.  1.
         23    2    1    2    0    0 -0.31039207532E+01  0.71511373813E+02  0.13798760026E+02  0.11700203007E+03  0.91518076653E+02 0.  0.
         24    2    1    2    0    0  0.11388647397E+03 -0.33592054054E+03  0.96675418972E+02  0.37705866482E+03  0.83751785480E+02 0.  0.
        -13    1    4    4    0    0  0.10301968339E+03 -0.25360923186E+03  0.10593543289E+03  0.29351833604E+03  0.00000000000E+00 0.  1.
         14    1    4    4    0    0  0.10866790577E+02 -0.82311308686E+02 -0.92600139204E+01  0.83540328781E+02  0.00000000000E+00 0. -1.
        -13    1    3    3    0    0  0.35652087440E+02  0.29562452678E+02  0.32866965982E+02  0.56791261652E+02  0.00000000000E+00 0.  1.
         13    1    3    3    0    0 -0.38756008193E+02  0.41948921135E+02 -0.19068205956E+02  0.60210768421E+02  0.00000000000E+00 0. -1.
         21    1    1    2  503  502  0.48160646606E+02  0.42410645939E+02 -0.17908450214E+02  0.66624495192E+02  0.00000000000E+00 0. -1.
          1    1    1    2  501    0 -0.15894319982E+03  0.22199852079E+03  0.41979251926E+02  0.27624000723E+03  0.00000000000E+00 0. -1.
<scales pt_clust_5="13000.00000" pt_clust_6="13000.00000" pt_clust_7="13000.00000" pt_clust_8="13000.00000" pt_clust_9="64.17251" pt_clust_10="305.05920"></scales>
<clustering>
<clus scale="   64.173">  2  9  1 -1</clus>
<clus scale="   83.752">  5  6 -1 -1</clus>
<clus scale="   91.518">  7  8 -1 -1</clus>
<clus scale="  120.736">  1  7  2 -1</clus>
<clus scale="  305.059">  2 10  1 -1</clus>
<clus scale="   64.173">  2  5  1 -1</clus>
</clustering>
</event>
<event>
10    4  0.3043429E-005  0.8916359E+02  0.7546771E-02  0.1310500E+00
         21   -1    0    0  503  502  0.00000000000E+00  0.00000000000E+00  0.90950226071E+02  0.90950226071E+02  0.00000000000E+00 0. -1.
         -1   -1    0    0    0  501 -0.00000000000E+00 -0.00000000000E+00 -0.83400499225E+03  0.83400499225E+03  0.00000000000E+00 0.  1.
         24    2    1    2    0    0  0.26044612291E+02  0.12137152720E+02 -0.40998145363E+03  0.41835635535E+03  0.78176821609E+02 0.  0.
         23    2    1    2    0    0  0.62229801133E+01  0.38512993742E+02 -0.13176243936E+03  0.16267851424E+03  0.87068837139E+02 0.  0.
        -13    1    3    3    0    0  0.19507983676E+02 -0.17957229983E+02 -0.46154709977E+02  0.53228571171E+02  0.00000000000E+00 0.  1.
         14    1    3    3    0    0  0.65366286144E+01  0.30094382702E+02 -0.36382674366E+03  0.36512778418E+03  0.00000000000E+00 0. -1.
        -11    1    4    4    0    0 -0.40147819340E+02  0.17854399897E+02 -0.51350899481E+02  0.67583591729E+02  0.00000000000E+00 0.  1.
         11    1    4    4    0    0  0.46370799454E+02  0.20658593845E+02 -0.80411539881E+02  0.95094922513E+02  0.00000000000E+00 0. -1.
         21    1    1    2  503  501 -0.26897420926E+01 -0.21625805122E+02  0.68017119071E+02  0.71422956019E+02  0.00000000000E+00 0. -1.
         -2    1    1    2    0  502 -0.29577850312E+02 -0.29024341340E+02 -0.26932799225E+03  0.27249739271E+03  0.00000000000E+00 0.  1.
<scales pt_clust_5="13000.00000" pt_clust_6="13000.00000" pt_clust_7="13000.00000" pt_clust_8="13000.00000" pt_clust_9="21.79243" pt_clust_10="42.72576"></scales>
<clustering>
<clus scale="   21.792">  1  9  2 -1</clus>
<clus scale="   42.726">  1 10  2 -1</clus>
<clus scale="   78.177">  5  6 -1 -1</clus>
<clus scale="   80.503">  2  5  1 -1</clus>
<clus scale="   87.069">  7  8 -1 -1</clus>
<clus scale="   21.792">  1  5  2 -1</clus>
</clustering>
</event>
<event>
10    4  0.3043429E-005  0.2002787E+03  0.7546771E-02  0.1185336E+00
          2   -1    0    0  503    0 -0.00000000000E+00  0.00000000000E+00  0.16191138515E+04  0.16191138515E+04  0.00000000000E+00 0. -1.
         21   -1    0    0  501  502  0.00000000000E+00 -0.00000000000E+00 -0.15091227574E+03  0.15091227574E+03  0.00000000000E+00 0. -1.
         24    2    1    2    0    0 -0.30863907267E+02  0.16026916585E+02  0.81751892095E+03  0.82226636455E+03  0.81088503105E+02 0.  0.
         23    2    1    2    0    0 -0.13298130010E+03 -0.89683043322E+02  0.64197948780E+03  0.66771408227E+03  0.89316059428E+02 0.  0.
        -13    1    3    3    0    0  0.20594718949E-01  0.22418687916E+02  0.59370668885E+02  0.63462385047E+02  0.00000000000E+00 0.  1.
         14    1    3    3    0    0 -0.30884501986E+02 -0.63917713311E+01  0.75814825207E+03  0.75880397951E+03  0.00000000000E+00 0. -1.
        -11    1    4    4    0    0 -0.11465418998E+03 -0.10504480294E+03  0.59519172111E+03  0.61516922776E+03  0.00000000000E+00 0. -1.
         11    1    4    4    0    0 -0.18327110114E+02  0.15361759617E+02  0.46787766686E+02  0.52544854506E+02  0.00000000000E+00 0.  1.
         21    1    1    2  503  502  0.10923922240E+02 -0.69363948737E+02 -0.35470020623E+01  0.70308396975E+02  0.00000000000E+00 0. -1.
          1    1    1    2  501    0  0.15292128512E+03  0.14302007547E+03  0.12250169088E+02  0.20973728346E+03  0.00000000000E+00 0. -1.
<scales pt_clust_5="13000.00000" pt_clust_6="13000.00000" pt_clust_7="13000.00000" pt_clust_8="13000.00000" pt_clust_9="70.21887" pt_clust_10="179.26019"></scales>
<clustering>
<clus scale="   70.219">  2  9  1 -1</clus>
<clus scale="   81.089">  5  6 -1 -1</clus>
<clus scale="   87.901">  1  5  2 -1</clus>
<clus scale="   89.316">  7  8 -1 -1</clus>
<clus scale="  179.260">  2 10  1 -1</clus>
<clus scale="   70.219">  2  5  1 -1</clus>
</clustering>
</event>
<event>
10    4  0.3043429E-005  0.1435400E+03  0.7546771E-02  0.1216456E+00
         21   -1    0    0  501  502  0.00000000000E+00  0.00000000000E+00  0.42559596209E+03  0.42559596209E+03  0.00000000000E+00 0.  1.
         -1   -1    0    0    0  501 -0.00000000000E+00 -0.00000000000E+00 -0.97676841584E+02  0.97676841584E+02  0.00000000000E+00 0.  1.
         23    2    1    2    0    0 -0.78021923121E+02  0.21016741763E+02  0.10095952722E+03  0.15802655257E+03  0.90831939650E+02 0.  0.
         24    2    1    2    0    0 -0.35563779277E+02 -0.10376089577E+03  0.10517863781E+03  0.17195906605E+03  0.80475267362E+02 0.  0.
        -11    1    4    4    0    0 -0.36713927098E+02 -0.10222655998E+03  0.55012216812E+02  0.12175601014E+03  0.00000000000E+00 0.  1.
         12    1    4    4    0    0  0.11501478215E+01 -0.15343357938E+01  0.50166420999E+02  0.50203055905E+02  0.00000000000E+00 0. -1.
        -13    1    3    3    0    0 -0.28892102980E+02  0.23961979529E+02  0.10211472336E+03  0.10879497601E+03  0.00000000000E+00 0.  1.
         13    1    3    3    0    0 -0.49129820141E+02 -0.29452377654E+01 -0.11551961484E+01  0.49231576561E+02  0.00000000000E+00 0. -1.
         21    1    1    2  503  502  0.16768549957E+02  0.32415649211E+02  0.52831058161E+02  0.64211208429E+02  0.00000000000E+00 0.  1.
         -2    1    1    2    0  503  0.96817152441E+02  0.50328504795E+02  0.68949897322E+02  0.12907597663E+03  0.00000000000E+00 0.  1.
<scales pt_clust_5="13000.00000" pt_clust_6="13000.00000" pt_clust_7="13000.00000" pt_clust_8="13000.00000" pt_clust_9="30.49855" pt_clust_10="130.03274"></scales>
<clustering>
<clus scale="   30.499">  9 10 -1 -1</clus>
<clus scale="   80.475">  5  6 -1 -1</clus>
<clus scale="   90.832">  7  8 -1 -1</clus>
<clus scale="  121.571">  2  7  1 -1</clus>
<clus scale="  130.033">  1  9  2 -1</clus>
<clus scale="  130.033">  1  5  2 -1</clus>
</clustering>
</event>
<event>
10    4  0.3043429E-005  0.9353075E+02  0.7546771E-02  0.1301096E+00
          2   -1    0    0  503    0 -0.00000000000E+00  0.00000000000E+00  0.70868238966E+03  0.70868238966E+03  0.00000000000E+00 0. -1.
         21   -1    0    0  501  502  0.00000000000E+00 -0.00000000000E+00 -0.60352484895E+02  0.60352484895E+02  0.00000000000E+00 0.  1.
         24    2    1    2    0    0  0.50852604058E+01 -0.99543665857E+01  0.10906380430E+03  0.13607803826E+03  0.80606264026E+02 0.  0.
         23    2    1    2    0    0 -0.67418370502E+02 -0.97446628511E+01  0.53947950659E+02  0.12624328508E+03  0.91579421883E+02 0.  0.
        -11    1    3    3    0    0 -0.24376502636E+02  0.43736189004E+01  0.98635747355E+02  0.10169736024E+03  0.00000000000E+00 0.  1.
         12    1    3    3    0    0  0.29461763042E+02 -0.14327985486E+02  0.10428056949E+02  0.34380678023E+02  0.00000000000E+00 0. -1.
        -13    1    4    4    0    0 -0.29391715748E+02 -0.23523429579E+02 -0.19499010464E+02  0.42396180286E+02  0.00000000000E+00 0.  1.
         13    1    4    4    0    0 -0.38026654754E+02  0.13778766728E+02  0.73446961123E+02  0.83847104795E+02  0.00000000000E+00 0. -1.
         21    1    1    2  503  502 -0.34646436843E+02  0.11981113110E+02  0.59206078869E+02  0.69636789359E+02  0.00000000000E+00 0. -1.
          1    1    1    2  501    0  0.96979546939E+02  0.77179163271E+01  0.42611207094E+03  0.43707676186E+03  0.00000000000E+00 0. -1.
<scales pt_clust_5="13000.00000" pt_clust_6="13000.00000" pt_clust_7="13000.00000" pt_clust_8="13000.00000" pt_clust_9="36.65955" pt_clust_10="75.43109"></scales>
<clustering>
<clus scale="   36.660">  1  9  2 -1</clus>
<clus scale="   75.431">  2 10  1 -1</clus>
<clus scale="   80.606">  5  6 -1 -1</clus>
<clus scale="   82.817">  1  5  2 -1</clus>
<clus scale="   91.579">  7  8 -1 -1</clus>
<clus scale="   75.431">  2  5  1 -1</clus>
</clustering>
</event>
<event>
10    4  0.3043429E-005  0.1310908E+03  0.7546771E-02  0.1228881E+00
         21   -1    0    0  503  502  0.00000000000E+00  0.00000000000E+00  0.20466816245E+03  0.20466816245E+03  0.00000000000E+00 0.  1.
          2   -1    0    0  502    0 -0.00000000000E+00 -0.00000000000E+00 -0.52945143144E+03  0.52945143144E+03  0.00000000000E+00 0. -1.
         24    2    1    2    0    0  0.96943757581E+02  0.32955659961E+02 -0.31341708912E+03  0.33911422966E+03  0.79271819394E+02 0.  0.
         23    2    1    2    0    0 -0.37132193178E+02 -0.67626783350E+02 -0.12379844744E+02  0.12009287370E+03  0.91196799075E+02 0.  0.
        -11    1    3    3    0    0  0.36836758822E+02 -0.22927538162E+02 -0.15141332938E+03  0.15750750814E+03  0.00000000000E+00 0.  1.
         12    1    3    3    0    0  0.60106998760E+02  0.55883198123E+02 -0.16200375974E+03  0.18160672153E+03  0.00000000000E+00 0. -1.
        -13    1    4    4    0    0 -0.22979336096E+02  0.15683390912E+02 -0.21413251498E+02  0.35107634179E+02  0.00000000000E+00 0.  1.
         13    1    4    4    0    0 -0.14152857082E+02 -0.83310174262E+02  0.90334067539E+01  0.84985239523E+02  0.00000000000E+00 0. -1.
         21    1    1    2  503  501  0.88998344416E+01  0.33190345203E+02  0.12690921056E+03  0.13147910021E+03  0.00000000000E+00 0.  1.
          1    1    1    2  501    0 -0.68711398845E+02  0.14807781859E+01 -0.12589554568E+03  0.14343339031E+03  0.00000000000E+00 0. -1.
<scales pt_clust_5="13000.00000" pt_clust_6="13000.00000" pt_clust_7="13000.00000" pt_clust_8="13000.00000" pt_clust_9="34.36286" pt_clust_10="67.88752"></scales>
<clustering>
<clus scale="   34.363">  1  9  2 -1</clus>
<clus scale="   67.888">  1 10  2 -1</clus>
<clus scale="   79.272">  5  6 -1 -1</clus>
<clus scale="   91.197">  7  8 -1 -1</clus>
<clus scale="  123.093">  2  5  1 -1</clus>
<clus scale="   34.363">  1  5  2 -1</clus>
</clustering>
</event>
<event>
10    4  0.3043429E-005  0.5635022E+03  0.7546771E-02  0.1062075E+00
         21   -1    0    0  503  502  0.00000000000E+00  0.00000000000E+00  0.38310927333E+03  0.38310927333E+03  0.00000000000E+00 0. -1.
          2   -1    0    0  502    0 -0.00000000000E+00 -0.00000000000E+00 -0.16558561139E+04  0.16558561139E+04  0.00000000000E+00 0. -1.
         24    2    1    2    0    0 -0.19767650883E+02  0.11261574742E+02 -0.70914659567E+02  0.11080257857E+03  0.82041083538E+02 0.  0.
         23    2    1    2    0    0  0.48071031940E+03  0.17574257190E+03 -0.77743578697E+03  0.93538389730E+03  0.92567649408E+02 0.  0.
        -13    1    3    3    0    0 -0.28362639804E+02  0.24537283272E+01  0.90686036832E+01  0.29878080463E+02  0.00000000000E+00 0.  1.
         14    1    3    3    0    0  0.85949889215E+01  0.88078464146E+01 -0.79983263250E+02  0.80924498102E+02  0.00000000000E+00 0. -1.
        -11    1    4    4    0    0  0.37104689448E+03  0.17464365575E+03 -0.62746747860E+03  0.74959431768E+03  0.00000000000E+00 0. -1.
         11    1    4    4    0    0  0.10966342492E+03  0.10989161549E+01 -0.14996830837E+03  0.18578957962E+03  0.00000000000E+00 0.  1.
         21    1    1    2  503  501  0.18892547506E+03 -0.51065878842E+02  0.15532929709E+02  0.19632073506E+03  0.00000000000E+00 0. -1.
          1    1    1    2  501    0 -0.64986814357E+03 -0.13593826780E+03 -0.43992932371E+03  0.79645817627E+03  0.00000000000E+00 0. -1.
<scales pt_clust_5="13000.00000" pt_clust_6="13000.00000" pt_clust_7="13000.00000" pt_clust_8="13000.00000" pt_clust_9="194.43362" pt_clust_10="555.84706"></scales>
<clustering>
<clus scale="   82.041">  5  6 -1 -1</clus>
<clus scale="   85.137">  2  5  1 -1</clus>
<clus scale="   92.568">  7  8 -1 -1</clus>
<clus scale="  194.434">  1  9  2 -1</clus>
<clus scale="  555.847">  1 10  2 -1</clus>
<clus scale="  194.434">  1  5  2 -1</clus>
</clustering>
</event>
<event>
10    4  0.3043429E-005  0.2519729E+03  0.7546771E-02  0.1154283E+00
         21   -1    0    0  501  502  0.00000000000E+00  0.00000000000E+00  0.19647978446E+03  0.19647978446E+03  0.00000000000E+00 0.  1.
          2   -1    0    0  503    0 -0.00000000000E+00 -0.00000000000E+00 -0.84945729379E+03  0.84945729379E+03  0.00000000000E+00 0. -1.
         23    2    1    2    0    0  0.93313092307E+00 -0.63760503846E+01 -0.18324753237E+03  0.20355697341E+03  0.88398294960E+02 0.  0.
         24    2    1    2    0    0 -0.15603782202E+03 -0.17752028117E+03  0.41041002947E+02  0.25309486179E+03  0.80693203022E+02 0.  0.
        -11    1    4    4    0    0 -0.15983105937E+03 -0.16337292990E+03  0.52490761236E+02  0.23450364982E+03  0.00000000000E+00 0.  1.
         12    1    4    4    0    0  0.37932373528E+01 -0.14147351274E+02 -0.11449758289E+02  0.18591211971E+02  0.00000000000E+00 0. -1.
        -11    1    3    3    0    0 -0.11276910545E+02  0.31152545609E+02 -0.14450231207E+03  0.14825170489E+03  0.00000000000E+00 0. -1.
         11    1    3    3    0    0  0.12210041468E+02 -0.37528595994E+02 -0.38745220306E+02  0.55305268524E+02  0.00000000000E+00 0.  1.
         21    1    1    2  503  502  0.24634394169E+02 -0.32497357056E+02 -0.60524148585E+02  0.72980162740E+02  0.00000000000E+00 0.  1.
          1    1    1    2  501    0  0.13047029692E+03  0.21639368861E+03 -0.45024683131E+03  0.51630508031E+03  0.00000000000E+00 0. -1.
<scales pt_clust_5="13000.00000" pt_clust_6="13000.00000" pt_clust_7="13000.00000" pt_clust_8="13000.00000" pt_clust_9="40.77906" pt_clust_10="238.70273"></scales>
<clustering>
<clus scale="   40.779">  2  9  1 -1</clus>
<clus scale="   80.693">  5  6 -1 -1</clus>
<clus scale="   88.398">  7  8 -1 -1</clus>
<clus scale="   89.839">  2  7  1 -1</clus>
<clus scale="  238.703">  1 10  2 -1</clus>
<clus scale="  238.703">  1  5  2 -1</clus>
</clustering>
</event>
<event>
10    4  0.3043429E-005  0.1069446E+03  0.7546771E-02  0.1270542E+00
          2   -1    0    0  503    0 -0.00000000000E+00  0.00000000000E+00  0.50559749294E+03  0.50559749294E+03  0.00000000000E+00 0. -1.
         21   -1    0    0  501  502  0.00000000000E+00 -0.00000000000E+00 -0.16266387874E+03  0.16266387874E+03  0.00000000000E+00 0. -1.
         24    2    1    2    0    0  0.19393170262E+02 -0.21330344134E+02 -0.96640850689E+02  0.12939124411E+03  0.81065167594E+02 0.  0.
         23    2    1    2    0    0  0.43919917856E+02 -0.26489438200E+02  0.10228708852E+03  0.14089299128E+03  0.82204239512E+02 0.  0.
        -13    1    3    3    0    0 -0.24765774181E+02 -0.13000056887E+02 -0.65686441105E+01  0.28731378932E+02  0.00000000000E+00 0.  1.
         14    1    3    3    0    0  0.44158944444E+02 -0.83302872470E+01 -0.90072206578E+02  0.10065986518E+03  0.00000000000E+00 0. -1.
        -11    1    4    4    0    0 -0.22530330668E+02  0.51656244290E+01  0.20950732856E+02  0.31196677435E+02  0.00000000000E+00 0.  1.
         11    1    4    4    0    0  0.66450248524E+02 -0.31655062629E+02  0.81336355659E+02  0.10969631384E+03  0.00000000000E+00 0. -1.
         21    1    1    2  503  502  0.48762843706E+01 -0.36942834127E+02 -0.61093891948E+01  0.37760770370E+02  0.00000000000E+00 0.  1.
          1    1    1    2  501    0 -0.68189372489E+02  0.84762616461E+02  0.34339676557E+03  0.36021636592E+03  0.00000000000E+00 0. -1.
<scales pt_clust_5="13000.00000" pt_clust_6="13000.00000" pt_clust_7="13000.00000" pt_clust_8="13000.00000" pt_clust_9="37.26327" pt_clust_10="68.40772"></scales>
<clustering>
<clus scale="   37.263">  2  9  1 -1</clus>
<clus scale="   81.065">  5  6 -1 -1</clus>
<clus scale="   82.204">  7  8 -1 -1</clus>
<clus scale="   98.568">  1  5  2 -1</clus>
<clus scale="   68.408">  2 10  1 -1</clus>
<clus scale="   37.263">  2  5  1 -1</clus>
</clustering>
</event>
<event>
10    4  0.3043429E-005  0.1000031E+03  0.7546771E-02  0.1286462E+00
         21   -1    0    0  503  502  0.00000000000E+00  0.00000000000E+00  0.55215384826E+02  0.55215384826E+02  0.00000000000E+00 0.  1.
          2   -1    0    0  502    0 -0.00000000000E+00 -0.00000000000E+00 -0.50879123981E+03  0.50879123981E+03  0.00000000000E+00 0. -1.
         23    2    1    2    0    0  0.65356258414E+02 -0.13613461906E+02 -0.18261208621E+03  0.21513308480E+03  0.92077702437E+02 0.  0.
         24    2    1    2    0    0 -0.78259127652E+01  0.54834785694E+01 -0.74080137847E+02  0.10942343379E+03  0.79964414527E+02 0.  0.
        -11    1    4    4    0    0 -0.30994611393E+02 -0.13703273923E+02 -0.52318864610E+01  0.34290206876E+02  0.00000000000E+00 0.  1.
         12    1    4    4    0    0  0.23168698628E+02  0.19186752492E+02 -0.68848251386E+02  0.75133226912E+02  0.00000000000E+00 0. -1.
        -11    1    3    3    0    0 -0.10025136005E+02 -0.27451428260E+02 -0.20141765465E+02  0.35493308968E+02  0.00000000000E+00 0. -1.
         11    1    3    3    0    0  0.75381394420E+02  0.13837966354E+02 -0.16247032074E+03  0.17963977583E+03  0.00000000000E+00 0.  1.
         21    1    1    2  503  501  0.20579999349E+02  0.16265271821E+02  0.13101895842E+01  0.26264273022E+02  0.00000000000E+00 0.  1.
          1    1    1    2  501    0 -0.78110344999E+02 -0.81352884845E+01 -0.19819382051E+03  0.21318583303E+03  0.00000000000E+00 0. -1.
<scales pt_clust_5="13000.00000" pt_clust_6="13000.00000" pt_clust_7="13000.00000" pt_clust_8="13000.00000" pt_clust_9="26.23157" pt_clust_10="74.56763"></scales>
<clustering>
<clus scale="   26.232">  1  9  2 -1</clus>
<clus scale="   74.568">  1 10  2 -1</clus>
<clus scale="   79.964">  5  6 -1 -1</clus>
<clus scale="   88.975">  1  5  2 -1</clus>
<clus scale="   92.078">  7  8 -1 -1</clus>
<clus scale="   26.232">  1  5  2 -1</clus>
</clustering>
</event>
<event>
10    4  0.3043429E-005  0.9718326E+02  0.7546771E-02  0.1292575E+00
         21   -1    0    0  501  502  0.00000000000E+00  0.00000000000E+00  0.38837955309E+03  0.38837955309E+03  0.00000000000E+00 0.  1.
          4   -1    0    0  503    0 -0.00000000000E+00 -0.00000000000E+00 -0.31672666497E+03  0.31672666497E+03  0.00000000000E+00 0. -1.
         24    2    1    2    0    0  0.33693317671E+01  0.51672288577E+02 -0.27113772057E+03  0.28736750326E+03  0.79893933496E+02 0.  0.
         23    2    1    2    0    0 -0.36488173487E+02 -0.69164365862E+02  0.31283388047E+03  0.33516247341E+03  0.91398853946E+02 0.  0.
        -11    1    3    3    0    0 -0.77613743994E+01  0.25247767716E+02 -0.16550329212E+02  0.31170532627E+02  0.00000000000E+00 0.  1.
         12    1    3    3    0    0  0.11130706167E+02  0.26424520861E+02 -0.25458739136E+03  0.25619697063E+03  0.00000000000E+00 0. -1.
        -13    1    4    4    0    0  0.12499881285E+01  0.21221889011E+02  0.74846569904E+02  0.77807069537E+02  0.00000000000E+00 0. -1.
         13    1    4    4    0    0 -0.37738161615E+02 -0.90386254873E+02  0.23798731057E+03  0.25735540387E+03  0.00000000000E+00 0.  1.
         21    1    1    2  503  502  0.20953510283E+01 -0.23532905181E+02  0.12177758651E+01  0.23657368836E+02  0.00000000000E+00 0. -1.
          3    1    1    2  501    0  0.31023490691E+02  0.41024982466E+02  0.28738952357E+02  0.58918872559E+02  0.00000000000E+00 0. -1.
<scales pt_clust_5="13000.00000" pt_clust_6="13000.00000" pt_clust_7="13000.00000" pt_clust_8="13000.00000" pt_clust_9="23.62601" pt_clust_10="50.57586"></scales>
<clustering>
<clus scale="   23.626">  2  9  1 -1</clus>
<clus scale="   50.576">  1 10  2 -1</clus>
<clus scale="   79.894">  5  6 -1 -1</clus>
<clus scale="   86.452">  2  5  1 -1</clus>
<clus scale="   91.399">  7  8 -1 -1</clus>
<clus scale="   50.576">  1  5  2 -1</clus>
</clustering>
</event>
<event>
10    4  0.3043429E-005  0.1406174E+03  0.7546771E-02  0.1235075E+00
          2   -1    0    0  502    0 -0.00000000000E+00  0.00000000000E+00  0.11406067464E+04  0.11406067464E+04  0.00000000000E+00 0. -1.
         21   -1    0    0  503  502  0.00000000000E+00 -0.00000000000E+00 -0.44445497916E+02  0.44445497916E+02  0.00000000000E+00 0. -1.
         24    2    1    2    0    0  0.14911126990E+02  0.32645308363E+02  0.57660235294E+03  0.58324794990E+03  0.80123902635E+02 0.  0.
         23    2    1    2    0    0  0.91697822387E+02  0.37489518727E+02  0.12951946380E+03  0.18703728256E+03  0.91617132231E+02 0.  0.
        -11    1    3    3    0    0 -0.79377684484E+01  0.49435618036E+02  0.22497201395E+03  0.23047623643E+03  0.00000000000E+00 0.  1.
         12    1    3    3    0    0  0.22848895438E+02 -0.16790309673E+02  0.35163033899E+03  0.35277171346E+03  0.00000000000E+00 0. -1.
        -13    1    4    4    0    0 -0.38395879063E+01  0.36784180239E+02  0.21300983145E+02  0.42679623171E+02  0.00000000000E+00 0.  1.
         13    1    4    4    0    0  0.95537410293E+02  0.70533848879E+00  0.10821848065E+03  0.14435765938E+03  0.00000000000E+00 0. -1.
         21    1    1    2  503  501 -0.15708153938E+02 -0.37597768733E+02  0.76175700518E+02  0.86389094585E+02  0.00000000000E+00 0.  1.
          1    1    1    2  501    0 -0.90900795439E+02 -0.32537058358E+02  0.31386373123E+03  0.32837791728E+03  0.00000000000E+00 0. -1.
<scales pt_clust_5="13000.00000" pt_clust_6="13000.00000" pt_clust_7="13000.00000" pt_clust_8="13000.00000" pt_clust_9="39.06824" pt_clust_10="122.45868"></scales>
<clustering>
<clus scale="   39.068">  9 10 -1 -1</clus>
<clus scale="   80.124">  5  6 -1 -1</clus>
<clus scale="   87.795">  1  5  2 -1</clus>
<clus scale="   91.617">  7  8 -1 -1</clus>
<clus scale="  122.459">  2  9  1 -1</clus>
<clus scale="  122.459">  2  5  1 -1</clus>
</clustering>
</event>
<event>
10    4  0.4026750E-005  0.2148474E+03  0.7546771E-02  0.1165038E+00
          2   -1    0    0  503    0 -0.00000000000E+00  0.00000000000E+00  0.16391610875E+04  0.16391610875E+04  0.00000000000E+00 0. -1.
         21   -1    0    0  501  502  0.00000000000E+00 -0.00000000000E+00 -0.42038292928E+03  0.42038292928E+03  0.00000000000E+00 0.  1.
         23    2    1    2    0    0 -0.35644136937E+02 -0.60441059704E+02  0.41245781478E+03  0.42757586088E+03  0.88181866873E+02 0.  0.
         24    2    1    2    0    0  0.14910297991E+03  0.17107536814E+03  0.44547535268E+03  0.50665751128E+03  0.82189194477E+02 0.  0.
        -13    1    4    4    0    0  0.88384449800E+02  0.54937505614E+02  0.14161280077E+03  0.17573880002E+03  0.00000000000E+00 0.  1.
         14    1    4    4    0    0  0.60718530110E+02  0.11613786253E+03  0.30386255190E+03  0.33091871126E+03  0.00000000000E+00 0. -1.
        -13    1    3    3    0    0 -0.57836398906E+02 -0.21630919467E+02  0.16636182947E+03  0.17745197666E+03  0.00000000000E+00 0. -1.
         13    1    3    3    0    0  0.22192261969E+02 -0.38810140236E+02  0.24609598531E+03  0.25012388423E+03  0.00000000000E+00 0.  1.
         21    1    1    2  503  502 -0.20531138348E+03 -0.46641007093E+02 -0.34851359625E+03  0.40717302772E+03  0.00000000000E+00 0.  1.
          1    1    1    2  501    0  0.91852540506E+02 -0.63993301348E+02  0.70935858703E+03  0.71813761690E+03  0.00000000000E+00 0. -1.
<scales pt_clust_5="13000.00000" pt_clust_6="13000.00000" pt_clust_7="13000.00000" pt_clust_8="13000.00000" pt_clust_9="198.50528" pt_clust_10="111.94661"></scales>
<clustering>
<clus scale="   82.189">  5  6 -1 -1</clus>
<clus scale="   88.182">  7  8 -1 -1</clus>
<clus scale="  111.947">  2 10  1 -1</clus>
<clus scale="  112.807">  1  7  2 -1</clus>
<clus scale="  198.505">  2  9  1 -1</clus>
<clus scale="  111.947">  2  5  1 -1</clus>
</clustering>
</event>
<event>
10    4  0.3043429E-005  0.2905645E+03  0.7546771E-02  0.1133944E+00
         21   -1    0    0  501  502  0.00000000000E+00  0.00000000000E+00  0.31767468390E+03  0.31767468390E+03  0.00000000000E+00 0.  1.
          2   -1    0    0  503    0 -0.00000000000E+00 -0.00000000000E+00 -0.40924659180E+03  0.40924659180E+03  0.00000000000E+00 0. -1.
         24    2    1    2    0    0 -0.54558180996E+02  0.46432082470E+01 -0.64330558688E+01  0.96411604255E+02  0.79092722363E+02 0.  0.
         23    2    1    2    0    0 -0.26272217051E+02 -0.26332880048E+03 -0.97090001616E+02  0.29633537484E+03  0.91410608879E+02 0.  0.
        -13    1    3    3    0    0 -0.49741061803E+02 -0.15334829055E+02 -0.33892962431E+02  0.62113308669E+02  0.00000000000E+00 0.  1.
         14    1    3    3    0    0 -0.48171191933E+01  0.19978037302E+02  0.27459906562E+02  0.34298295587E+02  0.00000000000E+00 0. -1.
        -11    1    4    4    0    0 -0.33368566720E+01 -0.24941762172E+03 -0.10122031572E+03  0.26919479369E+03  0.00000000000E+00 0.  1.
         11    1    4    4    0    0 -0.22935360379E+02 -0.13911178757E+02  0.41303141046E+01  0.27140581142E+02  0.00000000000E+00 0. -1.
         21    1    1    2  503  502  0.81324828422E+01 -0.21581075681E+02  0.36948667456E+02  0.43555529287E+02  0.00000000000E+00 0.  1.
          1    1    1    2  501    0  0.72697915206E+02  0.28026666791E+03 -0.24997517880E+02  0.29061876732E+03  0.00000000000E+00 0. -1.
<scales pt_clust_5="13000.00000" pt_clust_6="13000.00000" pt_clust_7="13000.00000" pt_clust_8="13000.00000" pt_clust_9="23.06253" pt_clust_10="275.81125"></scales>
<clustering>
<clus scale="   23.063">  1  9  2 -1</clus>
<clus scale="   79.093">  5  6 -1 -1</clus>
<clus scale="   91.411">  7  8 -1 -1</clus>
<clus scale="   95.349">  2  5  1 -1</clus>
<clus scale="  275.811">  1 10  2 -1</clus>
<clus scale="   23.063">  1  5  2 -1</clus>
</clustering>
</event>
<event>
10    4  0.3043429E-005  0.1130337E+03  0.7546771E-02  0.1257264E+00
         21   -1    0    0  501  502  0.00000000000E+00  0.00000000000E+00  0.63466699985E+02  0.63466699985E+02  0.00000000000E+00 0.  1.
          2   -1    0    0  503    0 -0.00000000000E+00 -0.00000000000E+00 -0.67950881688E+03  0.67950881688E+03  0.00000000000E+00 0. -1.
         23    2    1    2    0    0 -0.73029269798E+02 -0.19554990472E+02 -0.27897393977E+03  0.30258353447E+03  0.89524657863E+02 0.  0.
         24    2    1    2    0    0  0.56265883320E+02 -0.80508301765E+02 -0.86360799398E+02  0.15508205567E+03  0.83335586867E+02 0.  0.
        -13    1    4    4    0    0  0.77927451276E+02 -0.65824266343E+02 -0.62267231257E+02  0.11951037524E+03  0.00000000000E+00 0.  1.
         14    1    4    4    0    0 -0.21661567955E+02 -0.14684035422E+02 -0.24093568140E+02  0.35571680425E+02  0.00000000000E+00 0. -1.
        -11    1    3    3    0    0 -0.89844452360E+02 -0.32931593658E+02 -0.22784856296E+03  0.24712645169E+03  0.00000000000E+00 0.  1.
         11    1    3    3    0    0  0.16815182562E+02  0.13376603186E+02 -0.51125376806E+02  0.55457082785E+02  0.00000000000E+00 0. -1.
         21    1    1    2  503  502 -0.15913042673E+02  0.13421620513E+02 -0.32179155486E+01  0.21064657719E+02  0.00000000000E+00 0.  1.
          1    1    1    2  501    0  0.32676429151E+02  0.86641671724E+02 -0.24748946218E+03  0.26424526901E+03  0.00000000000E+00 0. -1.
<scales pt_clust_5="13000.00000" pt_clust_6="13000.00000" pt_clust_7="13000.00000" pt_clust_8="13000.00000" pt_clust_9="20.81742" pt_clust_10="93.71371"></scales>
<clustering>
<clus scale="   20.817">  1  9  2 -1</clus>
<clus scale="   83.336">  5  6 -1 -1</clus>
<clus scale="   89.525">  7  8 -1 -1</clus>
<clus scale="   93.714">  1 10  2 -1</clus>
<clus scale="  108.198">  1  5  2 -1</clus>
<clus scale="   20.817">  1  5  2 -1</clus>
</clustering>
</event>
<event>
10    4  0.3043429E-005  0.2905745E+03  0.7546771E-02  0.1135005E+00
         21   -1    0    0  501  502  0.00000000000E+00  0.00000000000E+00  0.46977059453E+03  0.46977059453E+03  0.00000000000E+00 0.  1.
         -1   -1    0    0    0  501 -0.00000000000E+00 -0.00000000000E+00 -0.52759316301E+03  0.52759316301E+03  0.00000000000E+00 0.  1.
         24    2    1    2    0    0 -0.25590864392E+02  0.24277367323E+02 -0.12555889390E+03  0.15539270703E+03  0.84484168075E+02 0.  0.
         23    2    1    2    0    0  0.27619446298E+03 -0.15261400652E+03 -0.15128058363E+02  0.32875410564E+03  0.90972454392E+02 0.  0.
        -11    1    3    3    0    0  0.25730180811E+02  0.30054717669E+02 -0.47865353809E+02  0.62100083366E+02  0.00000000000E+00 0.  1.
         12    1    3    3    0    0 -0.51321045203E+02 -0.57773503462E+01 -0.77693540092E+02  0.93292623663E+02  0.00000000000E+00 0. -1.
        -13    1    4    4    0    0  0.22277274844E+03 -0.13042682962E+03  0.23475082872E+02  0.25921021363E+03  0.00000000000E+00 0.  1.
         13    1    4    4    0    0  0.53421714540E+02 -0.22187176902E+02 -0.38603141235E+02  0.69543892014E+02  0.00000000000E+00 0. -1.
         21    1    1    2  503  502 -0.12802558612E+02  0.65056581016E+02  0.22119889335E+03  0.23092252956E+03  0.00000000000E+00 0.  1.
         -2    1    1    2    0  503 -0.23780103998E+03  0.63280058182E+02 -0.13833450956E+03  0.28229441531E+03  0.00000000000E+00 0.  1.
<scales pt_clust_5="13000.00000" pt_clust_6="13000.00000" pt_clust_7="13000.00000" pt_clust_8="13000.00000" pt_clust_9="66.30433" pt_clust_10="275.96668"></scales>
<clustering>
<clus scale="   66.304">  1  9  2 -1</clus>
<clus scale="   84.484">  5  6 -1 -1</clus>
<clus scale="   90.972">  7  8 -1 -1</clus>
<clus scale="   92.907">  2  5  1 -1</clus>
<clus scale="  275.967">  1 10  2 -1</clus>
<clus scale="   66.304">  1  5  2 -1</clus>
</clustering>
</event>
<event>
10    4  0.3043429E-005  0.2350095E+03  0.7546771E-02  0.1155566E+00
         21   -1    0    0  501  502  0.00000000000E+00  0.00000000000E+00  0.10093871662E+03  0.10093871662E+03  0.00000000000E+00 0. -1.
          2   -1    0    0  503    0 -0.00000000000E+00 -0.00000000000E+00 -0.12088065141E+04  0.12088065141E+04  0.00000000000E+00 0. -1.
         23    2    1    2    0    0 -0.19599041278E+01  0.45937172922E+02 -0.11125348387E+03  0.15139754740E+03  0.91814021833E+02 0.  0.
         24    2    1    2    0    0 -0.20475264665E+03 -0.10919317033E+02 -0.25673598866E+03  0.33802948250E+03  0.79420937842E+02 0.  0.
        -11    1    4    4    0    0 -0.12235268864E+03  0.32380216625E+02 -0.15567761695E+03  0.20063444187E+03  0.00000000000E+00 0.  1.
         12    1    4    4    0    0 -0.82399958014E+02 -0.43299533658E+02 -0.10105837171E+03  0.13739504063E+03  0.00000000000E+00 0. -1.
        -13    1    3    3    0    0 -0.43886155955E+02  0.32991428858E+02 -0.81917537639E+02  0.98614968618E+02  0.00000000000E+00 0. -1.
         13    1    3    3    0    0  0.41926251827E+02  0.12945744064E+02 -0.29335946235E+02  0.52782578785E+02  0.00000000000E+00 0.  1.
         21    1    1    2  503  502 -0.41352622454E+02  0.72786479477E+02 -0.18196754843E+03  0.20030002411E+03  0.00000000000E+00 0.  1.
          1    1    1    2  501    0  0.24806517323E+03 -0.10780433537E+03 -0.55791077657E+03  0.62001817675E+03  0.00000000000E+00 0. -1.
<scales pt_clust_5="13000.00000" pt_clust_6="13000.00000" pt_clust_7="13000.00000" pt_clust_8="13000.00000" pt_clust_9="83.71327" pt_clust_10="221.18282"></scales>
<clustering>
<clus scale="   79.421">  5  6 -1 -1</clus>
<clus scale="   83.713">  2  9  1 -1</clus>
<clus scale="   91.814">  7  8 -1 -1</clus>
<clus scale="  107.445">  2  7  1 -1</clus>
<clus scale="  221.183">  1 10  2 -1</clus>
<clus scale="  221.183">  1  5  2 -1</clus>
</clustering>
</event>
<event>
10    4  0.3043429E-005  0.1206401E+03  0.7546771E-02  0.1245524E+00
         -3   -1    0    0    0  501 -0.00000000000E+00  0.00000000000E+00  0.42060151492E+03  0.42060151492E+03  0.00000000000E+00 0.  1.
         21   -1    0    0  503  502  0.00000000000E+00 -0.00000000000E+00 -0.17786662803E+03  0.17786662803E+03  0.00000000000E+00 0.  1.
         24    2    1    2    0    0  0.74144263185E+02 -0.18293070813E+02  0.30275037451E+03  0.32228818927E+03  0.79874147703E+02 0.  0.
         23    2    1    2    0    0 -0.92276397119E+02  0.44035452820E+02 -0.11288849102E+02  0.13736224874E+03  0.91032382666E+02 0.  0.
        -11    1    3    3    0    0  0.76210700651E+02  0.13237471973E+02  0.18862647675E+03  0.20387066805E+03  0.00000000000E+00 0.  1.
         12    1    3    3    0    0 -0.20664374656E+01 -0.31530542786E+02  0.11412389776E+03  0.11841752122E+03  0.00000000000E+00 0. -1.
        -13    1    4    4    0    0 -0.15742388789E+02  0.21750685303E+02 -0.43718831311E+02  0.51305470733E+02  0.00000000000E+00 0.  1.
         13    1    4    4    0    0 -0.76534008330E+02  0.22284767517E+02  0.32429982209E+02  0.86056778004E+02  0.00000000000E+00 0. -1.
         21    1    1    2  503  501  0.44975941255E+02  0.39155570389E+02 -0.19380385598E+02  0.62702418854E+02  0.00000000000E+00 0.  1.
         -4    1    1    2    0  502 -0.26843807321E+02 -0.64897952396E+02 -0.29346252914E+02  0.76115286092E+02  0.00000000000E+00 0.  1.
<scales pt_clust_5="13000.00000" pt_clust_6="13000.00000" pt_clust_7="13000.00000" pt_clust_8="13000.00000" pt_clust_9="59.63216" pt_clust_10="50.70775"></scales>
<clustering>
<clus scale="   59.632">  2  9  1 -1</clus>
<clus scale="   50.708">  2 10  1 -1</clus>
<clus scale="   79.874">  5  6 -1 -1</clus>
<clus scale="   91.032">  7  8 -1 -1</clus>
<clus scale="  112.459">  1  5  2 -1</clus>
<clus scale="   59.632">  2  5  1 -1</clus>
</clustering>
</event>
<event>
10    4  0.3043429E-005  0.2200221E+03  0.7546771E-02  0.1164037E+00
         -1   -1    0    0    0  501 -0.00000000000E+00  0.00000000000E+00  0.26834026838E+03  0.26834026838E+03  0.00000000000E+00 0.  1.
         21   -1    0    0  501  502  0.00000000000E+00 -0.00000000000E+00 -0.32437330281E+03  0.32437330281E+03  0.00000000000E+00 0.  1.
         24    2    1    2    0    0  0.43612895478E+02 -0.63957248956E+02  0.89774524779E+01  0.11291090391E+03  0.81704731954E+02 0.  0.
         23    2    1    2    0    0  0.12760304911E+03  0.16560975503E+03 -0.15457722924E+02  0.22978145833E+03  0.94082135879E+02 0.  0.
        -11    1    3    3    0    0  0.67014312519E+02 -0.39621053518E+02  0.12933663396E+02  0.78917840905E+02  0.00000000000E+00 0.  1.
         12    1    3    3    0    0 -0.23401417041E+02 -0.24336195439E+02 -0.39562109184E+01  0.33993063010E+02  0.00000000000E+00 0. -1.
        -11    1    4    4    0    0  0.32431818038E+02  0.11511142673E+03 -0.22978753149E+02  0.12178048482E+03  0.00000000000E+00 0.  1.
         11    1    4    4    0    0  0.95171231069E+02  0.50498328293E+02  0.75210302243E+01  0.10800097351E+03  0.00000000000E+00 0. -1.
         21    1    1    2  503  502 -0.30197585366E+02  0.27920027367E+02 -0.41376522339E+02  0.58338998029E+02  0.00000000000E+00 0.  1.
         -2    1    1    2    0  503 -0.14101835922E+03 -0.12957253344E+03 -0.81762416405E+01  0.19168221093E+03  0.00000000000E+00 0.  1.
<scales pt_clust_5="13000.00000" pt_clust_6="13000.00000" pt_clust_7="13000.00000" pt_clust_8="13000.00000" pt_clust_9="41.12690" pt_clust_10="198.89267"></scales>
<clustering>
<clus scale="   41.127">  2  9  1 -1</clus>
<clus scale="   81.705">  5  6 -1 -1</clus>
<clus scale="   94.082">  7  8 -1 -1</clus>
<clus scale="  107.490">  1  5  2 -1</clus>
<clus scale="  198.893">  2 10  1 -1</clus>
<clus scale="   41.127">  2  5  1 -1</clus>
</clustering>
</event>
<event>
10    4  0.3043429E-005  0.8206823E+03  0.7546771E-02  0.1022059E+00
          2   -1    0    0  502    0 -0.00000000000E+00  0.00000000000E+00  0.23814833245E+04  0.23814833245E+04  0.00000000000E+00 0. -1.
         21   -1    0    0  503  502  0.00000000000E+00 -0.00000000000E+00 -0.40378677498E+03  0.40378677498E+03  0.00000000000E+00 0. -1.
         24    2    1    2    0    0  0.25013105749E+02 -0.29936289400E+02  0.13001086142E+03  0.15674660873E+03  0.78389019502E+02 0.  0.
         23    2    1    2    0    0  0.35281060657E+03 -0.70224908357E+03  0.12392877792E+04  0.14701843215E+04  0.89323232716E+02 0.  0.
        -11    1    3    3    0    0  0.25392815256E+02  0.18192481538E+02  0.21159228337E+02  0.37728959633E+02  0.00000000000E+00 0.  1.
         12    1    3    3    0    0 -0.37970950792E+00 -0.48128770938E+02  0.10885163309E+03  0.11901764910E+03  0.00000000000E+00 0. -1.
        -13    1    4    4    0    0  0.45510423480E+02 -0.46589102724E+02  0.77698004874E+02  0.10138403769E+03  0.00000000000E+00 0.  1.
         13    1    4    4    0    0  0.30730018309E+03 -0.65565998085E+03  0.11615897744E+04  0.13688002838E+04  0.00000000000E+00 0. -1.
         21    1    1    2  503  501  0.17261528223E+02 -0.10688517835E+02 -0.72912236350E+02  0.75686187509E+02  0.00000000000E+00 0.  1.
          1    1    1    2  501    0 -0.39508524054E+03  0.74287389081E+03  0.68131014523E+03  0.10826529818E+04  0.00000000000E+00 0. -1.
<scales pt_clust_5="13000.00000" pt_clust_6="13000.00000" pt_clust_7="13000.00000" pt_clust_8="13000.00000" pt_clust_9="20.30283" pt_clust_10="815.80680"></scales>
<clustering>
<clus scale="   20.303">  2  9  1 -1</clus>
<clus scale="   78.389">  5  6 -1 -1</clus>
<clus scale="   87.911">  1  5  2 -1</clus>
<clus scale="   89.323">  7  8 -1 -1</clus>
<clus scale="  815.807">  2 10  1 -1</clus>
<clus scale="   20.303">  2  5  1 -1</clus>
</clustering>
</event>
<event>
10    4  0.3043429E-005  0.1909727E+03  0.7546771E-02  0.1158731E+00
         -3   -1    0    0    0  501 -0.00000000000E+00  0.00000000000E+00  0.45342891668E+03  0.45342891668E+03  0.00000000000E+00 0.  1.
         21   -1    0    0  503  502  0.00000000000E+00 -0.00000000000E+00 -0.20731178757E+03  0.20731178757E+03  0.00000000000E+00 0.  1.
         23    2    1    2    0    0 -0.13570096291E+03  0.17343666192E+03  0.17801783860E+03  0.29742811556E+03  0.90984097686E+02 0.  0.
         24    2    1    2    0    0  0.12735781310E+03 -0.35593221919E+02  0.40866923552E+02  0.15980231954E+03  0.79873561864E+02 0.  0.
        -13    1    4    4    0    0  0.79564458341E+02  0.41629828905E+01  0.54018547897E+02  0.96259217608E+02  0.00000000000E+00 0.  1.
         14    1    4    4    0    0  0.47793354755E+02 -0.39756204810E+02 -0.13151624344E+02  0.63543101927E+02  0.00000000000E+00 0. -1.
        -13    1    3    3    0    0 -0.10998624688E+03  0.13737278975E+03  0.18174197651E+03  0.25297905821E+03  0.00000000000E+00 0.  1.
         13    1    3    3    0    0 -0.25714716031E+02  0.36063872166E+02 -0.37241379053E+01  0.44449057350E+02  0.00000000000E+00 0. -1.
         21    1    1    2  503  501 -0.22969813744E+02 -0.75290072763E+02 -0.54641349755E+02  0.95822150378E+02  0.00000000000E+00 0.  1.
         -4    1    1    2    0  502  0.31312963557E+02 -0.62553367233E+02  0.81873716707E+02  0.10768811878E+03  0.00000000000E+00 0.  1.
<scales pt_clust_5="13000.00000" pt_clust_6="13000.00000" pt_clust_7="13000.00000" pt_clust_8="13000.00000" pt_clust_9="100.08739" pt_clust_10="69.95306"></scales>
<clustering>
<clus scale="   69.953">  2 10  1 -1</clus>
<clus scale="   79.874">  5  6 -1 -1</clus>
<clus scale="   90.984">  7  8 -1 -1</clus>
<clus scale="  100.087">  2  9  1 -1</clus>
<clus scale="  185.936">  2  5  1 -1</clus>
<clus scale="   69.953">  2  5  1 -1</clus>
</clustering>
</event>
<event>
10    4  0.3043429E-005  0.9206996E+02  0.7546771E-02  0.1302573E+00
         -3   -1    0    0    0  501 -0.00000000000E+00  0.00000000000E+00  0.15366875112E+03  0.15366875112E+03  0.00000000000E+00 0.  1.
         21   -1    0    0  501  502  0.00000000000E+00 -0.00000000000E+00 -0.20171919692E+03  0.20171919692E+03  0.00000000000E+00 0.  1.
         24    2    1    2    0    0 -0.49482784006E+01 -0.23724107392E+02  0.90998626066E+02  0.12411206426E+03  0.80843897834E+02 0.  0.
         23    2    1    2    0    0  0.43171685167E+02  0.10625826703E+02 -0.29347514774E+02  0.10349428810E+03  0.88730425749E+02 0.  0.
        -13    1    3    3    0    0  0.32382346111E+02 -0.31028465953E+02  0.37452106107E+02  0.58429806528E+02  0.00000000000E+00 0.  1.
         14    1    3    3    0    0 -0.37330624511E+02  0.73043585609E+01  0.53546519960E+02  0.65682257727E+02  0.00000000000E+00 0. -1.
        -13    1    4    4    0    0 -0.23362339201E+02  0.21551244716E+02 -0.10716318561E+02  0.33542428732E+02  0.00000000000E+00 0. -1.
         13    1    4    4    0    0  0.66534024368E+02 -0.10925418012E+02 -0.18631196214E+02  0.69951859373E+02  0.00000000000E+00 0.  1.
         21    1    1    2  503  502 -0.15852114617E+02  0.15219783630E+02 -0.10151308884E+03  0.10386452021E+03  0.00000000000E+00 0. -1.
         -4    1    1    2    0  503 -0.22371292150E+02 -0.21215029408E+01 -0.81884682511E+01  0.23917075479E+02  0.00000000000E+00 0.  1.
<scales pt_clust_5="13000.00000" pt_clust_6="13000.00000" pt_clust_7="13000.00000" pt_clust_8="13000.00000" pt_clust_9="21.97570" pt_clust_10="24.94331"></scales>
<clustering>
<clus scale="   21.976">  2  9  1 -1</clus>
<clus scale="   24.943">  2 10  1 -1</clus>
<clus scale="   80.844">  5  6 -1 -1</clus>
<clus scale="   84.496">  1  5  2 -1</clus>
<clus scale="   88.730">  7  8 -1 -1</clus>
<clus scale="   21.976">  2  5  1 -1</clus>
</clustering>
</event>
<event>
10    4  0.3043429E-005  0.1051675E+03  0.7546771E-02  0.1275844E+00
         21   -1    0    0  501  502  0.00000000000E+00  0.00000000000E+00  0.23436812042E+03  0.23436812042E+03  0.00000000000E+00 0.  1.
         -3   -1    0    0    0  501 -0.00000000000E+00 -0.00000000000E+00 -0.29210442120E+03  0.29210442120E+03  0.00000000000E+00 0.  1.
         23    2    1    2    0    0 -0.26491551271E+02  0.51297255922E+02 -0.34961606371E+02  0.10317117131E+03  0.78030544758E+02 0.  0.
         24    2    1    2    0    0  0.13186519130E+01  0.83850763675E+02  0.51530924119E+02  0.12700263089E+03  0.80259221911E+02 0.  0.
        -13    1    4    4    0    0  0.38349503876E+02  0.37626483792E+02  0.39195637787E+02  0.66503644649E+02  0.00000000000E+00 0.  1.
         14    1    4    4    0    0 -0.37030851963E+02  0.46224279883E+02  0.12335286332E+02  0.60498986245E+02  0.00000000000E+00 0. -1.
        -13    1    3    3    0    0  0.26628239601E+02  0.10113067709E+02 -0.18517157449E+02  0.33973848807E+02  0.00000000000E+00 0. -1.
         13    1    3    3    0    0 -0.53119790872E+02  0.41184188213E+02 -0.16444448922E+02  0.69197322502E+02  0.00000000000E+00 0.  1.
         21    1    1    2  503  502 -0.11533379678E+02 -0.35560946360E+02  0.91833425226E+02  0.99151287140E+02  0.00000000000E+00 0.  1.
         -4    1    1    2    0  503  0.36706279036E+02 -0.99587073238E+02 -0.16613904376E+03  0.19714745228E+03  0.00000000000E+00 0.  1.
<scales pt_clust_5="13000.00000" pt_clust_6="13000.00000" pt_clust_7="13000.00000" pt_clust_8="13000.00000" pt_clust_9="37.38449" pt_clust_10="67.96084"></scales>
<clustering>
<clus scale="   37.384">  1  9  2 -1</clus>
<clus scale="   78.031">  7  8 -1 -1</clus>
<clus scale="   80.259">  5  6 -1 -1</clus>
<clus scale="   93.597">  2  7  1 -1</clus>
<clus scale="   67.961">  1 10  2 -1</clus>
<clus scale="   37.384">  1  5  2 -1</clus>
</clustering>
</event>
<event>
10    4  0.3043429E-005  0.2479251E+03  0.7546771E-02  0.1139804E+00
          2   -1    0    0  502    0 -0.00000000000E+00  0.00000000000E+00  0.38427663858E+03  0.38427663858E+03  0.00000000000E+00 0. -1.
         21   -1    0    0  503  502  0.00000000000E+00 -0.00000000000E+00 -0.50301695635E+03  0.50301695635E+03  0.00000000000E+00 0.  1.
         24    2    1    2    0    0 -0.12172879097E+03  0.16676944719E+02  0.75294331230E+02  0.16527032949E+03  0.80926055492E+02 0.  0.
         23    2    1    2    0    0  0.14773490994E+03 -0.21315609632E+03 -0.58977886967E+02  0.28184069255E+03  0.93245159716E+02 0.  0.
        -11    1    3    3    0    0 -0.51758526193E+01  0.21910205790E+02 -0.57224752669E+01  0.23229147450E+02  0.00000000000E+00 0.  1.
         12    1    3    3    0    0 -0.11655293836E+03 -0.52332610707E+01  0.81016806497E+02  0.14204118204E+03  0.00000000000E+00 0. -1.
        -13    1    4    4    0    0  0.13654654895E+03 -0.19562408249E+03 -0.80624932909E+02  0.25182160648E+03  0.00000000000E+00 0.  1.
         13    1    4    4    0    0  0.11188360984E+02 -0.17532013830E+02  0.21647045942E+02  0.30019086070E+02  0.00000000000E+00 0. -1.
         21    1    1    2  503  501  0.12817800092E+03  0.71997040286E+02 -0.18453394094E+03  0.23593632423E+03  0.00000000000E+00 0. -1.
          1    1    1    2  501    0 -0.15418411988E+03  0.12448211132E+03  0.49477178908E+02  0.20424624867E+03  0.00000000000E+00 0. -1.
<scales pt_clust_5="13000.00000" pt_clust_6="13000.00000" pt_clust_7="13000.00000" pt_clust_8="13000.00000" pt_clust_9="147.01420" pt_clust_10="229.72212"></scales>
<clustering>
<clus scale="   80.926">  5  6 -1 -1</clus>
<clus scale="   93.245">  7  8 -1 -1</clus>
<clus scale="  147.014">  2  9  1 -1</clus>
<clus scale="  133.152">  1  5  2 -1</clus>
<clus scale="  229.722">  2 10  1 -1</clus>
<clus scale="  147.014">  2  5  1 -1</clus>
</clustering>
</event>
<event>
10    4  0.3043429E-005  0.2699910E+03  0.7546771E-02  0.1101285E+00
         21   -1    0    0  501  502  0.00000000000E+00  0.00000000000E+00  0.30284771663E+03  0.30284771663E+03  0.00000000000E+00 0.  1.
          4   -1    0    0  503    0 -0.00000000000E+00 -0.00000000000E+00 -0.32617753230E+03  0.32617753230E+03  0.00000000000E+00 0. -1.
         24    2    1    2    0    0 -0.16791770306E+03  0.48841968576E+02  0.97163572025E+02  0.21677950609E+03  0.83490727852E+02 0.  0.
         23    2    1    2    0    0 -0.35462831183E+02 -0.22383792526E+01  0.64356725561E+01  0.98329449393E+02  0.91458405844E+02 0.  0.
        -13    1    3    3    0    0 -0.17401199289E+03  0.55716335111E+02  0.98373384813E+02  0.20751338874E+03  0.00000000000E+00 0.  1.
         14    1    3    3    0    0  0.60942898288E+01 -0.68743665345E+01 -0.12098127885E+01  0.92661173504E+01  0.00000000000E+00 0. -1.
        -11    1    4    4    0    0  0.28710369492E+02  0.13967054152E+02  0.17104643510E+01  0.31973263930E+02  0.00000000000E+00 0. -1.
         11    1    4    4    0    0 -0.64173200675E+02 -0.16205433405E+02  0.47252082050E+01  0.66356185464E+02  0.00000000000E+00 0.  1.
         21    1    1    2  503  502  0.42899986624E+02 -0.33453957866E+02  0.50562234629E+02  0.74270557558E+02  0.00000000000E+00 0.  1.
          3    1    1    2  501    0  0.16048054762E+03 -0.13149631457E+02 -0.17749129489E+03  0.23964573589E+03  0.00000000000E+00 0. -1.
<scales pt_clust_5="13000.00000" pt_clust_6="13000.00000" pt_clust_7="13000.00000" pt_clust_8="13000.00000" pt_clust_9="54.40199" pt_clust_10="166.94272"></scales>
<clustering>
<clus scale="   54.402">  1  9  2 -1</clus>
<clus scale="   83.491">  5  6 -1 -1</clus>
<clus scale="   91.458">  7  8 -1 -1</clus>
<clus scale="   92.770">  5  7 -1 -1</clus>
<clus scale="  166.943">  1 10  2 -1</clus>
<clus scale="   54.402">  1  5  2 -1</clus>
</clustering>
</event>
<event>
10    4  0.3043429E-005  0.1040712E+03  0.7546771E-02  0.1277259E+00
         -1   -1    0    0    0  501 -0.00000000000E+00  0.00000000000E+00  0.38715473387E+03  0.38715473387E+03  0.00000000000E+00 0.  1.
         21   -1    0    0  503  502  0.00000000000E+00 -0.00000000000E+00 -0.12852715311E+03  0.12852715311E+03  0.00000000000E+00 0. -1.
         23    2    1    2    0    0  0.32922922801E+02 -0.30098165871E+02  0.18152754860E+03  0.20778315138E+03  0.90729094901E+02 0.  0.
         24    2    1    2    0    0  0.65858437970E+01  0.95131268966E+02  0.43421586564E+02  0.13121311493E+03  0.78981742674E+02 0.  0.
        -11    1    4    4    0    0  0.10491912206E+02  0.21721202140E+02  0.51880333371E+02  0.57214157643E+02  0.00000000000E+00 0.  1.
         12    1    4    4    0    0 -0.39060684085E+01  0.73410066825E+02 -0.84587468071E+01  0.73998957285E+02  0.00000000000E+00 0. -1.
        -13    1    3    3    0    0 -0.26253609194E+02 -0.32493827078E+02  0.70507604380E+02  0.81953786181E+02  0.00000000000E+00 0. -1.
         13    1    3    3    0    0  0.59176531995E+02  0.23956612070E+01  0.11101994422E+03  0.12582936519E+03  0.00000000000E+00 0.  1.
         21    1    1    2  503  501  0.13569500749E+02 -0.39587427564E+02 -0.55697830054E+02  0.69667381495E+02  0.00000000000E+00 0.  1.
         -2    1    1    2    0  502 -0.53078267347E+02 -0.25445675530E+02  0.89376275659E+02  0.10701823919E+03  0.00000000000E+00 0.  1.
<scales pt_clust_5="13000.00000" pt_clust_6="13000.00000" pt_clust_7="13000.00000" pt_clust_8="13000.00000" pt_clust_9="41.84849" pt_clust_10="59.77573"></scales>
<clustering>
<clus scale="   41.848">  2  9  1 -1</clus>
<clus scale="   59.776">  2 10  1 -1</clus>
<clus scale="   78.982">  5  6 -1 -1</clus>
<clus scale="   90.729">  7  8 -1 -1</clus>
<clus scale="   94.006">  2  5  1 -1</clus>
<clus scale="   41.848">  2  5  1 -1</clus>
</clustering>
</event>
<event>
10    4  0.3043429E-005  0.1800104E+03  0.7546771E-02  0.1193218E+00
         21   -1    0    0  501  502  0.00000000000E+00  0.00000000000E+00  0.29259167715E+03  0.29259167715E+03  0.00000000000E+00 0.  1.
          2   -1    0    0  503    0 -0.00000000000E+00 -0.00000000000E+00 -0.26929294284E+03  0.26929294284E+03  0.00000000000E+00 0. -1.
         24    2    1    2    0    0 -0.14558081419E+02 -0.67474905609E+02  0.10639979520E+03  0.15010070921E+03  0.80277679742E+02 0.  0.
         23    2    1    2    0    0  0.20234726100E+02 -0.11474758603E+03 -0.10522714532E+03  0.19036628716E+03  0.10765741282E+03 0.  0.
        -11    1    3    3    0    0 -0.42451305369E+02 -0.64279557005E+02  0.85612400210E+02  0.11516708664E+03  0.00000000000E+00 0.  1.
         12    1    3    3    0    0  0.27893223950E+02 -0.31953486045E+01  0.20787394986E+02  0.34933622562E+02  0.00000000000E+00 0. -1.
        -13    1    4    4    0    0  0.37597489350E+02 -0.10386999734E+03 -0.12149408042E+03  0.16420523479E+03  0.00000000000E+00 0. -1.
         13    1    4    4    0    0 -0.17362763250E+02 -0.10877588690E+02  0.16266935108E+02  0.26161052371E+02  0.00000000000E+00 0.  1.
         21    1    1    2  503  502 -0.21261366154E+02  0.20019008752E+02  0.48237358267E+02  0.56388377656E+02  0.00000000000E+00 0.  1.
          1    1    1    2  501    0  0.15584721472E+02  0.16220348289E+03 -0.26111273844E+02  0.16502924597E+03  0.00000000000E+00 0. -1.
<scales pt_clust_5="13000.00000" pt_clust_6="13000.00000" pt_clust_7="13000.00000" pt_clust_8="13000.00000" pt_clust_9="29.20285" pt_clust_10="144.26932"></scales>
<clustering>
<clus scale="   29.203">  1  9  2 -1</clus>
<clus scale="   80.278">  5  6 -1 -1</clus>
<clus scale="  101.689">  2  5  1 -1</clus>
<clus scale="  107.657">  7  8 -1 -1</clus>
<clus scale="  144.269">  1 10  2 -1</clus>
<clus scale="   29.203">  1  5  2 -1</clus>
</clustering>
</event>
<event>
10    4  0.3043429E-005  0.1398767E+03  0.7546771E-02  0.1216668E+00
         21   -1    0    0  501  502  0.00000000000E+00  0.00000000000E+00  0.50256152606E+02  0.50256152606E+02  0.00000000000E+00 0. -1.
          2   -1    0    0  503    0 -0.00000000000E+00 -0.00000000000E+00 -0.17384297361E+04  0.17384297361E+04  0.00000000000E+00 0. -1.
         24    2    1    2    0    0  0.25712136232E+02 -0.14669503180E+03 -0.85482779645E+03  0.87110364251E+03  0.76879438811E+02 0.  0.
         23    2    1    2    0    0 -0.52094725522E+02  0.42336718187E+02 -0.32571637043E+03  0.34491721906E+03  0.91490304996E+02 0.  0.
        -13    1    3    3    0    0  0.20868868078E+02 -0.95442445237E+02 -0.34147443221E+03  0.35517539028E+03  0.00000000000E+00 0.  1.
         14    1    3    3    0    0  0.48432681536E+01 -0.51252586566E+02 -0.51335336424E+03  0.51592825223E+03  0.00000000000E+00 0. -1.
        -11    1    4    4    0    0 -0.50691082233E+02 -0.17159086772E+02 -0.16955451065E+03  0.17779975298E+03  0.00000000000E+00 0.  1.
         11    1    4    4    0    0 -0.14036432895E+01  0.59495804959E+02 -0.15616185977E+03  0.16711746608E+03  0.00000000000E+00 0. -1.
         21    1    1    2  503  502 -0.26429475000E+02  0.79866662921E+01  0.19757116700E+02  0.33950664906E+02  0.00000000000E+00 0. -1.
          1    1    1    2  501    0  0.52812064291E+02  0.96371647323E+02 -0.52738653336E+03  0.53871436226E+03  0.00000000000E+00 0. -1.
<scales pt_clust_5="13000.00000" pt_clust_6="13000.00000" pt_clust_7="13000.00000" pt_clust_8="13000.00000" pt_clust_9="27.60985" pt_clust_10="108.71158"></scales>
<clustering>
<clus scale="   27.610">  1  9  2 -1</clus>
<clus scale="   76.879">  5  6 -1 -1</clus>
<clus scale="   91.490">  7  8 -1 -1</clus>
<clus scale="  108.712">  1 10  2 -1</clus>
<clus scale="  130.788">  2  5  1 -1</clus>
<clus scale="   27.610">  1  5  2 -1</clus>
</clustering>
</event>
<event>
10    4  0.3043429E-005  0.1907788E+03  0.7546771E-02  0.1186282E+00
         21   -1    0    0  501  502  0.00000000000E+00  0.00000000000E+00  0.32975610150E+03  0.32975610150E+03  0.00000000000E+00 0.  1.
          4   -1    0    0  503    0 -0.00000000000E+00 -0.00000000000E+00 -0.12592258525E+04  0.12592258525E+04  0.00000000000E+00 0. -1.
         24    2    1    2    0    0  0.53455912974E+02  0.21094295342E+02 -0.36864140097E+03  0.38216682153E+03  0.82779786438E+02 0.  0.
         23    2    1    2    0    0 -0.15528702670E+03 -0.12220034695E+03 -0.50489482243E+03  0.54991157921E+03  0.91853022687E+02 0.  0.
        -13    1    3    3    0    0  0.19342892247E+02  0.28456869767E+02 -0.44991108526E+02  0.56640451657E+02  0.00000000000E+00 0.  1.
         14    1    3    3    0    0  0.34113020726E+02 -0.73625744250E+01 -0.32365029244E+03  0.32552636987E+03  0.00000000000E+00 0. -1.
        -11    1    4    4    0    0 -0.12043872090E+03 -0.57883543433E+02 -0.23558361761E+03  0.27084244678E+03  0.00000000000E+00 0. -1.
         11    1    4    4    0    0 -0.34848305795E+02 -0.64316803522E+02 -0.26931120482E+03  0.27906913243E+03  0.00000000000E+00 0.  1.
         21    1    1    2  503  502 -0.28219064135E+02  0.28179479161E+02  0.28343422311E+03  0.28622606006E+03  0.00000000000E+00 0.  1.
          3    1    1    2  501    0  0.13005017786E+03  0.72926572451E+02 -0.33936775071E+03  0.37067749318E+03  0.00000000000E+00 0. -1.
<scales pt_clust_5="13000.00000" pt_clust_6="13000.00000" pt_clust_7="13000.00000" pt_clust_8="13000.00000" pt_clust_9="39.87980" pt_clust_10="167.21114"></scales>
<clustering>
<clus scale="   39.880">  1  9  2 -1</clus>
<clus scale="   82.780">  5  6 -1 -1</clus>
<clus scale="   91.853">  7  8 -1 -1</clus>
<clus scale="   99.578">  2  5  1 -1</clus>
<clus scale="  167.211">  1 10  2 -1</clus>
<clus scale="   39.880">  1  5  2 -1</clus>
</clustering>
</event>
<event>
10    4  0.3043429E-005  0.1759333E+03  0.7546771E-02  0.1173228E+00
         21   -1    0    0  503  502  0.00000000000E+00  0.00000000000E+00  0.14718731038E+03  0.14718731038E+03  0.00000000000E+00 0.  1.
         -1   -1    0    0    0  501 -0.00000000000E+00 -0.00000000000E+00 -0.53004879733E+03  0.53004879733E+03  0.00000000000E+00 0.  1.
         23    2    1    2    0    0 -0.12072371006E+03  0.97345700369E+02 -0.19916389410E+03  0.26859852920E+03  0.91806936719E+02 0.  0.
         24    2    1    2    0    0  0.91997912842E+02 -0.11416580870E+03 -0.15689211696E+03  0.22932437830E+03  0.80480347129E+02 0.  0.
        -11    1    4    4    0    0  0.81163458926E+02 -0.46359526898E+02 -0.61883898046E+02  0.11209964155E+03  0.00000000000E+00 0.  1.
         12    1    4    4    0    0  0.10834453916E+02 -0.67806281800E+02 -0.95008218918E+02  0.11722473675E+03  0.00000000000E+00 0. -1.
        -13    1    3    3    0    0 -0.81672596684E+02  0.91049617521E+02 -0.19310387274E+03  0.22858160811E+03  0.00000000000E+00 0.  1.
         13    1    3    3    0    0 -0.39051113372E+02  0.62960828483E+01 -0.60600213532E+01  0.40016921091E+02  0.00000000000E+00 0. -1.
         21    1    1    2  503  501  0.17263051196E+02  0.68769025383E+02  0.49371835012E+02  0.86398899768E+02  0.00000000000E+00 0.  1.
         -2    1    1    2    0  502  0.11462746017E+02 -0.51948917053E+02 -0.76177310901E+02  0.92914300435E+02  0.00000000000E+00 0.  1.
<scales pt_clust_5="13000.00000" pt_clust_6="13000.00000" pt_clust_7="13000.00000" pt_clust_8="13000.00000" pt_clust_9="49.02536" pt_clust_10="53.19857"></scales>
<clustering>
<clus scale="   53.199">  1 10  2 -1</clus>
<clus scale="   49.025">  1  9  2 -1</clus>
<clus scale="   80.480">  5  6 -1 -1</clus>
<clus scale="   91.807">  7  8 -1 -1</clus>
<clus scale="  170.297">  1  5  2 -1</clus>
<clus scale="   53.199">  1  5  2 -1</clus>
</clustering>
</event>
<event>
10    4  0.3043429E-005  0.1432045E+03  0.7546771E-02  0.1210952E+00
         21   -1    0    0  501  502  0.00000000000E+00  0.00000000000E+00  0.28439342609E+03  0.28439342609E+03  0.00000000000E+00 0.  1.
          2   -1    0    0  503    0 -0.00000000000E+00 -0.00000000000E+00 -0.51421125304E+03  0.51421125304E+03  0.00000000000E+00 0. -1.
         24    2    1    2    0    0  0.10153039847E+03 -0.33532443108E+02 -0.33192872945E+03  0.35786220086E+03  0.80348160019E+02 0.  0.
         23    2    1    2    0    0 -0.12242830398E+03  0.50420599021E+02 -0.59656710165E+02  0.17064699675E+03  0.89613324967E+02 0.  0.
        -13    1    3    3    0    0  0.67601915818E+02 -0.57833685219E+02 -0.25878223652E+03  0.27364758378E+03  0.00000000000E+00 0.  1.
         14    1    3    3    0    0  0.33928482648E+02  0.24301242111E+02 -0.73146492924E+02  0.84214617080E+02  0.00000000000E+00 0. -1.
        -13    1    4    4    0    0 -0.11514818119E+03  0.17712441004E+02 -0.69581240293E+02  0.13569960648E+03  0.00000000000E+00 0. -1.
         13    1    4    4    0    0 -0.72801227926E+01  0.32708158017E+02  0.99245301289E+01  0.34947390275E+02  0.00000000000E+00 0.  1.
         21    1    1    2  503  502 -0.28755024908E+02 -0.40345468882E+02  0.19813155066E+03  0.20423202414E+03  0.00000000000E+00 0.  1.
          1    1    1    2  501    0  0.49652930425E+02  0.23457312969E+02 -0.36363937999E+02  0.65863457382E+02  0.00000000000E+00 0. -1.
<scales pt_clust_5="13000.00000" pt_clust_6="13000.00000" pt_clust_7="13000.00000" pt_clust_8="13000.00000" pt_clust_9="49.54400" pt_clust_10="47.44588"></scales>
<clustering>
<clus scale="   49.544">  1  9  2 -1</clus>
<clus scale="   47.446">  1 10  2 -1</clus>
<clus scale="   80.348">  5  6 -1 -1</clus>
<clus scale="   89.613">  7  8 -1 -1</clus>
<clus scale="  137.597">  2  5  1 -1</clus>
<clus scale="   49.544">  1  5  2 -1</clus>
</clustering>
</event>
<event>
10    4  0.3043429E-005  0.1456777E+03  0.7546771E-02  0.1208132E+00
         21   -1    0    0  503  502  0.00000000000E+00  0.00000000000E+00  0.48419277284E+02  0.48419277284E+02  0.00000000000E+00 0.  1.
         -3   -1    0    0    0  501 -0.00000000000E+00 -0.00000000000E+00 -0.10281567289E+04  0.10281567289E+04  0.00000000000E+00 0.  1.
         24    2    1    2    0    0 -0.90050760777E+02  0.68426367456E+02 -0.43856722750E+03  0.45997015730E+03  0.80249768155E+02 0.  0.
         23    2    1    2    0    0  0.48889727738E+02 -0.11407864480E+03 -0.26654145024E+03  0.30795727087E+03  0.91592539589E+02 0.  0.
        -11    1    3    3    0    0 -0.71288363599E+02  0.19277392665E+02 -0.15662689324E+03  0.17316359993E+03  0.00000000000E+00 0.  1.
         12    1    3    3    0    0 -0.18762397178E+02  0.49148974791E+02 -0.28194033425E+03  0.28680655737E+03  0.00000000000E+00 0. -1.
        -11    1    4    4    0    0  0.74616290557E+02 -0.65556246020E+02 -0.17298121736E+03  0.19946857839E+03  0.00000000000E+00 0.  1.
         11    1    4    4    0    0 -0.25726562820E+02 -0.48522398779E+02 -0.93560232884E+02  0.10848869248E+03  0.00000000000E+00 0. -1.
         21    1    1    2  503  501 -0.28001420983E+02  0.31038176206E+02 -0.23915238120E+02  0.48160010108E+02  0.00000000000E+00 0.  1.
         -4    1    1    2    0  502  0.69162454022E+02  0.14614101137E+02 -0.25071353573E+03  0.26048856788E+03  0.00000000000E+00 0.  1.
<scales pt_clust_5="13000.00000" pt_clust_6="13000.00000" pt_clust_7="13000.00000" pt_clust_8="13000.00000" pt_clust_9="41.80249" pt_clust_10="68.03902"></scales>
<clustering>
<clus scale="   41.802">  1  9  2 -1</clus>
<clus scale="   68.039">  1 10  2 -1</clus>
<clus scale="   80.250">  5  6 -1 -1</clus>
<clus scale="   91.593">  7  8 -1 -1</clus>
<clus scale="  138.827">  2  5  1 -1</clus>
<clus scale="   41.802">  1  5  2 -1</clus>
</clustering>
</event>
<event>
10    4  0.3043429E-005  0.1871819E+03  0.7546771E-02  0.1178202E+00
         21   -1    0    0  503  502  0.00000000000E+00  0.00000000000E+00  0.47171218876E+02  0.47171218876E+02  0.00000000000E+00 0. -1.
          2   -1    0    0  502    0 -0.00000000000E+00 -0.00000000000E+00 -0.18283304180E+04  0.18283304180E+04  0.00000000000E+00 0. -1.
         24    2    1    2    0    0 -0.47006819710E+02 -0.80771913461E+02 -0.75579730598E+03  0.76621564432E+03  0.84398476148E+02 0.  0.
         23    2    1    2    0    0  0.10080396878E+03 -0.83967035801E+02 -0.57552553303E+03  0.59820373186E+03  0.96985372241E+02 0.  0.
        -13    1    3    3    0    0 -0.59570428578E+02 -0.70120490344E+02 -0.41752468878E+03  0.42754226091E+03  0.00000000000E+00 0.  1.
         14    1    3    3    0    0  0.12563608869E+02 -0.10651423117E+02 -0.33827261721E+03  0.33867338341E+03  0.00000000000E+00 0. -1.
        -11    1    4    4    0    0  0.34387853197E+02  0.17271902146E+02 -0.91479964159E+02  0.99244278897E+02  0.00000000000E+00 0.  1.
         11    1    4    4    0    0  0.66416115583E+02 -0.10123893795E+03 -0.48404556887E+03  0.49895945297E+03  0.00000000000E+00 0. -1.
         21    1    1    2  503  501  0.19150552182E+02 -0.15200716339E+02 -0.39660731920E+01  0.24769641957E+02  0.00000000000E+00 0. -1.
          1    1    1    2  501    0 -0.72947701254E+02  0.17993966560E+03 -0.44587028694E+03  0.48631261874E+03  0.00000000000E+00 0. -1.
<scales pt_clust_5="13000.00000" pt_clust_6="13000.00000" pt_clust_7="13000.00000" pt_clust_8="13000.00000" pt_clust_9="24.45006" pt_clust_10="160.09657"></scales>
<clustering>
<clus scale="   24.450">  1  9  2 -1</clus>
<clus scale="   84.398">  5  6 -1 -1</clus>
<clus scale="   96.985">  7  8 -1 -1</clus>
<clus scale="  126.339">  2  5  1 -1</clus>
<clus scale="  160.097">  1 10  2 -1</clus>
<clus scale="   24.450">  1  5  2 -1</clus>
</clustering>
</event>
<event>
10    4  0.3043429E-005  0.2294993E+03  0.7546771E-02  0.1136063E+00
         21   -1    0    0  501  502  0.00000000000E+00  0.00000000000E+00  0.13845402877E+03  0.13845402877E+03  0.00000000000E+00 0. -1.
          2   -1    0    0  503    0 -0.00000000000E+00 -0.00000000000E+00 -0.17982373231E+04  0.17982373231E+04  0.00000000000E+00 0. -1.
         23    2    1    2    0    0 -0.10675366476E+03  0.12693032864E+03 -0.50210611478E+03  0.53614700399E+03  0.88517829383E+02 0.  0.
         24    2    1    2    0    0  0.14509419886E+03  0.16174791244E+03 -0.55908892690E+03  0.60566587712E+03  0.83880944234E+02 0.  0.
        -11    1    4    4    0    0  0.13690387667E+03  0.11806037235E+03 -0.37518859700E+03  0.41647017454E+03  0.00000000000E+00 0.  1.
         12    1    4    4    0    0  0.81903221966E+01  0.43687540087E+02 -0.18390032990E+03  0.18919570258E+03  0.00000000000E+00 0. -1.
        -13    1    3    3    0    0 -0.80114215564E+02  0.12792659735E+03 -0.47380684935E+03  0.49726897384E+03  0.00000000000E+00 0. -1.
         13    1    3    3    0    0 -0.26639449200E+02 -0.99626871078E+00 -0.28299265427E+02  0.38878030155E+02  0.00000000000E+00 0.  1.
         21    1    1    2  503  502  0.25924006210E+02 -0.17856911693E+03  0.24597934252E+01  0.18045784606E+03  0.00000000000E+00 0. -1.
          1    1    1    2  501    0 -0.64264540309E+02 -0.11010912414E+03 -0.60104804607E+03  0.61442062469E+03  0.00000000000E+00 0. -1.
<scales pt_clust_5="13000.00000" pt_clust_6="13000.00000" pt_clust_7="13000.00000" pt_clust_8="13000.00000" pt_clust_9="213.62095" pt_clust_10="127.49105"></scales>
<clustering>
<clus scale="   83.881">  5  6 -1 -1</clus>
<clus scale="   88.518">  7  8 -1 -1</clus>
<clus scale="  127.491">  1 10  2 -1</clus>
<clus scale="  183.782">  2  7  1 -1</clus>
<clus scale="  213.621">  1  9  2 -1</clus>
<clus scale="  127.491">  1  5  2 -1</clus>
</clustering>
</event>
<event>
10    4  0.3043429E-005  0.1120940E+03  0.7546771E-02  0.1260815E+00
         -1   -1    0    0    0  501 -0.00000000000E+00  0.00000000000E+00  0.10768056309E+04  0.10768056309E+04  0.00000000000E+00 0.  1.
         21   -1    0    0  501  502  0.00000000000E+00 -0.00000000000E+00 -0.21553835126E+03  0.21553835126E+03  0.00000000000E+00 0.  1.
         24    2    1    2    0    0  0.75530433758E+02  0.26178005889E+02  0.15519448663E+03  0.19235682690E+03  0.80781716718E+02 0.  0.
         23    2    1    2    0    0  0.89660606379E-01 -0.60885110505E+02  0.21980278102E+02  0.11215566346E+03  0.91590149586E+02 0.  0.
        -11    1    3    3    0    0  0.82200955356E+02  0.27565122208E+01  0.85983495134E+02  0.11898637257E+03  0.00000000000E+00 0.  1.
         12    1    3    3    0    0 -0.66705215986E+01  0.23421493668E+02  0.69210991500E+02  0.73370454329E+02  0.00000000000E+00 0. -1.
        -11    1    4    4    0    0  0.20163065902E+02  0.14520976113E+02 -0.11332747433E+02  0.27310055625E+02  0.00000000000E+00 0.  1.
         11    1    4    4    0    0 -0.20073405296E+02 -0.75406086618E+02  0.33313025535E+02  0.84845607839E+02  0.00000000000E+00 0. -1.
         21    1    1    2  503  502  0.28038863331E+02  0.11278037564E+02 -0.14694787625E+03  0.15002349923E+03  0.00000000000E+00 0.  1.
         -2    1    1    2    0  503 -0.10365895769E+03  0.23429067052E+02  0.83104039114E+03  0.83780799256E+03  0.00000000000E+00 0.  1.
<scales pt_clust_5="13000.00000" pt_clust_6="13000.00000" pt_clust_7="13000.00000" pt_clust_8="13000.00000" pt_clust_9="30.22204" pt_clust_10="105.02265"></scales>
<clustering>
<clus scale="   30.222">  2  9  1 -1</clus>
<clus scale="   80.782">  5  6 -1 -1</clus>
<clus scale="   91.590">  7  8 -1 -1</clus>
<clus scale="  105.023">  2 10  1 -1</clus>
<clus scale="  103.450">  1  5  2 -1</clus>
<clus scale="   30.222">  2  5  1 -1</clus>
</clustering>
</event>
<event>
10    4  0.3043429E-005  0.1519281E+03  0.7546771E-02  0.1202657E+00
         -1   -1    0    0    0  501 -0.00000000000E+00  0.00000000000E+00  0.69877244544E+03  0.69877244544E+03  0.00000000000E+00 0.  1.
         21   -1    0    0  503  502  0.00000000000E+00 -0.00000000000E+00 -0.10671117949E+03  0.10671117949E+03  0.00000000000E+00 0. -1.
         24    2    1    2    0    0 -0.11907589529E+02  0.70493961880E+02  0.98615486691E+02  0.14561381982E+03  0.79794617343E+02 0.  0.
         23    2    1    2    0    0 -0.96508927785E+01 -0.18899257266E+03  0.22342378919E+03  0.31019404640E+03  0.10242472650E+03 0.  0.
        -11    1    3    3    0    0 -0.34691654483E+02  0.31740167980E+02  0.87454766258E+02  0.99293933830E+02  0.00000000000E+00 0.  1.
         12    1    3    3    0    0  0.22784064953E+02  0.38753793899E+02  0.11160720432E+02  0.46319885988E+02  0.00000000000E+00 0. -1.
        -13    1    4    4    0    0 -0.39873233125E+02 -0.51708596196E+02  0.32044018868E+02  0.72735636284E+02  0.00000000000E+00 0. -1.
         13    1    4    4    0    0  0.30222340347E+02 -0.13728397646E+03  0.19137977032E+03  0.23745841012E+03  0.00000000000E+00 0.  1.
         21    1    1    2  503  501 -0.54021531366E+02  0.54715254420E+02  0.18035553018E+02  0.78976997221E+02  0.00000000000E+00 0.  1.
         -2    1    1    2    0  502  0.75580013674E+02  0.63783356358E+02  0.25198643705E+03  0.27069876149E+03  0.00000000000E+00 0.  1.
<scales pt_clust_5="13000.00000" pt_clust_6="13000.00000" pt_clust_7="13000.00000" pt_clust_8="13000.00000" pt_clust_9="76.89008" pt_clust_10="98.61110"></scales>
<clustering>
<clus scale="   76.890">  2  9  1 -1</clus>
<clus scale="   79.795">  5  6 -1 -1</clus>
<clus scale="   98.611">  2 10  1 -1</clus>
<clus scale="  102.425">  7  8 -1 -1</clus>
<clus scale="  137.690">  1  5  2 -1</clus>
<clus scale="   76.890">  2  5  1 -1</clus>
</clustering>
</event>
<event>
10    4  0.3043429E-005  0.1093940E+03  0.7546771E-02  0.1264208E+00
          2   -1    0    0  502    0 -0.00000000000E+00  0.00000000000E+00  0.47789201668E+03  0.47789201668E+03  0.00000000000E+00 0. -1.
         21   -1    0    0  503  502  0.00000000000E+00 -0.00000000000E+00 -0.11014739841E+03  0.11014739841E+03  0.00000000000E+00 0. -1.
         24    2    1    2    0    0 -0.55283086893E+02 -0.40003836783E+02  0.27153920096E+03  0.29160896534E+03  0.81521312277E+02 0.  0.
         23    2    1    2    0    0  0.48230313442E+02  0.22914308341E+02  0.38819171393E+02  0.11010838577E+03  0.88123208560E+02 0.  0.
        -11    1    3    3    0    0 -0.11631445271E+02  0.17643217448E+02  0.17372432852E+02  0.27356444656E+02  0.00000000000E+00 0.  1.
         12    1    3    3    0    0 -0.43651641622E+02 -0.57647054231E+02  0.25416676811E+03  0.26425252069E+03  0.00000000000E+00 0. -1.
        -11    1    4    4    0    0  0.42715595889E+02 -0.25099438971E+02  0.36837793546E+02  0.61738375441E+02  0.00000000000E+00 0.  1.
         11    1    4    4    0    0  0.55147175531E+01  0.48013747312E+02  0.19813778462E+01  0.48370010324E+02  0.00000000000E+00 0. -1.
         21    1    1    2  503  501 -0.56739729801E+02  0.14686405102E+02 -0.39225349338E+02  0.70524573471E+02  0.00000000000E+00 0. -1.
          1    1    1    2  501    0  0.63792503252E+02  0.24031233404E+01  0.96611595247E+02  0.11579749051E+03  0.00000000000E+00 0. -1.
<scales pt_clust_5="13000.00000" pt_clust_6="13000.00000" pt_clust_7="13000.00000" pt_clust_8="13000.00000" pt_clust_9="58.60962" pt_clust_10="54.17171"></scales>
<clustering>
<clus scale="   58.610">  2  9  1 -1</clus>
<clus scale="   54.172">  2 10  1 -1</clus>
<clus scale="   81.521">  5  6 -1 -1</clus>
<clus scale="   88.123">  7  8 -1 -1</clus>
<clus scale="  104.149">  1  5  2 -1</clus>
<clus scale="   58.610">  2  5  1 -1</clus>
</clustering>
</event>
<event>
10    4  0.3043429E-005  0.3540985E+03  0.7546771E-02  0.1089259E+00
          2   -1    0    0  503    0 -0.00000000000E+00  0.00000000000E+00  0.13924655299E+04  0.13924655299E+04  0.00000000000E+00 0. -1.
         21   -1    0    0  501  502  0.00000000000E+00 -0.00000000000E+00 -0.17269496610E+03  0.17269496610E+03  0.00000000000E+00 0. -1.
         23    2    1    2    0    0  0.11636859691E+03 -0.58276863061E+02  0.12345830712E+03  0.20118216709E+03  0.91073967972E+02 0.  0.
         24    2    1    2    0    0  0.23258604367E+03 -0.79804301841E+02  0.80309619820E+03  0.84398500114E+03  0.82958931224E+02 0.  0.
        -13    1    4    4    0    0  0.53794106320E+02 -0.44236163915E+02  0.14117156853E+03  0.15741682196E+03  0.00000000000E+00 0.  1.
         14    1    4    4    0    0  0.17879193735E+03 -0.35568137926E+02  0.66192462967E+03  0.68656817918E+03  0.00000000000E+00 0. -1.
        -13    1    3    3    0    0  0.95844526009E+01 -0.50396032469E+02  0.32856508416E+02  0.60919389077E+02  0.00000000000E+00 0. -1.
         13    1    3    3    0    0  0.10678414431E+03 -0.78808305921E+01  0.90601798708E+02  0.14026277802E+03  0.00000000000E+00 0.  1.
         21    1    1    2  503  502  0.26753693489E+02 -0.53332930399E+01  0.17830575245E+02  0.32590390356E+02  0.00000000000E+00 0. -1.
          1    1    1    2  501    0 -0.37570833407E+03  0.14341445794E+03  0.27538548326E+03  0.48740293745E+03  0.00000000000E+00 0. -1.
<scales pt_clust_5="13000.00000" pt_clust_6="13000.00000" pt_clust_7="13000.00000" pt_clust_8="13000.00000" pt_clust_9="27.28011" pt_clust_10="344.24350"></scales>
<clustering>
<clus scale="   27.280">  2  9  1 -1</clus>
<clus scale="   82.959">  5  6 -1 -1</clus>
<clus scale="   91.074">  7  8 -1 -1</clus>
<clus scale="  163.961">  1  7  2 -1</clus>
<clus scale="  344.243">  2 10  1 -1</clus>
<clus scale="   27.280">  2  5  1 -1</clus>
</clustering>
</event>
<event>
10    4  0.3043429E-005  0.1080597E+03  0.7546771E-02  0.1273253E+00
         21   -1    0    0  501  502  0.00000000000E+00  0.00000000000E+00  0.50951005699E+03  0.50951005699E+03  0.00000000000E+00 0.  1.
          2   -1    0    0  503    0 -0.00000000000E+00 -0.00000000000E+00 -0.11040216426E+03  0.11040216426E+03  0.00000000000E+00 0. -1.
         23    2    1    2    0    0 -0.38625450472E+02 -0.41630673103E+02 -0.26829464107E+02  0.10980775557E+03  0.90071553070E+02 0.  0.
         24    2    1    2    0    0 -0.15962481679E+02 -0.40105301241E+02  0.90944345238E+02  0.12861013675E+03  0.80040348167E+02 0.  0.
        -11    1    4    4    0    0 -0.25912037705E+02 -0.22891412673E+02  0.10069486376E+03  0.10646551582E+03  0.00000000000E+00 0.  1.
         12    1    4    4    0    0  0.99495560255E+01 -0.17213888568E+02 -0.97505185167E+01  0.22144620929E+02  0.00000000000E+00 0. -1.
        -11    1    3    3    0    0 -0.64386704009E+02 -0.45213899335E+02 -0.28660999690E+02  0.83734086544E+02  0.00000000000E+00 0. -1.
         11    1    3    3    0    0  0.25761253537E+02  0.35832262320E+01  0.18315355832E+01  0.26073669028E+02  0.00000000000E+00 0.  1.
         21    1    1    2  503  502  0.26418681402E+02  0.88029677982E+02  0.33999664269E+03  0.35220006810E+03  0.00000000000E+00 0.  1.
          1    1    1    2  501    0  0.28169250750E+02 -0.62937036388E+01 -0.50036310906E+01  0.29294260827E+02  0.00000000000E+00 0. -1.
<scales pt_clust_5="13000.00000" pt_clust_6="13000.00000" pt_clust_7="13000.00000" pt_clust_8="13000.00000" pt_clust_9="59.69935" pt_clust_10="28.86379"></scales>
<clustering>
<clus scale="   28.864">  1 10  2 -1</clus>
<clus scale="   80.040">  5  6 -1 -1</clus>
<clus scale="   90.072">  7  8 -1 -1</clus>
<clus scale="   90.682">  1  5  2 -1</clus>
<clus scale="   59.699">  1  9  2 -1</clus>
<clus scale="   28.864">  1  5  2 -1</clus>
</clustering>
</event>
<event>
10    4  0.3043429E-005  0.3538499E+03  0.7546771E-02  0.1061275E+00
          2   -1    0    0  503    0 -0.00000000000E+00  0.00000000000E+00  0.13858534594E+04  0.13858534594E+04  0.00000000000E+00 0. -1.
         21   -1    0    0  501  502  0.00000000000E+00 -0.00000000000E+00 -0.23294455436E+03  0.23294455436E+03  0.00000000000E+00 0. -1.
         23    2    1    2    0    0  0.15859776240E+03 -0.29736827757E+03  0.10222850968E+04  0.10801463505E+04  0.89823029576E+02 0.  0.
         24    2    1    2    0    0 -0.25913651040E+03  0.28111030566E+03  0.68088849420E+02  0.39659402323E+03  0.80473553903E+02 0.  0.
        -11    1    4    4    0    0 -0.35228958682E+01  0.23418171612E+02 -0.93492017678E+01  0.25460344276E+02  0.00000000000E+00 0.  1.
         12    1    4    4    0    0 -0.25561361453E+03  0.25769213405E+03  0.77438051187E+02  0.37113367896E+03  0.00000000000E+00 0. -1.
        -11    1    3    3    0    0  0.11830317113E+03 -0.27754710331E+03  0.92583499943E+03  0.97375483620E+03  0.00000000000E+00 0. -1.
         11    1    3    3    0    0  0.40294591271E+02 -0.19821174258E+02  0.96450097372E+02  0.10639151431E+03  0.00000000000E+00 0.  1.
         21    1    1    2  503  502  0.39406154845E+02 -0.81310343858E+00 -0.14719428602E+02  0.42073361587E+02  0.00000000000E+00 0. -1.
          1    1    1    2  501    0  0.61132593153E+02  0.17071075340E+02  0.77254387446E+02  0.99984278456E+02  0.00000000000E+00 0. -1.
<scales pt_clust_5="13000.00000" pt_clust_6="13000.00000" pt_clust_7="13000.00000" pt_clust_8="13000.00000" pt_clust_9="39.41454" pt_clust_10="65.57108"></scales>
<clustering>
<clus scale="   39.415">  2  9  1 -1</clus>
<clus scale="   65.571">  2 10  1 -1</clus>
<clus scale="   80.474">  5  6 -1 -1</clus>
<clus scale="   89.823">  7  8 -1 -1</clus>
<clus scale="  351.593">  2  5  1 -1</clus>
<clus scale="   39.415">  2  5  1 -1</clus>
</clustering>
</event>
<event>
10    4  0.3043429E-005  0.2627508E+03  0.7546771E-02  0.1105502E+00
         21   -1    0    0  501  502  0.00000000000E+00  0.00000000000E+00  0.50220674876E+02  0.50220674876E+02  0.00000000000E+00 0.  1.
         -3   -1    0    0    0  501 -0.00000000000E+00 -0.00000000000E+00 -0.13697748169E+04  0.13697748169E+04  0.00000000000E+00 0.  1.
         24    2    1    2    0    0  0.12945806730E+03 -0.13823261852E+02 -0.39367646354E+03  0.42214210950E+03  0.79198036061E+02 0.  0.
         23    2    1    2    0    0  0.54754564747E+02  0.37199179950E+02 -0.35092505461E+03  0.36945038615E+03  0.94674983621E+02 0.  0.
        -13    1    3    3    0    0  0.57738079081E+02  0.33046932468E+02 -0.18249111600E+03  0.19423900983E+03  0.00000000000E+00 0.  1.
         14    1    3    3    0    0  0.71719988215E+02 -0.46870194320E+02 -0.21118534754E+03  0.22790309967E+03  0.00000000000E+00 0. -1.
        -13    1    4    4    0    0  0.64965681927E+00  0.45762291826E+02 -0.25423399037E+03  0.25832059783E+03  0.00000000000E+00 0. -1.
         13    1    4    4    0    0  0.54104907928E+02 -0.85631118763E+01 -0.96691064247E+02  0.11112978832E+03  0.00000000000E+00 0.  1.
         21    1    1    2  503  502 -0.11206295449E+02 -0.35283552218E+02 -0.11345267002E+02  0.38719829521E+02  0.00000000000E+00 0. -1.
         -4    1    1    2    0  503 -0.17300633659E+03  0.11907634119E+02 -0.56360735688E+03  0.58968316661E+03  0.00000000000E+00 0.  1.
<scales pt_clust_5="13000.00000" pt_clust_6="13000.00000" pt_clust_7="13000.00000" pt_clust_8="13000.00000" pt_clust_9="37.02040" pt_clust_10="177.00701"></scales>
<clustering>
<clus scale="   37.020">  1  9  2 -1</clus>
<clus scale="   79.198">  5  6 -1 -1</clus>
<clus scale="   94.675">  7  8 -1 -1</clus>
<clus scale="  103.705">  5  7 -1 -1</clus>
<clus scale="  177.007">  1 10  2 -1</clus>
<clus scale="   37.020">  1  5  2 -1</clus>
</clustering>
</event>
<event>
10    4  0.3043429E-005  0.2228343E+03  0.7546771E-02  0.1132462E+00
         21   -1    0    0  503  502  0.00000000000E+00  0.00000000000E+00  0.61970183407E+02  0.61970183407E+02  0.00000000000E+00 0. -1.
          2   -1    0    0  502    0 -0.00000000000E+00 -0.00000000000E+00 -0.12346277033E+04  0.12346277033E+04  0.00000000000E+00 0. -1.
         23    2    1    2    0    0 -0.10022484150E+03 -0.14051725444E+03 -0.38806566319E+03  0.43412462246E+03  0.89883876348E+02 0.  0.
         24    2    1    2    0    0  0.88342371407E+02  0.22467222176E+03 -0.61555179956E+03  0.66607208094E+03  0.80411549229E+02 0.  0.
        -11    1    4    4    0    0  0.44179778019E+02  0.95252073469E+02 -0.16816723021E+03  0.19825495606E+03  0.00000000000E+00 0.  1.
         12    1    4    4    0    0  0.44162593388E+02  0.12942014829E+03 -0.44738456935E+03  0.46781712488E+03  0.00000000000E+00 0. -1.
        -11    1    3    3    0    0  0.32625544256E+01 -0.20751087465E+02 -0.81082869284E+01  0.22516576322E+02  0.00000000000E+00 0.  1.
         11    1    3    3    0    0 -0.10348739593E+03 -0.11976616698E+03 -0.37995737626E+03  0.41160804614E+03  0.00000000000E+00 0. -1.
         21    1    1    2  503  501  0.95040619829E+01 -0.19892363970E+02 -0.87974004035E+01  0.23736629760E+02  0.00000000000E+00 0. -1.
          1    1    1    2  501    0  0.23784081106E+01 -0.64262603349E+02 -0.16024265678E+03  0.17266455359E+03  0.00000000000E+00 0. -1.
<scales pt_clust_5="13000.00000" pt_clust_6="13000.00000" pt_clust_7="13000.00000" pt_clust_8="13000.00000" pt_clust_9="22.04616" pt_clust_10="66.61958"></scales>
<clustering>
<clus scale="   22.046">  1  9  2 -1</clus>
<clus scale="   66.620">  1 10  2 -1</clus>
<clus scale="   80.412">  5  6 -1 -1</clus>
<clus scale="   89.884">  7  8 -1 -1</clus>
<clus scale="  219.185">  1  5  2 -1</clus>
<clus scale="   22.046">  1  5  2 -1</clus>
</clustering>
</event>
<event>
10    4  0.3043429E-005  0.1619997E+03  0.7546771E-02  0.1207575E+00
          2   -1    0    0  503    0 -0.00000000000E+00  0.00000000000E+00  0.13290303127E+04  0.13290303127E+04  0.00000000000E+00 0. -1.
         21   -1    0    0  501  502  0.00000000000E+00 -0.00000000000E+00 -0.78428607659E+02  0.78428607659E+02  0.00000000000E+00 0.  1.
         23    2    1    2    0    0  0.10985487760E+02 -0.47742786888E+02  0.28820702800E+02  0.10615007259E+03  0.89650155378E+02 0.  0.
         24    2    1    2    0    0 -0.67763942553E+02 -0.95512008984E+02  0.43111146031E+03  0.45395626858E+03  0.80651762565E+02 0.  0.
        -11    1    4    4    0    0 -0.81551863506E+02 -0.89177817154E+02  0.32451103841E+03  0.34628139362E+03  0.00000000000E+00 0.  1.
         12    1    4    4    0    0  0.13787920952E+02 -0.63341918291E+01  0.10660042189E+03  0.10767487496E+03  0.00000000000E+00 0. -1.
        -13    1    3    3    0    0  0.48536161999E+02 -0.11787673169E+02  0.10588340910E+02  0.51057038923E+02  0.00000000000E+00 0.  1.
         13    1    3    3    0    0 -0.37550674239E+02 -0.35955113719E+02  0.18232361889E+02  0.55093033665E+02  0.00000000000E+00 0. -1.
         21    1    1    2  503  502  0.93032778925E+02 -0.47025892322E+02  0.19698496864E+03  0.22286679962E+03  0.00000000000E+00 0. -1.
          1    1    1    2  501    0 -0.36254324132E+02  0.19028068819E+03  0.59368457327E+03  0.62448577954E+03  0.00000000000E+00 0. -1.
<scales pt_clust_5="13000.00000" pt_clust_6="13000.00000" pt_clust_7="13000.00000" pt_clust_8="13000.00000" pt_clust_9="109.63725" pt_clust_10="140.49629"></scales>
<clustering>
<clus scale="   80.652">  5  6 -1 -1</clus>
<clus scale="   89.650">  7  8 -1 -1</clus>
<clus scale="  102.163">  1  7  2 -1</clus>
<clus scale="  109.637">  2  9  1 -1</clus>
<clus scale="  140.496">  2 10  1 -1</clus>
<clus scale="  109.637">  2  5  1 -1</clus>
</clustering>
</event>
<event>
10    4  0.3043429E-005  0.9939115E+02  0.7546771E-02  0.1292296E+00
         21   -1    0    0  503  502  0.00000000000E+00  0.00000000000E+00  0.25880244471E+02  0.25880244471E+02  0.00000000000E+00 0. -1.
          2   -1    0    0  502    0 -0.00000000000E+00 -0.00000000000E+00 -0.11838537866E+04  0.11838537866E+04  0.00000000000E+00 0. -1.
         24    2    1    2    0    0 -0.26981459524E+02  0.19915877599E+02 -0.52812385525E+03  0.53419811480E+03  0.72994369825E+02 0.  0.
         23    2    1    2    0    0  0.14900585072E+02 -0.53103145790E+02 -0.17740739581E+03  0.20765935398E+03  0.92774197268E+02 0.  0.
        -13    1    3    3    0    0 -0.48212187140E+02  0.41576649317E+01 -0.23785819133E+03  0.24273075690E+03  0.00000000000E+00 0.  1.
         14    1    3    3    0    0  0.21230727616E+02  0.15758212667E+02 -0.29026566393E+03  0.29146735789E+03  0.00000000000E+00 0. -1.
        -11    1    4    4    0    0  0.36699043019E+02  0.74998934115E+01 -0.10104183626E+03  0.10776140698E+03  0.00000000000E+00 0.  1.
         11    1    4    4    0    0 -0.21798457947E+02 -0.60603039201E+02 -0.76365559557E+02  0.99897947004E+02  0.00000000000E+00 0. -1.
         21    1    1    2  503  501 -0.49918637564E+02  0.86528114410E+01 -0.15569518160E+03  0.16373066633E+03  0.00000000000E+00 0.  1.
          1    1    1    2  501    0  0.61999512016E+02  0.24534456750E+02 -0.29674710943E+03  0.30414589594E+03  0.00000000000E+00 0. -1.
<scales pt_clust_5="13000.00000" pt_clust_6="13000.00000" pt_clust_7="13000.00000" pt_clust_8="13000.00000" pt_clust_9="50.66302" pt_clust_10="59.53001"></scales>
<clustering>
<clus scale="   50.663">  1  9  2 -1</clus>
<clus scale="   59.530">  1 10  2 -1</clus>
<clus scale="   72.994">  5  6 -1 -1</clus>
<clus scale="   81.239">  2  5  1 -1</clus>
<clus scale="   92.774">  7  8 -1 -1</clus>
<clus scale="   50.663">  1  5  2 -1</clus>
</clustering>
</event>
<event>
10    4  0.3043429E-005  0.1392713E+03  0.7546771E-02  0.1236839E+00
         21   -1    0    0  503  502  0.00000000000E+00  0.00000000000E+00  0.69454554791E+02  0.69454554791E+02  0.00000000000E+00 0.  1.
          2   -1    0    0  502    0 -0.00000000000E+00 -0.00000000000E+00 -0.78424721516E+03  0.78424721516E+03  0.00000000000E+00 0. -1.
         24    2    1    2    0    0  0.32862728048E+02 -0.53178071076E-01 -0.97161670240E+02  0.12919020297E+03  0.78547798547E+02 0.  0.
         23    2    1    2    0    0 -0.47384064388E+02 -0.10971936655E+03 -0.11222137705E+03  0.18751752802E+03  0.91025254157E+02 0.  0.
        -11    1    3    3    0    0 -0.78382244731E+01 -0.22161436712E+02 -0.73522178238E+02  0.77188585509E+02  0.00000000000E+00 0.  1.
         12    1    3    3    0    0  0.40700952521E+02  0.22108258641E+02 -0.23639492002E+02  0.52001617459E+02  0.00000000000E+00 0. -1.
        -11    1    4    4    0    0 -0.33095536817E+02  0.50159642467E+01 -0.35293090316E+02  0.48642334222E+02  0.00000000000E+00 0. -1.
         11    1    4    4    0    0 -0.14288527571E+02 -0.11473533080E+03 -0.76928286738E+02  0.13887519380E+03  0.00000000000E+00 0.  1.
         21    1    1    2  503  501  0.17479960057E+02  0.11582889475E+02  0.11466237598E+01  0.21000644710E+02  0.00000000000E+00 0.  1.
          1    1    1    2  501    0 -0.29586237169E+01  0.98189655146E+02 -0.50655623683E+03  0.51599339424E+03  0.00000000000E+00 0. -1.
<scales pt_clust_5="13000.00000" pt_clust_6="13000.00000" pt_clust_7="13000.00000" pt_clust_8="13000.00000" pt_clust_9="20.96932" pt_clust_10="105.40833"></scales>
<clustering>
<clus scale="   20.969">  1  9  2 -1</clus>
<clus scale="   78.548">  5  6 -1 -1</clus>
<clus scale="   87.164">  2  5  1 -1</clus>
<clus scale="   91.025">  7  8 -1 -1</clus>
<clus scale="  105.408">  1 10  2 -1</clus>
<clus scale="   20.969">  1  5  2 -1</clus>
</clustering>
</event>
<event>
10    4  0.3043429E-005  0.9197850E+02  0.7546771E-02  0.1304260E+00
         21   -1    0    0  501  502  0.00000000000E+00  0.00000000000E+00  0.11229614166E+03  0.11229614166E+03  0.00000000000E+00 0.  1.
          2   -1    0    0  503    0 -0.00000000000E+00 -0.00000000000E+00 -0.65857985840E+03  0.65857985840E+03  0.00000000000E+00 0. -1.
         23    2    1    2    0    0  0.23366627023E+02 -0.63286929648E+01 -0.19007639268E+03  0.21195150055E+03  0.90599955390E+02 0.  0.
         24    2    1    2    0    0  0.70827745603E+02  0.99267136625E+01 -0.15660248491E+03  0.19010312626E+03  0.80621034137E+02 0.  0.
        -13    1    4    4    0    0  0.91414096688E+01  0.23507197857E+02 -0.47873792551E+01  0.25672411689E+02  0.00000000000E+00 0.  1.
         14    1    4    4    0    0  0.61686335934E+02 -0.13580484194E+02 -0.15181510565E+03  0.16443071457E+03  0.00000000000E+00 0. -1.
        -11    1    3    3    0    0  0.27050525951E+02 -0.33242909392E+02 -0.17641165940E+03  0.18154309558E+03  0.00000000000E+00 0.  1.
         11    1    3    3    0    0 -0.36838989285E+01  0.26914216427E+02 -0.13664733278E+02  0.30408404969E+02  0.00000000000E+00 0. -1.
         21    1    1    2  503  502 -0.81003204282E+02 -0.37459784691E+02  0.59447646370E+02  0.10723235161E+03  0.00000000000E+00 0.  1.
          1    1    1    2  501    0 -0.13191168343E+02  0.33861763993E+02 -0.25905248553E+03  0.26158902164E+03  0.00000000000E+00 0. -1.
<scales pt_clust_5="13000.00000" pt_clust_6="13000.00000" pt_clust_7="13000.00000" pt_clust_8="13000.00000" pt_clust_9="91.69896" pt_clust_10="36.34044"></scales>
<clustering>
<clus scale="   36.340">  1 10  2 -1</clus>
<clus scale="   80.621">  5  6 -1 -1</clus>
<clus scale="   90.600">  7  8 -1 -1</clus>
<clus scale="   91.699">  1  9  2 -1</clus>
<clus scale="   82.167">  1  5  2 -1</clus>
<clus scale="   36.340">  1  5  2 -1</clus>
</clustering>
</event>
<event>
10    4  0.3043429E-005  0.2869692E+03  0.7546771E-02  0.1131069E+00
          2   -1    0    0  502    0 -0.00000000000E+00  0.00000000000E+00  0.85111987230E+03  0.85111987230E+03  0.00000000000E+00 0. -1.
         21   -1    0    0  503  502  0.00000000000E+00 -0.00000000000E+00 -0.22856487863E+03  0.22856487863E+03  0.00000000000E+00 0.  1.
         23    2    1    2    0    0  0.30557850262E+02  0.44779796894E+02  0.13750153560E+03  0.17351787200E+03  0.90899764513E+02 0.  0.
         24    2    1    2    0    0 -0.21066846659E+03 -0.21981180481E+03  0.31873996253E+03  0.44778993427E+03  0.78881107797E+02 0.  0.
        -11    1    4    4    0    0 -0.85522069401E+02 -0.59646168376E+02  0.65771507943E+02  0.12327846938E+03  0.00000000000E+00 0.  1.
         12    1    4    4    0    0 -0.12514639719E+03 -0.16016563643E+03  0.25296845459E+03  0.32451146488E+03  0.00000000000E+00 0. -1.
        -11    1    3    3    0    0  0.51100754717E+02  0.44440735448E+02  0.51454442141E+02  0.85051900131E+02  0.00000000000E+00 0.  1.
         11    1    3    3    0    0 -0.20542904455E+02  0.33906144624E+00  0.86047093456E+02  0.88465971866E+02  0.00000000000E+00 0. -1.
         21    1    1    2  503  501 -0.21543195027E+02  0.19608411386E+02 -0.91508453615E+02  0.96033307410E+02  0.00000000000E+00 0.  1.
          1    1    1    2  501    0  0.20165381135E+03  0.15542359653E+03  0.25782194915E+03  0.36234363725E+03  0.00000000000E+00 0. -1.
<scales pt_clust_5="13000.00000" pt_clust_6="13000.00000" pt_clust_7="13000.00000" pt_clust_8="13000.00000" pt_clust_9="29.13072" pt_clust_10="275.91503"></scales>
<clustering>
<clus scale="   29.131">  2  9  1 -1</clus>
<clus scale="   78.881">  5  6 -1 -1</clus>
<clus scale="   90.900">  7  8 -1 -1</clus>
<clus scale="  106.187">  1  7  2 -1</clus>
<clus scale="  275.915">  2 10  1 -1</clus>
<clus scale="   29.131">  2  5  1 -1</clus>
</clustering>
</event>
<event>
10    4  0.1160522E-004  0.2731479E+03  0.7546771E-02  0.1099491E+00
          4   -1    0    0  503    0 -0.00000000000E+00  0.00000000000E+00  0.58286861994E+03  0.58286861994E+03  0.00000000000E+00 0. -1.
         21   -1    0    0  501  502  0.00000000000E+00 -0.00000000000E+00 -0.81087515864E+03  0.81087515864E+03  0.00000000000E+00 0. -1.
         24    2    1    2    0    0 -0.45484704184E+02  0.12862629325E+03  0.91459124210E+02  0.18263381340E+03  0.79854597659E+02 0.  0.
         23    2    1    2    0    0  0.47829601093E+01  0.61444720262E+02  0.86089176471E+02  0.13873811284E+03  0.89658169144E+02 0.  0.
        -13    1    3    3    0    0 -0.53110972347E+01  0.10356529644E+03  0.36141456578E+02  0.10981886570E+03  0.00000000000E+00 0.  1.
         14    1    3    3    0    0 -0.40173606950E+02  0.25060996808E+02  0.55317667632E+02  0.72814947700E+02  0.00000000000E+00 0. -1.
        -11    1    4    4    0    0  0.27740411227E+02  0.13851546833E+02 -0.69177918544E+01  0.31768720604E+02  0.00000000000E+00 0.  1.
         11    1    4    4    0    0 -0.22957451117E+02  0.47593173429E+02  0.93006968325E+02  0.10696939224E+03  0.00000000000E+00 0. -1.
         21    1    1    2  503  502  0.90559277429E+02 -0.26159650051E+03 -0.70663345759E+03  0.75892328676E+03  0.00000000000E+00 0. -1.
          3    1    1    2  501    0 -0.49857533354E+02  0.71525487002E+02  0.30107861820E+03  0.31344856558E+03  0.00000000000E+00 0. -1.
<scales pt_clust_5="13000.00000" pt_clust_6="13000.00000" pt_clust_7="13000.00000" pt_clust_8="13000.00000" pt_clust_9="201.58589" pt_clust_10="87.18759"></scales>
<clustering>
<clus scale="   79.855">  5  6 -1 -1</clus>
<clus scale="   87.188">  2 10  1 -1</clus>
<clus scale="   89.658">  7  8 -1 -1</clus>
<clus scale="   99.478">  5  7 -1 -1</clus>
<clus scale="  201.586">  2  9  1 -1</clus>
<clus scale="   87.188">  2  5  1 -1</clus>
</clustering>
</event>
<event>
10    4  0.3043429E-005  0.1408397E+03  0.7546771E-02  0.1229725E+00
         21   -1    0    0  503  502  0.00000000000E+00  0.00000000000E+00  0.36674241692E+03  0.36674241692E+03  0.00000000000E+00 0. -1.
          2   -1    0    0  502    0 -0.00000000000E+00 -0.00000000000E+00 -0.27131586123E+03  0.27131586123E+03  0.00000000000E+00 0. -1.
         24    2    1    2    0    0  0.46143398391E+02 -0.15140825649E+02 -0.19377271538E+03  0.21675081207E+03  0.84110590847E+02 0.  0.
         23    2    1    2    0    0 -0.27115944564E+02  0.13617790956E+03  0.18348015421E+03  0.24713568718E+03  0.90174183625E+02 0.  0.
        -13    1    3    3    0    0 -0.19884995943E+02 -0.12962373220E+02 -0.20689202223E+02  0.31487763842E+02  0.00000000000E+00 0.  1.
         14    1    3    3    0    0  0.66028394334E+02 -0.21784524283E+01 -0.17308351316E+03  0.18526304823E+03  0.00000000000E+00 0. -1.
        -13    1    4    4    0    0 -0.33263063316E+02  0.96890678351E+02  0.63001024556E+02  0.12026372698E+03  0.00000000000E+00 0. -1.
         13    1    4    4    0    0  0.61471187514E+01  0.39287231205E+02  0.12047912965E+03  0.12687196020E+03  0.00000000000E+00 0.  1.
         21    1    1    2  503  501  0.13523459695E+02 -0.29481582583E+02  0.56738174755E+02  0.65354939739E+02  0.00000000000E+00 0. -1.
          1    1    1    2  501    0 -0.32550913522E+02 -0.91555501325E+02  0.48980942105E+02  0.10881683915E+03  0.00000000000E+00 0. -1.
<scales pt_clust_5="13000.00000" pt_clust_6="13000.00000" pt_clust_7="13000.00000" pt_clust_8="13000.00000" pt_clust_9="32.43528" pt_clust_10="108.18705"></scales>
<clustering>
<clus scale="   32.435">  1  9  2 -1</clus>
<clus scale="   84.111">  5  6 -1 -1</clus>
<clus scale="   90.174">  7  8 -1 -1</clus>
<clus scale="   97.545">  2  5  1 -1</clus>
<clus scale="  108.187">  1 10  2 -1</clus>
<clus scale="   32.435">  1  5  2 -1</clus>
</clustering>
</event>
<event>
10    4  0.3043429E-005  0.3679936E+03  0.7546771E-02  0.1055463E+00
          2   -1    0    0  502    0 -0.00000000000E+00  0.00000000000E+00  0.14009509304E+04  0.14009509304E+04  0.00000000000E+00 0. -1.
         21   -1    0    0  503  502  0.00000000000E+00 -0.00000000000E+00 -0.11675416457E+03  0.11675416457E+03  0.00000000000E+00 0. -1.
         24    2    1    2    0    0  0.60984476267E+02  0.18234191251E+03  0.52540597272E+03  0.56517998741E+03  0.80058120084E+02 0.  0.
         23    2    1    2    0    0 -0.96483692521E+01  0.11966976854E+03  0.17317912358E+03  0.23038999336E+03  0.93137509419E+02 0.  0.
        -11    1    3    3    0    0  0.47425510696E+02  0.47924685820E+02  0.24205274694E+03  0.25126775932E+03  0.00000000000E+00 0.  1.
         12    1    3    3    0    0  0.13558965570E+02  0.13441722669E+03  0.28335322579E+03  0.31391222809E+03  0.00000000000E+00 0. -1.
        -11    1    4    4    0    0  0.18114918640E+02  0.10366147768E+03  0.16754387596E+03  0.19785045515E+03  0.00000000000E+00 0. -1.
         11    1    4    4    0    0 -0.27763287892E+02  0.16008290866E+02  0.56352476289E+01  0.32539538209E+02  0.00000000000E+00 0.  1.
         21    1    1    2  503  501 -0.19844753396E+02 -0.23135993439E+02 -0.31727727130E+02  0.43997012382E+02  0.00000000000E+00 0. -1.
          1    1    1    2  501    0 -0.31491353619E+02 -0.27887568761E+03  0.61733939664E+03  0.67813810182E+03  0.00000000000E+00 0. -1.
<scales pt_clust_5="13000.00000" pt_clust_6="13000.00000" pt_clust_7="13000.00000" pt_clust_8="13000.00000" pt_clust_9="30.48095" pt_clust_10="290.43992"></scales>
<clustering>
<clus scale="   30.481">  2  9  1 -1</clus>
<clus scale="   80.058">  5  6 -1 -1</clus>
<clus scale="   93.138">  7  8 -1 -1</clus>
<clus scale="  143.705">  5  7 -1 -1</clus>
<clus scale="  290.440">  2 10  1 -1</clus>
<clus scale="   30.481">  2  5  1 -1</clus>
</clustering>
</event>
<event>
10    4  0.3043429E-005  0.2495572E+03  0.7546771E-02  0.1137278E+00
          2   -1    0    0  503    0 -0.00000000000E+00  0.00000000000E+00  0.14918875330E+04  0.14918875330E+04  0.00000000000E+00 0. -1.
         21   -1    0    0  501  502  0.00000000000E+00 -0.00000000000E+00 -0.19312177251E+03  0.19312177251E+03  0.00000000000E+00 0. -1.
         24    2    1    2    0    0  0.93232580632E+02  0.63938436728E+02  0.34775779191E+03  0.37539372989E+03  0.84879519464E+02 0.  0.
         23    2    1    2    0    0 -0.13176185173E+03  0.16989146240E+03  0.32824626698E+03  0.40718082194E+03  0.10874886392E+03 0.  0.
        -11    1    3    3    0    0 -0.20472014292E+01  0.36612913513E+02  0.14692873206E+03  0.15143562584E+03  0.00000000000E+00 0.  1.
         12    1    3    3    0    0  0.95279782061E+02  0.27325523215E+02  0.20082905986E+03  0.22395810405E+03  0.00000000000E+00 0. -1.
        -11    1    4    4    0    0 -0.68163748396E+02  0.50537120171E+02  0.51772093340E+02  0.99401442442E+02  0.00000000000E+00 0.  1.
         11    1    4    4    0    0 -0.63598103338E+02  0.11935434223E+03  0.27647417364E+03  0.30777937950E+03  0.00000000000E+00 0. -1.
         21    1    1    2  503  502 -0.23113307559E+02  0.29835223942E+01 -0.11904716173E+03  0.12130685516E+03  0.00000000000E+00 0. -1.
          1    1    1    2  501    0  0.61642578661E+02 -0.23681342153E+03  0.74180886334E+03  0.78112789852E+03  0.00000000000E+00 0. -1.
<scales pt_clust_5="13000.00000" pt_clust_6="13000.00000" pt_clust_7="13000.00000" pt_clust_8="13000.00000" pt_clust_9="23.30507" pt_clust_10="224.61638"></scales>
<clustering>
<clus scale="   23.305">  2  9  1 -1</clus>
<clus scale="   84.880">  5  6 -1 -1</clus>
<clus scale="  108.749">  7  8 -1 -1</clus>
<clus scale="  138.782">  1  5  2 -1</clus>
<clus scale="  224.616">  2 10  1 -1</clus>
<clus scale="   23.305">  2  5  1 -1</clus>
</clustering>
</event>
<event>
10    4  0.3043429E-005  0.1237318E+03  0.7546771E-02  0.1241057E+00
          2   -1    0    0  503    0 -0.00000000000E+00  0.00000000000E+00  0.14144161153E+03  0.14144161153E+03  0.00000000000E+00 0. -1.
         21   -1    0    0  501  502  0.00000000000E+00 -0.00000000000E+00 -0.30482019092E+03  0.30482019092E+03  0.00000000000E+00 0. -1.
         24    2    1    2    0    0 -0.87236299960E+02 -0.14305326630E+02  0.70653581722E+02  0.13763377604E+03  0.78334623860E+02 0.  0.
         23    2    1    2    0    0  0.65638680839E+02 -0.61004039021E+00 -0.82046807425E+02  0.13954140074E+03  0.91822194158E+02 0.  0.
        -13    1    3    3    0    0 -0.27280836865E+02  0.51447401094E+01  0.69227075331E+02  0.74586194230E+02  0.00000000000E+00 0.  1.
         14    1    3    3    0    0 -0.59955463096E+02 -0.19450066740E+02  0.14265063906E+01  0.63047581807E+02  0.00000000000E+00 0. -1.
        -11    1    4    4    0    0  0.10980362776E+02  0.38089142931E+02 -0.53872643986E+02  0.66885072669E+02  0.00000000000E+00 0.  1.
         11    1    4    4    0    0  0.54658318063E+02 -0.38699183321E+02 -0.28174163439E+02  0.72656328070E+02  0.00000000000E+00 0. -1.
         21    1    1    2  503  502 -0.24398553853E+02  0.23944614947E+00 -0.67558242646E+02  0.71829401460E+02  0.00000000000E+00 0. -1.
          1    1    1    2  501    0  0.45996172975E+02  0.14675920871E+02 -0.84427111044E+02  0.97257224210E+02  0.00000000000E+00 0. -1.
<scales pt_clust_5="13000.00000" pt_clust_6="13000.00000" pt_clust_7="13000.00000" pt_clust_8="13000.00000" pt_clust_9="24.39973" pt_clust_10="39.43917"></scales>
<clustering>
<clus scale="   24.400">  2  9  1 -1</clus>
<clus scale="   39.439">  2 10  1 -1</clus>
<clus scale="   78.335">  5  6 -1 -1</clus>
<clus scale="   91.822">  7  8 -1 -1</clus>
<clus scale="  114.081">  1  5  2 -1</clus>
<clus scale="   24.400">  2  5  1 -1</clus>
</clustering>
</event>
<event>
10    4  0.3043429E-005  0.9881338E+02  0.7546771E-02  0.1287975E+00
         21   -1    0    0  501  502  0.00000000000E+00  0.00000000000E+00  0.15575981713E+03  0.15575981713E+03  0.00000000000E+00 0. -1.
          2   -1    0    0  503    0 -0.00000000000E+00 -0.00000000000E+00 -0.15246584597E+03  0.15246584597E+03  0.00000000000E+00 0. -1.
         24    2    1    2    0    0  0.50649912743E+02  0.67289944596E+01 -0.61048938261E+02  0.11360534157E+03  0.81046330849E+02 0.  0.
         23    2    1    2    0    0  0.11228519052E+02 -0.61351177149E+01  0.78301601558E+02  0.12079730682E+03  0.91088578969E+02 0.  0.
        -13    1    3    3    0    0  0.96572948174E+01  0.39630325611E+02 -0.39548944821E+02  0.56815007592E+02  0.00000000000E+00 0.  1.
         14    1    3    3    0    0  0.40992617926E+02 -0.32901331151E+02 -0.21499993440E+02  0.56790333983E+02  0.00000000000E+00 0. -1.
        -11    1    4    4    0    0  0.23746551863E+02  0.36086845281E+02  0.19663838205E+02  0.47463940636E+02  0.00000000000E+00 0.  1.
         11    1    4    4    0    0 -0.12518032811E+02 -0.42221962996E+02  0.58637763353E+02  0.73333366183E+02  0.00000000000E+00 0. -1.
         21    1    1    2  503  502 -0.29106615965E+02  0.15154466786E+02  0.43700562558E+01  0.33105140812E+02  0.00000000000E+00 0. -1.
          1    1    1    2  501    0 -0.32771815830E+02 -0.15748343531E+02 -0.18328748400E+02  0.40717873897E+02  0.00000000000E+00 0. -1.
<scales pt_clust_5="13000.00000" pt_clust_6="13000.00000" pt_clust_7="13000.00000" pt_clust_8="13000.00000" pt_clust_9="32.81544" pt_clust_10="38.02705"></scales>
<clustering>
<clus scale="   32.815">  1  9  2 -1</clus>
<clus scale="   38.027">  1 10  2 -1</clus>
<clus scale="   81.046">  5  6 -1 -1</clus>
<clus scale="   89.641">  2  5  1 -1</clus>
<clus scale="   91.089">  7  8 -1 -1</clus>
<clus scale="   32.815">  1  5  2 -1</clus>
</clustering>
</event>
<event>
10    4  0.3043429E-005  0.1008812E+03  0.7546771E-02  0.1281248E+00
          2   -1    0    0  502    0 -0.00000000000E+00  0.00000000000E+00  0.90138754174E+03  0.90138754174E+03  0.00000000000E+00 0. -1.
         21   -1    0    0  503  502  0.00000000000E+00 -0.00000000000E+00 -0.84582497198E+02  0.84582497198E+02  0.00000000000E+00 0.  1.
         23    2    1    2    0    0 -0.61877884769E+01  0.48947925159E+02  0.32201308634E+03  0.33728681249E+03  0.87382938851E+02 0.  0.
         24    2    1    2    0    0  0.11457823707E+03 -0.24646727145E+02  0.66947559107E+02  0.15756333196E+03  0.81293261346E+02 0.  0.
        -11    1    4    4    0    0  0.74393881153E+02 -0.53433194365E+02  0.31990040350E+02  0.97020196323E+02  0.00000000000E+00 0.  1.
         12    1    4    4    0    0  0.40184355912E+02  0.28786467220E+02  0.34957518757E+02  0.60543135637E+02  0.00000000000E+00 0. -1.
        -11    1    3    3    0    0  0.32258258842E+02  0.52124501855E+02  0.18135703308E+03  0.19143649706E+03  0.00000000000E+00 0. -1.
         11    1    3    3    0    0 -0.38446047319E+02 -0.31765766961E+01  0.14065605326E+03  0.14585031543E+03  0.00000000000E+00 0.  1.
         21    1    1    2  503  501 -0.11628906478E+02 -0.16712502130E+02 -0.22552698089E+02  0.30383603874E+02  0.00000000000E+00 0.  1.
          1    1    1    2  501    0 -0.96761542110E+02 -0.75886958842E+01  0.45039709718E+03  0.46073629061E+03  0.00000000000E+00 0. -1.
<scales pt_clust_5="13000.00000" pt_clust_6="13000.00000" pt_clust_7="13000.00000" pt_clust_8="13000.00000" pt_clust_9="20.36024" pt_clust_10="98.21624"></scales>
<clustering>
<clus scale="   20.360">  2  9  1 -1</clus>
<clus scale="   81.293">  5  6 -1 -1</clus>
<clus scale="   87.383">  7  8 -1 -1</clus>
<clus scale="   98.216">  2 10  1 -1</clus>
<clus scale="   95.655">  2  5  1 -1</clus>
<clus scale="   20.360">  2  5  1 -1</clus>
</clustering>
</event>
<event>
10    4  0.3043429E-005  0.3602616E+03  0.7546771E-02  0.1058785E+00
         21   -1    0    0  501  502  0.00000000000E+00  0.00000000000E+00  0.26147215603E+03  0.26147215603E+03  0.00000000000E+00 0. -1.
          2   -1    0    0  503    0 -0.00000000000E+00 -0.00000000000E+00 -0.15499501572E+04  0.15499501572E+04  0.00000000000E+00 0. -1.
         24    2    1    2    0    0 -0.12687793684E+02 -0.24579655313E+03 -0.25439638946E+03  0.36381654869E+03  0.84071591452E+02 0.  0.
         23    2    1    2    0    0  0.60823231661E+02  0.47654106352E+03 -0.76336473999E+03  0.90707508336E+03  0.96273723630E+02 0.  0.
        -13    1    3    3    0    0 -0.47636632994E+02 -0.11954712650E+03 -0.11598206947E+03  0.17324146356E+03  0.00000000000E+00 0.  1.
         14    1    3    3    0    0  0.34948839310E+02 -0.12624942663E+03 -0.13841431999E+03  0.19057508512E+03  0.00000000000E+00 0. -1.
        -13    1    4    4    0    0  0.13096274068E+02  0.39374597830E+03 -0.59888707172E+03  0.71684944898E+03  0.00000000000E+00 0. -1.
         13    1    4    4    0    0  0.47726957593E+02  0.82795085220E+02 -0.16447766827E+03  0.19022563438E+03  0.00000000000E+00 0.  1.
         21    1    1    2  503  502  0.11533927988E+02 -0.41901804791E+02  0.10620135099E+03  0.11474981347E+03  0.00000000000E+00 0. -1.
          1    1    1    2  501    0 -0.59669365965E+02 -0.18884270560E+03 -0.37691822276E+03  0.42578086775E+03  0.00000000000E+00 0. -1.
<scales pt_clust_5="13000.00000" pt_clust_6="13000.00000" pt_clust_7="13000.00000" pt_clust_8="13000.00000" pt_clust_9="43.46024" pt_clust_10="203.98379"></scales>
<clustering>
<clus scale="   43.460">  1  9  2 -1</clus>
<clus scale="   84.072">  5  6 -1 -1</clus>
<clus scale="   96.274">  7  8 -1 -1</clus>
<clus scale="  203.984">  1 10  2 -1</clus>
<clus scale="  357.194">  2  5  1 -1</clus>
<clus scale="   43.460">  1  5  2 -1</clus>
</clustering>
</event>
<event>
10    4  0.3043429E-005  0.1473705E+03  0.7546771E-02  0.1219532E+00
         21   -1    0    0  503  502  0.00000000000E+00  0.00000000000E+00  0.19270632720E+03  0.19270632720E+03  0.00000000000E+00 0.  1.
          2   -1    0    0  502    0 -0.00000000000E+00 -0.00000000000E+00 -0.19083520406E+04  0.19083520406E+04  0.00000000000E+00 0. -1.
         24    2    1    2    0    0  0.42610614609E+02  0.53180364184E+02 -0.75093666076E+03  0.75842083000E+03  0.81562683131E+02 0.  0.
         23    2    1    2    0    0 -0.60176828193E+02  0.12253452102E+03 -0.17723227517E+03  0.24082750909E+03  0.89166419000E+02 0.  0.
        -11    1    3    3    0    0  0.15173466160E+02 -0.20194243224E+02 -0.11928608357E+03  0.12193117431E+03  0.00000000000E+00 0.  1.
         12    1    3    3    0    0  0.27437148449E+02  0.73374607408E+02 -0.63165057720E+03  0.63648965569E+03  0.00000000000E+00 0. -1.
        -13    1    4    4    0    0 -0.60585349963E+02  0.25161624640E+02 -0.75003706190E+02  0.99645611679E+02  0.00000000000E+00 0. -1.
         13    1    4    4    0    0  0.40852177025E+00  0.97372896380E+02 -0.10222856898E+03  0.14118189741E+03  0.00000000000E+00 0.  1.
         21    1    1    2  503  501  0.82776215553E+01 -0.29292739693E+02  0.14993118845E+03  0.15299001565E+03  0.00000000000E+00 0.  1.
          1    1    1    2  501    0  0.92885920291E+01 -0.14642214551E+03 -0.93740796597E+03  0.94882001312E+03  0.00000000000E+00 0. -1.
<scales pt_clust_5="13000.00000" pt_clust_6="13000.00000" pt_clust_7="13000.00000" pt_clust_8="13000.00000" pt_clust_9="30.43984" pt_clust_10="117.33470"></scales>
<clustering>
<clus scale="   30.440">  1  9  2 -1</clus>
<clus scale="   81.563">  5  6 -1 -1</clus>
<clus scale="   89.166">  7  8 -1 -1</clus>
<clus scale="  105.287">  2  5  1 -1</clus>
<clus scale="  117.335">  1 10  2 -1</clus>
<clus scale="   30.440">  1  5  2 -1</clus>
</clustering>
</event>
<event>
10    4  0.3043429E-005  0.1767579E+03  0.7546771E-02  0.1170983E+00
         21   -1    0    0  501  502  0.00000000000E+00  0.00000000000E+00  0.32650597803E+03  0.32650597803E+03  0.00000000000E+00 0.  1.
          2   -1    0    0  503    0 -0.00000000000E+00 -0.00000000000E+00 -0.86742119956E+03  0.86742119956E+03  0.00000000000E+00 0. -1.
         24    2    1    2    0    0  0.99090299012E+02  0.85168033978E+02 -0.10394763784E+03  0.18593960476E+03  0.81828746996E+02 0.  0.
         23    2    1    2    0    0 -0.16925570611E+03 -0.12258397163E+03 -0.72122073091E+02  0.23572176361E+03  0.81785281462E+02 0.  0.
        -11    1    3    3    0    0  0.47579765134E+02 -0.55127757505E+01 -0.19376427841E+02  0.51668856215E+02  0.00000000000E+00 0.  1.
         12    1    3    3    0    0  0.51510533877E+02  0.90680809729E+02 -0.84571210002E+02  0.13427074854E+03  0.00000000000E+00 0. -1.
        -13    1    4    4    0    0 -0.79551675315E+01 -0.26261071274E+02  0.11909903861E+02  0.29912779290E+02  0.00000000000E+00 0.  1.
         13    1    4    4    0    0 -0.16130053857E+03 -0.96322900358E+02 -0.84031976952E+02  0.20580898432E+03  0.00000000000E+00 0. -1.
         21    1    1    2  503  502  0.11458311784E+03 -0.21484108004E+02  0.18436038191E+03  0.21812750448E+03  0.00000000000E+00 0.  1.
          1    1    1    2  501    0 -0.44417710747E+02  0.58900045658E+02 -0.54920589251E+03  0.55413830474E+03  0.00000000000E+00 0. -1.
<scales pt_clust_5="13000.00000" pt_clust_6="13000.00000" pt_clust_7="13000.00000" pt_clust_8="13000.00000" pt_clust_9="88.29759" pt_clust_10="73.77096"></scales>
<clustering>
<clus scale="   73.771">  1 10  2 -1</clus>
<clus scale="   81.785">  7  8 -1 -1</clus>
<clus scale="   81.829">  5  6 -1 -1</clus>
<clus scale="   88.298">  1  9  2 -1</clus>
<clus scale="  176.738">  1  7  2 -1</clus>
<clus scale="   73.771">  1  5  2 -1</clus>
</clustering>
</event>
<event>
10    4  0.3043429E-005  0.1649429E+03  0.7546771E-02  0.1184449E+00
         21   -1    0    0  503  502  0.00000000000E+00  0.00000000000E+00  0.39161536231E+02  0.39161536231E+02  0.00000000000E+00 0. -1.
          2   -1    0    0  502    0 -0.00000000000E+00 -0.00000000000E+00 -0.16194017488E+04  0.16194017488E+04  0.00000000000E+00 0. -1.
         24    2    1    2    0    0 -0.89463214982E+02  0.41614364081E+02 -0.31065132121E+03  0.33557052948E+03  0.79799215222E+02 0.  0.
         23    2    1    2    0    0  0.20898503971E+03 -0.97263173852E+01 -0.64453523212E+03  0.68338005248E+03  0.88392774651E+02 0.  0.
        -13    1    3    3    0    0 -0.56133798496E+02 -0.17158520822E+02 -0.12779327122E+03  0.14062908070E+03  0.00000000000E+00 0.  1.
         14    1    3    3    0    0 -0.33329416486E+02  0.58772884903E+02 -0.18285805000E+03  0.19494144878E+03  0.00000000000E+00 0. -1.
        -11    1    4    4    0    0  0.16593157040E+03 -0.34658556377E+02 -0.41063622139E+03  0.44424836286E+03  0.00000000000E+00 0.  1.
         11    1    4    4    0    0  0.43053469316E+02  0.24932238992E+02 -0.23389901073E+03  0.23913168962E+03  0.00000000000E+00 0. -1.
         21    1    1    2  503  501 -0.25888458825E+02 -0.39690475714E+01 -0.51300886090E+02  0.57599883269E+02  0.00000000000E+00 0. -1.
          1    1    1    2  501    0 -0.93633365905E+02 -0.27918999124E+02 -0.57375277315E+03  0.58201281980E+03  0.00000000000E+00 0. -1.
<scales pt_clust_5="13000.00000" pt_clust_6="13000.00000" pt_clust_7="13000.00000" pt_clust_8="13000.00000" pt_clust_9="26.19095" pt_clust_10="100.68328"></scales>
<clustering>
<clus scale="   26.191">  1  9  2 -1</clus>
<clus scale="   79.799">  5  6 -1 -1</clus>
<clus scale="   88.393">  7  8 -1 -1</clus>
<clus scale="  100.683">  1 10  2 -1</clus>
<clus scale="  160.502">  2  5  1 -1</clus>
<clus scale="   26.191">  1  5  2 -1</clus>
</clustering>
</event>
<event>
10    4  0.3043429E-005  0.1011342E+03  0.7546771E-02  0.1285013E+00
         21   -1    0    0  501  502  0.00000000000E+00  0.00000000000E+00  0.15955047145E+03  0.15955047145E+03  0.00000000000E+00 0. -1.
          2   -1    0    0  503    0 -0.00000000000E+00 -0.00000000000E+00 -0.20393678851E+03  0.20393678851E+03  0.00000000000E+00 0. -1.
         24    2    1    2    0    0 -0.25987696681E+02 -0.25221633975E+02 -0.65463747895E+02  0.10931384061E+03  0.79702711756E+02 0.  0.
         23    2    1    2    0    0  0.18552197701E+02  0.41300910115E+02  0.15514030433E+01  0.10400641451E+03  0.93621462240E+02 0.  0.
        -13    1    3    3    0    0  0.28460568851E+02 -0.10230085913E+02 -0.15868021555E+02  0.34153370920E+02  0.00000000000E+00 0.  1.
         14    1    3    3    0    0 -0.54448265533E+02 -0.14991548062E+02 -0.49595726339E+02  0.75160469689E+02  0.00000000000E+00 0. -1.
        -11    1    4    4    0    0 -0.23085043335E+02 -0.18998149427E+02 -0.54678445157E+01  0.30393193828E+02  0.00000000000E+00 0.  1.
         11    1    4    4    0    0  0.41637241036E+02  0.60299059542E+02  0.70192475590E+01  0.73613220681E+02  0.00000000000E+00 0. -1.
         21    1    1    2  503  502 -0.33389082932E+02 -0.28770277888E+02  0.70806452034E+02  0.83403317671E+02  0.00000000000E+00 0. -1.
          1    1    1    2  501    0  0.40824581912E+02  0.12691001748E+02 -0.51280424245E+02  0.66763687169E+02  0.00000000000E+00 0. -1.
<scales pt_clust_5="13000.00000" pt_clust_6="13000.00000" pt_clust_7="13000.00000" pt_clust_8="13000.00000" pt_clust_9="25.66130" pt_clust_10="42.75172"></scales>
<clustering>
<clus scale="   42.752">  1 10  2 -1</clus>
<clus scale="   25.661">  1  9  2 -1</clus>
<clus scale="   79.703">  5  6 -1 -1</clus>
<clus scale="   88.406">  2  5  1 -1</clus>
<clus scale="   93.621">  7  8 -1 -1</clus>
<clus scale="   42.752">  1  5  2 -1</clus>
</clustering>
</event>
<event>
10    4  0.3043429E-005  0.9579952E+02  0.7546771E-02  0.1298096E+00
          2   -1    0    0  503    0 -0.00000000000E+00  0.00000000000E+00  0.29846772416E+03  0.29846772416E+03  0.00000000000E+00 0. -1.
         21   -1    0    0  501  502  0.00000000000E+00 -0.00000000000E+00 -0.10254498312E+03  0.10254498312E+03  0.00000000000E+00 0. -1.
         24    2    1    2    0    0  0.46014752220E+01  0.31830764946E+01  0.11629399909E+03  0.14170955195E+03  0.80783645240E+02 0.  0.
         23    2    1    2    0    0 -0.21016404587E+02  0.18737104421E+02  0.61333763235E+02  0.11671768149E+03  0.95228243272E+02 0.  0.
        -13    1    3    3    0    0  0.35246392877E+02 -0.14957594282E+01  0.10131307432E+03  0.10727946931E+03  0.00000000000E+00 0.  1.
         14    1    3    3    0    0 -0.30644917655E+02  0.46788359228E+01  0.14980924777E+02  0.34430082643E+02  0.00000000000E+00 0. -1.
        -13    1    4    4    0    0 -0.36394814688E+02 -0.57822932671E+01 -0.11287583625E+02  0.38541237599E+02  0.00000000000E+00 0.  1.
         13    1    4    4    0    0  0.15378410101E+02  0.24519397688E+02  0.72621346859E+02  0.78176443894E+02  0.00000000000E+00 0. -1.
         21    1    1    2  503  502 -0.22427315823E+02  0.15791132951E+02 -0.49037871644E+02  0.56187696432E+02  0.00000000000E+00 0. -1.
          1    1    1    2  501    0  0.38842245188E+02 -0.37711313867E+02  0.67332850349E+02  0.86397777407E+02  0.00000000000E+00 0. -1.
<scales pt_clust_5="13000.00000" pt_clust_6="13000.00000" pt_clust_7="13000.00000" pt_clust_8="13000.00000" pt_clust_9="27.42890" pt_clust_10="48.97246"></scales>
<clustering>
<clus scale="   27.429">  2  9  1 -1</clus>
<clus scale="   48.972">  2 10  1 -1</clus>
<clus scale="   80.784">  5  6 -1 -1</clus>
<clus scale="   81.456">  1  5  2 -1</clus>
<clus scale="   95.228">  7  8 -1 -1</clus>
<clus scale="   27.429">  2  5  1 -1</clus>
</clustering>
</event>
<event>
10    4  0.3043429E-005  0.2060072E+03  0.7546771E-02  0.1177968E+00
         21   -1    0    0  501  502  0.00000000000E+00  0.00000000000E+00  0.14077700794E+03  0.14077700794E+03  0.00000000000E+00 0. -1.
         -1   -1    0    0    0  501 -0.00000000000E+00 -0.00000000000E+00 -0.10320670975E+04  0.10320670975E+04  0.00000000000E+00 0.  1.
         23    2    1    2    0    0 -0.14916622027E+02  0.23959738908E+02 -0.46412068673E+02  0.10815656357E+03  0.93526399602E+02 0.  0.
         24    2    1    2    0    0 -0.15803978953E+03 -0.11129070826E+03 -0.62462656572E+03  0.65854950756E+03  0.78529679018E+02 0.  0.
        -11    1    4    4    0    0 -0.49483527693E+02 -0.72136230526E+02 -0.19553635280E+03  0.21421185900E+03  0.00000000000E+00 0.  1.
         12    1    4    4    0    0 -0.10855626183E+03 -0.39154477733E+02 -0.42909021292E+03  0.44433764857E+03  0.00000000000E+00 0. -1.
        -11    1    3    3    0    0  0.35442429783E+02 -0.10104209541E+02 -0.19014813403E+02  0.41470760882E+02  0.00000000000E+00 0. -1.
         11    1    3    3    0    0 -0.50359051810E+02  0.34063948449E+02 -0.27397255271E+02  0.66685802683E+02  0.00000000000E+00 0.  1.
         21    1    1    2  503  502  0.17755303218E+02 -0.18593990309E+02  0.61966748034E+02  0.67088487313E+02  0.00000000000E+00 0. -1.
         -2    1    1    2    0  503  0.15520110833E+03  0.10592495966E+03 -0.28221820323E+03  0.33904954703E+03  0.00000000000E+00 0.  1.
<scales pt_clust_5="13000.00000" pt_clust_6="13000.00000" pt_clust_7="13000.00000" pt_clust_8="13000.00000" pt_clust_9="25.70967" pt_clust_10="190.45221"></scales>
<clustering>
<clus scale="   25.710">  1  9  2 -1</clus>
<clus scale="   78.530">  5  6 -1 -1</clus>
<clus scale="   93.526">  7  8 -1 -1</clus>
<clus scale="   95.273">  2  7  1 -1</clus>
<clus scale="  190.452">  1 10  2 -1</clus>
<clus scale="   25.710">  1  5  2 -1</clus>
</clustering>
</event>
<event>
10    4  0.3043429E-005  0.2998621E+03  0.7546771E-02  0.1087286E+00
          2   -1    0    0  502    0 -0.00000000000E+00  0.00000000000E+00  0.18111001599E+04  0.18111001599E+04  0.00000000000E+00 0. -1.
         21   -1    0    0  503  502  0.00000000000E+00 -0.00000000000E+00 -0.19582712342E+03  0.19582712342E+03  0.00000000000E+00 0. -1.
         24    2    1    2    0    0 -0.26145453104E+03  0.18289862622E+02  0.11546594276E+04  0.11868039518E+04  0.81069325308E+02 0.  0.
         23    2    1    2    0    0  0.29102498862E+03 -0.20838196390E+03  0.46371645767E+03  0.59891951089E+03  0.12471182996E+03 0.  0.
        -11    1    3    3    0    0 -0.82439322547E+02  0.16139511098E+02  0.22740218260E+03  0.24242210784E+03  0.00000000000E+00 0.  1.
         12    1    3    3    0    0 -0.17901520850E+03  0.21503515240E+01  0.92725724497E+03  0.94438184397E+03  0.00000000000E+00 0. -1.
        -13    1    4    4    0    0  0.58833219210E+02  0.28988089129E+01  0.38490861171E+02  0.70365454375E+02  0.00000000000E+00 0.  1.
         13    1    4    4    0    0  0.23219176941E+03 -0.21128077281E+03  0.42522559650E+03  0.52855405651E+03  0.00000000000E+00 0. -1.
         21    1    1    2  503  501 -0.49556101883E+02  0.27854765610E+02  0.77817562514E+01  0.57378139839E+02  0.00000000000E+00 0. -1.
          1    1    1    2  501    0  0.19985644309E+02  0.16223733567E+03 -0.10884604978E+02  0.16382568080E+03  0.00000000000E+00 0. -1.
<scales pt_clust_5="13000.00000" pt_clust_6="13000.00000" pt_clust_7="13000.00000" pt_clust_8="13000.00000" pt_clust_9="56.84800" pt_clust_10="176.54485"></scales>
<clustering>
<clus scale="   56.848">  2  9  1 -1</clus>
<clus scale="   81.069">  5  6 -1 -1</clus>
<clus scale="  124.712">  7  8 -1 -1</clus>
<clus scale="  176.545">  2 10  1 -1</clus>
<clus scale="  284.493">  1  5  2 -1</clus>
<clus scale="   56.848">  2  5  1 -1</clus>
</clustering>
</event>
<event>
10    4  0.3043429E-005  0.1462501E+03  0.7546771E-02  0.1205166E+00
         -3   -1    0    0    0  501 -0.00000000000E+00  0.00000000000E+00  0.14686549140E+04  0.14686549140E+04  0.00000000000E+00 0.  1.
         21   -1    0    0  501  502  0.00000000000E+00 -0.00000000000E+00 -0.42457198320E+02  0.42457198320E+02  0.00000000000E+00 0.  1.
         24    2    1    2    0    0 -0.12749864922E+03  0.12054680072E+02  0.59619853025E+03  0.61624110603E+03  0.88877401094E+02 0.  0.
         23    2    1    2    0    0  0.97263720254E+02  0.62990355559E+02  0.40062332178E+03  0.42640253590E+03  0.88837269743E+02 0.  0.
        -11    1    3    3    0    0 -0.78074642786E+02  0.41927604594E+02  0.24962746222E+03  0.26489138107E+03  0.00000000000E+00 0.  1.
         12    1    3    3    0    0 -0.49424006435E+02 -0.29872924522E+02  0.34657106803E+03  0.35134972495E+03  0.00000000000E+00 0. -1.
        -13    1    4    4    0    0  0.92143922393E+02  0.83789722604E+02  0.33779832787E+03  0.36002629120E+03  0.00000000000E+00 0.  1.
         13    1    4    4    0    0  0.51197978609E+01 -0.20799367045E+02  0.62824993910E+02  0.66376244692E+02  0.00000000000E+00 0. -1.
         21    1    1    2  503  502 -0.16625932694E+02  0.21392799699E+02  0.12521872696E+01  0.27122711699E+02  0.00000000000E+00 0.  1.
         -4    1    1    2    0  503  0.46860861662E+02 -0.96437835331E+02  0.42812367643E+03  0.44134575875E+03  0.00000000000E+00 0.  1.
<scales pt_clust_5="13000.00000" pt_clust_6="13000.00000" pt_clust_7="13000.00000" pt_clust_8="13000.00000" pt_clust_9="27.09379" pt_clust_10="101.29206"></scales>
<clustering>
<clus scale="   27.094">  2  9  1 -1</clus>
<clus scale="   88.837">  7  8 -1 -1</clus>
<clus scale="   88.877">  5  6 -1 -1</clus>
<clus scale="  101.292">  2 10  1 -1</clus>
<clus scale="  146.226">  2  7  1 -1</clus>
<clus scale="   27.094">  2  5  1 -1</clus>
</clustering>
</event>
<event>
10    4  0.5592116E-005  0.2401339E+03  0.7546771E-02  0.1152482E+00
          2   -1    0    0  503    0 -0.00000000000E+00  0.00000000000E+00  0.84686356779E+03  0.84686356779E+03  0.00000000000E+00 0. -1.
         21   -1    0    0  501  502  0.00000000000E+00 -0.00000000000E+00 -0.25848199366E+03  0.25848199366E+03  0.00000000000E+00 0.  1.
         23    2    1    2    0    0  0.30269301222E+02  0.51857975913E+02  0.11221556298E+03  0.15560652484E+03  0.89529758930E+02 0.  0.
         24    2    1    2    0    0 -0.24523086261E+03  0.63842460496E+02 -0.10587624067E+03  0.28610997133E+03  0.80219085126E+02 0.  0.
        -13    1    4    4    0    0 -0.18833003409E+03  0.15674239977E+02 -0.92360917254E+02  0.21034358220E+03  0.00000000000E+00 0.  1.
         14    1    4    4    0    0 -0.56900828524E+02  0.48168220519E+02 -0.13515323416E+02  0.75766389130E+02  0.00000000000E+00 0. -1.
        -11    1    3    3    0    0  0.43638275444E+02  0.70064284286E+02  0.72236291657E+02  0.10968766954E+03  0.00000000000E+00 0.  1.
         11    1    3    3    0    0 -0.13368974222E+02 -0.18206308373E+02  0.39979271326E+02  0.45918855300E+02  0.00000000000E+00 0. -1.
         21    1    1    2  503  502  0.29343018225E+02 -0.68122390199E+01 -0.11526823064E+02  0.32253479952E+02  0.00000000000E+00 0.  1.
          1    1    1    2  501    0  0.18561854317E+03 -0.10888819739E+03  0.59356907488E+03  0.63137558533E+03  0.00000000000E+00 0. -1.
<scales pt_clust_5="13000.00000" pt_clust_6="13000.00000" pt_clust_7="13000.00000" pt_clust_8="13000.00000" pt_clust_9="30.12340" pt_clust_10="226.33873"></scales>
<clustering>
<clus scale="   30.123">  2  9  1 -1</clus>
<clus scale="   80.219">  5  6 -1 -1</clus>
<clus scale="   89.530">  7  8 -1 -1</clus>
<clus scale="  108.290">  1  7  2 -1</clus>
<clus scale="  226.339">  2 10  1 -1</clus>
<clus scale="   30.123">  2  5  1 -1</clus>
</clustering>
</event>
<event>
10    4  0.3043429E-005  0.1974846E+03  0.7546771E-02  0.1152775E+00
         21   -1    0    0  501  502  0.00000000000E+00  0.00000000000E+00  0.37266459096E+03  0.37266459096E+03  0.00000000000E+00 0. -1.
          2   -1    0    0  503    0 -0.00000000000E+00 -0.00000000000E+00 -0.41333572263E+03  0.41333572263E+03  0.00000000000E+00 0. -1.
         24    2    1    2    0    0 -0.18179624476E+03  0.16785854264E+02 -0.23238792004E+03  0.30612585416E+03  0.79857709039E+02 0.  0.
         23    2    1    2    0    0  0.20162710964E+03 -0.62928854514E+02  0.26106383417E+03  0.34750659301E+03  0.89403437310E+02 0.  0.
        -13    1    3    3    0    0 -0.66077865647E+02  0.10811614496E+02 -0.14904409762E+03  0.16339314053E+03  0.00000000000E+00 0.  1.
         14    1    3    3    0    0 -0.11571837911E+03  0.59742397678E+01 -0.83343822424E+02  0.14273271364E+03  0.00000000000E+00 0. -1.
        -11    1    4    4    0    0  0.16703469387E+03 -0.85558501939E+02  0.22109524710E+03  0.29000681802E+03  0.00000000000E+00 0. -1.
         11    1    4    4    0    0  0.34592415765E+02  0.22629647424E+02  0.39968587077E+02  0.57499774990E+02  0.00000000000E+00 0.  1.
         21    1    1    2  503  502  0.26887373172E+02  0.45235544575E+02 -0.50217197441E+01  0.52862113071E+02  0.00000000000E+00 0. -1.
          1    1    1    2  501    0 -0.46718238051E+02  0.90745567505E+00 -0.64325326052E+02  0.79505753339E+02  0.00000000000E+00 0. -1.
<scales pt_clust_5="13000.00000" pt_clust_6="13000.00000" pt_clust_7="13000.00000" pt_clust_8="13000.00000" pt_clust_9="51.17940" pt_clust_10="46.72707"></scales>
<clustering>
<clus scale="   46.727">  1 10  2 -1</clus>
<clus scale="   51.179">  2  9  1 -1</clus>
<clus scale="   79.858">  5  6 -1 -1</clus>
<clus scale="   89.403">  7  8 -1 -1</clus>
<clus scale="  193.351">  2  5  1 -1</clus>
<clus scale="   46.727">  1  5  2 -1</clus>
</clustering>
</event>
<event>
10    4  0.3043429E-005  0.1242089E+03  0.7546771E-02  0.1236778E+00
         21   -1    0    0  501  502  0.00000000000E+00  0.00000000000E+00  0.49772518772E+03  0.49772518772E+03  0.00000000000E+00 0.  1.
          2   -1    0    0  503    0 -0.00000000000E+00 -0.00000000000E+00 -0.98766305850E+02  0.98766305850E+02  0.00000000000E+00 0. -1.
         24    2    1    2    0    0  0.10711944886E+03  0.33138438519E+02  0.73271359913E+02  0.16001355819E+03  0.87538072805E+02 0.  0.
         23    2    1    2    0    0 -0.44491104477E+02  0.92279842815E+01  0.19535367641E+03  0.21950417472E+03  0.89187497796E+02 0.  0.
        -13    1    3    3    0    0  0.10730066300E+03  0.52159444702E+01  0.76532114632E+02  0.13190073134E+03  0.00000000000E+00 0.  1.
         14    1    3    3    0    0 -0.18121414105E+00  0.27922494049E+02 -0.32607547190E+01  0.28112826856E+02  0.00000000000E+00 0. -1.
        -13    1    4    4    0    0 -0.12965813769E+02 -0.21768455992E+02  0.73640230727E+01  0.26385731727E+02  0.00000000000E+00 0.  1.
         13    1    4    4    0    0 -0.31525290708E+02  0.30996440273E+02  0.18798965334E+03  0.19311844300E+03  0.00000000000E+00 0. -1.
         21    1    1    2  503  502 -0.17023458652E+02 -0.63435558944E+02  0.14943213091E+03  0.16322937858E+03  0.00000000000E+00 0.  1.
          1    1    1    2  501    0 -0.45604885733E+02  0.21069136143E+02 -0.19098285363E+02  0.53744382072E+02  0.00000000000E+00 0. -1.
<scales pt_clust_5="13000.00000" pt_clust_6="13000.00000" pt_clust_7="13000.00000" pt_clust_8="13000.00000" pt_clust_9="64.93486" pt_clust_10="50.23661"></scales>
<clustering>
<clus scale="   50.237">  1 10  2 -1</clus>
<clus scale="   64.935">  1  9  2 -1</clus>
<clus scale="   87.538">  5  6 -1 -1</clus>
<clus scale="   89.187">  7  8 -1 -1</clus>
<clus scale="  123.030">  2  5  1 -1</clus>
<clus scale="   50.237">  1  5  2 -1</clus>
</clustering>
</event>
<event>
10    4  0.3043429E-005  0.1021694E+03  0.7546771E-02  0.1279145E+00
         21   -1    0    0  503  502  0.00000000000E+00  0.00000000000E+00  0.12734777653E+03  0.12734777653E+03  0.00000000000E+00 0. -1.
          2   -1    0    0  502    0 -0.00000000000E+00 -0.00000000000E+00 -0.11317536413E+04  0.11317536413E+04  0.00000000000E+00 0. -1.
         24    2    1    2    0    0  0.14850688281E+02  0.50956641512E+02 -0.22345312572E+03  0.24391388325E+03  0.82131363025E+02 0.  0.
         23    2    1    2    0    0  0.63023820181E+02 -0.37679532645E+02 -0.26032667470E+03  0.28488651514E+03  0.89434891703E+02 0.  0.
        -11    1    3    3    0    0  0.29834247623E+02  0.32519838392E+02 -0.42036436805E+02  0.60948209486E+02  0.00000000000E+00 0.  1.
         12    1    3    3    0    0 -0.14983559342E+02  0.18436803120E+02 -0.18141668891E+03  0.18296567377E+03  0.00000000000E+00 0. -1.
        -11    1    4    4    0    0  0.68172589329E+00  0.25939321217E+02 -0.46511681144E+02  0.53260206705E+02  0.00000000000E+00 0.  1.
         11    1    4    4    0    0  0.62342094288E+02 -0.63618853862E+02 -0.21381499356E+03  0.23162630843E+03  0.00000000000E+00 0. -1.
         21    1    1    2  503  501  0.28746486413E+01  0.68992502786E+02  0.87432261287E+02  0.11141198032E+03  0.00000000000E+00 0. -1.
          1    1    1    2  501    0 -0.80749157104E+02 -0.82269611653E+02 -0.60805832566E+03  0.61888903915E+03  0.00000000000E+00 0. -1.
<scales pt_clust_5="13000.00000" pt_clust_6="13000.00000" pt_clust_7="13000.00000" pt_clust_8="13000.00000" pt_clust_9="69.05236" pt_clust_10="105.71958"></scales>
<clustering>
<clus scale="   69.052">  1  9  2 -1</clus>
<clus scale="   82.131">  5  6 -1 -1</clus>
<clus scale="   89.435">  7  8 -1 -1</clus>
<clus scale="  105.720">  1 10  2 -1</clus>
<clus scale="   95.841">  2  5  1 -1</clus>
<clus scale="   69.052">  1  5  2 -1</clus>
</clustering>
</event>
<event>
10    4  0.3043429E-005  0.3879545E+03  0.7546771E-02  0.1104181E+00
         21   -1    0    0  503  502  0.00000000000E+00  0.00000000000E+00  0.30123824643E+03  0.30123824643E+03  0.00000000000E+00 0. -1.
          2   -1    0    0  502    0 -0.00000000000E+00 -0.00000000000E+00 -0.70035701564E+03  0.70035701564E+03  0.00000000000E+00 0. -1.
         24    2    1    2    0    0  0.19361901856E+02  0.43291034749E+01 -0.12538648529E+03  0.15117173596E+03  0.82082267753E+02 0.  0.
         23    2    1    2    0    0 -0.38485281827E+03  0.34171808150E+02 -0.24820473372E+03  0.46819871230E+03  0.91241658026E+02 0.  0.
        -11    1    3    3    0    0  0.17546918148E+02 -0.33014705996E+02 -0.97815195116E+02  0.10471713109E+03  0.00000000000E+00 0.  1.
         12    1    3    3    0    0  0.18149837084E+01  0.37343809471E+02 -0.27571290175E+02  0.46454604869E+02  0.00000000000E+00 0. -1.
        -13    1    4    4    0    0 -0.18876093576E+03  0.55814474520E+02 -0.15207160786E+03  0.24874026685E+03  0.00000000000E+00 0.  1.
         13    1    4    4    0    0 -0.19609188251E+03 -0.21642666370E+02 -0.96133125860E+02  0.21945844546E+03  0.00000000000E+00 0. -1.
         21    1    1    2  503  501  0.97489762813E+02 -0.45668713106E+02  0.22176661719E+02  0.10991673910E+03  0.00000000000E+00 0.  1.
          1    1    1    2  501    0  0.26800115360E+03  0.71678014815E+01 -0.47704211928E+02  0.27230807470E+03  0.00000000000E+00 0. -1.
<scales pt_clust_5="13000.00000" pt_clust_6="13000.00000" pt_clust_7="13000.00000" pt_clust_8="13000.00000" pt_clust_9="64.55580" pt_clust_10="64.55580"></scales>
<clustering>
<clus scale="   64.556">  9 10 -1 -1</clus>
<clus scale="   82.082">  5  6 -1 -1</clus>
<clus scale="   84.446">  2  5  1 -1</clus>
<clus scale="   91.242">  7  8 -1 -1</clus>
<clus scale="  385.299">  2  7  1 -1</clus>
<clus scale="  387.954">  1  5  2 -1</clus>
</clustering>
</event>
<event>
10    4  0.3043429E-005  0.8852658E+02  0.7546771E-02  0.1308279E+00
          2   -1    0    0  503    0 -0.00000000000E+00  0.00000000000E+00  0.40381471176E+03  0.40381471176E+03  0.00000000000E+00 0. -1.
         21   -1    0    0  501  502  0.00000000000E+00 -0.00000000000E+00 -0.19557307930E+03  0.19557307930E+03  0.00000000000E+00 0. -1.
         23    2    1    2    0    0 -0.25721879719E+01 -0.10573906362E+02  0.70894478019E+02  0.11007775771E+03  0.83502467519E+02 0.  0.
         24    2    1    2    0    0  0.54742417190E+02  0.95052312353E+02 -0.28213412953E+02  0.13891552429E+03  0.80435389560E+02 0.  0.
        -13    1    4    4    0    0 -0.16637040315E+02  0.15975971198E+02 -0.22519758031E+02  0.32236039892E+02  0.00000000000E+00 0.  1.
         14    1    4    4    0    0  0.71379457505E+02  0.79076341155E+02 -0.56936549221E+01  0.10667948439E+03  0.00000000000E+00 0. -1.
        -13    1    3    3    0    0  0.11536430166E+02 -0.33368408428E+02  0.75059533925E+02  0.82948619850E+02  0.00000000000E+00 0. -1.
         13    1    3    3    0    0 -0.14108618138E+02  0.22794502066E+02 -0.41650559065E+01  0.27129137858E+02  0.00000000000E+00 0.  1.
         21    1    1    2  503  502 -0.19901270047E+02 -0.15518273959E+02 -0.84924006526E+02  0.88594380524E+02  0.00000000000E+00 0.  1.
          1    1    1    2  501    0 -0.32268959172E+02 -0.68960132032E+02  0.25048457392E+03  0.26180012855E+03  0.00000000000E+00 0. -1.
<scales pt_clust_5="13000.00000" pt_clust_6="13000.00000" pt_clust_7="13000.00000" pt_clust_8="13000.00000" pt_clust_9="25.23643" pt_clust_10="77.30834"></scales>
<clustering>
<clus scale="   25.236">  2  9  1 -1</clus>
<clus scale="   77.308">  2 10  1 -1</clus>
<clus scale="   80.435">  5  6 -1 -1</clus>
<clus scale="   83.502">  7  8 -1 -1</clus>
<clus scale="   85.640">  2  5  1 -1</clus>
<clus scale="   25.236">  2  5  1 -1</clus>
</clustering>
</event>
<event>
10    4  0.3043429E-005  0.1099167E+03  0.7546771E-02  0.1265283E+00
          2   -1    0    0  502    0 -0.00000000000E+00  0.00000000000E+00  0.91519040042E+03  0.91519040042E+03  0.00000000000E+00 0. -1.
         21   -1    0    0  503  502  0.00000000000E+00 -0.00000000000E+00 -0.34009294710E+03  0.34009294710E+03  0.00000000000E+00 0. -1.
         23    2    1    2    0    0  0.54194664576E+02 -0.46219209459E+02  0.45499187431E+03  0.46973266995E+03  0.92508910597E+02 0.  0.
         24    2    1    2    0    0 -0.13381469548E+02  0.37993998758E+02  0.12688392407E+03  0.15590573918E+03  0.81144695783E+02 0.  0.
        -13    1    4    4    0    0 -0.22423006588E+02 -0.17882054248E+02  0.20018853576E+02  0.34975900089E+02  0.00000000000E+00 0.  1.
         14    1    4    4    0    0  0.90415370395E+01  0.55876053005E+02  0.10686507049E+03  0.12092983909E+03  0.00000000000E+00 0. -1.
        -13    1    3    3    0    0 -0.11182589402E+02  0.20431922852E+02  0.83373098606E+02  0.86565509000E+02  0.00000000000E+00 0.  1.
         13    1    3    3    0    0  0.65377253978E+02 -0.66651132311E+02  0.37161877570E+03  0.38316716095E+03  0.00000000000E+00 0. -1.
         21    1    1    2  503  501  0.72563463674E+00 -0.84147478636E+02 -0.30410906692E+03  0.31553708069E+03  0.00000000000E+00 0. -1.
          1    1    1    2  501    0 -0.41538829664E+02  0.92372689336E+02  0.29733072187E+03  0.31410785771E+03  0.00000000000E+00 0. -1.
<scales pt_clust_5="13000.00000" pt_clust_6="13000.00000" pt_clust_7="13000.00000" pt_clust_8="13000.00000" pt_clust_9="84.15061" pt_clust_10="80.48079"></scales>
<clustering>
<clus scale="   81.145">  5  6 -1 -1</clus>
<clus scale="   84.151">  2  9  1 -1</clus>
<clus scale="   80.481">  2 10  1 -1</clus>
<clus scale="   92.509">  7  8 -1 -1</clus>
<clus scale="  100.540">  2  5  1 -1</clus>
<clus scale="   84.151">  2  5  1 -1</clus>
</clustering>
</event>
<event>
10    4  0.3043429E-005  0.1320282E+03  0.7546771E-02  0.1227175E+00
          2   -1    0    0  503    0 -0.00000000000E+00  0.00000000000E+00  0.17455295532E+03  0.17455295532E+03  0.00000000000E+00 0. -1.
         21   -1    0    0  501  502  0.00000000000E+00 -0.00000000000E+00 -0.21212110080E+03  0.21212110080E+03  0.00000000000E+00 0.  1.
         24    2    1    2    0    0  0.24521313125E+01 -0.10271878653E+03  0.34038085944E+02  0.13424667335E+03  0.79412945786E+02 0.  0.
         23    2    1    2    0    0  0.11143428030E+02  0.89081910206E+02  0.18516318309E+02  0.12868179816E+03  0.90312725686E+02 0.  0.
        -11    1    3    3    0    0  0.40095803201E+02 -0.53935377416E+02  0.92967023308E+01  0.67846348801E+02  0.00000000000E+00 0.  1.
         12    1    3    3    0    0 -0.37643671888E+02 -0.48783409111E+02  0.24741383613E+02  0.66400324554E+02  0.00000000000E+00 0. -1.
        -13    1    4    4    0    0  0.49714819509E+02  0.62344278748E+02  0.52579313929E+01  0.79912566058E+02  0.00000000000E+00 0.  1.
         13    1    4    4    0    0 -0.38571391479E+02  0.26737631457E+02  0.13258386916E+02  0.48769232106E+02  0.00000000000E+00 0. -1.
         21    1    1    2  503  502 -0.28624445171E+01 -0.20547882973E+02 -0.85067328519E+02  0.87560604524E+02  0.00000000000E+00 0.  1.
          1    1    1    2  501    0 -0.10733114825E+02  0.34184759294E+02 -0.50552212194E+01  0.36184980081E+02  0.00000000000E+00 0. -1.
<scales pt_clust_5="13000.00000" pt_clust_6="13000.00000" pt_clust_7="13000.00000" pt_clust_8="13000.00000" pt_clust_9="20.74630" pt_clust_10="32.78983"></scales>
<clustering>
<clus scale="   20.746">  2  9  1 -1</clus>
<clus scale="   32.790">  2 10  1 -1</clus>
<clus scale="   79.413">  5  6 -1 -1</clus>
<clus scale="   90.313">  7  8 -1 -1</clus>
<clus scale="  124.826">  1  5  2 -1</clus>
<clus scale="   20.746">  2  5  1 -1</clus>
</clustering>
</event>
<event>
10    4  0.3043429E-005  0.1857936E+03  0.7546771E-02  0.1195502E+00
         21   -1    0    0  503  502  0.00000000000E+00  0.00000000000E+00  0.22465966588E+03  0.22465966588E+03  0.00000000000E+00 0.  1.
          2   -1    0    0  502    0 -0.00000000000E+00 -0.00000000000E+00 -0.44297317945E+03  0.44297317945E+03  0.00000000000E+00 0. -1.
         24    2    1    2    0    0 -0.44708455770E+01 -0.38556631103E+02  0.61544320037E+02  0.10735955049E+03  0.78941544773E+02 0.  0.
         23    2    1    2    0    0  0.61491320039E+02  0.41684180157E+01 -0.50200031698E+02  0.11728043101E+03  0.86232813749E+02 0.  0.
        -13    1    3    3    0    0  0.24285037997E+01 -0.28143610669E+02  0.80131618882E+02  0.84964915093E+02  0.00000000000E+00 0.  1.
         14    1    3    3    0    0 -0.68993493767E+01 -0.10413020434E+02 -0.18587298844E+02  0.22394635400E+02  0.00000000000E+00 0. -1.
        -13    1    4    4    0    0  0.42580939508E+02  0.30957301578E+02  0.52022876655E+01  0.52901367915E+02  0.00000000000E+00 0. -1.
         13    1    4    4    0    0  0.18910380531E+02 -0.26788883562E+02 -0.55402319364E+02  0.64379063097E+02  0.00000000000E+00 0.  1.
         21    1    1    2  503  501 -0.20598901473E+03 -0.30746248873E+02 -0.83555943037E+02  0.22440677714E+03  0.00000000000E+00 0. -1.
          1    1    1    2  501    0  0.14896854027E+03  0.65134461960E+02 -0.14610185887E+03  0.21858608668E+03  0.00000000000E+00 0. -1.
<scales pt_clust_5="13000.00000" pt_clust_6="13000.00000" pt_clust_7="13000.00000" pt_clust_8="13000.00000" pt_clust_9="13000.00000" pt_clust_10="185.79363"></scales>
<clustering>
<clus scale="   78.942">  5  6 -1 -1</clus>
<clus scale="   86.233">  7  8 -1 -1</clus>
<clus scale="   87.968">  2  5  1 -1</clus>
<clus scale="  105.455">  2  7  1 -1</clus>
<clus scale="  185.794">  2 10  1 -1</clus>
<clus scale="  185.794">  1  5  2 -1</clus>
</clustering>
</event>
<event>
10    4  0.3043429E-005  0.1747926E+03  0.7546771E-02  0.1191778E+00
         21   -1    0    0  501  502  0.00000000000E+00  0.00000000000E+00  0.72418940912E+02  0.72418940912E+02  0.00000000000E+00 0.  1.
          2   -1    0    0  503    0 -0.00000000000E+00 -0.00000000000E+00 -0.10271382128E+04  0.10271382128E+04  0.00000000000E+00 0. -1.
         23    2    1    2    0    0 -0.51204787364E+02  0.53547660842E+02 -0.20168713319E+03  0.23459413582E+03  0.94167014583E+02 0.  0.
         24    2    1    2    0    0  0.15779268156E+03 -0.90939159009E+02 -0.42342781449E+03  0.46789602351E+03  0.80418366926E+02 0.  0.
        -11    1    4    4    0    0  0.12135887037E+03 -0.94621133182E+02 -0.38594969714E+03  0.41549765702E+03  0.00000000000E+00 0.  1.
         12    1    4    4    0    0  0.36433811185E+02  0.36819741734E+01 -0.37478117349E+02  0.52398366494E+02  0.00000000000E+00 0. -1.
        -11    1    3    3    0    0 -0.40331649752E+02 -0.14576518161E+02 -0.12133349239E+03  0.12868928949E+03  0.00000000000E+00 0. -1.
         11    1    3    3    0    0 -0.10873137612E+02  0.68124179003E+02 -0.80353640799E+02  0.10590484633E+03  0.00000000000E+00 0.  1.
         21    1    1    2  503  502  0.16819625921E+02 -0.21921518779E+02  0.11178585549E+02  0.29806267404E+02  0.00000000000E+00 0.  1.
          1    1    1    2  501    0 -0.12340752012E+03  0.59313016945E+02 -0.34078290978E+03  0.36726072700E+03  0.00000000000E+00 0. -1.
<scales pt_clust_5="13000.00000" pt_clust_6="13000.00000" pt_clust_7="13000.00000" pt_clust_8="13000.00000" pt_clust_9="27.63065" pt_clust_10="155.19448"></scales>
<clustering>
<clus scale="   27.631">  1  9  2 -1</clus>
<clus scale="   80.418">  5  6 -1 -1</clus>
<clus scale="   94.167">  7  8 -1 -1</clus>
<clus scale="  114.646">  2  7  1 -1</clus>
<clus scale="  155.194">  1 10  2 -1</clus>
<clus scale="   27.631">  1  5  2 -1</clus>
</clustering>
</event>
<event>
10    4  0.3043429E-005  0.2170294E+03  0.7546771E-02  0.1170100E+00
         21   -1    0    0  503  502  0.00000000000E+00  0.00000000000E+00  0.50101189911E+03  0.50101189911E+03  0.00000000000E+00 0. -1.
          2   -1    0    0  502    0 -0.00000000000E+00 -0.00000000000E+00 -0.69155050999E+03  0.69155050999E+03  0.00000000000E+00 0. -1.
         23    2    1    2    0    0 -0.27769340355E+02  0.52519504976E+01 -0.26436065762E+03  0.28170228750E+03  0.93117679531E+02 0.  0.
         24    2    1    2    0    0  0.15577063475E+03 -0.18372628060E+03  0.30430209575E+03  0.39626219157E+03  0.80025759351E+02 0.  0.
        -11    1    4    4    0    0  0.28770714703E+02 -0.45066951425E+02  0.12710882159E+03  0.13789647081E+03  0.00000000000E+00 0.  1.
         12    1    4    4    0    0  0.12699992004E+03 -0.13865932917E+03  0.17719327415E+03  0.25836572076E+03  0.00000000000E+00 0. -1.
        -11    1    3    3    0    0  0.31875165421E+02 -0.11525732391E+02 -0.11788719197E+03  0.12266319215E+03  0.00000000000E+00 0. -1.
         11    1    3    3    0    0 -0.59644505776E+02  0.16777682888E+02 -0.14647346565E+03  0.15903909536E+03  0.00000000000E+00 0.  1.
         21    1    1    2  503  501 -0.77286723405E+01  0.47649034396E+02  0.11575673849E+03  0.12541844107E+03  0.00000000000E+00 0. -1.
          1    1    1    2  501    0 -0.12027262205E+03  0.13082529570E+03 -0.34623678750E+03  0.38917948896E+03  0.00000000000E+00 0. -1.
<scales pt_clust_5="13000.00000" pt_clust_6="13000.00000" pt_clust_7="13000.00000" pt_clust_8="13000.00000" pt_clust_9="48.27176" pt_clust_10="201.73662"></scales>
<clustering>
<clus scale="   48.272">  1  9  2 -1</clus>
<clus scale="   80.026">  5  6 -1 -1</clus>
<clus scale="   93.118">  7  8 -1 -1</clus>
<clus scale="   97.427">  2  7  1 -1</clus>
<clus scale="  201.737">  1 10  2 -1</clus>
<clus scale="   48.272">  1  5  2 -1</clus>
</clustering>
</event>
<event>
10    4  0.3043429E-005  0.1404543E+03  0.7546771E-02  0.1215112E+00
         21   -1    0    0  501  502  0.00000000000E+00  0.00000000000E+00  0.92830856808E+02  0.92830856808E+02  0.00000000000E+00 0.  1.
          2   -1    0    0  503    0 -0.00000000000E+00 -0.00000000000E+00 -0.55958937661E+03  0.55958937661E+03  0.00000000000E+00 0. -1.
         23    2    1    2    0    0 -0.11655960329E+03 -0.16554790795E+02 -0.38899954179E+03  0.41671664944E+03  0.92043034468E+02 0.  0.
         24    2    1    2    0    0  0.49254108493E+02  0.65091440636E+02 -0.82397299219E+01  0.11531671704E+03  0.81038196134E+02 0.  0.
        -13    1    4    4    0    0  0.91040417412E+01  0.73248134838E+02 -0.88615026806E+01  0.74341771992E+02  0.00000000000E+00 0.  1.
         14    1    4    4    0    0  0.40150066752E+02 -0.81566942019E+01  0.62177275872E+00  0.40974945050E+02  0.00000000000E+00 0. -1.
        -13    1    3    3    0    0 -0.20242338503E+01 -0.33327122617E+02 -0.76607555613E+02  0.83567411122E+02  0.00000000000E+00 0.  1.
         13    1    3    3    0    0 -0.11453536944E+03  0.16772331822E+02 -0.31239198617E+03  0.33314923832E+03  0.00000000000E+00 0. -1.
         21    1    1    2  503  502  0.33060732132E+02 -0.53240680245E+02 -0.36188505225E+02  0.72368432016E+02  0.00000000000E+00 0.  1.
          1    1    1    2  501    0  0.34244762665E+02  0.47040304040E+01 -0.33330742870E+02  0.48018434922E+02  0.00000000000E+00 0. -1.
<scales pt_clust_5="13000.00000" pt_clust_6="13000.00000" pt_clust_7="13000.00000" pt_clust_8="13000.00000" pt_clust_9="65.98670" pt_clust_10="34.56634"></scales>
<clustering>
<clus scale="   34.566">  1 10  2 -1</clus>
<clus scale="   65.987">  1  9  2 -1</clus>
<clus scale="   81.038">  5  6 -1 -1</clus>
<clus scale="   92.043">  7  8 -1 -1</clus>
<clus scale="  133.502">  1  5  2 -1</clus>
<clus scale="   34.566">  1  5  2 -1</clus>
</clustering>
</event>
<event>
10    4  0.3043429E-005  0.1880781E+03  0.7546771E-02  0.1161498E+00
          4   -1    0    0  502    0 -0.00000000000E+00  0.00000000000E+00  0.14021833186E+03  0.14021833186E+03  0.00000000000E+00 0. -1.
         21   -1    0    0  503  502  0.00000000000E+00 -0.00000000000E+00 -0.44554799903E+03  0.44554799903E+03  0.00000000000E+00 0. -1.
         24    2    1    2    0    0  0.12672475289E+01  0.16116491974E+03 -0.54514418363E+02  0.18820686604E+03  0.80462819636E+02 0.  0.
         23    2    1    2    0    0  0.23027684033E+02 -0.16758327044E+03 -0.14773321780E+03  0.24284788699E+03  0.92388125910E+02 0.  0.
        -13    1    3    3    0    0 -0.26413082719E+02  0.96522567180E+02 -0.61632566676E+02  0.11752799747E+03  0.00000000000E+00 0.  1.
         14    1    3    3    0    0  0.27680330248E+02  0.64642352562E+02  0.71181483127E+01  0.70678868573E+02  0.00000000000E+00 0. -1.
        -13    1    4    4    0    0 -0.25666692590E+01 -0.62435977357E+02 -0.35751175065E+01  0.62590898099E+02  0.00000000000E+00 0.  1.
         13    1    4    4    0    0  0.25594353292E+02 -0.10514729308E+03 -0.14415810029E+03  0.18025698889E+03  0.00000000000E+00 0. -1.
         21    1    1    2  503  501  0.98669764480E+01  0.22249988255E+02 -0.11314875287E+03  0.11573702725E+03  0.00000000000E+00 0. -1.
          3    1    1    2  501    0 -0.34161908010E+02 -0.15831637554E+02  0.10066721864E+02  0.38974550614E+02  0.00000000000E+00 0. -1.
<scales pt_clust_5="13000.00000" pt_clust_6="13000.00000" pt_clust_7="13000.00000" pt_clust_8="13000.00000" pt_clust_9="24.33966" pt_clust_10="36.85951"></scales>
<clustering>
<clus scale="   24.340">  2  9  1 -1</clus>
<clus scale="   36.860">  2 10  1 -1</clus>
<clus scale="   80.463">  5  6 -1 -1</clus>
<clus scale="   92.388">  7  8 -1 -1</clus>
<clus scale="  182.516">  1  5  2 -1</clus>
<clus scale="   24.340">  2  5  1 -1</clus>
</clustering>
</event>
<event>
10    4  0.3043429E-005  0.1079091E+03  0.7546771E-02  0.1269897E+00
         -1   -1    0    0    0  501 -0.00000000000E+00  0.00000000000E+00  0.36036309962E+03  0.36036309962E+03  0.00000000000E+00 0.  1.
         21   -1    0    0  503  502  0.00000000000E+00 -0.00000000000E+00 -0.30175481076E+03  0.30175481076E+03  0.00000000000E+00 0.  1.
         24    2    1    2    0    0  0.16400547876E+02  0.44767851147E+02  0.19315174308E+03  0.21391488917E+03  0.78605632658E+02 0.  0.
         23    2    1    2    0    0 -0.68238659943E+02 -0.62882149216E+02  0.99281740317E+02  0.16386607089E+03  0.91567165660E+02 0.  0.
        -11    1    3    3    0    0 -0.20657591335E+02  0.45479863142E+02  0.75215076510E+02  0.90290983855E+02  0.00000000000E+00 0.  1.
         12    1    3    3    0    0  0.37058139211E+02 -0.71201199426E+00  0.11793666657E+03  0.12362390531E+03  0.00000000000E+00 0. -1.
        -13    1    4    4    0    0 -0.40096916362E+02 -0.33550310479E+02 -0.44336952600E+01  0.52469454816E+02  0.00000000000E+00 0.  1.
         13    1    4    4    0    0 -0.28141743582E+02 -0.29331838737E+02  0.10371543558E+03  0.11139661607E+03  0.00000000000E+00 0. -1.
         21    1    1    2  503  501  0.51223077010E+02  0.45005630469E+02 -0.24566204924E+03  0.25494931423E+03  0.00000000000E+00 0.  1.
         -2    1    1    2    0  502  0.61503505793E+00 -0.26891332400E+02  0.11836854695E+02  0.29387636098E+02  0.00000000000E+00 0.  1.
<scales pt_clust_5="13000.00000" pt_clust_6="13000.00000" pt_clust_7="13000.00000" pt_clust_8="13000.00000" pt_clust_9="56.24306" pt_clust_10="26.89838"></scales>
<clustering>
<clus scale="   26.898">  2 10  1 -1</clus>
<clus scale="   56.243">  2  9  1 -1</clus>
<clus scale="   78.606">  5  6 -1 -1</clus>
<clus scale="   91.567">  7  8 -1 -1</clus>
<clus scale="   97.153">  1  5  2 -1</clus>
<clus scale="   26.898">  2  5  1 -1</clus>
</clustering>
</event>
<event>
10    4  0.3043429E-005  0.5758637E+03  0.7546771E-02  0.1029929E+00
         21   -1    0    0  503  502  0.00000000000E+00  0.00000000000E+00  0.76357916009E+03  0.76357916009E+03  0.00000000000E+00 0. -1.
          2   -1    0    0  502    0 -0.00000000000E+00 -0.00000000000E+00 -0.84226698043E+03  0.84226698043E+03  0.00000000000E+00 0. -1.
         24    2    1    2    0    0  0.18656056276E+03 -0.33205212037E+02 -0.17536939654E+02  0.20571113376E+03  0.78115917826E+02 0.  0.
         23    2    1    2    0    0  0.19778417929E+03 -0.45114769171E+03 -0.34812646940E+03  0.61026618827E+03  0.92628076419E+02 0.  0.
        -11    1    3    3    0    0  0.12523728547E+03  0.81200205602E+01  0.12020715953E+02  0.12607462083E+03  0.00000000000E+00 0.  1.
         12    1    3    3    0    0  0.61323277288E+02 -0.41325232597E+02 -0.29557655607E+02  0.79636512929E+02  0.00000000000E+00 0. -1.
        -11    1    4    4    0    0  0.20188476998E+03 -0.39475398915E+03 -0.32204946875E+03  0.54800002977E+03  0.00000000000E+00 0. -1.
         11    1    4    4    0    0 -0.41005906931E+01 -0.56393702559E+02 -0.26077000647E+02  0.62266158506E+02  0.00000000000E+00 0.  1.
         21    1    1    2  503  501 -0.29068515995E+02 -0.10872995788E+02  0.16551649299E+03  0.16840103952E+03  0.00000000000E+00 0.  1.
          1    1    1    2  501    0 -0.35527622605E+03  0.49522589953E+03  0.12145909572E+03  0.62146777897E+03  0.00000000000E+00 0. -1.
<scales pt_clust_5="13000.00000" pt_clust_6="13000.00000" pt_clust_7="13000.00000" pt_clust_8="13000.00000" pt_clust_9="31.03547" pt_clust_10="568.36526"></scales>
<clustering>
<clus scale="   31.035">  1  9  2 -1</clus>
<clus scale="   78.116">  5  6 -1 -1</clus>
<clus scale="   92.628">  7  8 -1 -1</clus>
<clus scale="  201.089">  2  5  1 -1</clus>
<clus scale="  568.365">  1 10  2 -1</clus>
<clus scale="   31.035">  1  5  2 -1</clus>
</clustering>
</event>
<event>
10    4  0.3043429E-005  0.1014441E+03  0.7546771E-02  0.1284522E+00
         21   -1    0    0  501  502  0.00000000000E+00  0.00000000000E+00  0.11543746927E+03  0.11543746927E+03  0.00000000000E+00 0. -1.
          2   -1    0    0  503    0 -0.00000000000E+00 -0.00000000000E+00 -0.21355979001E+03  0.21355979001E+03  0.00000000000E+00 0. -1.
         24    2    1    2    0    0  0.32619509368E+02  0.46618981511E+02 -0.10759260324E+03  0.14465154206E+03  0.78169933601E+02 0.  0.
         23    2    1    2    0    0  0.37710721562E+01  0.25087726870E+01  0.14364144014E+02  0.93867493374E+02  0.92651296556E+02 0.  0.
        -11    1    3    3    0    0  0.33548393673E+02  0.20380141712E+01 -0.65987493482E+01  0.34251886266E+02  0.00000000000E+00 0.  1.
         12    1    3    3    0    0 -0.92888430505E+00  0.44580967340E+02 -0.10099385389E+03  0.11039965579E+03  0.00000000000E+00 0. -1.
        -13    1    4    4    0    0  0.34462764235E+02  0.34226349062E+02  0.59091120684E+01  0.48928955581E+02  0.00000000000E+00 0. -1.
         13    1    4    4    0    0 -0.30691692078E+02 -0.31717576375E+02  0.84550319457E+01  0.44938537793E+02  0.00000000000E+00 0.  1.
         21    1    1    2  503  502 -0.14431303583E+02  0.14011992360E+02  0.92650287140E+01  0.22145862143E+02  0.00000000000E+00 0. -1.
          1    1    1    2  501    0 -0.21959277941E+02 -0.63139746558E+02 -0.14158890235E+02  0.68332361702E+02  0.00000000000E+00 0. -1.
<scales pt_clust_5="13000.00000" pt_clust_6="13000.00000" pt_clust_7="13000.00000" pt_clust_8="13000.00000" pt_clust_9="20.11463" pt_clust_10="64.73216"></scales>
<clustering>
<clus scale="   20.115">  1  9  2 -1</clus>
<clus scale="   64.732">  1 10  2 -1</clus>
<clus scale="   78.170">  5  6 -1 -1</clus>
<clus scale="   88.415">  2  5  1 -1</clus>
<clus scale="   92.651">  7  8 -1 -1</clus>
<clus scale="   20.115">  1  5  2 -1</clus>
</clustering>
</event>
<event>
10    4  0.3043429E-005  0.2031767E+03  0.7546771E-02  0.1164695E+00
          2   -1    0    0  503    0 -0.00000000000E+00  0.00000000000E+00  0.43118980710E+03  0.43118980710E+03  0.00000000000E+00 0. -1.
         21   -1    0    0  501  502  0.00000000000E+00 -0.00000000000E+00 -0.22120485363E+03  0.22120485363E+03  0.00000000000E+00 0. -1.
         24    2    1    2    0    0 -0.28842438308E+02  0.10000446316E+03  0.16270748304E+02  0.13191902070E+03  0.79404734572E+02 0.  0.
         23    2    1    2    0    0  0.73460021219E+02 -0.24209556355E+03  0.14114402958E+03  0.30394977175E+03  0.91962981966E+02 0.  0.
        -11    1    3    3    0    0 -0.98272268677E+01  0.10005970543E+03  0.33786180633E+02  0.10606613522E+03  0.00000000000E+00 0.  1.
         12    1    3    3    0    0 -0.19015211440E+02 -0.55242273593E-01 -0.17515432329E+02  0.25852885477E+02  0.00000000000E+00 0. -1.
        -11    1    4    4    0    0  0.81309386252E+02 -0.13791828754E+03  0.57486245434E+02  0.17010978439E+03  0.00000000000E+00 0. -1.
         11    1    4    4    0    0 -0.78493650339E+01 -0.10417727601E+03  0.83657784147E+02  0.13383998736E+03  0.00000000000E+00 0.  1.
         21    1    1    2  503  502 -0.19518257558E+02  0.77931415958E+01 -0.44308625574E+02  0.49040286850E+02  0.00000000000E+00 0.  1.
          1    1    1    2  501    0 -0.25099325353E+02  0.13429795880E+03  0.96878801170E+02  0.16748558143E+03  0.00000000000E+00 0. -1.
<scales pt_clust_5="13000.00000" pt_clust_6="13000.00000" pt_clust_7="13000.00000" pt_clust_8="13000.00000" pt_clust_9="21.01655" pt_clust_10="181.17281"></scales>
<clustering>
<clus scale="   21.017">  2  9  1 -1</clus>
<clus scale="   79.405">  5  6 -1 -1</clus>
<clus scale="   91.963">  7  8 -1 -1</clus>
<clus scale="  134.446">  1  5  2 -1</clus>
<clus scale="  181.173">  2 10  1 -1</clus>
<clus scale="   21.017">  2  5  1 -1</clus>
</clustering>
</event>
<event>
10    4  0.3043429E-005  0.1828115E+03  0.7546771E-02  0.1166176E+00
         21   -1    0    0  501  502  0.00000000000E+00  0.00000000000E+00  0.55822397925E+03  0.55822397925E+03  0.00000000000E+00 0.  1.
          2   -1    0    0  503    0 -0.00000000000E+00 -0.00000000000E+00 -0.62622954329E+03  0.62622954329E+03  0.00000000000E+00 0. -1.
         24    2    1    2    0    0  0.75353134015E+02 -0.15209239718E+03 -0.25779988015E+03  0.31913788550E+03  0.81104991649E+02 0.  0.
         23    2    1    2    0    0 -0.57782373497E+02  0.12773543010E+03 -0.78893639437E+02  0.18455725891E+03  0.90454589074E+02 0.  0.
        -11    1    3    3    0    0 -0.10245723518E+02 -0.48042599614E+02 -0.10163121954E+03  0.11288033936E+03  0.00000000000E+00 0.  1.
         12    1    3    3    0    0  0.85598857533E+02 -0.10404979757E+03 -0.15616866061E+03  0.20625754615E+03  0.00000000000E+00 0. -1.
        -11    1    4    4    0    0  0.20538111796E+02  0.12828429996E+02  0.89666386471E+00  0.24231934681E+02  0.00000000000E+00 0.  1.
         11    1    4    4    0    0 -0.78320485293E+02  0.11490700010E+03 -0.79790303302E+02  0.16032532423E+03  0.00000000000E+00 0. -1.
         21    1    1    2  503  502  0.71672826258E+02  0.20314503238E+02  0.46191275161E+03  0.46788146273E+03  0.00000000000E+00 0.  1.
          1    1    1    2  501    0 -0.89243586776E+02  0.40424638453E+01 -0.19322479607E+03  0.21287691540E+03  0.00000000000E+00 0. -1.
<scales pt_clust_5="13000.00000" pt_clust_6="13000.00000" pt_clust_7="13000.00000" pt_clust_8="13000.00000" pt_clust_9="74.49613" pt_clust_10="81.93095"></scales>
<clustering>
<clus scale="   74.496">  1  9  2 -1</clus>
<clus scale="   81.105">  5  6 -1 -1</clus>
<clus scale="   81.931">  1 10  2 -1</clus>
<clus scale="   90.455">  7  8 -1 -1</clus>
<clus scale="  178.371">  2  5  1 -1</clus>
<clus scale="   74.496">  1  5  2 -1</clus>
</clustering>
</event>
<event>
10    4  0.3043429E-005  0.2547679E+03  0.7546771E-02  0.1110539E+00
         21   -1    0    0  501  502  0.00000000000E+00  0.00000000000E+00  0.10442916130E+04  0.10442916130E+04  0.00000000000E+00 0. -1.
          2   -1    0    0  503    0 -0.00000000000E+00 -0.00000000000E+00 -0.10379998736E+04  0.10379998736E+04  0.00000000000E+00 0. -1.
         24    2    1    2    0    0  0.22101490433E+03 -0.74844070042E+02 -0.77042416904E+03  0.80968408613E+03  0.87095903117E+02 0.  0.
         23    2    1    2    0    0 -0.28149426423E+03 -0.38537012060E+02 -0.14246932421E+03  0.33060779427E+03  0.90993863498E+02 0.  0.
        -11    1    3    3    0    0  0.16654507023E+03 -0.43247995152E+02 -0.66485921046E+03  0.68676445688E+03  0.00000000000E+00 0.  1.
         12    1    3    3    0    0  0.54469834099E+02 -0.31596074890E+02 -0.10556495858E+03  0.12291962925E+03  0.00000000000E+00 0. -1.
        -13    1    4    4    0    0 -0.19886288693E+03 -0.52606834979E+02 -0.13587576172E+03  0.24652819211E+03  0.00000000000E+00 0. -1.
         13    1    4    4    0    0 -0.82631377307E+02  0.14069822919E+02 -0.65935624969E+01  0.84079602158E+02  0.00000000000E+00 0.  1.
         21    1    1    2  503  502  0.10867259938E+02  0.13870265978E+03  0.49526064140E+03  0.51443136382E+03  0.00000000000E+00 0.  1.
          1    1    1    2  501    0  0.49612099966E+02 -0.25321577681E+02  0.42392459133E+03  0.42756824238E+03  0.00000000000E+00 0. -1.
<scales pt_clust_5="13000.00000" pt_clust_6="13000.00000" pt_clust_7="13000.00000" pt_clust_8="13000.00000" pt_clust_9="128.72544" pt_clust_10="55.70047"></scales>
<clustering>
<clus scale="   55.700">  1 10  2 -1</clus>
<clus scale="   87.096">  5  6 -1 -1</clus>
<clus scale="   90.994">  7  8 -1 -1</clus>
<clus scale="  128.725">  1  9  2 -1</clus>
<clus scale="  253.402">  2  5  1 -1</clus>
<clus scale="   55.700">  1  5  2 -1</clus>
</clustering>
</event>
<event>
10    4  0.3043429E-005  0.3657508E+03  0.7546771E-02  0.1087143E+00
          2   -1    0    0  503    0 -0.00000000000E+00  0.00000000000E+00  0.55161636067E+03  0.55161636067E+03  0.00000000000E+00 0. -1.
         21   -1    0    0  501  502  0.00000000000E+00 -0.00000000000E+00 -0.11000770606E+04  0.11000770606E+04  0.00000000000E+00 0. -1.
         24    2    1    2    0    0 -0.58993522097E+02  0.12145164969E+03  0.62192789172E+02  0.16921793526E+03  0.80845703201E+02 0.  0.
         23    2    1    2    0    0 -0.39348268163E+02  0.10999788930E+03 -0.21548236289E+03  0.27331619966E+03  0.12091846188E+03 0.  0.
        -13    1    3    3    0    0  0.19512517658E+02  0.13751606661E+02  0.62432090399E+01  0.24674332620E+02  0.00000000000E+00 0.  1.
         14    1    3    3    0    0 -0.78506039756E+02  0.10770004303E+03  0.55949580132E+02  0.14454360264E+03  0.00000000000E+00 0. -1.
        -13    1    4    4    0    0  0.37345643709E+02  0.59273314856E+02 -0.13046473372E+03  0.14808467072E+03  0.00000000000E+00 0.  1.
         13    1    4    4    0    0 -0.76693911873E+02  0.50724574445E+02 -0.85017629175E+02  0.12523152894E+03  0.00000000000E+00 0. -1.
         21    1    1    2  503  502 -0.20937026007E+02  0.33585799495E+03 -0.51691885340E+03  0.61680146954E+03  0.00000000000E+00 0. -1.
          1    1    1    2  501    0  0.11927881627E+03 -0.56730753394E+03  0.12174772719E+03  0.59235781682E+03  0.00000000000E+00 0. -1.
<scales pt_clust_5="13000.00000" pt_clust_6="13000.00000" pt_clust_7="13000.00000" pt_clust_8="13000.00000" pt_clust_9="13000.00000" pt_clust_10="365.75079"></scales>
<clustering>
<clus scale="   80.846">  5  6 -1 -1</clus>
<clus scale="  120.918">  7  8 -1 -1</clus>
<clus scale="  157.375">  1  5  2 -1</clus>
<clus scale="  174.441">  1  7  2 -1</clus>
<clus scale="  365.751">  1 10  2 -1</clus>
<clus scale="  365.751">  2  5  1 -1</clus>
</clustering>
</event>
<event>
10    4  0.3043429E-005  0.1610472E+03  0.7546771E-02  0.1200772E+00
         21   -1    0    0  501  502  0.00000000000E+00  0.00000000000E+00  0.49061210438E+03  0.49061210438E+03  0.00000000000E+00 0.  1.
          2   -1    0    0  503    0 -0.00000000000E+00 -0.00000000000E+00 -0.20271444639E+03  0.20271444639E+03  0.00000000000E+00 0. -1.
         23    2    1    2    0    0 -0.32448092077E+02 -0.65941014803E+02  0.28958347589E+03  0.31368787802E+03  0.95605434949E+02 0.  0.
         24    2    1    2    0    0 -0.11431554129E+03  0.21659481374E+02  0.13680457668E+02  0.14279403935E+03  0.81644391350E+02 0.  0.
        -13    1    4    4    0    0 -0.75779289824E+02 -0.23515740376E+02 -0.76226559421E+01  0.79709445459E+02  0.00000000000E+00 0.  1.
         14    1    4    4    0    0 -0.38536251463E+02  0.45175221751E+02  0.21303113610E+02  0.63084593892E+02  0.00000000000E+00 0. -1.
        -11    1    3    3    0    0 -0.49822570302E+02 -0.18242105793E+02  0.67394552531E+02  0.85773472858E+02  0.00000000000E+00 0. -1.
         11    1    3    3    0    0  0.17374478225E+02 -0.47698909010E+02  0.22218892336E+03  0.22791440516E+03  0.00000000000E+00 0.  1.
         21    1    1    2  503  502 -0.27992668770E+02  0.20406658669E+02  0.39108251559E+02  0.52244392645E+02  0.00000000000E+00 0. -1.
          1    1    1    2  501    0  0.17475630213E+03  0.23874874760E+02 -0.54474527123E+02  0.18460024075E+03  0.00000000000E+00 0. -1.
<scales pt_clust_5="13000.00000" pt_clust_6="13000.00000" pt_clust_7="13000.00000" pt_clust_8="13000.00000" pt_clust_9="34.64132" pt_clust_10="138.81793"></scales>
<clustering>
<clus scale="   34.641">  1  9  2 -1</clus>
<clus scale="   81.644">  5  6 -1 -1</clus>
<clus scale="   95.605">  7  8 -1 -1</clus>
<clus scale="  120.416">  2  7  1 -1</clus>
<clus scale="  138.818">  1 10  2 -1</clus>
<clus scale="   34.641">  1  5  2 -1</clus>
</clustering>
</event>
<event>
10    4  0.3043429E-005  0.3915177E+03  0.7546771E-02  0.1101325E+00
         21   -1    0    0  501  502  0.00000000000E+00  0.00000000000E+00  0.27356462609E+03  0.27356462609E+03  0.00000000000E+00 0. -1.
          2   -1    0    0  503    0 -0.00000000000E+00 -0.00000000000E+00 -0.11639567287E+04  0.11639567287E+04  0.00000000000E+00 0. -1.
         24    2    1    2    0    0  0.54801993802E+01  0.43802412987E+02 -0.70290240735E+02  0.11516476332E+03  0.79834333455E+02 0.  0.
         23    2    1    2    0    0  0.31220582826E+03 -0.24570619173E+03 -0.76119593361E+03  0.86341281559E+03  0.90655550964E+02 0.  0.
        -13    1    3    3    0    0 -0.19402011886E+02 -0.75098345240E+01 -0.50806719352E+02  0.54901351633E+02  0.00000000000E+00 0.  1.
         14    1    3    3    0    0  0.24882211267E+02  0.51312247511E+02 -0.19483521382E+02  0.60263411682E+02  0.00000000000E+00 0. -1.
        -11    1    4    4    0    0  0.22342168102E+02 -0.57956637867E+02 -0.11187160046E+03  0.12795858446E+03  0.00000000000E+00 0.  1.
         11    1    4    4    0    0  0.28986366016E+03 -0.18774955386E+03 -0.64932433315E+03  0.73545423112E+03  0.00000000000E+00 0. -1.
         21    1    1    2  503  502 -0.42830522624E+02 -0.60062138599E+02  0.48510291207E+01  0.73928659158E+02  0.00000000000E+00 0.  1.
          1    1    1    2  501    0 -0.27485550502E+03  0.26196591734E+03 -0.63756957368E+02  0.38501511672E+03  0.00000000000E+00 0. -1.
<scales pt_clust_5="13000.00000" pt_clust_6="13000.00000" pt_clust_7="13000.00000" pt_clust_8="13000.00000" pt_clust_9="73.76933" pt_clust_10="380.87746"></scales>
<clustering>
<clus scale="   73.769">  1  9  2 -1</clus>
<clus scale="   79.834">  5  6 -1 -1</clus>
<clus scale="   88.448">  2  5  1 -1</clus>
<clus scale="   90.656">  7  8 -1 -1</clus>
<clus scale="  380.877">  1 10  2 -1</clus>
<clus scale="   73.769">  1  5  2 -1</clus>
</clustering>
</event>
<event>
10    4  0.3043429E-005  0.1879770E+03  0.7546771E-02  0.1175342E+00
         -1   -1    0    0    0  501 -0.00000000000E+00  0.00000000000E+00  0.45115354754E+03  0.45115354754E+03  0.00000000000E+00 0.  1.
         21   -1    0    0  503  502  0.00000000000E+00 -0.00000000000E+00 -0.67934402669E+03  0.67934402669E+03  0.00000000000E+00 0. -1.
         24    2    1    2    0    0 -0.80819903463E+02 -0.23731160754E+02  0.10805079367E+01  0.13802685269E+03  0.10933992766E+03 0.  0.
         23    2    1    2    0    0  0.17318955594E+03 -0.14727215453E+03  0.25023036539E+03  0.34922603235E+03  0.87520718243E+02 0.  0.
        -11    1    3    3    0    0 -0.87587186061E+02 -0.38935663089E+02  0.33539531897E+02  0.10154999371E+03  0.00000000000E+00 0.  1.
         12    1    3    3    0    0  0.67672825973E+01  0.15204502335E+02 -0.32459023960E+02  0.36476858985E+02  0.00000000000E+00 0. -1.
        -13    1    4    4    0    0  0.56967015863E+02 -0.85984207053E+02  0.64261972981E+02  0.12152417838E+03  0.00000000000E+00 0. -1.
         13    1    4    4    0    0  0.11622254007E+03 -0.61287947478E+02  0.18596839241E+03  0.22770185397E+03  0.00000000000E+00 0.  1.
         21    1    1    2  503  501  0.15478380986E+02  0.93362018751E+02 -0.49991819850E+03  0.50879686714E+03  0.00000000000E+00 0. -1.
         -2    1    1    2    0  502 -0.10784803346E+03  0.77641296535E+02  0.20416846026E+02  0.13444782204E+03  0.00000000000E+00 0.  1.
<scales pt_clust_5="13000.00000" pt_clust_6="13000.00000" pt_clust_7="13000.00000" pt_clust_8="13000.00000" pt_clust_9="94.63639" pt_clust_10="166.35950"></scales>
<clustering>
<clus scale="   87.521">  7  8 -1 -1</clus>
<clus scale="   94.636">  2  9  1 -1</clus>
<clus scale="  109.340">  5  6 -1 -1</clus>
<clus scale="  133.074">  1  5  2 -1</clus>
<clus scale="  166.359">  2 10  1 -1</clus>
<clus scale="   94.636">  2  5  1 -1</clus>
</clustering>
</event>
<event>
10    4  0.3043429E-005  0.2148065E+03  0.7546771E-02  0.1170484E+00
         21   -1    0    0  501  502  0.00000000000E+00  0.00000000000E+00  0.37355391665E+03  0.37355391665E+03  0.00000000000E+00 0.  1.
          2   -1    0    0  503    0 -0.00000000000E+00 -0.00000000000E+00 -0.73094984679E+03  0.73094984679E+03  0.00000000000E+00 0. -1.
         24    2    1    2    0    0 -0.36738289682E+01  0.54892208317E+02 -0.22426001400E+03  0.24538448256E+03  0.83032155509E+02 0.  0.
         23    2    1    2    0    0  0.15760699685E+03  0.81459072370E+02 -0.39063459470E+03  0.43908604501E+03  0.93411040148E+02 0.  0.
        -11    1    3    3    0    0  0.13188818530E+02 -0.18072651595E+02 -0.76880281527E+02  0.80069615695E+02  0.00000000000E+00 0.  1.
         12    1    3    3    0    0 -0.16862647499E+02  0.72964859912E+02 -0.14737973247E+03  0.16531486686E+03  0.00000000000E+00 0. -1.
        -13    1    4    4    0    0  0.12852488073E+03  0.83228489629E+02 -0.37701805044E+03  0.40692534550E+03  0.00000000000E+00 0. -1.
         13    1    4    4    0    0  0.29082116120E+02 -0.17694172591E+01 -0.13616544255E+02  0.32160699509E+02  0.00000000000E+00 0.  1.
         21    1    1    2  503  502 -0.45380433795E+02 -0.17331961125E+03  0.24664065549E+03  0.30484534498E+03  0.00000000000E+00 0.  1.
          1    1    1    2  501    0 -0.10855273409E+03  0.36968330564E+02  0.10858023065E+02  0.11518789089E+03  0.00000000000E+00 0. -1.
<scales pt_clust_5="13000.00000" pt_clust_6="13000.00000" pt_clust_7="13000.00000" pt_clust_8="13000.00000" pt_clust_9="193.43271" pt_clust_10="117.02312"></scales>
<clustering>
<clus scale="   83.032">  5  6 -1 -1</clus>
<clus scale="   93.411">  7  8 -1 -1</clus>
<clus scale="   99.604">  2  5  1 -1</clus>
<clus scale="  117.023">  1 10  2 -1</clus>
<clus scale="  193.433">  1  9  2 -1</clus>
<clus scale="  117.023">  1  5  2 -1</clus>
</clustering>
</event>
<event>
10    4  0.3043429E-005  0.1433508E+03  0.7546771E-02  0.1211531E+00
         21   -1    0    0  501  502  0.00000000000E+00  0.00000000000E+00  0.94813864927E+02  0.94813864927E+02  0.00000000000E+00 0.  1.
          2   -1    0    0  503    0 -0.00000000000E+00 -0.00000000000E+00 -0.97601381961E+03  0.97601381961E+03  0.00000000000E+00 0. -1.
         24    2    1    2    0    0 -0.10454193841E+03  0.76741011404E+02 -0.40297744120E+02  0.15449839897E+03  0.73672568740E+02 0.  0.
         23    2    1    2    0    0  0.75225381672E+02  0.56003056137E+02 -0.22559001513E+03  0.26096532949E+03  0.91743380822E+02 0.  0.
        -13    1    3    3    0    0 -0.94563289246E+02  0.48511799645E+02 -0.25413485920E+01  0.10631118864E+03  0.00000000000E+00 0.  1.
         14    1    3    3    0    0 -0.99786491621E+01  0.28229211758E+02 -0.37756395528E+02  0.48187210324E+02  0.00000000000E+00 0. -1.
        -11    1    4    4    0    0  0.63052723319E+02 -0.14526623659E+01 -0.67797681913E+02  0.92597417992E+02  0.00000000000E+00 0. -1.
         11    1    4    4    0    0  0.12172658353E+02  0.57455718502E+02 -0.15779233322E+03  0.16836791150E+03  0.00000000000E+00 0.  1.
         21    1    1    2  503  502  0.51584331510E+02  0.19187597457E+02 -0.71156823796E+02  0.89957771906E+02  0.00000000000E+00 0. -1.
          1    1    1    2  501    0 -0.22267774774E+02 -0.15193166500E+03 -0.54415537164E+03  0.56540618418E+03  0.00000000000E+00 0. -1.
<scales pt_clust_5="13000.00000" pt_clust_6="13000.00000" pt_clust_7="13000.00000" pt_clust_8="13000.00000" pt_clust_9="55.03733" pt_clust_10="110.14815"></scales>
<clustering>
<clus scale="   55.037">  1  9  2 -1</clus>
<clus scale="   73.673">  5  6 -1 -1</clus>
<clus scale="   91.743">  7  8 -1 -1</clus>
<clus scale="  135.492">  2  5  1 -1</clus>
<clus scale="  110.148">  1 10  2 -1</clus>
<clus scale="   55.037">  1  5  2 -1</clus>
</clustering>
</event>
<event>
10    4  0.3043429E-005  0.1707728E+03  0.7546771E-02  0.1198095E+00
         21   -1    0    0  503  502  0.00000000000E+00  0.00000000000E+00  0.23420381367E+02  0.23420381367E+02  0.00000000000E+00 0.  1.
          2   -1    0    0  502    0 -0.00000000000E+00 -0.00000000000E+00 -0.22482500339E+04  0.22482500339E+04  0.00000000000E+00 0. -1.
         24    2    1    2    0    0 -0.61936766970E+02  0.37981898869E+02 -0.76554321929E+03  0.77299103406E+03  0.78612533387E+02 0.  0.
         23    2    1    2    0    0  0.10318837107E+03  0.11029694345E+03 -0.61774580419E+03  0.64163172059E+03  0.85253331940E+02 0.  0.
        -13    1    3    3    0    0 -0.50412497452E+02 -0.32128573933E+01 -0.21785414335E+03  0.22363400932E+03  0.00000000000E+00 0.  1.
         14    1    3    3    0    0 -0.11524269518E+02  0.41194756262E+02 -0.54768907594E+03  0.54935702474E+03  0.00000000000E+00 0. -1.
        -13    1    4    4    0    0  0.62007280000E+02  0.52687062326E+02 -0.47896776156E+03  0.48583016161E+03  0.00000000000E+00 0.  1.
         13    1    4    4    0    0  0.41181091067E+02  0.57609881122E+02 -0.13877804263E+03  0.15580155898E+03  0.00000000000E+00 0. -1.
         21    1    1    2  503  501  0.71700129258E+01 -0.49885633484E+02 -0.33522112963E+03  0.33898848250E+03  0.00000000000E+00 0. -1.
          1    1    1    2  501    0 -0.48421617023E+02 -0.98393208832E+02 -0.50631949947E+03  0.51805917817E+03  0.00000000000E+00 0. -1.
<scales pt_clust_5="13000.00000" pt_clust_6="13000.00000" pt_clust_7="13000.00000" pt_clust_8="13000.00000" pt_clust_9="34.90962" pt_clust_10="156.67480"></scales>
<clustering>
<clus scale="   34.910">  9 10 -1 -1</clus>
<clus scale="   78.613">  5  6 -1 -1</clus>
<clus scale="   85.253">  7  8 -1 -1</clus>
<clus scale="  107.045">  2  5  1 -1</clus>
<clus scale="  156.675">  1  9  2 -1</clus>
<clus scale="  156.675">  1  5  2 -1</clus>
</clustering>
</event>
<event>
10    4  0.3043429E-005  0.1508159E+03  0.7546771E-02  0.1212372E+00
         21   -1    0    0  503  502  0.00000000000E+00  0.00000000000E+00  0.67244472723E+03  0.67244472723E+03  0.00000000000E+00 0. -1.
          2   -1    0    0  502    0 -0.00000000000E+00 -0.00000000000E+00 -0.26175110334E+03  0.26175110334E+03  0.00000000000E+00 0. -1.
         24    2    1    2    0    0 -0.15469694291E+02  0.79658806922E+02 -0.19482420223E+03  0.22587215831E+03  0.80479346174E+02 0.  0.
         23    2    1    2    0    0 -0.10630831093E+03 -0.38391384054E+02  0.79189194851E+02  0.16392959427E+03  0.88468231315E+02 0.  0.
        -11    1    3    3    0    0  0.73229682091E+01  0.39575892689E+02 -0.19758970018E+02  0.44836302721E+02  0.00000000000E+00 0.  1.
         12    1    3    3    0    0 -0.22792662500E+02  0.40082914233E+02 -0.17506523221E+03  0.18103585558E+03  0.00000000000E+00 0. -1.
        -13    1    4    4    0    0 -0.29248996247E+02 -0.26379660260E+02 -0.14550014993E+02  0.41989203293E+02  0.00000000000E+00 0.  1.
         13    1    4    4    0    0 -0.77059314687E+02 -0.12011723794E+02  0.93739209844E+02  0.12194039097E+03  0.00000000000E+00 0. -1.
         21    1    1    2  503  501  0.48870710037E+02  0.10037893375E+02  0.18275144089E+03  0.18943915844E+03  0.00000000000E+00 0. -1.
          1    1    1    2  501    0  0.72907295189E+02 -0.51305316243E+02  0.34357719039E+03  0.35495491956E+03  0.00000000000E+00 0. -1.
<scales pt_clust_5="13000.00000" pt_clust_6="13000.00000" pt_clust_7="13000.00000" pt_clust_8="13000.00000" pt_clust_9="39.65693" pt_clust_10="133.15035"></scales>
<clustering>
<clus scale="   39.657">  9 10 -1 -1</clus>
<clus scale="   80.479">  5  6 -1 -1</clus>
<clus scale="   88.468">  7  8 -1 -1</clus>
<clus scale="  114.288">  2  5  1 -1</clus>
<clus scale="  133.150">  1  9  2 -1</clus>
<clus scale="  133.150">  1  5  2 -1</clus>
</clustering>
</event>
<event>
10    4  0.3043429E-005  0.1294107E+03  0.7546771E-02  0.1241327E+00
          4   -1    0    0  502    0 -0.00000000000E+00  0.00000000000E+00  0.15930208556E+03  0.15930208556E+03  0.00000000000E+00 0. -1.
         21   -1    0    0  503  502  0.00000000000E+00 -0.00000000000E+00 -0.22268888696E+03  0.22268888696E+03  0.00000000000E+00 0. -1.
         23    2    1    2    0    0 -0.88300903331E+01  0.32182753791E+02 -0.90804276748E+02  0.13446127022E+03  0.93384775935E+02 0.  0.
         24    2    1    2    0    0 -0.76583503969E+02  0.39915912172E+02  0.45437168543E+02  0.12621134428E+03  0.80040327437E+02 0.  0.
        -13    1    4    4    0    0 -0.12807262516E+00  0.25889030995E+02 -0.12994114548E+02  0.28967315053E+02  0.00000000000E+00 0.  1.
         14    1    4    4    0    0 -0.76455431344E+02  0.14026881177E+02  0.58431283091E+02  0.97244029232E+02  0.00000000000E+00 0. -1.
        -13    1    3    3    0    0  0.18810624923E+02  0.56839835209E+02 -0.69495143309E+02  0.91728847262E+02  0.00000000000E+00 0. -1.
         13    1    3    3    0    0 -0.27640715256E+02 -0.24657081417E+02 -0.21309133440E+02  0.42732422958E+02  0.00000000000E+00 0.  1.
         21    1    1    2  503  501  0.31219795467E+02 -0.23258050688E+02 -0.27621987639E+02  0.47734544639E+02  0.00000000000E+00 0. -1.
          3    1    1    2  501    0  0.54193798835E+02 -0.48840615275E+02  0.96022944409E+01  0.73583813377E+02  0.00000000000E+00 0. -1.
<scales pt_clust_5="13000.00000" pt_clust_6="13000.00000" pt_clust_7="13000.00000" pt_clust_8="13000.00000" pt_clust_9="31.83957" pt_clust_10="110.63635"></scales>
<clustering>
<clus scale="   31.840">  9 10 -1 -1</clus>
<clus scale="   80.040">  5  6 -1 -1</clus>
<clus scale="   93.385">  7  8 -1 -1</clus>
<clus scale="   99.169">  1  7  2 -1</clus>
<clus scale="  110.636">  2  9  1 -1</clus>
<clus scale="  110.636">  2  5  1 -1</clus>
</clustering>
</event>
<event>
10    4  0.3043429E-005  0.2183453E+03  0.7546771E-02  0.1135956E+00
          2   -1    0    0  503    0 -0.00000000000E+00  0.00000000000E+00  0.63296552557E+03  0.63296552557E+03  0.00000000000E+00 0. -1.
         21   -1    0    0  501  502  0.00000000000E+00 -0.00000000000E+00 -0.18558068369E+03  0.18558068369E+03  0.00000000000E+00 0. -1.
         24    2    1    2    0    0  0.34565498833E+02  0.17122528614E+03  0.15304743333E+03  0.24536549931E+03  0.79169685357E+02 0.  0.
         23    2    1    2    0    0  0.73688407591E+02 -0.25131195602E+03  0.12978422844E+03  0.30592731209E+03  0.90332129822E+02 0.  0.
        -13    1    3    3    0    0  0.72186042886E+01  0.10406103120E+03  0.41384182412E+02  0.11222057305E+03  0.00000000000E+00 0.  1.
         14    1    3    3    0    0  0.27346894545E+02  0.67164254940E+02  0.11166325091E+03  0.13314492625E+03  0.00000000000E+00 0. -1.
        -11    1    4    4    0    0  0.75283587108E+02 -0.99064628750E+02  0.50695519518E+02  0.13435570273E+03  0.00000000000E+00 0.  1.
         11    1    4    4    0    0 -0.15951795163E+01 -0.15224732727E+03  0.79088708923E+02  0.17157160936E+03  0.00000000000E+00 0. -1.
         21    1    1    2  503  502 -0.44642280367E+02 -0.18316284038E+02 -0.17009683313E+02  0.51163940268E+02  0.00000000000E+00 0. -1.
          1    1    1    2  501    0 -0.63611626057E+02  0.98402953919E+02  0.18156286343E+03  0.21608945760E+03  0.00000000000E+00 0. -1.
<scales pt_clust_5="13000.00000" pt_clust_6="13000.00000" pt_clust_7="13000.00000" pt_clust_8="13000.00000" pt_clust_9="48.25370" pt_clust_10="118.30579"></scales>
<clustering>
<clus scale="   48.254">  2  9  1 -1</clus>
<clus scale="   79.170">  5  6 -1 -1</clus>
<clus scale="   90.332">  7  8 -1 -1</clus>
<clus scale="  118.306">  2 10  1 -1</clus>
<clus scale="  213.969">  1  5  2 -1</clus>
<clus scale="   48.254">  2  5  1 -1</clus>
</clustering>
</event>
<event>
10    4  0.3043429E-005  0.9357763E+02  0.7546771E-02  0.1296196E+00
          2   -1    0    0  502    0 -0.00000000000E+00  0.00000000000E+00  0.39013988584E+03  0.39013988584E+03  0.00000000000E+00 0. -1.
         21   -1    0    0  503  502  0.00000000000E+00 -0.00000000000E+00 -0.68280131044E+02  0.68280131044E+02  0.00000000000E+00 0. -1.
         24    2    1    2    0    0 -0.53586590818E+01 -0.15429051645E+02  0.27276087786E+03  0.28748096156E+03  0.89331046702E+02 0.  0.
         23    2    1    2    0    0  0.21586325418E+02 -0.48390351085E+01  0.93764654778E+01  0.95492678116E+02  0.92420494280E+02 0.  0.
        -11    1    3    3    0    0  0.11149264435E+02  0.33631916440E+02  0.73325045953E+02  0.81436934279E+02  0.00000000000E+00 0.  1.
         12    1    3    3    0    0 -0.16507923517E+02 -0.49060968085E+02  0.19943583191E+03  0.20604402728E+03  0.00000000000E+00 0. -1.
        -13    1    4    4    0    0  0.55272921993E+02 -0.30248569576E-01 -0.10242597839E+02  0.56213945166E+02  0.00000000000E+00 0. -1.
         13    1    4    4    0    0 -0.33686596574E+02 -0.48087865389E+01  0.19619063317E+02  0.39278732950E+02  0.00000000000E+00 0.  1.
         21    1    1    2  503  501  0.14692885416E+02  0.13886290900E+02 -0.48830248971E+01  0.20797929920E+02  0.00000000000E+00 0.  1.
          1    1    1    2  501    0 -0.30920551752E+02  0.63817958532E+01  0.44605436356E+02  0.54648447292E+02  0.00000000000E+00 0. -1.
<scales pt_clust_5="13000.00000" pt_clust_6="13000.00000" pt_clust_7="13000.00000" pt_clust_8="13000.00000" pt_clust_9="20.21658" pt_clust_10="30.56004"></scales>
<clustering>
<clus scale="   20.217">  2  9  1 -1</clus>
<clus scale="   30.560">  2 10  1 -1</clus>
<clus scale="   89.331">  5  6 -1 -1</clus>
<clus scale="   90.528">  1  5  2 -1</clus>
<clus scale="   92.420">  7  8 -1 -1</clus>
<clus scale="   20.217">  2  5  1 -1</clus>
</clustering>
</event>
<event>
10    4  0.3043429E-005  0.2710755E+03  0.7546771E-02  0.1145059E+00
         21   -1    0    0  503  502  0.00000000000E+00  0.00000000000E+00  0.91951944855E+02  0.91951944855E+02  0.00000000000E+00 0. -1.
          2   -1    0    0  502    0 -0.00000000000E+00 -0.00000000000E+00 -0.10885757142E+04  0.10885757142E+04  0.00000000000E+00 0. -1.
         24    2    1    2    0    0 -0.15587193251E+01 -0.43336964586E+02 -0.12331284821E+03  0.15254011061E+03  0.78625089546E+02 0.  0.
         23    2    1    2    0    0 -0.21619521157E+03  0.15342068593E+03 -0.41471969346E+03  0.50008297383E+03  0.88387104213E+02 0.  0.
        -13    1    3    3    0    0 -0.14024030162E+02 -0.60089835988E+02 -0.11410070404E+03  0.12971673937E+03  0.00000000000E+00 0.  1.
         14    1    3    3    0    0  0.12465310837E+02  0.16752871401E+02 -0.92121441679E+01  0.22823371237E+02  0.00000000000E+00 0. -1.
        -11    1    4    4    0    0 -0.12842545019E+03  0.73220700527E+02 -0.30203949178E+03  0.33627700165E+03  0.00000000000E+00 0. -1.
         11    1    4    4    0    0 -0.87769761383E+02  0.80199985399E+02 -0.11268020168E+03  0.16380597218E+03  0.00000000000E+00 0.  1.
         21    1    1    2  503  501  0.62686410610E+02 -0.13771371994E+02 -0.53394934722E+02  0.83488057923E+02  0.00000000000E+00 0. -1.
          1    1    1    2  501    0  0.15506752029E+03 -0.96312349345E+02 -0.40519629292E+03  0.44441651666E+03  0.00000000000E+00 0. -1.
<scales pt_clust_5="13000.00000" pt_clust_6="13000.00000" pt_clust_7="13000.00000" pt_clust_8="13000.00000" pt_clust_9="55.75705" pt_clust_10="55.75705"></scales>
<clustering>
<clus scale="   55.757">  9 10 -1 -1</clus>
<clus scale="   78.625">  5  6 -1 -1</clus>
<clus scale="   88.387">  7  8 -1 -1</clus>
<clus scale="   89.791">  2  5  1 -1</clus>
<clus scale="  269.169">  2  7  1 -1</clus>
<clus scale="  271.076">  1  5  2 -1</clus>
</clustering>
</event>
<event>
10    4  0.3043429E-005  0.1705315E+03  0.7546771E-02  0.1195401E+00
         21   -1    0    0  503  502  0.00000000000E+00  0.00000000000E+00  0.56188742217E+02  0.56188742217E+02  0.00000000000E+00 0. -1.
          2   -1    0    0  502    0 -0.00000000000E+00 -0.00000000000E+00 -0.16416414322E+04  0.16416414322E+04  0.00000000000E+00 0. -1.
         24    2    1    2    0    0 -0.50540765971E+02  0.84261467932E+02 -0.70927968801E+03  0.71802151029E+03  0.53130494172E+02 0.  0.
         23    2    1    2    0    0 -0.15855589745E+02  0.90745029422E+02 -0.36153599023E+03  0.38447126209E+03  0.92864519839E+02 0.  0.
        -13    1    3    3    0    0 -0.96032015821E+01  0.61684365562E+02 -0.32815842909E+03  0.33404361545E+03  0.00000000000E+00 0.  1.
         14    1    3    3    0    0 -0.40937564388E+02  0.22577102370E+02 -0.38112125891E+03  0.38397789484E+03  0.00000000000E+00 0. -1.
        -11    1    4    4    0    0  0.19766339522E+02 -0.76836526302E+01 -0.10997274367E+03  0.11199888859E+03  0.00000000000E+00 0.  1.
         11    1    4    4    0    0 -0.35621929267E+02  0.98428682052E+02 -0.25156324656E+03  0.27247237349E+03  0.00000000000E+00 0. -1.
         21    1    1    2  503  501 -0.64805613516E+01  0.21111942585E+02  0.14445729517E+02  0.26389219321E+02  0.00000000000E+00 0.  1.
          1    1    1    2  501    0  0.72876917067E+02 -0.19611843994E+03 -0.52908274124E+03  0.56894818270E+03  0.00000000000E+00 0. -1.
<scales pt_clust_5="13000.00000" pt_clust_6="13000.00000" pt_clust_7="13000.00000" pt_clust_8="13000.00000" pt_clust_9="22.08420" pt_clust_10="143.02859"></scales>
<clustering>
<clus scale="   22.084">  1  9  2 -1</clus>
<clus scale="   53.130">  5  6 -1 -1</clus>
<clus scale="   92.865">  7  8 -1 -1</clus>
<clus scale="  114.014">  2  5  1 -1</clus>
<clus scale="  143.029">  1 10  2 -1</clus>
<clus scale="   22.084">  1  5  2 -1</clus>
</clustering>
</event>
<event>
10    4  0.3043429E-005  0.1957438E+03  0.7546771E-02  0.1154733E+00
         21   -1    0    0  501  502  0.00000000000E+00  0.00000000000E+00  0.70747462076E+02  0.70747462076E+02  0.00000000000E+00 0.  1.
         -3   -1    0    0    0  501 -0.00000000000E+00 -0.00000000000E+00 -0.83554183799E+03  0.83554183799E+03  0.00000000000E+00 0.  1.
         24    2    1    2    0    0  0.17247660661E+03 -0.60244809356E+02 -0.47834656050E+03  0.51817038704E+03  0.79419778269E+02 0.  0.
         23    2    1    2    0    0 -0.15874337770E+03  0.21436175385E+01 -0.19977065517E+03  0.27162970338E+03  0.93114585500E+02 0.  0.
        -11    1    3    3    0    0  0.37988092307E+02 -0.50265234672E+02 -0.12543163291E+03  0.14036660396E+03  0.00000000000E+00 0.  1.
         12    1    3    3    0    0  0.13448851431E+03 -0.99795746832E+01 -0.35291492760E+03  0.37780378308E+03  0.00000000000E+00 0. -1.
        -13    1    4    4    0    0 -0.96715815000E+02 -0.72474311307E+01 -0.49711676090E+02  0.10898497543E+03  0.00000000000E+00 0.  1.
         13    1    4    4    0    0 -0.62027562703E+02  0.93910486692E+01 -0.15005897908E+03  0.16264472796E+03  0.00000000000E+00 0. -1.
         21    1    1    2  503  502  0.55008096762E+01  0.27158411487E+02 -0.65583703580E+01  0.28475435788E+02  0.00000000000E+00 0.  1.
         -4    1    1    2    0  503 -0.19234038586E+02  0.30942780330E+02 -0.80118789886E+02  0.88013773852E+02  0.00000000000E+00 0.  1.
<scales pt_clust_5="13000.00000" pt_clust_6="13000.00000" pt_clust_7="13000.00000" pt_clust_8="13000.00000" pt_clust_9="27.70989" pt_clust_10="37.78556"></scales>
<clustering>
<clus scale="   27.710">  1  9  2 -1</clus>
<clus scale="   37.786">  1 10  2 -1</clus>
<clus scale="   79.420">  5  6 -1 -1</clus>
<clus scale="   93.115">  7  8 -1 -1</clus>
<clus scale="  189.612">  2  5  1 -1</clus>
<clus scale="   27.710">  1  5  2 -1</clus>
</clustering>
</event>
<event>
10    4  0.3043429E-005  0.3546179E+03  0.7546771E-02  0.1060735E+00
         21   -1    0    0  503  502  0.00000000000E+00  0.00000000000E+00  0.14143030474E+03  0.14143030474E+03  0.00000000000E+00 0.  1.
         -3   -1    0    0    0  501 -0.00000000000E+00 -0.00000000000E+00 -0.79920939384E+03  0.79920939384E+03  0.00000000000E+00 0.  1.
         24    2    1    2    0    0 -0.11015023595E+03 -0.70100262905E+02 -0.19750644023E+03  0.25002953398E+03  0.80366986952E+02 0.  0.
         23    2    1    2    0    0 -0.17323491562E+03  0.38444025897E+02 -0.11633017413E+03  0.22804468002E+03  0.83566665346E+02 0.  0.
        -11    1    3    3    0    0 -0.11857616187E+03 -0.63500671750E+02 -0.19794043065E+03  0.23931789645E+03  0.00000000000E+00 0.  1.
         12    1    3    3    0    0  0.84259259185E+01 -0.65995911544E+01  0.43399041478E+00  0.10711637534E+02  0.00000000000E+00 0. -1.
        -13    1    4    4    0    0 -0.72056545868E+02  0.97749557666E+00 -0.93010493977E+02  0.11766075510E+03  0.00000000000E+00 0. -1.
         13    1    4    4    0    0 -0.10117836975E+03  0.37466530321E+02 -0.23319680152E+02  0.11038392493E+03  0.00000000000E+00 0.  1.
         21    1    1    2  503  501  0.10439007368E+02  0.18300377750E+02  0.26111433652E+01  0.21229573013E+02  0.00000000000E+00 0.  1.
         -4    1    1    2    0  502  0.27294614420E+03  0.13355859257E+02 -0.34655361810E+03  0.44133591156E+03  0.00000000000E+00 0.  1.
<scales pt_clust_5="13000.00000" pt_clust_6="13000.00000" pt_clust_7="13000.00000" pt_clust_8="13000.00000" pt_clust_9="21.06838" pt_clust_10="277.49167"></scales>
<clustering>
<clus scale="   21.068">  1  9  2 -1</clus>
<clus scale="   80.367">  5  6 -1 -1</clus>
<clus scale="   83.567">  7  8 -1 -1</clus>
<clus scale="  149.635">  5  7 -1 -1</clus>
<clus scale="  277.492">  1 10  2 -1</clus>
<clus scale="   21.068">  1  5  2 -1</clus>
</clustering>
</event>
<event>
10    4  0.3043429E-005  0.2028415E+03  0.7546771E-02  0.1165373E+00
         21   -1    0    0  501  502  0.00000000000E+00  0.00000000000E+00  0.71617161139E+02  0.71617161139E+02  0.00000000000E+00 0.  1.
          2   -1    0    0  503    0 -0.00000000000E+00 -0.00000000000E+00 -0.11410566451E+04  0.11410566451E+04  0.00000000000E+00 0. -1.
         23    2    1    2    0    0 -0.96843517228E+02 -0.28057387380E+02 -0.29717176125E+03  0.32700507217E+03  0.91953127855E+02 0.  0.
         24    2    1    2    0    0  0.10148525812E+03  0.19562572323E+03 -0.39780206697E+03  0.46250051357E+03  0.84211396854E+02 0.  0.
        -11    1    4    4    0    0  0.72428249193E+02  0.18683184174E+03 -0.30565949334E+03  0.36548558691E+03  0.00000000000E+00 0.  1.
         12    1    4    4    0    0  0.29057008929E+02  0.87938814877E+01 -0.92142573625E+02  0.97014926654E+02  0.00000000000E+00 0. -1.
        -11    1    3    3    0    0 -0.84404131922E+02  0.13635718641E+02 -0.24251608553E+03  0.25714595476E+03  0.00000000000E+00 0. -1.
         11    1    3    3    0    0 -0.12439385306E+02 -0.41693106021E+02 -0.54655675723E+02  0.69859117409E+02  0.00000000000E+00 0.  1.
         21    1    1    2  503  502  0.25428733665E+02 -0.13572270544E+02 -0.18753304814E+02  0.34387693511E+02  0.00000000000E+00 0.  1.
          1    1    1    2  501    0 -0.30070474559E+02 -0.15399606531E+03 -0.35571235097E+03  0.38878052703E+03  0.00000000000E+00 0. -1.
<scales pt_clust_5="13000.00000" pt_clust_6="13000.00000" pt_clust_7="13000.00000" pt_clust_8="13000.00000" pt_clust_9="28.82407" pt_clust_10="184.53489"></scales>
<clustering>
<clus scale="   28.824">  1  9  2 -1</clus>
<clus scale="   84.211">  5  6 -1 -1</clus>
<clus scale="   91.953">  7  8 -1 -1</clus>
<clus scale="  133.016">  2  7  1 -1</clus>
<clus scale="  184.535">  1 10  2 -1</clus>
<clus scale="   28.824">  1  5  2 -1</clus>
</clustering>
</event>
<event>
10    4  0.3043429E-005  0.4455938E+03  0.7546771E-02  0.1029044E+00
         -3   -1    0    0    0  501 -0.00000000000E+00  0.00000000000E+00  0.66970601434E+03  0.66970601434E+03  0.00000000000E+00 0.  1.
         21   -1    0    0  501  502  0.00000000000E+00 -0.00000000000E+00 -0.26154858036E+03  0.26154858036E+03  0.00000000000E+00 0.  1.
         24    2    1    2    0    0 -0.30046603957E+03  0.15861680831E+03  0.14767063406E+03  0.37925007500E+03  0.81147214437E+02 0.  0.
         23    2    1    2    0    0 -0.29098179328E+02  0.64032380261E+01  0.57068329354E+02  0.11286644703E+03  0.92705637111E+02 0.  0.
        -11    1    3    3    0    0 -0.28269242839E+03  0.13190029658E+03  0.11243723135E+03  0.33159437314E+03  0.00000000000E+00 0.  1.
         12    1    3    3    0    0 -0.17773611186E+02  0.26716511728E+02  0.35233402706E+02  0.47655701860E+02  0.00000000000E+00 0. -1.
        -11    1    4    4    0    0 -0.25869922663E+02  0.48115645307E+02  0.39874990095E+02  0.67634185565E+02  0.00000000000E+00 0. -1.
         11    1    4    4    0    0 -0.32282566646E+01 -0.41712407281E+02  0.17193339259E+02  0.45232261464E+02  0.00000000000E+00 0.  1.
         21    1    1    2  503  502  0.13256542893E+02  0.16664159997E+02 -0.37385955822E+00  0.21297181242E+02  0.00000000000E+00 0.  1.
         -4    1    1    2    0  503  0.31630767601E+03 -0.18168420633E+03  0.20379233012E+03  0.41784089143E+03  0.00000000000E+00 0.  1.
<scales pt_clust_5="13000.00000" pt_clust_6="13000.00000" pt_clust_7="13000.00000" pt_clust_8="13000.00000" pt_clust_9="21.29390" pt_clust_10="366.24792"></scales>
<clustering>
<clus scale="   21.294">  2  9  1 -1</clus>
<clus scale="   81.147">  5  6 -1 -1</clus>
<clus scale="   92.706">  7  8 -1 -1</clus>
<clus scale="   93.376">  5  7 -1 -1</clus>
<clus scale="  366.248">  2 10  1 -1</clus>
<clus scale="   21.294">  2  5  1 -1</clus>
</clustering>
</event>
<event>
10    4  0.3043429E-005  0.2857051E+03  0.7546771E-02  0.1122712E+00
         21   -1    0    0  501  502  0.00000000000E+00  0.00000000000E+00  0.42677112485E+03  0.42677112485E+03  0.00000000000E+00 0. -1.
          4   -1    0    0  503    0 -0.00000000000E+00 -0.00000000000E+00 -0.62100866763E+03  0.62100866763E+03  0.00000000000E+00 0. -1.
         24    2    1    2    0    0  0.75285754982E+02 -0.70488821774E+02 -0.60989325746E+02  0.14255404634E+03  0.77235609500E+02 0.  0.
         23    2    1    2    0    0  0.17273766573E+03 -0.55747107448E+02 -0.40104304960E+03  0.44951679615E+03  0.91015280233E+02 0.  0.
        -13    1    3    3    0    0  0.61953109207E+02 -0.73939078709E+01 -0.17599116187E+02  0.64827359229E+02  0.00000000000E+00 0.  1.
         14    1    3    3    0    0  0.13332645775E+02 -0.63094913903E+02 -0.43390209559E+02  0.77726687112E+02  0.00000000000E+00 0. -1.
        -13    1    4    4    0    0  0.22999137279E+02 -0.37670112987E+02 -0.45919023517E+02  0.63691086102E+02  0.00000000000E+00 0.  1.
         13    1    4    4    0    0  0.14973852846E+03 -0.18076994461E+02 -0.35512402608E+03  0.38582571005E+03  0.00000000000E+00 0. -1.
         21    1    1    2  503  502  0.44464358653E+02 -0.10630028686E+02  0.30139098808E+02  0.54758031166E+02  0.00000000000E+00 0.  1.
          3    1    1    2  501    0 -0.29248777937E+03  0.13686595791E+03  0.23765573376E+03  0.40095091882E+03  0.00000000000E+00 0. -1.
<scales pt_clust_5="13000.00000" pt_clust_6="13000.00000" pt_clust_7="13000.00000" pt_clust_8="13000.00000" pt_clust_9="45.71736" pt_clust_10="270.82027"></scales>
<clustering>
<clus scale="   45.717">  1  9  2 -1</clus>
<clus scale="   77.236">  5  6 -1 -1</clus>
<clus scale="   91.015">  7  8 -1 -1</clus>
<clus scale="  132.269">  2  5  1 -1</clus>
<clus scale="  270.820">  1 10  2 -1</clus>
<clus scale="   45.717">  1  5  2 -1</clus>
</clustering>
</event>
<event>
10    4  0.3043429E-005  0.3729156E+03  0.7546771E-02  0.1095569E+00
          2   -1    0    0  503    0 -0.00000000000E+00  0.00000000000E+00  0.12551839664E+04  0.12551839664E+04  0.00000000000E+00 0. -1.
         21   -1    0    0  501  502  0.00000000000E+00 -0.00000000000E+00 -0.17838124339E+03  0.17838124339E+03  0.00000000000E+00 0. -1.
         24    2    1    2    0    0  0.65645700998E+02  0.38685817577E+02  0.42923170657E+02  0.11883979002E+03  0.80464567179E+02 0.  0.
         23    2    1    2    0    0  0.20121154644E+03 -0.26822518454E+03  0.54868304117E+03  0.65035508978E+03  0.97354132378E+02 0.  0.
        -11    1    3    3    0    0  0.54977898014E+02  0.53024541079E+02  0.57638870128E+02  0.95689135101E+02  0.00000000000E+00 0.  1.
         12    1    3    3    0    0  0.10667802984E+02 -0.14338723502E+02 -0.14715699471E+02  0.23150654918E+02  0.00000000000E+00 0. -1.
        -11    1    4    4    0    0  0.11169855544E+03 -0.78507952411E+02  0.17670973631E+03  0.22330785205E+03  0.00000000000E+00 0. -1.
         11    1    4    4    0    0  0.89512990995E+02 -0.18971723213E+03  0.37197330486E+03  0.42704723773E+03  0.00000000000E+00 0.  1.
         21    1    1    2  503  502  0.54862735609E+02  0.69304999112E+00  0.32802904977E+02  0.63925195751E+02  0.00000000000E+00 0. -1.
          1    1    1    2  501    0 -0.32171998305E+03  0.22884631698E+03  0.45239360620E+03  0.60044513422E+03  0.00000000000E+00 0. -1.
<scales pt_clust_5="13000.00000" pt_clust_6="13000.00000" pt_clust_7="13000.00000" pt_clust_8="13000.00000" pt_clust_9="54.86711" pt_clust_10="359.98363"></scales>
<clustering>
<clus scale="   54.867">  2  9  1 -1</clus>
<clus scale="   80.465">  5  6 -1 -1</clus>
<clus scale="   97.354">  7  8 -1 -1</clus>
<clus scale="  118.894">  1  5  2 -1</clus>
<clus scale="  359.984">  2 10  1 -1</clus>
<clus scale="   54.867">  2  5  1 -1</clus>
</clustering>
</event>
<event>
10    4  0.3043429E-005  0.1715604E+03  0.7546771E-02  0.1198555E+00
         21   -1    0    0  503  502  0.00000000000E+00  0.00000000000E+00  0.20123560549E+03  0.20123560549E+03  0.00000000000E+00 0. -1.
         -1   -1    0    0    0  501 -0.00000000000E+00 -0.00000000000E+00 -0.53758656193E+03  0.53758656193E+03  0.00000000000E+00 0.  1.
         23    2    1    2    0    0 -0.55340582212E+02  0.16124700296E+02 -0.89196811825E+00  0.10806998689E+03  0.91409739411E+02 0.  0.
         24    2    1    2    0    0 -0.35150322828E+02 -0.17667031534E+03  0.22174194157E+01  0.19605361545E+03  0.77357337500E+02 0.  0.
        -11    1    4    4    0    0 -0.42134743405E+02 -0.12158607966E+03 -0.29624752838E+02  0.13204596680E+03  0.00000000000E+00 0.  1.
         12    1    4    4    0    0  0.69844205763E+01 -0.55084235680E+02  0.31842172254E+02  0.64007648645E+02  0.00000000000E+00 0. -1.
        -13    1    3    3    0    0 -0.12810713523E+02 -0.26163504049E+02 -0.29640946149E+02  0.41559944823E+02  0.00000000000E+00 0. -1.
         13    1    3    3    0    0 -0.42529868689E+02  0.42288204345E+02  0.28748978031E+02  0.66510042063E+02  0.00000000000E+00 0.  1.
         21    1    1    2  503  501  0.38151417411E+02  0.33171192821E+02  0.17707446439E+02  0.53566895962E+02  0.00000000000E+00 0.  1.
         -2    1    1    2    0  502  0.52339487629E+02  0.12737442222E+03 -0.35538385418E+03  0.38113166913E+03  0.00000000000E+00 0.  1.
<scales pt_clust_5="13000.00000" pt_clust_6="13000.00000" pt_clust_7="13000.00000" pt_clust_8="13000.00000" pt_clust_9="50.55550" pt_clust_10="153.13010"></scales>
<clustering>
<clus scale="   50.556">  1  9  2 -1</clus>
<clus scale="   77.357">  5  6 -1 -1</clus>
<clus scale="   91.410">  7  8 -1 -1</clus>
<clus scale="  104.526">  2  7  1 -1</clus>
<clus scale="  153.130">  1 10  2 -1</clus>
<clus scale="   50.556">  1  5  2 -1</clus>
</clustering>
</event>
<event>
10    4  0.3043429E-005  0.1903331E+03  0.7546771E-02  0.1191519E+00
          2   -1    0    0  503    0 -0.00000000000E+00  0.00000000000E+00  0.97934160780E+03  0.97934160780E+03  0.00000000000E+00 0. -1.
         21   -1    0    0  501  502  0.00000000000E+00 -0.00000000000E+00 -0.11366592655E+03  0.11366592655E+03  0.00000000000E+00 0.  1.
         24    2    1    2    0    0  0.34374334049E+02 -0.15121349059E+02  0.11364167804E+03  0.14453143731E+03  0.81022560725E+02 0.  0.
         23    2    1    2    0    0 -0.47274532288E+02  0.36585124583E+01  0.18149231725E+03  0.20956557836E+03  0.93434492001E+02 0.  0.
        -11    1    3    3    0    0  0.14683263439E+02 -0.48390160095E+02  0.61475847881E+02  0.79602045777E+02  0.00000000000E+00 0.  1.
         12    1    3    3    0    0  0.19691070610E+02  0.33268811036E+02  0.52165830155E+02  0.64929391536E+02  0.00000000000E+00 0. -1.
        -13    1    4    4    0    0  0.14440361319E+02  0.32149844116E+02  0.45712899767E+02  0.57721795856E+02  0.00000000000E+00 0.  1.
         13    1    4    4    0    0 -0.61714893608E+02 -0.28491331658E+02  0.13577941749E+03  0.15184378251E+03  0.00000000000E+00 0. -1.
         21    1    1    2  503  502 -0.18400801883E+03 -0.34696754571E+02  0.71487993834E+02  0.20043290407E+03  0.00000000000E+00 0.  1.
          1    1    1    2  501    0  0.19690821707E+03  0.46159591171E+02  0.49905369212E+03  0.53847761461E+03  0.00000000000E+00 0. -1.
<scales pt_clust_5="13000.00000" pt_clust_6="13000.00000" pt_clust_7="13000.00000" pt_clust_8="13000.00000" pt_clust_9="190.33314" pt_clust_10="13000.00000"></scales>
<clustering>
<clus scale="   81.023">  5  6 -1 -1</clus>
<clus scale="   89.302">  1  5  2 -1</clus>
<clus scale="   93.434">  7  8 -1 -1</clus>
<clus scale="  101.390">  1  7  2 -1</clus>
<clus scale="  190.333">  2  9  1 -1</clus>
<clus scale="  190.333">  2  5  1 -1</clus>
</clustering>
</event>
<event>
10    4  0.3043429E-005  0.2301286E+03  0.7546771E-02  0.1143203E+00
         21   -1    0    0  503  502  0.00000000000E+00  0.00000000000E+00  0.56302190845E+03  0.56302190845E+03  0.00000000000E+00 0. -1.
         -3   -1    0    0    0  501 -0.00000000000E+00 -0.00000000000E+00 -0.10131088539E+04  0.10131088539E+04  0.00000000000E+00 0.  1.
         24    2    1    2    0    0 -0.42286757842E+02 -0.12652883808E+03 -0.70639410328E+03  0.72324945754E+03  0.79368960798E+02 0.  0.
         23    2    1    2    0    0  0.19994024881E+03 -0.49986977417E+02 -0.10078165667E+03  0.24699087471E+03  0.91502725989E+02 0.  0.
        -13    1    3    3    0    0  0.11981111277E+02 -0.87274246369E+02 -0.38479130480E+03  0.39474636079E+03  0.00000000000E+00 0.  1.
         14    1    3    3    0    0 -0.54267869119E+02 -0.39254591714E+02 -0.32160279848E+03  0.32850309676E+03  0.00000000000E+00 0. -1.
        -13    1    4    4    0    0  0.86274521944E+02  0.23350083747E+02 -0.29718722702E+02  0.94189819124E+02  0.00000000000E+00 0. -1.
         13    1    4    4    0    0  0.11366572687E+03 -0.73337061164E+02 -0.71062933964E+02  0.15280105559E+03  0.00000000000E+00 0.  1.
         21    1    1    2  503  501 -0.20088078956E+03  0.53506832904E+02  0.41428213334E+03  0.46351457235E+03  0.00000000000E+00 0. -1.
         -4    1    1    2    0  502  0.43227298588E+02  0.12300898260E+03 -0.57193318826E+02  0.14237585772E+03  0.00000000000E+00 0.  1.
<scales pt_clust_5="13000.00000" pt_clust_6="13000.00000" pt_clust_7="13000.00000" pt_clust_8="13000.00000" pt_clust_9="211.15498" pt_clust_10="130.38338"></scales>
<clustering>
<clus scale="   79.369">  5  6 -1 -1</clus>
<clus scale="   91.503">  7  8 -1 -1</clus>
<clus scale="  130.383">  1 10  2 -1</clus>
<clus scale="  153.422">  2  5  1 -1</clus>
<clus scale="  211.155">  1  9  2 -1</clus>
<clus scale="  130.383">  1  5  2 -1</clus>
</clustering>
</event>
<event>
10    4  0.3043429E-005  0.1473768E+03  0.7546771E-02  0.1205645E+00
         21   -1    0    0  501  502  0.00000000000E+00  0.00000000000E+00  0.27753328680E+03  0.27753328680E+03  0.00000000000E+00 0. -1.
          2   -1    0    0  503    0 -0.00000000000E+00 -0.00000000000E+00 -0.15709897131E+03  0.15709897131E+03  0.00000000000E+00 0. -1.
         24    2    1    2    0    0 -0.69907616144E+02 -0.94029242726E+02  0.19824438542E+02  0.14494382358E+03  0.82988736279E+02 0.  0.
         23    2    1    2    0    0 -0.23791282632E+01  0.12667572580E+03  0.10399991327E+03  0.18834109955E+03  0.92757684641E+02 0.  0.
        -13    1    3    3    0    0  0.97862443902E+01 -0.29432658076E+02 -0.17698325041E+02  0.35711099815E+02  0.00000000000E+00 0.  1.
         14    1    3    3    0    0 -0.79693860534E+02 -0.64596584650E+02  0.37522763583E+02  0.10923272377E+03  0.00000000000E+00 0. -1.
        -11    1    4    4    0    0 -0.39535218973E+02  0.27666968836E+02  0.16227431928E+02  0.50909962196E+02  0.00000000000E+00 0.  1.
         11    1    4    4    0    0  0.37156090710E+02  0.99008756962E+02  0.87772481343E+02  0.13743113735E+03  0.00000000000E+00 0. -1.
         21    1    1    2  503  502  0.20491631977E+02 -0.22615979673E+02  0.26754128997E+02  0.40585378353E+02  0.00000000000E+00 0. -1.
          1    1    1    2  501    0  0.51795112430E+02 -0.10030503399E+02 -0.30144165321E+02  0.60761956626E+02  0.00000000000E+00 0. -1.
<scales pt_clust_5="13000.00000" pt_clust_6="13000.00000" pt_clust_7="13000.00000" pt_clust_8="13000.00000" pt_clust_9="30.51867" pt_clust_10="54.30246"></scales>
<clustering>
<clus scale="   30.519">  1  9  2 -1</clus>
<clus scale="   54.302">  1 10  2 -1</clus>
<clus scale="   82.989">  5  6 -1 -1</clus>
<clus scale="   92.758">  7  8 -1 -1</clus>
<clus scale="  141.432">  2  5  1 -1</clus>
<clus scale="   30.519">  1  5  2 -1</clus>
</clustering>
</event>
<event>
10    4  0.3043429E-005  0.1392594E+03  0.7546771E-02  0.1236337E+00
          2   -1    0    0  502    0 -0.00000000000E+00  0.00000000000E+00  0.54922085680E+03  0.54922085680E+03  0.00000000000E+00 0. -1.
         21   -1    0    0  503  502  0.00000000000E+00 -0.00000000000E+00 -0.12469294502E+03  0.12469294502E+03  0.00000000000E+00 0.  1.
         24    2    1    2    0    0 -0.30952893702E+02 -0.21540049232E+02 -0.26235719920E+01  0.89390949849E+02  0.81004959327E+02 0.  0.
         23    2    1    2    0    0  0.22556830858E+02 -0.11305666118E+03  0.26555520020E+02  0.14937466458E+03  0.91197453461E+02 0.  0.
        -13    1    3    3    0    0  0.24871405869E+02  0.34883454689E+01  0.98087162373E+01  0.26962312554E+02  0.00000000000E+00 0.  1.
         14    1    3    3    0    0 -0.55824299571E+02 -0.25028394701E+02 -0.12432288229E+02  0.62428637295E+02  0.00000000000E+00 0. -1.
        -13    1    4    4    0    0  0.56854477118E+02 -0.75262025883E+02  0.65266534544E+01  0.94548407251E+02  0.00000000000E+00 0.  1.
         13    1    4    4    0    0 -0.34297646260E+02 -0.37794635299E+02  0.20028866566E+02  0.54826257325E+02  0.00000000000E+00 0. -1.
         21    1    1    2  503  501 -0.26558438340E+01  0.21088380444E+02  0.29347561377E+01  0.21456609467E+02  0.00000000000E+00 0. -1.
          1    1    1    2  501    0  0.11051906678E+02  0.11350832997E+03  0.39766120761E+03  0.41369157793E+03  0.00000000000E+00 0. -1.
<scales pt_clust_5="13000.00000" pt_clust_6="13000.00000" pt_clust_7="13000.00000" pt_clust_8="13000.00000" pt_clust_9="21.25496" pt_clust_10="105.24363"></scales>
<clustering>
<clus scale="   21.255">  2  9  1 -1</clus>
<clus scale="   81.005">  5  6 -1 -1</clus>
<clus scale="   88.086">  1  5  2 -1</clus>
<clus scale="   91.197">  7  8 -1 -1</clus>
<clus scale="  105.244">  2 10  1 -1</clus>
<clus scale="   21.255">  2  5  1 -1</clus>
</clustering>
</event>
<event>
10    4  0.3043429E-005  0.1707799E+03  0.7546771E-02  0.1178637E+00
          2   -1    0    0  503    0 -0.00000000000E+00  0.00000000000E+00  0.76205404220E+03  0.76205404220E+03  0.00000000000E+00 0. -1.
         21   -1    0    0  501  502  0.00000000000E+00 -0.00000000000E+00 -0.65626272017E+02  0.65626272017E+02  0.00000000000E+00 0. -1.
         24    2    1    2    0    0  0.71415355417E+02 -0.11814388285E+03  0.25445304795E+03  0.30096178408E+03  0.82301347644E+02 0.  0.
         23    2    1    2    0    0 -0.74225327739E+02  0.12791032395E+03  0.26902376154E+03  0.32101358206E+03  0.93837547625E+02 0.  0.
        -13    1    3    3    0    0 -0.13643541795E+02 -0.40806336834E+02  0.95967925803E+02  0.10517198363E+03  0.00000000000E+00 0.  1.
         14    1    3    3    0    0  0.85058897212E+02 -0.77337546012E+02  0.15848512215E+03  0.19578980045E+03  0.00000000000E+00 0. -1.
        -11    1    4    4    0    0 -0.94509871566E+02  0.92413206973E+02  0.18275768849E+03  0.22554974917E+03  0.00000000000E+00 0. -1.
         11    1    4    4    0    0  0.20284543827E+02  0.35497116982E+02  0.86266073044E+02  0.95463832894E+02  0.00000000000E+00 0.  1.
         21    1    1    2  503  502  0.91210899222E+01 -0.51823984655E+02  0.39943019566E+02  0.66063336874E+02  0.00000000000E+00 0. -1.
          1    1    1    2  501    0 -0.63111175999E+01  0.42057543547E+02  0.13300794113E+03  0.13964161120E+03  0.00000000000E+00 0. -1.
<scales pt_clust_5="13000.00000" pt_clust_6="13000.00000" pt_clust_7="13000.00000" pt_clust_8="13000.00000" pt_clust_9="43.70992" pt_clust_10="42.52845"></scales>
<clustering>
<clus scale="   42.528">  2 10  1 -1</clus>
<clus scale="   43.710">  2  9  1 -1</clus>
<clus scale="   82.301">  5  6 -1 -1</clus>
<clus scale="   93.838">  7  8 -1 -1</clus>
<clus scale="  164.723">  1  5  2 -1</clus>
<clus scale="   42.528">  2  5  1 -1</clus>
</clustering>
</event>
<event>
10    4  0.3043429E-005  0.2694653E+03  0.7546771E-02  0.1125986E+00
         21   -1    0    0  501  502  0.00000000000E+00  0.00000000000E+00  0.38708246688E+03  0.38708246688E+03  0.00000000000E+00 0. -1.
          2   -1    0    0  503    0 -0.00000000000E+00 -0.00000000000E+00 -0.82727580939E+03  0.82727580939E+03  0.00000000000E+00 0. -1.
         24    2    1    2    0    0  0.23778424150E+02 -0.12360539408E+03 -0.19039474498E+03  0.24213819878E+03  0.80851972738E+02 0.  0.
         23    2    1    2    0    0  0.22588056624E+03  0.73660766002E+02 -0.46765293624E+03  0.53288026381E+03  0.93883801247E+02 0.  0.
        -13    1    3    3    0    0  0.25117766151E+02 -0.77533046776E+02 -0.52998386226E+02  0.97216791046E+02  0.00000000000E+00 0.  1.
         14    1    3    3    0    0 -0.13393420005E+01 -0.46072347302E+02 -0.13739635875E+03  0.14492140774E+03  0.00000000000E+00 0. -1.
        -11    1    4    4    0    0  0.92981576409E+02  0.37337239831E+02 -0.29763310463E+03  0.31404634690E+03  0.00000000000E+00 0. -1.
         11    1    4    4    0    0  0.13289898983E+03  0.36323526171E+02 -0.17001983161E+03  0.21883391691E+03  0.00000000000E+00 0.  1.
         21    1    1    2  503  502  0.36179767685E+02  0.75810621964E+02  0.92022691927E+01  0.84503891926E+02  0.00000000000E+00 0. -1.
          1    1    1    2  501    0 -0.28583875807E+03 -0.25865993888E+02  0.20865206951E+03  0.35483592176E+03  0.00000000000E+00 0. -1.
<scales pt_clust_5="13000.00000" pt_clust_6="13000.00000" pt_clust_7="13000.00000" pt_clust_8="13000.00000" pt_clust_9="84.00135" pt_clust_10="252.58146"></scales>
<clustering>
<clus scale="   80.852">  5  6 -1 -1</clus>
<clus scale="   84.001">  1  9  2 -1</clus>
<clus scale="   93.884">  7  8 -1 -1</clus>
<clus scale="  145.352">  2  5  1 -1</clus>
<clus scale="  252.581">  1 10  2 -1</clus>
<clus scale="   84.001">  1  5  2 -1</clus>
</clustering>
</event>
<event>
10    4  0.3043429E-005  0.2722309E+03  0.7546771E-02  0.1145377E+00
         21   -1    0    0  503  502  0.00000000000E+00  0.00000000000E+00  0.12366706777E+03  0.12366706777E+03  0.00000000000E+00 0. -1.
          2   -1    0    0  502    0 -0.00000000000E+00 -0.00000000000E+00 -0.95097839104E+03  0.95097839104E+03  0.00000000000E+00 0. -1.
         24    2    1    2    0    0 -0.34513302157E+02  0.16369625425E+02 -0.22509936875E+03  0.24183820066E+03  0.79729899196E+02 0.  0.
         23    2    1    2    0    0 -0.21948941342E+03  0.11721402389E+03 -0.24211857282E+03  0.35879643142E+03  0.90546926494E+02 0.  0.
        -13    1    3    3    0    0 -0.40166157155E+02 -0.21556349197E+02 -0.15916857254E+03  0.16556760207E+03  0.00000000000E+00 0.  1.
         14    1    3    3    0    0  0.56528549976E+01  0.37925974622E+02 -0.65930796214E+02  0.76270598595E+02  0.00000000000E+00 0. -1.
        -13    1    4    4    0    0 -0.15530432221E+03  0.11475067665E+03 -0.21525047420E+03  0.28917108592E+03  0.00000000000E+00 0. -1.
         13    1    4    4    0    0 -0.64185091201E+02  0.24633472344E+01 -0.26868098622E+02  0.69625345497E+02  0.00000000000E+00 0.  1.
         21    1    1    2  503  501  0.15414951592E+01 -0.30030861138E+02 -0.13689770905E+02  0.33039955439E+02  0.00000000000E+00 0.  1.
          1    1    1    2  501    0  0.25246122041E+03 -0.10355278817E+03 -0.34640361080E+03  0.44097087129E+03  0.00000000000E+00 0. -1.
<scales pt_clust_5="13000.00000" pt_clust_6="13000.00000" pt_clust_7="13000.00000" pt_clust_8="13000.00000" pt_clust_9="30.07040" pt_clust_10="256.73131"></scales>
<clustering>
<clus scale="   30.070">  1  9  2 -1</clus>
<clus scale="   79.730">  5  6 -1 -1</clus>
<clus scale="   87.982">  2  5  1 -1</clus>
<clus scale="   90.547">  7  8 -1 -1</clus>
<clus scale="  256.731">  1 10  2 -1</clus>
<clus scale="   30.070">  1  5  2 -1</clus>
</clustering>
</event>
<event>
10    4  0.3043429E-005  0.1055920E+03  0.7546771E-02  0.1274211E+00
          2   -1    0    0  502    0 -0.00000000000E+00  0.00000000000E+00  0.75212904762E+03  0.75212904762E+03  0.00000000000E+00 0. -1.
         21   -1    0    0  503  502  0.00000000000E+00 -0.00000000000E+00 -0.86036136454E+02  0.86036136454E+02  0.00000000000E+00 0.  1.
         24    2    1    2    0    0  0.52170920791E+02 -0.56076896461E+02  0.38912891104E+03  0.40486922138E+03  0.81433124208E+02 0.  0.
         23    2    1    2    0    0  0.19871057407E+02 -0.31350505968E+01  0.99966989743E+02  0.13811202843E+03  0.93149588798E+02 0.  0.
        -13    1    3    3    0    0  0.70903791169E+02 -0.52193789894E+02  0.26419357812E+03  0.27847762213E+03  0.00000000000E+00 0.  1.
         14    1    3    3    0    0 -0.18732870377E+02 -0.38831065670E+01  0.12493533292E+03  0.12639159925E+03  0.00000000000E+00 0. -1.
        -11    1    4    4    0    0 -0.28053224826E+02  0.93341158525E+01  0.78972858781E+02  0.84325687462E+02  0.00000000000E+00 0. -1.
         11    1    4    4    0    0  0.47924282233E+02 -0.12469166449E+02  0.20994130962E+02  0.53786340965E+02  0.00000000000E+00 0.  1.
         21    1    1    2  503  501 -0.16693914623E+02  0.17221642091E+02 -0.51257063986E+02  0.56591150812E+02  0.00000000000E+00 0.  1.
          1    1    1    2  501    0 -0.55348063575E+02  0.41990304966E+02  0.22825407437E+03  0.23859278346E+03  0.00000000000E+00 0. -1.
<scales pt_clust_5="13000.00000" pt_clust_6="13000.00000" pt_clust_7="13000.00000" pt_clust_8="13000.00000" pt_clust_9="23.98482" pt_clust_10="73.29263"></scales>
<clustering>
<clus scale="   23.985">  2  9  1 -1</clus>
<clus scale="   73.293">  2 10  1 -1</clus>
<clus scale="   81.433">  5  6 -1 -1</clus>
<clus scale="   93.150">  7  8 -1 -1</clus>
<clus scale="   95.416">  1  5  2 -1</clus>
<clus scale="   23.985">  2  5  1 -1</clus>
</clustering>
</event>
<event>
10    4  0.3043429E-005  0.1634618E+03  0.7546771E-02  0.1203463E+00
         21   -1    0    0  503  502  0.00000000000E+00  0.00000000000E+00  0.11721874173E+03  0.11721874173E+03  0.00000000000E+00 0.  1.
         -1   -1    0    0    0  501 -0.00000000000E+00 -0.00000000000E+00 -0.84515469888E+03  0.84515469888E+03  0.00000000000E+00 0.  1.
         24    2    1    2    0    0  0.76712010795E+02 -0.31327576374E+01 -0.27487977479E+03  0.29604346167E+03  0.78665709410E+02 0.  0.
         23    2    1    2    0    0 -0.78504703402E+02  0.12565917524E+03 -0.45027630342E+03  0.48411717521E+03  0.98323309186E+02 0.  0.
        -11    1    3    3    0    0  0.75908110846E+02  0.18157737772E+02 -0.25580344930E+03  0.26744560084E+03  0.00000000000E+00 0.  1.
         12    1    3    3    0    0  0.80389994877E+00 -0.21290495409E+02 -0.19076325490E+02  0.28597860831E+02  0.00000000000E+00 0. -1.
        -13    1    4    4    0    0  0.18003532919E+02  0.49895501881E+02 -0.10399631786E+03  0.11674297595E+03  0.00000000000E+00 0. -1.
         13    1    4    4    0    0 -0.96508236321E+02  0.75763673363E+02 -0.34627998556E+03  0.36737419926E+03  0.00000000000E+00 0.  1.
         21    1    1    2  503  501 -0.17361707999E+02  0.26486955452E+02 -0.43354501681E+01  0.31965353774E+02  0.00000000000E+00 0. -1.
         -2    1    1    2    0  502  0.19154400606E+02 -0.14901337306E+03  0.15555712374E+01  0.15024744994E+03  0.00000000000E+00 0.  1.
<scales pt_clust_5="13000.00000" pt_clust_6="13000.00000" pt_clust_7="13000.00000" pt_clust_8="13000.00000" pt_clust_9="31.66998" pt_clust_10="130.58447"></scales>
<clustering>
<clus scale="   31.670">  1  9  2 -1</clus>
<clus scale="   78.666">  5  6 -1 -1</clus>
<clus scale="   98.323">  7  8 -1 -1</clus>
<clus scale="  108.645">  2  5  1 -1</clus>
<clus scale="  130.584">  1 10  2 -1</clus>
<clus scale="   31.670">  1  5  2 -1</clus>
</clustering>
</event>
<event>
10    4  0.3043429E-005  0.2928057E+03  0.7546771E-02  0.1089584E+00
         -1   -1    0    0    0  501 -0.00000000000E+00  0.00000000000E+00  0.12537280964E+04  0.12537280964E+04  0.00000000000E+00 0.  1.
         21   -1    0    0  501  502  0.00000000000E+00 -0.00000000000E+00 -0.13054992367E+03  0.13054992367E+03  0.00000000000E+00 0.  1.
         24    2    1    2    0    0  0.22744119447E+03 -0.92421454492E+02  0.60301986102E+03  0.65599887898E+03  0.80189489626E+02 0.  0.
         23    2    1    2    0    0 -0.33460293962E+03  0.11054841402E+03  0.44352689009E+03  0.57480836408E+03  0.97511405155E+02 0.  0.
        -11    1    3    3    0    0  0.19939101976E+03 -0.72145230432E+02  0.57000268961E+03  0.60816509206E+03  0.00000000000E+00 0.  1.
         12    1    3    3    0    0  0.28050174714E+02 -0.20276224060E+02  0.33017171413E+02  0.47833786926E+02  0.00000000000E+00 0. -1.
        -11    1    4    4    0    0 -0.30027912216E+03  0.10544080091E+03  0.34040955041E+03  0.46600855755E+03  0.00000000000E+00 0.  1.
         11    1    4    4    0    0 -0.34323817459E+02  0.51076131062E+01  0.10311733968E+03  0.10879980653E+03  0.00000000000E+00 0. -1.
         21    1    1    2  503  502  0.24622758193E+02 -0.67553124384E+01 -0.15008086141E+02  0.29616838400E+02  0.00000000000E+00 0.  1.
         -2    1    1    2    0  503  0.82538986954E+02 -0.11371647089E+02  0.91639507719E+02  0.12385393857E+03  0.00000000000E+00 0.  1.
<scales pt_clust_5="13000.00000" pt_clust_6="13000.00000" pt_clust_7="13000.00000" pt_clust_8="13000.00000" pt_clust_9="25.53262" pt_clust_10="87.08719"></scales>
<clustering>
<clus scale="   25.533">  2  9  1 -1</clus>
<clus scale="   80.189">  5  6 -1 -1</clus>
<clus scale="   87.087">  2 10  1 -1</clus>
<clus scale="   97.511">  7  8 -1 -1</clus>
<clus scale="  287.501">  1  5  2 -1</clus>
<clus scale="   25.533">  2  5  1 -1</clus>
</clustering>
</event>
<event>
10    4  0.3043429E-005  0.1774399E+03  0.7546771E-02  0.1191104E+00
          2   -1    0    0  503    0 -0.00000000000E+00  0.00000000000E+00  0.72204211920E+03  0.72204211920E+03  0.00000000000E+00 0. -1.
         21   -1    0    0  501  502  0.00000000000E+00 -0.00000000000E+00 -0.10762512146E+03  0.10762512146E+03  0.00000000000E+00 0.  1.
         23    2    1    2    0    0  0.21102847447E+02  0.57049133750E+02  0.28537175969E+03  0.30560606292E+03  0.90874037176E+02 0.  0.
         24    2    1    2    0    0  0.78166423429E+02 -0.15266060117E+03  0.18541812153E+03  0.26524891488E+03  0.81005297040E+02 0.  0.
        -13    1    4    4    0    0  0.93437284461E+02 -0.11339054610E+03  0.15264589957E+03  0.21186956537E+03  0.00000000000E+00 0.  1.
         14    1    4    4    0    0 -0.15270861032E+02 -0.39270055067E+02  0.32772221965E+02  0.53379349510E+02  0.00000000000E+00 0. -1.
        -11    1    3    3    0    0  0.49380543876E+02  0.54974206114E+02  0.24750223384E+03  0.25829819435E+03  0.00000000000E+00 0. -1.
         11    1    3    3    0    0 -0.28277696430E+02  0.20749276357E+01  0.37869525854E+02  0.47307868568E+02  0.00000000000E+00 0.  1.
         21    1    1    2  503  502  0.39856801763E+02  0.14273775724E+02 -0.89336386097E+00  0.42345051885E+02  0.00000000000E+00 0. -1.
          1    1    1    2  501    0 -0.13912607264E+03  0.81337691697E+02  0.14452048038E+03  0.21646721097E+03  0.00000000000E+00 0. -1.
<scales pt_clust_5="13000.00000" pt_clust_6="13000.00000" pt_clust_7="13000.00000" pt_clust_8="13000.00000" pt_clust_9="42.33563" pt_clust_10="157.87037"></scales>
<clustering>
<clus scale="   42.336">  2  9  1 -1</clus>
<clus scale="   81.005">  5  6 -1 -1</clus>
<clus scale="   90.874">  7  8 -1 -1</clus>
<clus scale="  111.231">  1  7  2 -1</clus>
<clus scale="  157.870">  2 10  1 -1</clus>
<clus scale="   42.336">  2  5  1 -1</clus>
</clustering>
</event>
<event>
10    4  0.3043429E-005  0.9284488E+02  0.7546771E-02  0.1302738E+00
         21   -1    0    0  501  502  0.00000000000E+00  0.00000000000E+00  0.13398799762E+03  0.13398799762E+03  0.00000000000E+00 0. -1.
          2   -1    0    0  503    0 -0.00000000000E+00 -0.00000000000E+00 -0.58555874431E+03  0.58555874431E+03  0.00000000000E+00 0. -1.
         24    2    1    2    0    0  0.20458975137E+02 -0.50670310580E+01 -0.35483153998E+03  0.36445812159E+03  0.80498796003E+02 0.  0.
         23    2    1    2    0    0  0.85937825508E+01 -0.55557438768E+02 -0.16212182851E+03  0.19441100001E+03  0.91387458358E+02 0.  0.
        -13    1    3    3    0    0  0.18319984501E+02  0.29160521960E+02 -0.74947030045E+02  0.82480392735E+02  0.00000000000E+00 0.  1.
         14    1    3    3    0    0  0.21389906365E+01 -0.34227553018E+02 -0.27988450993E+03  0.28197772885E+03  0.00000000000E+00 0. -1.
        -11    1    4    4    0    0  0.41995395531E+02 -0.39168168647E+02 -0.13952485327E+03  0.15088055992E+03  0.00000000000E+00 0. -1.
         11    1    4    4    0    0 -0.33401612981E+02 -0.16389270121E+02 -0.22596975241E+02  0.43530440095E+02  0.00000000000E+00 0.  1.
         21    1    1    2  503  502  0.21500754127E+02 -0.33516638018E+02  0.20369843372E+02  0.44727820996E+02  0.00000000000E+00 0. -1.
          1    1    1    2  501    0 -0.50553511815E+02  0.94141107845E+02  0.45012778426E+02  0.11594979933E+03  0.00000000000E+00 0. -1.
<scales pt_clust_5="13000.00000" pt_clust_6="13000.00000" pt_clust_7="13000.00000" pt_clust_8="13000.00000" pt_clust_9="39.82019" pt_clust_10="75.39763"></scales>
<clustering>
<clus scale="   39.820">  1  9  2 -1</clus>
<clus scale="   75.398">  1 10  2 -1</clus>
<clus scale="   80.499">  5  6 -1 -1</clus>
<clus scale="   82.150">  2  5  1 -1</clus>
<clus scale="   91.387">  7  8 -1 -1</clus>
<clus scale="   39.820">  1  5  2 -1</clus>
</clustering>
</event>
<event>
10    4  0.3043429E-005  0.3741882E+03  0.7546771E-02  0.1084827E+00
         -3   -1    0    0    0  501 -0.00000000000E+00  0.00000000000E+00  0.15803676689E+04  0.15803676689E+04  0.00000000000E+00 0.  1.
         21   -1    0    0  503  502  0.00000000000E+00 -0.00000000000E+00 -0.18087846445E+03  0.18087846445E+03  0.00000000000E+00 0.  1.
         23    2    1    2    0    0  0.35884309825E+02 -0.13355482873E+03  0.44911163519E+02  0.17517855222E+03  0.97703308964E+02 0.  0.
         24    2    1    2    0    0 -0.85410582748E+02  0.42135040184E+03  0.80776186238E+03  0.91825804018E+03  0.76729872094E+02 0.  0.
        -11    1    4    4    0    0 -0.95570309887E+02  0.36002354434E+03  0.65820101995E+03  0.75629307763E+03  0.00000000000E+00 0.  1.
         12    1    4    4    0    0  0.10159727138E+02  0.61326857504E+02  0.14956084243E+03  0.16196496255E+03  0.00000000000E+00 0. -1.
        -13    1    3    3    0    0 -0.21264303255E+02 -0.99901671043E+02  0.35812865163E+02  0.10823620365E+03  0.00000000000E+00 0. -1.
         13    1    3    3    0    0  0.57148613080E+02 -0.33653157683E+02  0.90982983556E+01  0.66942348569E+02  0.00000000000E+00 0.  1.
         21    1    1    2  503  501 -0.25978254672E+02  0.37459569093E+02  0.38680977549E+02  0.59785508750E+02  0.00000000000E+00 0. -1.
         -4    1    1    2    0  502  0.75504527596E+02 -0.32525514221E+03  0.50813520099E+03  0.60802403218E+03  0.00000000000E+00 0.  1.
<scales pt_clust_5="13000.00000" pt_clust_6="13000.00000" pt_clust_7="13000.00000" pt_clust_8="13000.00000" pt_clust_9="45.58606" pt_clust_10="366.23676"></scales>
<clustering>
<clus scale="   45.586">  2  9  1 -1</clus>
<clus scale="   76.730">  5  6 -1 -1</clus>
<clus scale="   97.703">  7  8 -1 -1</clus>
<clus scale="  156.318">  1  7  2 -1</clus>
<clus scale="  366.237">  2 10  1 -1</clus>
<clus scale="   45.586">  2  5  1 -1</clus>
</clustering>
</event>
<event>
10    4  0.3043429E-005  0.2587360E+03  0.7546771E-02  0.1108822E+00
         21   -1    0    0  503  502  0.00000000000E+00  0.00000000000E+00  0.12790925595E+04  0.12790925595E+04  0.00000000000E+00 0.  1.
         -1   -1    0    0    0  501 -0.00000000000E+00 -0.00000000000E+00 -0.13112264407E+03  0.13112264407E+03  0.00000000000E+00 0.  1.
         24    2    1    2    0    0  0.12922224928E+03  0.17786723015E+03  0.17619553596E+03  0.29309378641E+03  0.80771031122E+02 0.  0.
         23    2    1    2    0    0 -0.18179217901E+03 -0.25854075988E+03  0.88435094354E+03  0.94422189966E+03  0.97911611120E+02 0.  0.
        -13    1    3    3    0    0  0.49848469683E+02  0.13502733293E+03  0.11222492688E+03  0.18251488920E+03  0.00000000000E+00 0.  1.
         14    1    3    3    0    0  0.79373779594E+02  0.42839897226E+02  0.63970609077E+02  0.11057889720E+03  0.00000000000E+00 0. -1.
        -13    1    4    4    0    0 -0.14583690613E+02 -0.75276847057E+02  0.14005501981E+03  0.15967058686E+03  0.00000000000E+00 0. -1.
         13    1    4    4    0    0 -0.16720848839E+03 -0.18326391282E+03  0.74429592373E+03  0.78455131280E+03  0.00000000000E+00 0.  1.
         21    1    1    2  503  501 -0.21370527530E+02  0.21478504466E+02  0.70429638029E+02  0.76670460504E+02  0.00000000000E+00 0.  1.
         -2    1    1    2    0  502  0.73940457261E+02  0.59195025259E+02  0.16993797864E+02  0.96229056948E+02  0.00000000000E+00 0.  1.
<scales pt_clust_5="13000.00000" pt_clust_6="13000.00000" pt_clust_7="13000.00000" pt_clust_8="13000.00000" pt_clust_9="30.29894" pt_clust_10="94.57421"></scales>
<clustering>
<clus scale="   30.299">  1  9  2 -1</clus>
<clus scale="   80.771">  5  6 -1 -1</clus>
<clus scale="   94.574">  1 10  2 -1</clus>
<clus scale="   97.912">  7  8 -1 -1</clus>
<clus scale="  252.748">  2  5  1 -1</clus>
<clus scale="   30.299">  1  5  2 -1</clus>
</clustering>
</event>
<event>
10    4  0.3043429E-005  0.1023614E+03  0.7546771E-02  0.1285528E+00
          4   -1    0    0  502    0 -0.00000000000E+00  0.00000000000E+00  0.28242486132E+03  0.28242486132E+03  0.00000000000E+00 0. -1.
         21   -1    0    0  503  502  0.00000000000E+00 -0.00000000000E+00 -0.32854626419E+03  0.32854626419E+03  0.00000000000E+00 0. -1.
         23    2    1    2    0    0 -0.17730026553E+02 -0.20020170781E+02  0.41609708064E+01  0.97370805183E+02  0.93533945411E+02 0.  0.
         24    2    1    2    0    0 -0.54258562721E+02  0.10177119412E+03 -0.94327169804E+02  0.16613192514E+03  0.73490366746E+02 0.  0.
        -11    1    4    4    0    0 -0.23852386054E+02  0.16342321874E+01 -0.43846906158E+02  0.49941547983E+02  0.00000000000E+00 0.  1.
         12    1    4    4    0    0 -0.30406176666E+02  0.10013696194E+03 -0.50480263647E+02  0.11619037715E+03  0.00000000000E+00 0. -1.
        -11    1    3    3    0    0 -0.18252271518E+02  0.21193204528E+02  0.35785833568E+02  0.45419414548E+02  0.00000000000E+00 0.  1.
         11    1    3    3    0    0  0.52224496504E+00 -0.41213375309E+02 -0.31624862762E+02  0.51951390635E+02  0.00000000000E+00 0. -1.
         21    1    1    2  503  501  0.17121871549E+02 -0.47177917083E+02 -0.14191322755E+03  0.15052667040E+03  0.00000000000E+00 0. -1.
          3    1    1    2  501    0  0.54866717724E+02 -0.34573106261E+02  0.18595802369E+03  0.19694172479E+03  0.00000000000E+00 0. -1.
<scales pt_clust_5="13000.00000" pt_clust_6="13000.00000" pt_clust_7="13000.00000" pt_clust_8="13000.00000" pt_clust_9="50.18879" pt_clust_10="66.05148"></scales>
<clustering>
<clus scale="   50.189">  2  9  1 -1</clus>
<clus scale="   66.051">  2 10  1 -1</clus>
<clus scale="   73.490">  5  6 -1 -1</clus>
<clus scale="   84.440">  2  5  1 -1</clus>
<clus scale="   93.534">  7  8 -1 -1</clus>
<clus scale="   50.189">  2  5  1 -1</clus>
</clustering>
</event>
<event>
10    4  0.3043429E-005  0.1269227E+03  0.7546771E-02  0.1235742E+00
         21   -1    0    0  501  502  0.00000000000E+00  0.00000000000E+00  0.11571913582E+03  0.11571913582E+03  0.00000000000E+00 0. -1.
          2   -1    0    0  503    0 -0.00000000000E+00 -0.00000000000E+00 -0.29550030523E+03  0.29550030523E+03  0.00000000000E+00 0. -1.
         23    2    1    2    0    0  0.60162826879E+02  0.83331238123E+02 -0.82296892824E+02  0.16065560222E+03  0.92053152975E+02 0.  0.
         24    2    1    2    0    0 -0.66184860969E+02 -0.53173414632E+02  0.38629288627E+01  0.11600751679E+03  0.78961850828E+02 0.  0.
        -13    1    4    4    0    0 -0.31932319925E+02  0.26963143177E+01 -0.28529395819E+02  0.42905356221E+02  0.00000000000E+00 0.  1.
         14    1    4    4    0    0 -0.34252541044E+02 -0.55869728949E+02  0.32392324681E+02  0.73102160564E+02  0.00000000000E+00 0. -1.
        -11    1    3    3    0    0  0.55358099281E+02  0.10285304986E+03 -0.62650413782E+02  0.13254562749E+03  0.00000000000E+00 0.  1.
         11    1    3    3    0    0  0.48047275979E+01 -0.19521811733E+02 -0.19646479042E+02  0.28109974731E+02  0.00000000000E+00 0. -1.
         21    1    1    2  503  502 -0.31610647734E+02 -0.22804253464E+02 -0.18249591109E+02  0.43038524625E+02  0.00000000000E+00 0. -1.
          1    1    1    2  501    0  0.37632681824E+02 -0.73535700264E+01 -0.83097614344E+02  0.91517797412E+02  0.00000000000E+00 0. -1.
<scales pt_clust_5="13000.00000" pt_clust_6="13000.00000" pt_clust_7="13000.00000" pt_clust_8="13000.00000" pt_clust_9="36.19750" pt_clust_10="38.34443"></scales>
<clustering>
<clus scale="   38.344">  1 10  2 -1</clus>
<clus scale="   36.198">  2  9  1 -1</clus>
<clus scale="   78.962">  5  6 -1 -1</clus>
<clus scale="   92.053">  7  8 -1 -1</clus>
<clus scale="  117.773">  1  5  2 -1</clus>
<clus scale="   38.344">  1  5  2 -1</clus>
</clustering>
</event>
<event>
10    4  0.3043429E-005  0.1579080E+03  0.7546771E-02  0.1193108E+00
         21   -1    0    0  501  502  0.00000000000E+00  0.00000000000E+00  0.98533491294E+02  0.98533491294E+02  0.00000000000E+00 0.  1.
          2   -1    0    0  503    0 -0.00000000000E+00 -0.00000000000E+00 -0.85863575397E+03  0.85863575397E+03  0.00000000000E+00 0. -1.
         24    2    1    2    0    0 -0.45701817886E+02 -0.11492324339E+03 -0.28222590922E+03  0.31836354781E+03  0.80049214271E+02 0.  0.
         23    2    1    2    0    0 -0.67471249671E+00  0.18569178346E+03 -0.81883197975E+02  0.22299169351E+03  0.92404240070E+02 0.  0.
        -11    1    3    3    0    0 -0.56786445181E+02 -0.43729113448E+02 -0.10579282386E+03  0.12778519984E+03  0.00000000000E+00 0.  1.
         12    1    3    3    0    0  0.11084627296E+02 -0.71194129943E+02 -0.17643308537E+03  0.19057834796E+03  0.00000000000E+00 0. -1.
        -11    1    4    4    0    0 -0.45178191302E+02  0.69445092776E+02 -0.35981237479E+02  0.90323525897E+02  0.00000000000E+00 0. -1.
         11    1    4    4    0    0  0.44503478805E+02  0.11624669068E+03 -0.45901960497E+02  0.13266816761E+03  0.00000000000E+00 0.  1.
         21    1    1    2  503  502  0.36495994306E+01  0.21841676510E+02 -0.42796243980E+02  0.48186065491E+02  0.00000000000E+00 0.  1.
          1    1    1    2  501    0  0.42726930952E+02 -0.92610216576E+02 -0.35319691150E+03  0.36762793846E+03  0.00000000000E+00 0. -1.
<scales pt_clust_5="13000.00000" pt_clust_6="13000.00000" pt_clust_7="13000.00000" pt_clust_8="13000.00000" pt_clust_9="22.14449" pt_clust_10="94.04101"></scales>
<clustering>
<clus scale="   22.144">  2  9  1 -1</clus>
<clus scale="   80.049">  5  6 -1 -1</clus>
<clus scale="   92.404">  7  8 -1 -1</clus>
<clus scale="   94.041">  1 10  2 -1</clus>
<clus scale="  151.011">  2  5  1 -1</clus>
<clus scale="   94.041">  1  5  2 -1</clus>
</clustering>
</event>
<event>
10    4  0.3043429E-005  0.8692467E+02  0.7546771E-02  0.1312702E+00
          2   -1    0    0  503    0 -0.00000000000E+00  0.00000000000E+00  0.54896876397E+03  0.54896876397E+03  0.00000000000E+00 0. -1.
         21   -1    0    0  501  502  0.00000000000E+00 -0.00000000000E+00 -0.22385527296E+03  0.22385527296E+03  0.00000000000E+00 0. -1.
         24    2    1    2    0    0 -0.65890830490E+01  0.58164484715E+01  0.36489437533E+03  0.37426258911E+03  0.82748615555E+02 0.  0.
         23    2    1    2    0    0  0.14135649584E+02  0.64034546082E+02  0.12989475641E+03  0.16913194677E+03  0.86213270404E+02 0.  0.
        -13    1    3    3    0    0  0.30777932743E+02 -0.19070376709E+02  0.12222732181E+03  0.12747736508E+03  0.00000000000E+00 0.  1.
         14    1    3    3    0    0 -0.37367015792E+02  0.24886825180E+02  0.24266705352E+03  0.24678522403E+03  0.00000000000E+00 0. -1.
        -13    1    4    4    0    0  0.41340378771E+02  0.69218862109E+02  0.96534849147E+02  0.12577461941E+03  0.00000000000E+00 0. -1.
         13    1    4    4    0    0 -0.27204729187E+02 -0.51843160274E+01  0.33359907260E+02  0.43357327353E+02  0.00000000000E+00 0.  1.
         21    1    1    2  503  502 -0.29104773257E+02 -0.21706272429E+02 -0.17281237752E+03  0.17658529925E+03  0.00000000000E+00 0. -1.
          1    1    1    2  501    0  0.21558206722E+02 -0.48144722124E+02  0.31367367924E+01  0.52844201794E+02  0.00000000000E+00 0. -1.
<scales pt_clust_5="13000.00000" pt_clust_6="13000.00000" pt_clust_7="13000.00000" pt_clust_8="13000.00000" pt_clust_9="36.30771" pt_clust_10="59.51420"></scales>
<clustering>
<clus scale="   36.308">  2  9  1 -1</clus>
<clus scale="   59.514">  2 10  1 -1</clus>
<clus scale="   82.749">  5  6 -1 -1</clus>
<clus scale="   83.490">  1  5  2 -1</clus>
<clus scale="   86.213">  7  8 -1 -1</clus>
<clus scale="   36.308">  2  5  1 -1</clus>
</clustering>
</event>
<event>
10    4  0.3043429E-005  0.1267719E+03  0.7546771E-02  0.1235367E+00
         21   -1    0    0  501  502  0.00000000000E+00  0.00000000000E+00  0.33434096235E+03  0.33434096235E+03  0.00000000000E+00 0. -1.
         -3   -1    0    0    0  501 -0.00000000000E+00 -0.00000000000E+00 -0.20277281773E+03  0.20277281773E+03  0.00000000000E+00 0.  1.
         23    2    1    2    0    0 -0.19216650842E+01  0.89701272033E+02 -0.12512972302E+03  0.17919514718E+03  0.91670290661E+02 0.  0.
         24    2    1    2    0    0  0.36510989807E+02 -0.74478162167E+02  0.11649985188E+03  0.16422578031E+03  0.80733155606E+02 0.  0.
        -13    1    4    4    0    0 -0.62099539219E+01 -0.71987270651E+02  0.64259173160E+02  0.96695253238E+02  0.00000000000E+00 0.  1.
         14    1    4    4    0    0  0.42720943729E+02 -0.24908915164E+01  0.52240678718E+02  0.67530527072E+02  0.00000000000E+00 0. -1.
        -13    1    3    3    0    0  0.44881168751E+02  0.43255919358E+02 -0.60423271096E+02  0.86812243134E+02  0.00000000000E+00 0.  1.
         13    1    3    3    0    0 -0.46802833835E+02  0.46445352675E+02 -0.64706451923E+02  0.92382904049E+02  0.00000000000E+00 0. -1.
         21    1    1    2  503  502 -0.20839430634E+02  0.96894527349E+01  0.15830542450E+03  0.15996491737E+03  0.00000000000E+00 0. -1.
         -4    1    1    2    0  503 -0.13749894089E+02 -0.24912562601E+02 -0.18107408734E+02  0.33727935215E+02  0.00000000000E+00 0.  1.
<scales pt_clust_5="13000.00000" pt_clust_6="13000.00000" pt_clust_7="13000.00000" pt_clust_8="13000.00000" pt_clust_9="22.98189" pt_clust_10="28.54420"></scales>
<clustering>
<clus scale="   22.982">  1  9  2 -1</clus>
<clus scale="   28.544">  1 10  2 -1</clus>
<clus scale="   80.733">  5  6 -1 -1</clus>
<clus scale="   91.670">  7  8 -1 -1</clus>
<clus scale="  119.103">  1  5  2 -1</clus>
<clus scale="   22.982">  1  5  2 -1</clus>
</clustering>
</event>
<event>
10    4  0.3043429E-005  0.1256301E+03  0.7546771E-02  0.1251716E+00
         21   -1    0    0  501  502  0.00000000000E+00  0.00000000000E+00  0.54151653117E+03  0.54151653117E+03  0.00000000000E+00 0. -1.
         -3   -1    0    0    0  501 -0.00000000000E+00 -0.00000000000E+00 -0.81655671727E+02  0.81655671727E+02  0.00000000000E+00 0.  1.
         24    2    1    2    0    0  0.40979135791E+02 -0.10753820373E+02  0.28266379430E+03  0.29669975148E+03  0.79605198936E+02 0.  0.
         23    2    1    2    0    0  0.64609125204E+02 -0.37543815566E+02  0.11537993490E+03  0.16501557893E+03  0.91289291630E+02 0.  0.
        -13    1    3    3    0    0  0.30000581246E+02 -0.41480168462E+02  0.11483736135E+03  0.12573089840E+03  0.00000000000E+00 0.  1.
         14    1    3    3    0    0  0.10978554546E+02  0.30726348089E+02  0.16782643295E+03  0.17096885308E+03  0.00000000000E+00 0. -1.
        -13    1    4    4    0    0  0.27793671485E+02 -0.63524755701E+02  0.88927069306E+02  0.11276482792E+03  0.00000000000E+00 0. -1.
         13    1    4    4    0    0  0.36815453719E+02  0.25980940135E+02  0.26452865592E+02  0.52250751008E+02  0.00000000000E+00 0.  1.
         21    1    1    2  503  502 -0.15964434621E+02 -0.15860993631E+02  0.44522677290E+02  0.49886902938E+02  0.00000000000E+00 0. -1.
         -4    1    1    2    0  503 -0.89623826375E+02  0.64158629570E+02  0.17294452959E+02  0.11156996955E+03  0.00000000000E+00 0.  1.
<scales pt_clust_5="13000.00000" pt_clust_6="13000.00000" pt_clust_7="13000.00000" pt_clust_8="13000.00000" pt_clust_9="22.50409" pt_clust_10="86.30879"></scales>
<clustering>
<clus scale="   22.504">  1  9  2 -1</clus>
<clus scale="   79.605">  5  6 -1 -1</clus>
<clus scale="   87.972">  2  5  1 -1</clus>
<clus scale="   86.309">  1 10  2 -1</clus>
<clus scale="   91.289">  7  8 -1 -1</clus>
<clus scale="   22.504">  1  5  2 -1</clus>
</clustering>
</event>
<event>
10    4  0.3043429E-005  0.3368802E+03  0.7546771E-02  0.1068371E+00
         21   -1    0    0  501  502  0.00000000000E+00  0.00000000000E+00  0.14774005218E+03  0.14774005218E+03  0.00000000000E+00 0. -1.
          2   -1    0    0  503    0 -0.00000000000E+00 -0.00000000000E+00 -0.16028602740E+04  0.16028602740E+04  0.00000000000E+00 0. -1.
         23    2    1    2    0    0  0.26726504946E+03  0.19044090243E+03 -0.10051831761E+04  0.10613210658E+04  0.91163827114E+02 0.  0.
         24    2    1    2    0    0 -0.27518303591E+03 -0.14510550457E+03 -0.11818359187E+03  0.34289421649E+03  0.82630331032E+02 0.  0.
        -11    1    4    4    0    0 -0.71157928613E+02 -0.31627689037E+02 -0.69582386519E+02  0.10442925851E+03  0.00000000000E+00 0.  1.
         12    1    4    4    0    0 -0.20402510729E+03 -0.11347781553E+03 -0.48601205354E+02  0.23846495798E+03  0.00000000000E+00 0. -1.
        -13    1    3    3    0    0  0.16749758436E+03  0.10428024482E+03 -0.46194622732E+03  0.50231875056E+03  0.00000000000E+00 0.  1.
         13    1    3    3    0    0  0.99767465104E+02  0.86160657611E+02 -0.54323694873E+03  0.55900231527E+03  0.00000000000E+00 0. -1.
         21    1    1    2  503  502  0.15175863024E+02  0.17013583593E+02 -0.27487257754E+02  0.35711597332E+02  0.00000000000E+00 0.  1.
          1    1    1    2  501    0 -0.72578765820E+01 -0.62348981455E+02 -0.30426619611E+03  0.31067344649E+03  0.00000000000E+00 0. -1.
<scales pt_clust_5="13000.00000" pt_clust_6="13000.00000" pt_clust_7="13000.00000" pt_clust_8="13000.00000" pt_clust_9="22.79844" pt_clust_10="62.35463"></scales>
<clustering>
<clus scale="   22.798">  1  9  2 -1</clus>
<clus scale="   62.355">  1 10  2 -1</clus>
<clus scale="   82.630">  5  6 -1 -1</clus>
<clus scale="   91.164">  7  8 -1 -1</clus>
<clus scale="  334.672">  1  5  2 -1</clus>
<clus scale="   22.798">  1  5  2 -1</clus>
</clustering>
</event>
<event>
10    4  0.3043429E-005  0.1064895E+03  0.7546771E-02  0.1270689E+00
         21   -1    0    0  501  502  0.00000000000E+00  0.00000000000E+00  0.28843908051E+03  0.28843908051E+03  0.00000000000E+00 0. -1.
          2   -1    0    0  503    0 -0.00000000000E+00 -0.00000000000E+00 -0.22318760350E+03  0.22318760350E+03  0.00000000000E+00 0. -1.
         23    2    1    2    0    0 -0.64100203252E+02  0.20086607418E+02 -0.83504687946E+02  0.14110236281E+03  0.91785271304E+02 0.  0.
         24    2    1    2    0    0  0.22578368030E+02  0.49402446517E+02  0.60464534998E+02  0.11662719214E+03  0.83639449594E+02 0.  0.
        -11    1    4    4    0    0  0.25841304307E+02  0.28841269336E+02 -0.12546267169E+02  0.40706272798E+02  0.00000000000E+00 0.  1.
         12    1    4    4    0    0 -0.32629362768E+01  0.20561177181E+02  0.73010802167E+02  0.75920919339E+02  0.00000000000E+00 0. -1.
        -11    1    3    3    0    0 -0.61708214759E+02 -0.26369782188E+02 -0.46170595182E+02  0.81455466611E+02  0.00000000000E+00 0.  1.
         11    1    3    3    0    0 -0.23919884925E+01  0.46456389605E+02 -0.37334092764E+02  0.59646896202E+02  0.00000000000E+00 0. -1.
         21    1    1    2  503  502  0.20905414550E+02 -0.29303171989E+02  0.16281981151E+03  0.16675132163E+03  0.00000000000E+00 0. -1.
          1    1    1    2  501    0  0.20616420672E+02 -0.40185881945E+02 -0.74528181549E+02  0.87145807438E+02  0.00000000000E+00 0. -1.
<scales pt_clust_5="13000.00000" pt_clust_6="13000.00000" pt_clust_7="13000.00000" pt_clust_8="13000.00000" pt_clust_9="35.99600" pt_clust_10="46.98357"></scales>
<clustering>
<clus scale="   35.996">  1  9  2 -1</clus>
<clus scale="   46.984">  1 10  2 -1</clus>
<clus scale="   83.639">  5  6 -1 -1</clus>
<clus scale="   91.785">  7  8 -1 -1</clus>
<clus scale="   99.554">  1  5  2 -1</clus>
<clus scale="   35.996">  1  5  2 -1</clus>
</clustering>
</event>
<event>
10    4  0.3043429E-005  0.5865221E+03  0.7546771E-02  0.9933770E-01
          2   -1    0    0  503    0 -0.00000000000E+00  0.00000000000E+00  0.21651370274E+04  0.21651370274E+04  0.00000000000E+00 0. -1.
         21   -1    0    0  501  502  0.00000000000E+00 -0.00000000000E+00 -0.20364372285E+03  0.20364372285E+03  0.00000000000E+00 0.  1.
         24    2    1    2    0    0 -0.50099532697E+03  0.29836863585E+02  0.84137706702E+03  0.98380445200E+03  0.89829142263E+02 0.  0.
         23    2    1    2    0    0 -0.20927507261E+02 -0.17672853568E+02  0.17513242369E+03  0.19865414671E+03  0.89676161065E+02 0.  0.
        -13    1    3    3    0    0 -0.37781333304E+03 -0.14188237107E+02  0.65079340555E+03  0.75264618341E+03  0.00000000000E+00 0.  1.
         14    1    3    3    0    0 -0.12318199393E+03  0.44025100691E+02  0.19058366147E+03  0.23115826859E+03  0.00000000000E+00 0. -1.
        -11    1    4    4    0    0 -0.15867885372E+02 -0.51066705790E+02  0.69116589955E+02  0.87388221365E+02  0.00000000000E+00 0.  1.
         11    1    4    4    0    0 -0.50596218888E+01  0.33393852222E+02  0.10601583373E+03  0.11126592534E+03  0.00000000000E+00 0. -1.
         21    1    1    2  503  502  0.34018260196E+02 -0.20922861553E+02 -0.58294608860E+02  0.70663070868E+02  0.00000000000E+00 0.  1.
          1    1    1    2  501    0  0.48790457403E+03  0.87588515366E+01  0.10032784227E+04  0.11156590806E+04  0.00000000000E+00 0. -1.
<scales pt_clust_5="13000.00000" pt_clust_6="13000.00000" pt_clust_7="13000.00000" pt_clust_8="13000.00000" pt_clust_9="39.93755" pt_clust_10="501.64041"></scales>
<clustering>
<clus scale="   39.938">  2  9  1 -1</clus>
<clus scale="   89.676">  7  8 -1 -1</clus>
<clus scale="   89.829">  5  6 -1 -1</clus>
<clus scale="   92.631">  5  7 -1 -1</clus>
<clus scale="  501.640">  2 10  1 -1</clus>
<clus scale="   39.938">  2  5  1 -1</clus>
</clustering>
</event>
<event>
10    4  0.3043429E-005  0.9912292E+02  0.7546771E-02  0.1288996E+00
         21   -1    0    0  501  502  0.00000000000E+00  0.00000000000E+00  0.24760672824E+03  0.24760672824E+03  0.00000000000E+00 0. -1.
          2   -1    0    0  503    0 -0.00000000000E+00 -0.00000000000E+00 -0.19046414076E+03  0.19046414076E+03  0.00000000000E+00 0. -1.
         24    2    1    2    0    0  0.41883874118E+02 -0.55529275462E+01 -0.12676353029E+03  0.15523422628E+03  0.79016317826E+02 0.  0.
         23    2    1    2    0    0  0.16595498166E+01  0.29824486168E+02  0.55457984511E+02  0.11156764084E+03  0.92084180814E+02 0.  0.
        -13    1    3    3    0    0 -0.21321809930E+02  0.80085076296E+01 -0.49540660062E+02  0.54525524046E+02  0.00000000000E+00 0.  1.
         14    1    3    3    0    0  0.63205684048E+02 -0.13561435176E+02 -0.77222870227E+02  0.10070870224E+03  0.00000000000E+00 0. -1.
        -13    1    4    4    0    0 -0.25345641120E+02 -0.22522638619E+02  0.36193804076E+02  0.49594981880E+02  0.00000000000E+00 0.  1.
         13    1    4    4    0    0  0.27005190936E+02  0.52347124788E+02  0.19264180434E+02  0.61972658962E+02  0.00000000000E+00 0. -1.
         21    1    1    2  503  502  0.62526364847E+01  0.31140985665E+02  0.68992799478E+02  0.75953030427E+02  0.00000000000E+00 0. -1.
          1    1    1    2  501    0 -0.49796060420E+02 -0.55412544287E+02  0.59455333779E+02  0.95315971445E+02  0.00000000000E+00 0. -1.
<scales pt_clust_5="13000.00000" pt_clust_6="13000.00000" pt_clust_7="13000.00000" pt_clust_8="13000.00000" pt_clust_9="31.76250" pt_clust_10="62.82554"></scales>
<clustering>
<clus scale="   31.763">  1  9  2 -1</clus>
<clus scale="   62.826">  1 10  2 -1</clus>
<clus scale="   79.016">  5  6 -1 -1</clus>
<clus scale="   87.117">  2  5  1 -1</clus>
<clus scale="   92.084">  7  8 -1 -1</clus>
<clus scale="   31.763">  1  5  2 -1</clus>
</clustering>
</event>
<event>
10    4  0.3043429E-005  0.2153614E+03  0.7546771E-02  0.1152074E+00
          2   -1    0    0  503    0 -0.00000000000E+00  0.00000000000E+00  0.11493432657E+04  0.11493432657E+04  0.00000000000E+00 0. -1.
         21   -1    0    0  501  502  0.00000000000E+00 -0.00000000000E+00 -0.37372174041E+03  0.37372174041E+03  0.00000000000E+00 0.  1.
         24    2    1    2    0    0  0.13762524769E+03 -0.97741821229E+01  0.24470208841E+03  0.29126991484E+03  0.76959780276E+02 0.  0.
         23    2    1    2    0    0 -0.20351914212E+03 -0.14197813643E+03  0.62644893570E+03  0.68306122815E+03  0.11205596789E+03 0.  0.
        -13    1    3    3    0    0  0.10433745171E+03  0.24502134210E+02  0.19376462849E+03  0.22143032688E+03  0.00000000000E+00 0.  1.
         14    1    3    3    0    0  0.33287795983E+02 -0.34276316333E+02  0.50937459921E+02  0.69839587957E+02  0.00000000000E+00 0. -1.
        -13    1    4    4    0    0 -0.17991243898E+03 -0.11614376838E+03  0.60555173935E+03  0.64230115185E+03  0.00000000000E+00 0. -1.
         13    1    4    4    0    0 -0.23606703133E+02 -0.25834368049E+02  0.20897196345E+02  0.40760076305E+02  0.00000000000E+00 0.  1.
         21    1    1    2  503  502  0.17779282583E+03  0.13090358137E+03 -0.26478998123E+03  0.34476045408E+03  0.00000000000E+00 0.  1.
          1    1    1    2  501    0 -0.11189893141E+03  0.20848737181E+02  0.16926048242E+03  0.20397340905E+03  0.00000000000E+00 0. -1.
<scales pt_clust_5="13000.00000" pt_clust_6="13000.00000" pt_clust_7="13000.00000" pt_clust_8="13000.00000" pt_clust_9="183.91302" pt_clust_10="113.82466"></scales>
<clustering>
<clus scale="   76.960">  5  6 -1 -1</clus>
<clus scale="  112.056">  7  8 -1 -1</clus>
<clus scale="  113.825">  2 10  1 -1</clus>
<clus scale="  151.576">  1  5  2 -1</clus>
<clus scale="  183.913">  2  9  1 -1</clus>
<clus scale="  113.825">  2  5  1 -1</clus>
</clustering>
</event>
<event>
10    4  0.3043429E-005  0.1057034E+03  0.7546771E-02  0.1268917E+00
         21   -1    0    0  501  502  0.00000000000E+00  0.00000000000E+00  0.44784309562E+03  0.44784309562E+03  0.00000000000E+00 0. -1.
          2   -1    0    0  503    0 -0.00000000000E+00 -0.00000000000E+00 -0.32381197561E+03  0.32381197561E+03  0.00000000000E+00 0. -1.
         24    2    1    2    0    0  0.16028500873E+02  0.56661590095E+02 -0.22687563442E+03  0.25090012121E+03  0.89503456366E+02 0.  0.
         23    2    1    2    0    0  0.68528067788E+02 -0.47708511503E+02  0.21836848842E+02  0.12464413507E+03  0.89928384255E+02 0.  0.
        -11    1    3    3    0    0 -0.25615738482E+02  0.47626940385E+02 -0.70675569809E+02  0.88991728134E+02  0.00000000000E+00 0.  1.
         12    1    3    3    0    0  0.41644239355E+02  0.90346497103E+01 -0.15620006461E+03  0.16190839308E+03  0.00000000000E+00 0. -1.
        -11    1    4    4    0    0  0.30266525350E+02 -0.71079909689E+02  0.77248618522E+01  0.77640772850E+02  0.00000000000E+00 0. -1.
         11    1    4    4    0    0  0.38261542438E+02  0.23371398186E+02  0.14111986989E+02  0.47003362217E+02  0.00000000000E+00 0.  1.
         21    1    1    2  503  502 -0.58486209469E+02 -0.25728976668E+02  0.35187227431E+03  0.35762650120E+03  0.00000000000E+00 0. -1.
          1    1    1    2  501    0 -0.26070359193E+02  0.16775898075E+02 -0.22802368723E+02  0.38484313740E+02  0.00000000000E+00 0. -1.
<scales pt_clust_5="13000.00000" pt_clust_6="13000.00000" pt_clust_7="13000.00000" pt_clust_8="13000.00000" pt_clust_9="80.43642" pt_clust_10="31.00154"></scales>
<clustering>
<clus scale="   31.002">  1 10  2 -1</clus>
<clus scale="   80.436">  1  9  2 -1</clus>
<clus scale="   89.503">  5  6 -1 -1</clus>
<clus scale="   89.928">  7  8 -1 -1</clus>
<clus scale="  105.342">  2  5  1 -1</clus>
<clus scale="   31.002">  1  5  2 -1</clus>
</clustering>
</event>
<event>
10    4  0.3043429E-005  0.1572327E+03  0.7546771E-02  0.1192767E+00
         21   -1    0    0  501  502  0.00000000000E+00  0.00000000000E+00  0.34126682547E+03  0.34126682547E+03  0.00000000000E+00 0. -1.
          2   -1    0    0  503    0 -0.00000000000E+00 -0.00000000000E+00 -0.33106304260E+03  0.33106304260E+03  0.00000000000E+00 0. -1.
         23    2    1    2    0    0  0.98943192640E+02 -0.88488890498E+02 -0.25230976158E+03  0.29861222905E+03  0.88820090275E+02 0.  0.
         24    2    1    2    0    0 -0.12308225855E+03  0.23255685091E+02  0.12191587704E+03  0.19357540404E+03  0.83173834312E+02 0.  0.
        -13    1    4    4    0    0 -0.41832460299E+02 -0.24048387360E+02  0.73236761563E+02  0.87703494306E+02  0.00000000000E+00 0.  1.
         14    1    4    4    0    0 -0.81249798249E+02  0.47304072450E+02  0.48679115481E+02  0.10587190973E+03  0.00000000000E+00 0. -1.
        -13    1    3    3    0    0  0.21803493363E+01 -0.46746688473E+02 -0.12422489962E+03  0.13274725042E+03  0.00000000000E+00 0. -1.
         13    1    3    3    0    0  0.96762843303E+02 -0.41742202025E+02 -0.12808486196E+03  0.16586497863E+03  0.00000000000E+00 0.  1.
         21    1    1    2  503  502 -0.18009155093E+02 -0.13559854314E+02  0.37045477397E+02  0.43365501400E+02  0.00000000000E+00 0. -1.
          1    1    1    2  501    0  0.42148221001E+02  0.78793059721E+02  0.10355219002E+03  0.13677673359E+03  0.00000000000E+00 0. -1.
<scales pt_clust_5="13000.00000" pt_clust_6="13000.00000" pt_clust_7="13000.00000" pt_clust_8="13000.00000" pt_clust_9="22.54328" pt_clust_10="81.28319"></scales>
<clustering>
<clus scale="   22.543">  1  9  2 -1</clus>
<clus scale="   81.283">  1 10  2 -1</clus>
<clus scale="   83.174">  5  6 -1 -1</clus>
<clus scale="   88.820">  7  8 -1 -1</clus>
<clus scale="  154.114">  1  5  2 -1</clus>
<clus scale="   22.543">  1  5  2 -1</clus>
</clustering>
</event>
<event>
10    4  0.3043429E-005  0.9784797E+02  0.7546771E-02  0.1290570E+00
          2   -1    0    0  503    0 -0.00000000000E+00  0.00000000000E+00  0.12549858786E+04  0.12549858786E+04  0.00000000000E+00 0. -1.
         21   -1    0    0  501  502  0.00000000000E+00 -0.00000000000E+00 -0.17060227680E+02  0.17060227680E+02  0.00000000000E+00 0. -1.
         23    2    1    2    0    0 -0.23819779648E+02  0.50292970031E+02  0.56858563960E+03  0.57851698208E+03  0.91079658872E+02 0.  0.
         24    2    1    2    0    0  0.20703286413E+02  0.48102885576E+01  0.23340468166E+03  0.24775641901E+03  0.80335128052E+02 0.  0.
        -11    1    4    4    0    0  0.18915791624E+02  0.36457173442E+02  0.18766634028E+03  0.19210827140E+03  0.00000000000E+00 0.  1.
         12    1    4    4    0    0  0.17874947892E+01 -0.31646884884E+02  0.45738341380E+02  0.55648147612E+02  0.00000000000E+00 0. -1.
        -13    1    3    3    0    0  0.47539702246E+01 -0.25357856698E+02  0.12888520753E+03  0.13144207032E+03  0.00000000000E+00 0.  1.
         13    1    3    3    0    0 -0.28573749873E+02  0.75650826729E+02  0.43970043206E+03  0.44707491176E+03  0.00000000000E+00 0. -1.
         21    1    1    2  503  502  0.23723078092E+02  0.76660096729E+01  0.81319062356E+02  0.85054935430E+02  0.00000000000E+00 0. -1.
          1    1    1    2  501    0 -0.20606584857E+02 -0.62769268262E+02  0.35461626731E+03  0.36071776975E+03  0.00000000000E+00 0. -1.
<scales pt_clust_5="13000.00000" pt_clust_6="13000.00000" pt_clust_7="13000.00000" pt_clust_8="13000.00000" pt_clust_9="24.93095" pt_clust_10="63.24629"></scales>
<clustering>
<clus scale="   24.931">  2  9  1 -1</clus>
<clus scale="   63.246">  2 10  1 -1</clus>
<clus scale="   80.335">  5  6 -1 -1</clus>
<clus scale="   87.934">  2  5  1 -1</clus>
<clus scale="   91.080">  7  8 -1 -1</clus>
<clus scale="   24.931">  2  5  1 -1</clus>
</clustering>
</event>
<event>
10    4  0.3043429E-005  0.1408097E+03  0.7546771E-02  0.1226989E+00
         21   -1    0    0  503  502  0.00000000000E+00  0.00000000000E+00  0.17968398372E+03  0.17968398372E+03  0.00000000000E+00 0.  1.
          2   -1    0    0  502    0 -0.00000000000E+00 -0.00000000000E+00 -0.33655262889E+03  0.33655262889E+03  0.00000000000E+00 0. -1.
         23    2    1    2    0    0 -0.15389036927E+02 -0.30077822733E+02  0.16055935702E+02  0.98844102481E+02  0.91492434912E+02 0.  0.
         24    2    1    2    0    0  0.12997145503E+03  0.15733928021E+02 -0.19147271336E+03  0.24543485744E+03  0.80226764054E+02 0.  0.
        -11    1    4    4    0    0  0.25497890870E+01  0.25592817103E+02 -0.33728047397E+02  0.42415502978E+02  0.00000000000E+00 0.  1.
         12    1    4    4    0    0  0.12742166594E+03 -0.98588890818E+01 -0.15774466596E+03  0.20301935446E+03  0.00000000000E+00 0. -1.
        -11    1    3    3    0    0 -0.26230428215E+02  0.27241044648E+02  0.14460256292E+02  0.40487144749E+02  0.00000000000E+00 0. -1.
         11    1    3    3    0    0  0.10841391288E+02 -0.57318867382E+02  0.15956794097E+01  0.58356957732E+02  0.00000000000E+00 0.  1.
         21    1    1    2  503  501 -0.96217069539E+01 -0.30976025817E+02  0.44164598937E+02  0.54796014630E+02  0.00000000000E+00 0. -1.
          1    1    1    2  501    0 -0.10496071115E+03  0.45319920529E+02 -0.25616466448E+02  0.11716163807E+03  0.00000000000E+00 0. -1.
<scales pt_clust_5="13000.00000" pt_clust_6="13000.00000" pt_clust_7="13000.00000" pt_clust_8="13000.00000" pt_clust_9="32.43596" pt_clust_10="115.71966"></scales>
<clustering>
<clus scale="   32.436">  1  9  2 -1</clus>
<clus scale="   80.227">  5  6 -1 -1</clus>
<clus scale="   91.492">  7  8 -1 -1</clus>
<clus scale="  103.296">  2  7  1 -1</clus>
<clus scale="  115.720">  1 10  2 -1</clus>
<clus scale="   32.436">  1  5  2 -1</clus>
</clustering>
</event>
<event>
10    4  0.3043429E-005  0.1004257E+03  0.7546771E-02  0.1285405E+00
         21   -1    0    0  503  502  0.00000000000E+00  0.00000000000E+00  0.17946271208E+03  0.17946271208E+03  0.00000000000E+00 0. -1.
          2   -1    0    0  502    0 -0.00000000000E+00 -0.00000000000E+00 -0.45997752650E+03  0.45997752650E+03  0.00000000000E+00 0. -1.
         24    2    1    2    0    0 -0.80198117217E+02 -0.26078322109E+02 -0.44576258980E+01  0.11614812630E+03  0.79741456756E+02 0.  0.
         23    2    1    2    0    0 -0.33499279344E+02  0.26974872009E+01  0.65466921078E+02  0.11758750304E+03  0.91713820998E+02 0.  0.
        -11    1    3    3    0    0  0.35721319994E+01 -0.27873099850E+02 -0.14736286718E+02  0.31730552603E+02  0.00000000000E+00 0.  1.
         12    1    3    3    0    0 -0.83770249217E+02  0.17947777415E+01  0.10278660820E+02  0.84417573699E+02  0.00000000000E+00 0. -1.
        -11    1    4    4    0    0 -0.62037928727E+02  0.18303816493E+02  0.38025511387E+02  0.75031152298E+02  0.00000000000E+00 0.  1.
         11    1    4    4    0    0  0.28538649384E+02 -0.15606329292E+02  0.27441409691E+02  0.42556350742E+02  0.00000000000E+00 0. -1.
         21    1    1    2  503  501  0.28774503478E+02 -0.94475859238E+01  0.17729249219E+02  0.35093520884E+02  0.00000000000E+00 0. -1.
          1    1    1    2  501    0  0.84922893083E+02  0.32828420832E+02 -0.35925335882E+03  0.37061108835E+03  0.00000000000E+00 0. -1.
<scales pt_clust_5="13000.00000" pt_clust_6="13000.00000" pt_clust_7="13000.00000" pt_clust_8="13000.00000" pt_clust_9="30.28579" pt_clust_10="91.91951"></scales>
<clustering>
<clus scale="   30.286">  1  9  2 -1</clus>
<clus scale="   79.741">  5  6 -1 -1</clus>
<clus scale="   91.714">  7  8 -1 -1</clus>
<clus scale="   91.920">  1 10  2 -1</clus>
<clus scale="   89.625">  2  5  1 -1</clus>
<clus scale="   30.286">  1  5  2 -1</clus>
</clustering>
</event>
<event>
10    4  0.3043429E-005  0.3568011E+03  0.7546771E-02  0.1078232E+00
          2   -1    0    0  503    0 -0.00000000000E+00  0.00000000000E+00  0.65485209715E+03  0.65485209715E+03  0.00000000000E+00 0. -1.
         21   -1    0    0  501  502  0.00000000000E+00 -0.00000000000E+00 -0.45399113881E+03  0.45399113881E+03  0.00000000000E+00 0. -1.
         24    2    1    2    0    0  0.67752594747E+02  0.19569804652E+03 -0.78924249444E+02  0.23555850963E+03  0.79816256515E+02 0.  0.
         23    2    1    2    0    0  0.72801575552E+02 -0.41661233940E+03  0.85355776703E+02  0.44184100345E+03  0.95246800284E+02 0.  0.
        -11    1    3    3    0    0  0.12607685590E+02  0.14914781638E+03 -0.49962989774E+02  0.15779836886E+03  0.00000000000E+00 0.  1.
         12    1    3    3    0    0  0.55144909157E+02  0.46550230139E+02 -0.28961259670E+02  0.77760140777E+02  0.00000000000E+00 0. -1.
        -13    1    4    4    0    0  0.41573339668E+02 -0.90457682877E+02  0.52507987892E+02  0.11255231564E+03  0.00000000000E+00 0.  1.
         13    1    4    4    0    0  0.31228235884E+02 -0.32615465653E+03  0.32847788811E+02  0.32928868781E+03  0.00000000000E+00 0. -1.
         21    1    1    2  503  502 -0.26648260869E+02 -0.10120444841E+02 -0.61838022892E+02  0.68091807777E+02  0.00000000000E+00 0. -1.
          1    1    1    2  501    0 -0.11390590943E+03  0.23103473773E+03  0.25626745397E+03  0.36335191510E+03  0.00000000000E+00 0. -1.
<scales pt_clust_5="13000.00000" pt_clust_6="13000.00000" pt_clust_7="13000.00000" pt_clust_8="13000.00000" pt_clust_9="28.50532" pt_clust_10="343.85347"></scales>
<clustering>
<clus scale="   28.505">  2  9  1 -1</clus>
<clus scale="   79.816">  5  6 -1 -1</clus>
<clus scale="   95.247">  7  8 -1 -1</clus>
<clus scale="  215.246">  1  5  2 -1</clus>
<clus scale="  343.853">  2 10  1 -1</clus>
<clus scale="   28.505">  2  5  1 -1</clus>
</clustering>
</event>
<event>
10    4  0.3043429E-005  0.2559790E+03  0.7546771E-02  0.1143976E+00
         21   -1    0    0  501  502  0.00000000000E+00  0.00000000000E+00  0.21353185758E+03  0.21353185758E+03  0.00000000000E+00 0. -1.
          2   -1    0    0  503    0 -0.00000000000E+00 -0.00000000000E+00 -0.64914998062E+03  0.64914998062E+03  0.00000000000E+00 0. -1.
         23    2    1    2    0    0 -0.99140685227E+01 -0.54272783936E+02 -0.60149753084E+02  0.12193901234E+03  0.90594183601E+02 0.  0.
         24    2    1    2    0    0  0.21094849608E+03  0.18702618099E+03 -0.28917908228E+03  0.41195500466E+03  0.81266991214E+02 0.  0.
        -13    1    4    4    0    0  0.36459266670E+02  0.36841731286E+01 -0.61111278872E+02  0.71256155265E+02  0.00000000000E+00 0.  1.
         14    1    4    4    0    0  0.17448922941E+03  0.18334200786E+03 -0.22806780340E+03  0.34069884939E+03  0.00000000000E+00 0. -1.
        -13    1    3    3    0    0 -0.78731424114E+01 -0.23044872430E+02  0.22751981815E+02  0.33327244010E+02  0.00000000000E+00 0.  1.
         13    1    3    3    0    0 -0.20409261113E+01 -0.31227911506E+02 -0.82901734900E+02  0.88611768326E+02  0.00000000000E+00 0. -1.
         21    1    1    2  503  502 -0.12495638205E+02 -0.28140219460E+02  0.60543258729E+02  0.67922743635E+02  0.00000000000E+00 0. -1.
          1    1    1    2  501    0 -0.18853878935E+03 -0.10461317760E+03 -0.14683254640E+03  0.26086507758E+03  0.00000000000E+00 0. -1.
<scales pt_clust_5="13000.00000" pt_clust_6="13000.00000" pt_clust_7="13000.00000" pt_clust_8="13000.00000" pt_clust_9="30.78982" pt_clust_10="242.73634"></scales>
<clustering>
<clus scale="   30.790">  1  9  2 -1</clus>
<clus scale="   81.267">  5  6 -1 -1</clus>
<clus scale="   90.594">  7  8 -1 -1</clus>
<clus scale="  109.431">  2  7  1 -1</clus>
<clus scale="  242.736">  1 10  2 -1</clus>
<clus scale="   30.790">  1  5  2 -1</clus>
</clustering>
</event>
<event>
10    4  0.3043429E-005  0.2711626E+03  0.7546771E-02  0.1145926E+00
         21   -1    0    0  503  502  0.00000000000E+00  0.00000000000E+00  0.26309081335E+03  0.26309081335E+03  0.00000000000E+00 0. -1.
          2   -1    0    0  502    0 -0.00000000000E+00 -0.00000000000E+00 -0.17796691439E+04  0.17796691439E+04  0.00000000000E+00 0. -1.
         24    2    1    2    0    0 -0.10702902167E+02  0.28429740454E+02 -0.60386049933E+03  0.61019725270E+03  0.82282332851E+02 0.  0.
         23    2    1    2    0    0  0.52322332691E+02  0.22475273189E+03 -0.10047762955E+04  0.10350550363E+04  0.92261082192E+02 0.  0.
        -13    1    3    3    0    0 -0.32083267034E+02 -0.85128387970E+01 -0.12152069050E+03  0.12597254728E+03  0.00000000000E+00 0.  1.
         14    1    3    3    0    0  0.21380364867E+02  0.36942579251E+02 -0.48233980883E+03  0.48422470543E+03  0.00000000000E+00 0. -1.
        -11    1    4    4    0    0  0.36168476290E+02  0.19185986370E+03 -0.94486147000E+03  0.96482203720E+03  0.00000000000E+00 0. -1.
         11    1    4    4    0    0  0.16153856401E+02  0.32892868192E+02 -0.59914825462E+02  0.70232999115E+02  0.00000000000E+00 0.  1.
         21    1    1    2  503  501 -0.15159601943E+02  0.14754345324E+02  0.12453224687E+03  0.12631620936E+03  0.00000000000E+00 0. -1.
          1    1    1    2  501    0 -0.26459828581E+02 -0.26793681767E+03 -0.32473782603E+02  0.27119145884E+03  0.00000000000E+00 0. -1.
<scales pt_clust_5="13000.00000" pt_clust_6="13000.00000" pt_clust_7="13000.00000" pt_clust_8="13000.00000" pt_clust_9="21.15430" pt_clust_10="254.98436"></scales>
<clustering>
<clus scale="   21.154">  1  9  2 -1</clus>
<clus scale="   82.282">  5  6 -1 -1</clus>
<clus scale="   87.865">  2  5  1 -1</clus>
<clus scale="   92.261">  7  8 -1 -1</clus>
<clus scale="  254.984">  1 10  2 -1</clus>
<clus scale="   21.154">  1  5  2 -1</clus>
</clustering>
</event>
<event>
10    4  0.3043429E-005  0.3581224E+03  0.7546771E-02  0.1083083E+00
         21   -1    0    0  501  502  0.00000000000E+00  0.00000000000E+00  0.26269326869E+03  0.26269326869E+03  0.00000000000E+00 0. -1.
          2   -1    0    0  503    0 -0.00000000000E+00 -0.00000000000E+00 -0.14258978731E+04  0.14258978731E+04  0.00000000000E+00 0. -1.
         23    2    1    2    0    0 -0.54654547811E+02 -0.17935685404E+03 -0.37429297975E+03  0.42861496071E+03  0.91975807494E+02 0.  0.
         24    2    1    2    0    0  0.35888448529E+03  0.17111194404E+03 -0.46532083884E+03  0.61774132416E+03  0.83686852855E+02 0.  0.
        -11    1    4    4    0    0  0.88798032220E+02  0.85228162485E+01 -0.79369289074E+02  0.11940357185E+03  0.00000000000E+00 0.  1.
         12    1    4    4    0    0  0.27008645307E+03  0.16258912780E+03 -0.38595154977E+03  0.49833775231E+03  0.00000000000E+00 0. -1.
        -11    1    3    3    0    0 -0.60571798702E+02 -0.14660619137E+03 -0.35798062077E+03  0.39155132868E+03  0.00000000000E+00 0.  1.
         11    1    3    3    0    0  0.59172508911E+01 -0.32750662669E+02 -0.16312358982E+02  0.37063632026E+02  0.00000000000E+00 0. -1.
         21    1    1    2  503  502 -0.25717188468E+02  0.17160448183E+03  0.15246755890E+02  0.17418936688E+03  0.00000000000E+00 0.  1.
          1    1    1    2  501    0 -0.27851274901E+03 -0.16335957183E+03 -0.33883754172E+03  0.46804549004E+03  0.00000000000E+00 0. -1.
<scales pt_clust_5="13000.00000" pt_clust_6="13000.00000" pt_clust_7="13000.00000" pt_clust_8="13000.00000" pt_clust_9="173.52081" pt_clust_10="348.20703"></scales>
<clustering>
<clus scale="   83.687">  5  6 -1 -1</clus>
<clus scale="   91.976">  7  8 -1 -1</clus>
<clus scale="  173.521">  1  9  2 -1</clus>
<clus scale="  186.826">  2  7  1 -1</clus>
<clus scale="  348.207">  1 10  2 -1</clus>
<clus scale="  173.521">  1  5  2 -1</clus>
</clustering>
</event>
<event>
10    4  0.3043429E-005  0.7836875E+03  0.7546771E-02  0.1023175E+00
          2   -1    0    0  502    0 -0.00000000000E+00  0.00000000000E+00  0.35367390989E+04  0.35367390989E+04  0.00000000000E+00 0. -1.
         21   -1    0    0  503  502  0.00000000000E+00 -0.00000000000E+00 -0.26899397288E+03  0.26899397288E+03  0.00000000000E+00 0. -1.
         23    2    1    2    0    0 -0.45495440924E+01 -0.34612076177E+02  0.11156209455E+03  0.14824465756E+03  0.91168434162E+02 0.  0.
         24    2    1    2    0    0 -0.65355409254E+03 -0.31613662160E+03  0.25794991357E+04  0.26809809791E+04  0.82267270888E+02 0.  0.
        -13    1    4    4    0    0 -0.37277021848E+03 -0.13634257440E+03  0.13629686416E+04  0.14195881273E+04  0.00000000000E+00 0.  1.
         14    1    4    4    0    0 -0.28078387406E+03 -0.17979404720E+03  0.12165304942E+04  0.12613928518E+04  0.00000000000E+00 0. -1.
        -13    1    3    3    0    0 -0.40762146384E+02  0.61371802741E+01  0.62701832515E+02  0.75038239321E+02  0.00000000000E+00 0. -1.
         13    1    3    3    0    0  0.36212602292E+02 -0.40749256452E+02  0.48860262033E+02  0.73206418243E+02  0.00000000000E+00 0.  1.
         21    1    1    2  503  501  0.36555296038E+03  0.11352818730E+03  0.16012253796E+03  0.41491787539E+03  0.00000000000E+00 0. -1.
          1    1    1    2  501    0  0.29255067625E+03  0.23722051047E+03  0.41656135777E+03  0.56158955969E+03  0.00000000000E+00 0. -1.
<scales pt_clust_5="13000.00000" pt_clust_6="13000.00000" pt_clust_7="13000.00000" pt_clust_8="13000.00000" pt_clust_9="251.84684" pt_clust_10="251.84684"></scales>
<clustering>
<clus scale="   82.267">  5  6 -1 -1</clus>
<clus scale="   91.168">  7  8 -1 -1</clus>
<clus scale="   97.624">  1  7  2 -1</clus>
<clus scale="  251.847">  9 10 -1 -1</clus>
<clus scale="  745.692">  1  5  2 -1</clus>
<clus scale="  783.687">  2  5  1 -1</clus>
</clustering>
</event>
<event>
10    4  0.3043429E-005  0.1033663E+03  0.7546771E-02  0.1280243E+00
         -1   -1    0    0    0  501 -0.00000000000E+00  0.00000000000E+00  0.40163239126E+03  0.40163239126E+03  0.00000000000E+00 0.  1.
         21   -1    0    0  501  502  0.00000000000E+00 -0.00000000000E+00 -0.78123650298E+02  0.78123650298E+02  0.00000000000E+00 0.  1.
         23    2    1    2    0    0  0.30721398629E+02 -0.18080817851E+02  0.22551709388E+03  0.24697316462E+03  0.94165089619E+02 0.  0.
         24    2    1    2    0    0 -0.65706299299E+02 -0.28870912869E+02  0.11701852100E+03  0.15887569463E+03  0.79983152671E+02 0.  0.
        -13    1    4    4    0    0 -0.61310141729E+02 -0.84567716193E+01  0.12253421750E+03  0.13727740136E+03  0.00000000000E+00 0.  1.
         14    1    4    4    0    0 -0.43961575691E+01 -0.20414141250E+02 -0.55156965055E+01  0.21598293272E+02  0.00000000000E+00 0. -1.
        -13    1    3    3    0    0  0.35092553113E+02  0.29991695496E+02  0.67713882367E+02  0.81952174760E+02  0.00000000000E+00 0.  1.
         13    1    3    3    0    0 -0.43711544838E+01 -0.48072513346E+02  0.15780321151E+03  0.16502098986E+03  0.00000000000E+00 0. -1.
         21    1    1    2  503  502  0.22788312860E+02 -0.10889338396E+00 -0.54410075639E+01  0.23429119149E+02  0.00000000000E+00 0.  1.
         -2    1    1    2    0  503  0.12196587809E+02  0.47060624103E+02 -0.13585866353E+02  0.50478063154E+02  0.00000000000E+00 0.  1.
<scales pt_clust_5="13000.00000" pt_clust_6="13000.00000" pt_clust_7="13000.00000" pt_clust_8="13000.00000" pt_clust_9="22.78857" pt_clust_10="52.62363"></scales>
<clustering>
<clus scale="   22.789">  2  9  1 -1</clus>
<clus scale="   52.624">  2 10  1 -1</clus>
<clus scale="   79.983">  5  6 -1 -1</clus>
<clus scale="   90.636">  2  5  1 -1</clus>
<clus scale="   94.165">  7  8 -1 -1</clus>
<clus scale="   22.789">  2  5  1 -1</clus>
</clustering>
</event>
<event>
10    4  0.3043429E-005  0.1078303E+03  0.7546771E-02  0.1268961E+00
         21   -1    0    0  503  502  0.00000000000E+00  0.00000000000E+00  0.43125662373E+02  0.43125662373E+02  0.00000000000E+00 0.  1.
         -3   -1    0    0    0  501 -0.00000000000E+00 -0.00000000000E+00 -0.75195528238E+03  0.75195528238E+03  0.00000000000E+00 0.  1.
         24    2    1    2    0    0 -0.57772171693E+01 -0.54341587004E+02 -0.44772483281E+03  0.45826498274E+03  0.81011629836E+02 0.  0.
         23    2    1    2    0    0  0.33623458123E+02  0.63385936018E+02 -0.12904140618E+03  0.17366754861E+03  0.91435327473E+02 0.  0.
        -11    1    3    3    0    0 -0.11911342850E+02 -0.71256046180E+02 -0.26548838296E+03  0.27514248253E+03  0.00000000000E+00 0.  1.
         12    1    3    3    0    0  0.61341256810E+01  0.16914459176E+02 -0.18223644986E+03  0.18312250021E+03  0.00000000000E+00 0. -1.
        -11    1    4    4    0    0  0.38730379336E+02  0.83912616322E+02 -0.11775713823E+03  0.14969339687E+03  0.00000000000E+00 0.  1.
         11    1    4    4    0    0 -0.51069212131E+01 -0.20526680304E+02 -0.11284267949E+02  0.23974151742E+02  0.00000000000E+00 0. -1.
         21    1    1    2  503  501 -0.32292390826E+02  0.18992417879E+02 -0.11354179536E+02  0.39146236538E+02  0.00000000000E+00 0.  1.
         -4    1    1    2    0  502  0.44461498722E+01 -0.28036766893E+02 -0.12070920148E+03  0.12400217687E+03  0.00000000000E+00 0.  1.
<scales pt_clust_5="13000.00000" pt_clust_6="13000.00000" pt_clust_7="13000.00000" pt_clust_8="13000.00000" pt_clust_9="32.26411" pt_clust_10="28.38713"></scales>
<clustering>
<clus scale="   28.387">  1 10  2 -1</clus>
<clus scale="   32.264">  1  9  2 -1</clus>
<clus scale="   81.012">  5  6 -1 -1</clus>
<clus scale="   91.435">  7  8 -1 -1</clus>
<clus scale="   99.146">  2  5  1 -1</clus>
<clus scale="   28.387">  1  5  2 -1</clus>
</clustering>
</event>
<event>
10    4  0.3043429E-005  0.2424725E+03  0.7546771E-02  0.1125422E+00
         -3   -1    0    0    0  501 -0.00000000000E+00  0.00000000000E+00  0.44126372358E+03  0.44126372358E+03  0.00000000000E+00 0.  1.
         21   -1    0    0  503  502  0.00000000000E+00 -0.00000000000E+00 -0.70239248272E+03  0.70239248272E+03  0.00000000000E+00 0. -1.
         24    2    1    2    0    0  0.17767034115E+03  0.53952169855E+02  0.12194692726E+03  0.23621527469E+03  0.80305766745E+02 0.  0.
         23    2    1    2    0    0  0.69533824940E+02 -0.23112129459E+03 -0.20077971455E+02  0.25956147520E+03  0.93365030105E+02 0.  0.
        -13    1    3    3    0    0  0.16093749254E+02  0.33763947521E+02  0.10343053022E+02  0.38807108409E+02  0.00000000000E+00 0.  1.
         14    1    3    3    0    0  0.16157659190E+03  0.20188222334E+02  0.11160387424E+03  0.19740816628E+03  0.00000000000E+00 0. -1.
        -13    1    4    4    0    0  0.62818300227E+02 -0.20423780357E+03  0.15759877416E+02  0.21426057263E+03  0.00000000000E+00 0.  1.
         13    1    4    4    0    0  0.67155247128E+01 -0.26883491028E+02 -0.35837848871E+02  0.45300902570E+02  0.00000000000E+00 0. -1.
         21    1    1    2  503  501  0.32690003091E+02  0.20549151343E+03 -0.29055929555E+03  0.35737949385E+03  0.00000000000E+00 0. -1.
         -4    1    1    2    0  502 -0.27989416918E+03 -0.28322388694E+02 -0.72438419388E+02  0.29049996256E+03  0.00000000000E+00 0.  1.
<scales pt_clust_5="13000.00000" pt_clust_6="13000.00000" pt_clust_7="13000.00000" pt_clust_8="13000.00000" pt_clust_9="223.77643" pt_clust_10="206.09269"></scales>
<clustering>
<clus scale="   80.306">  5  6 -1 -1</clus>
<clus scale="   93.365">  7  8 -1 -1</clus>
<clus scale="  202.303">  1  5  2 -1</clus>
<clus scale="  206.093">  2 10  1 -1</clus>
<clus scale="  223.776">  2  9  1 -1</clus>
<clus scale="  206.093">  2  5  1 -1</clus>
</clustering>
</event>
<event>
10    4  0.3043429E-005  0.1924949E+03  0.7546771E-02  0.1157398E+00
          2   -1    0    0  503    0 -0.00000000000E+00  0.00000000000E+00  0.79649617204E+03  0.79649617204E+03  0.00000000000E+00 0. -1.
         21   -1    0    0  501  502  0.00000000000E+00 -0.00000000000E+00 -0.98642863424E+02  0.98642863424E+02  0.00000000000E+00 0. -1.
         23    2    1    2    0    0 -0.66764557446E+02  0.16142721436E+03  0.42685233558E+03  0.47041105734E+03  0.92560222572E+02 0.  0.
         24    2    1    2    0    0  0.48983478432E+02 -0.15116681713E+03  0.17418587914E+03  0.24937311981E+03  0.81212342860E+02 0.  0.
        -11    1    4    4    0    0  0.80784437640E+01 -0.13304395052E+03  0.12272760782E+03  0.18118504283E+03  0.00000000000E+00 0.  1.
         12    1    4    4    0    0  0.40905034668E+02 -0.18122866607E+02  0.51458271320E+02  0.68188076982E+02  0.00000000000E+00 0. -1.
        -11    1    3    3    0    0 -0.52816491579E+00  0.92052682433E+02  0.28230754095E+03  0.29693690067E+03  0.00000000000E+00 0. -1.
         11    1    3    3    0    0 -0.66236392530E+02  0.69374531928E+02  0.14454479464E+03  0.17347415667E+03  0.00000000000E+00 0.  1.
         21    1    1    2  503  502  0.43671031332E+01  0.65927176687E+02  0.27791250121E+02  0.71678572802E+02  0.00000000000E+00 0. -1.
          1    1    1    2  501    0  0.13413975881E+02 -0.76187573921E+02  0.69023843767E+02  0.10367628551E+03  0.00000000000E+00 0. -1.
<scales pt_clust_5="13000.00000" pt_clust_6="13000.00000" pt_clust_7="13000.00000" pt_clust_8="13000.00000" pt_clust_9="66.07166" pt_clust_10="62.96363"></scales>
<clustering>
<clus scale="   66.072">  2  9  1 -1</clus>
<clus scale="   62.964">  2 10  1 -1</clus>
<clus scale="   81.212">  5  6 -1 -1</clus>
<clus scale="   92.560">  7  8 -1 -1</clus>
<clus scale="  187.303">  2  5  1 -1</clus>
<clus scale="   66.072">  2  5  1 -1</clus>
</clustering>
</event>
<event>
10    4  0.3043429E-005  0.1514006E+03  0.7546771E-02  0.1207895E+00
         21   -1    0    0  501  502  0.00000000000E+00  0.00000000000E+00  0.55616165208E+03  0.55616165208E+03  0.00000000000E+00 0.  1.
          4   -1    0    0  503    0 -0.00000000000E+00 -0.00000000000E+00 -0.95092118027E+03  0.95092118027E+03  0.00000000000E+00 0. -1.
         24    2    1    2    0    0 -0.65998323583E+02 -0.67742236027E+02 -0.34780240661E+03  0.36934633731E+03  0.80656144115E+02 0.  0.
         23    2    1    2    0    0  0.17018533932E+03  0.57401177654E+02 -0.40796722834E+03  0.45504731789E+03  0.91503317959E+02 0.  0.
        -13    1    3    3    0    0 -0.49903859030E+02 -0.13122709425E+02 -0.77467287122E+02  0.93079435015E+02  0.00000000000E+00 0.  1.
         14    1    3    3    0    0 -0.16094464554E+02 -0.54619526602E+02 -0.27033511948E+03  0.27626690229E+03  0.00000000000E+00 0. -1.
        -11    1    4    4    0    0  0.13445485571E+03  0.93300893853E+01 -0.33195439395E+03  0.35827207322E+03  0.00000000000E+00 0.  1.
         11    1    4    4    0    0  0.35730483608E+02  0.48071088269E+02 -0.76012834398E+02  0.96775244663E+02  0.00000000000E+00 0. -1.
         21    1    1    2  503  502 -0.72605269638E+02 -0.11826268893E+03  0.48306067056E+03  0.50259844828E+03  0.00000000000E+00 0.  1.
          3    1    1    2  501    0 -0.31581746099E+02  0.12860374731E+03 -0.12205056380E+03  0.18009072889E+03  0.00000000000E+00 0. -1.
<scales pt_clust_5="13000.00000" pt_clust_6="13000.00000" pt_clust_7="13000.00000" pt_clust_8="13000.00000" pt_clust_9="120.62041" pt_clust_10="121.39851"></scales>
<clustering>
<clus scale="   80.656">  5  6 -1 -1</clus>
<clus scale="   91.503">  7  8 -1 -1</clus>
<clus scale="  124.299">  2  5  1 -1</clus>
<clus scale="  121.399">  1 10  2 -1</clus>
<clus scale="  120.620">  1  9  2 -1</clus>
<clus scale="  121.399">  1  5  2 -1</clus>
</clustering>
</event>
<event>
10    4  0.3043429E-005  0.9664565E+02  0.7546771E-02  0.1295904E+00
          2   -1    0    0  503    0 -0.00000000000E+00  0.00000000000E+00  0.28216675699E+03  0.28216675699E+03  0.00000000000E+00 0. -1.
         21   -1    0    0  501  502  0.00000000000E+00 -0.00000000000E+00 -0.21422133589E+03  0.21422133589E+03  0.00000000000E+00 0. -1.
         24    2    1    2    0    0 -0.35738659702E+02 -0.26932122724E+02  0.71979833161E+02  0.11023059548E+03  0.70477633093E+02 0.  0.
         23    2    1    2    0    0  0.53801684805E+02 -0.21159967835E+02 -0.67825474347E+02  0.12419125660E+03  0.86491662710E+02 0.  0.
        -11    1    3    3    0    0 -0.16569378373E+02  0.23810000781E+02  0.29076567203E+02  0.41071975813E+02  0.00000000000E+00 0.  1.
         12    1    3    3    0    0 -0.19169281329E+02 -0.50742123505E+02  0.42903265958E+02  0.69158619668E+02  0.00000000000E+00 0. -1.
        -13    1    4    4    0    0 -0.12180219010E+02  0.21952828279E+02 -0.13969535923E+02  0.28730338294E+02  0.00000000000E+00 0.  1.
         13    1    4    4    0    0  0.65981903815E+02 -0.43112796114E+02 -0.53855938424E+02  0.95460918304E+02  0.00000000000E+00 0. -1.
         21    1    1    2  503  502  0.24718837583E+02  0.55953327650E+02 -0.86254258139E+02  0.10574305109E+03  0.00000000000E+00 0. -1.
          1    1    1    2  501    0 -0.42781862686E+02 -0.78612370908E+01  0.15004532042E+03  0.15622318971E+03  0.00000000000E+00 0. -1.
<scales pt_clust_5="13000.00000" pt_clust_6="13000.00000" pt_clust_7="13000.00000" pt_clust_8="13000.00000" pt_clust_9="52.64305" pt_clust_10="43.49815"></scales>
<clustering>
<clus scale="   43.498">  2 10  1 -1</clus>
<clus scale="   52.643">  2  9  1 -1</clus>
<clus scale="   70.478">  5  6 -1 -1</clus>
<clus scale="   82.624">  1  5  2 -1</clus>
<clus scale="   86.492">  7  8 -1 -1</clus>
<clus scale="   43.498">  2  5  1 -1</clus>
</clustering>
</event>
<event>
10    4  0.3043429E-005  0.1007001E+03  0.7546771E-02  0.1286751E+00
         21   -1    0    0  503  502  0.00000000000E+00  0.00000000000E+00  0.34364976153E+03  0.34364976153E+03  0.00000000000E+00 0.  1.
         -1   -1    0    0    0  501 -0.00000000000E+00 -0.00000000000E+00 -0.91223656465E+02  0.91223656465E+02  0.00000000000E+00 0.  1.
         23    2    1    2    0    0  0.17024651826E+02  0.25393723888E+02 -0.39552943716E+01  0.10036124762E+03  0.95509453396E+02 0.  0.
         24    2    1    2    0    0 -0.64761752502E+02  0.74697095297E+01  0.23375365744E+03  0.25570181070E+03  0.80577679793E+02 0.  0.
        -11    1    4    4    0    0 -0.61893426981E+02 -0.27495610657E+02  0.16878841280E+03  0.18186900012E+03  0.00000000000E+00 0.  1.
         12    1    4    4    0    0 -0.28683255211E+01  0.34965320187E+02  0.64965244637E+02  0.73832810578E+02  0.00000000000E+00 0. -1.
        -11    1    3    3    0    0  0.30609764165E+02 -0.25769532576E+02 -0.20422026042E+02  0.44923107852E+02  0.00000000000E+00 0. -1.
         11    1    3    3    0    0 -0.13585112340E+02  0.51163256464E+02  0.16466731670E+02  0.55438139770E+02  0.00000000000E+00 0.  1.
         21    1    1    2  503  501  0.21494352768E+02 -0.25897289088E+01  0.31066987601E+02  0.37866497268E+02  0.00000000000E+00 0. -1.
         -2    1    1    2    0  502  0.26242747909E+02 -0.30273704508E+02 -0.84392456015E+01  0.40943862407E+02  0.00000000000E+00 0.  1.
<scales pt_clust_5="13000.00000" pt_clust_6="13000.00000" pt_clust_7="13000.00000" pt_clust_8="13000.00000" pt_clust_9="21.64980" pt_clust_10="40.91478"></scales>
<clustering>
<clus scale="   21.650">  1  9  2 -1</clus>
<clus scale="   40.915">  1 10  2 -1</clus>
<clus scale="   80.578">  5  6 -1 -1</clus>
<clus scale="   86.667">  1  5  2 -1</clus>
<clus scale="   95.509">  7  8 -1 -1</clus>
<clus scale="   21.650">  1  5  2 -1</clus>
</clustering>
</event>
<event>
10    4  0.3043429E-005  0.8986651E+02  0.7546771E-02  0.1309220E+00
         21   -1    0    0  501  502  0.00000000000E+00  0.00000000000E+00  0.23584405184E+03  0.23584405184E+03  0.00000000000E+00 0. -1.
          2   -1    0    0  503    0 -0.00000000000E+00 -0.00000000000E+00 -0.53990075851E+03  0.53990075851E+03  0.00000000000E+00 0. -1.
         23    2    1    2    0    0 -0.34273885952E+00 -0.18229021274E+02  0.15649917902E+02  0.92164677713E+02  0.88977487046E+02 0.  0.
         24    2    1    2    0    0 -0.38242029502E+02 -0.22161204847E+02  0.11901520795E+03  0.14978571250E+03  0.79483131076E+02 0.  0.
        -11    1    4    4    0    0 -0.15796112653E+02  0.21248141078E+02  0.67172759182E+01  0.27315242447E+02  0.00000000000E+00 0.  1.
         12    1    4    4    0    0 -0.22445916849E+02 -0.43409345925E+02  0.11229793203E+03  0.12247047005E+03  0.00000000000E+00 0. -1.
        -13    1    3    3    0    0  0.34964431594E+02 -0.36433689018E+02  0.34728410145E+01  0.50616062638E+02  0.00000000000E+00 0.  1.
         13    1    3    3    0    0 -0.35307170454E+02  0.18204667744E+02  0.12177076887E+02  0.41548615075E+02  0.00000000000E+00 0. -1.
         21    1    1    2  503  502 -0.25472580703E+02 -0.79734531170E+01  0.40166485571E+02  0.48226288323E+02  0.00000000000E+00 0.  1.
          1    1    1    2  501    0  0.64057349065E+02  0.48363679239E+02 -0.47888831808E+03  0.48556813181E+03  0.00000000000E+00 0. -1.
<scales pt_clust_5="13000.00000" pt_clust_6="13000.00000" pt_clust_7="13000.00000" pt_clust_8="13000.00000" pt_clust_9="26.69135" pt_clust_10="79.82668"></scales>
<clustering>
<clus scale="   26.691">  1  9  2 -1</clus>
<clus scale="   79.483">  5  6 -1 -1</clus>
<clus scale="   79.827">  1 10  2 -1</clus>
<clus scale="   80.477">  1  5  2 -1</clus>
<clus scale="   88.977">  7  8 -1 -1</clus>
<clus scale="   26.691">  1  5  2 -1</clus>
</clustering>
</event>
<event>
10    4  0.3043429E-005  0.2619275E+03  0.7546771E-02  0.1144206E+00
          2   -1    0    0  503    0 -0.00000000000E+00  0.00000000000E+00  0.15144762587E+04  0.15144762587E+04  0.00000000000E+00 0. -1.
         21   -1    0    0  501  502  0.00000000000E+00 -0.00000000000E+00 -0.19547497643E+03  0.19547497643E+03  0.00000000000E+00 0.  1.
         24    2    1    2    0    0 -0.60962268720E+02 -0.15448851540E+02  0.43048637624E+03  0.44244652464E+03  0.80531620029E+02 0.  0.
         23    2    1    2    0    0  0.22121104659E+03 -0.99261491628E+02  0.10382274094E+02  0.25963829276E+03  0.92288030625E+02 0.  0.
        -13    1    3    3    0    0 -0.62729132329E+02 -0.40739537406E+02  0.27894868511E+03  0.28880274042E+03  0.00000000000E+00 0.  1.
         14    1    3    3    0    0  0.17668636090E+01  0.25290685866E+02  0.15153769113E+03  0.15364378422E+03  0.00000000000E+00 0. -1.
        -13    1    4    4    0    0  0.15555983047E+03 -0.37024632901E+02 -0.26239694441E+02  0.16204383932E+03  0.00000000000E+00 0.  1.
         13    1    4    4    0    0  0.65651216122E+02 -0.62236858727E+02  0.36621968535E+02  0.97594453438E+02  0.00000000000E+00 0. -1.
         21    1    1    2  503  502  0.19167016627E+02  0.18213162651E+02 -0.50579300867E+02  0.57073281808E+02  0.00000000000E+00 0.  1.
          1    1    1    2  501    0 -0.17941579450E+03  0.96497180517E+02  0.92871193277E+03  0.95079313587E+03  0.00000000000E+00 0. -1.
<scales pt_clust_5="13000.00000" pt_clust_6="13000.00000" pt_clust_7="13000.00000" pt_clust_8="13000.00000" pt_clust_9="26.44038" pt_clust_10="245.13053"></scales>
<clustering>
<clus scale="   26.440">  2  9  1 -1</clus>
<clus scale="   80.532">  5  6 -1 -1</clus>
<clus scale="   92.288">  7  8 -1 -1</clus>
<clus scale="  101.584">  1  5  2 -1</clus>
<clus scale="  245.131">  2 10  1 -1</clus>
<clus scale="   26.440">  2  5  1 -1</clus>
</clustering>
</event>
<event>
10    4  0.3043429E-005  0.1409213E+03  0.7546771E-02  0.1237146E+00
         21   -1    0    0  503  502  0.00000000000E+00  0.00000000000E+00  0.53619001262E+02  0.53619001262E+02  0.00000000000E+00 0. -1.
          2   -1    0    0  502    0 -0.00000000000E+00 -0.00000000000E+00 -0.14330604282E+04  0.14330604282E+04  0.00000000000E+00 0. -1.
         24    2    1    2    0    0  0.92926690672E+01 -0.23939669251E+02 -0.93130621229E+03  0.93502981785E+03  0.79309758272E+02 0.  0.
         23    2    1    2    0    0 -0.11618569777E+03  0.46039889766E+02 -0.39012505966E+03  0.41957166077E+03  0.90686429677E+02 0.  0.
        -13    1    3    3    0    0  0.83405041396E+01  0.21251997043E+02 -0.10339104916E+03  0.10588163407E+03  0.00000000000E+00 0.  1.
         14    1    3    3    0    0  0.95216492764E+00 -0.45191666294E+02 -0.82791516313E+03  0.82914818378E+03  0.00000000000E+00 0. -1.
        -11    1    4    4    0    0 -0.78543398899E+02  0.70818354183E+02 -0.22859579333E+03  0.25187366184E+03  0.00000000000E+00 0. -1.
         11    1    4    4    0    0 -0.37642298867E+02 -0.24778464417E+02 -0.16152926634E+03  0.16769799893E+03  0.00000000000E+00 0.  1.
         21    1    1    2  503  501  0.87145515784E+01 -0.18440024234E+02 -0.10755057466E+02  0.23057518601E+02  0.00000000000E+00 0.  1.
          1    1    1    2  501    0  0.98178477120E+02 -0.36601962814E+01 -0.47255097532E+02  0.10902043226E+03  0.00000000000E+00 0. -1.
<scales pt_clust_5="13000.00000" pt_clust_6="13000.00000" pt_clust_7="13000.00000" pt_clust_8="13000.00000" pt_clust_9="20.39554" pt_clust_10="107.86463"></scales>
<clustering>
<clus scale="   20.396">  1  9  2 -1</clus>
<clus scale="   79.310">  5  6 -1 -1</clus>
<clus scale="   83.613">  2  5  1 -1</clus>
<clus scale="   90.686">  7  8 -1 -1</clus>
<clus scale="  107.865">  1 10  2 -1</clus>
<clus scale="   20.396">  1  5  2 -1</clus>
</clustering>
</event>
<event>
10    4  0.3043429E-005  0.1785703E+03  0.7546771E-02  0.1186573E+00
         21   -1    0    0  503  502  0.00000000000E+00  0.00000000000E+00  0.28748971521E+03  0.28748971521E+03  0.00000000000E+00 0. -1.
          2   -1    0    0  502    0 -0.00000000000E+00 -0.00000000000E+00 -0.28853769799E+03  0.28853769799E+03  0.00000000000E+00 0. -1.
         24    2    1    2    0    0  0.58840417429E+02 -0.36383423343E+02  0.33461713657E+02  0.11128032476E+03  0.80484011957E+02 0.  0.
         23    2    1    2    0    0 -0.89219606014E+02 -0.95767595512E+02 -0.78637118949E+02  0.17721334045E+03  0.89939986156E+02 0.  0.
        -11    1    3    3    0    0  0.15888077688E+01 -0.43235237884E+02 -0.24800776551E+01  0.43335446117E+02  0.00000000000E+00 0.  1.
         12    1    3    3    0    0  0.57251609660E+02  0.68518145413E+01  0.35941791312E+02  0.67944878644E+02  0.00000000000E+00 0. -1.
        -11    1    4    4    0    0 -0.27078718757E+02  0.13775538636E+02 -0.28508337184E+02  0.41662306263E+02  0.00000000000E+00 0.  1.
         11    1    4    4    0    0 -0.62140887257E+02 -0.10954313415E+03 -0.50128781766E+02  0.13555103419E+03  0.00000000000E+00 0. -1.
         21    1    1    2  503  501  0.29068291962E+02 -0.72024634745E+02  0.28587896165E+02  0.82763406255E+02  0.00000000000E+00 0. -1.
          1    1    1    2  501    0  0.13108966225E+01  0.20417565360E+03  0.15539526348E+02  0.20477034173E+03  0.00000000000E+00 0. -1.
<scales pt_clust_5="13000.00000" pt_clust_6="13000.00000" pt_clust_7="13000.00000" pt_clust_8="13000.00000" pt_clust_9="77.66926" pt_clust_10="154.26649"></scales>
<clustering>
<clus scale="   77.669">  1  9  2 -1</clus>
<clus scale="   80.484">  5  6 -1 -1</clus>
<clus scale="   89.940">  7  8 -1 -1</clus>
<clus scale="  120.647">  2  5  1 -1</clus>
<clus scale="  154.266">  1 10  2 -1</clus>
<clus scale="   77.669">  1  5  2 -1</clus>
</clustering>
</event>
<event>
10    4  0.3043429E-005  0.3159121E+03  0.7546771E-02  0.1122853E+00
         21   -1    0    0  503  502  0.00000000000E+00  0.00000000000E+00  0.12737598446E+04  0.12737598446E+04  0.00000000000E+00 0.  1.
          2   -1    0    0  502    0 -0.00000000000E+00 -0.00000000000E+00 -0.14100441762E+03  0.14100441762E+03  0.00000000000E+00 0. -1.
         24    2    1    2    0    0 -0.55039025828E+02 -0.65410898653E+01  0.58047476950E+02  0.11423940434E+03  0.81296074337E+02 0.  0.
         23    2    1    2    0    0 -0.16110654824E+03 -0.24637755991E+03  0.62725746572E+03  0.69894419414E+03  0.91726966102E+02 0.  0.
        -11    1    3    3    0    0 -0.62405117460E+02 -0.26309576347E+02  0.19799639952E+02  0.70559324225E+02  0.00000000000E+00 0.  1.
         12    1    3    3    0    0  0.73660916326E+01  0.19768486482E+02  0.38247836997E+02  0.43680080113E+02  0.00000000000E+00 0. -1.
        -11    1    4    4    0    0 -0.10707809713E+03 -0.16098778468E+03  0.50240441060E+03  0.53832423082E+03  0.00000000000E+00 0.  1.
         11    1    4    4    0    0 -0.54028451106E+02 -0.85389775238E+02  0.12485305512E+03  0.16061996332E+03  0.00000000000E+00 0. -1.
         21    1    1    2  503  501  0.21588262709E+02 -0.78421501413E+01  0.17706218300E+03  0.17854570578E+03  0.00000000000E+00 0.  1.
          1    1    1    2  501    0  0.19455731136E+03  0.26076079992E+03  0.27038830134E+03  0.42303495798E+03  0.00000000000E+00 0. -1.
<scales pt_clust_5="13000.00000" pt_clust_6="13000.00000" pt_clust_7="13000.00000" pt_clust_8="13000.00000" pt_clust_9="22.96851" pt_clust_10="302.30233"></scales>
<clustering>
<clus scale="   22.969">  1  9  2 -1</clus>
<clus scale="   81.296">  5  6 -1 -1</clus>
<clus scale="   91.727">  7  8 -1 -1</clus>
<clus scale="   97.497">  2  5  1 -1</clus>
<clus scale="  302.302">  1 10  2 -1</clus>
<clus scale="   22.969">  1  5  2 -1</clus>
</clustering>
</event>
<event>
10    4  0.3043429E-005  0.1289998E+03  0.7546771E-02  0.1240853E+00
         -3   -1    0    0    0  501 -0.00000000000E+00  0.00000000000E+00  0.97314185262E+02  0.97314185262E+02  0.00000000000E+00 0.  1.
         21   -1    0    0  503  502  0.00000000000E+00 -0.00000000000E+00 -0.49890617963E+03  0.49890617963E+03  0.00000000000E+00 0.  1.
         24    2    1    2    0    0  0.26823362479E+02 -0.46895050934E+02 -0.82923549900E+02  0.12777804183E+03  0.80822486168E+02 0.  0.
         23    2    1    2    0    0  0.57081445979E+02 -0.15821491787E+02 -0.95746096444E+01  0.11209460811E+03  0.94683245294E+02 0.  0.
        -13    1    3    3    0    0  0.97296943387E+01 -0.43680792781E+02 -0.96065834084E+02  0.10597793680E+03  0.00000000000E+00 0.  1.
         14    1    3    3    0    0  0.17093668140E+02 -0.32142581525E+01  0.13142284184E+02  0.21800105035E+02  0.00000000000E+00 0. -1.
        -13    1    4    4    0    0 -0.12270130703E+02 -0.17218459807E+02  0.26506490258E+02  0.33906127638E+02  0.00000000000E+00 0. -1.
         13    1    4    4    0    0  0.69351576682E+02  0.13969680206E+01 -0.36081099902E+02  0.78188480469E+02  0.00000000000E+00 0.  1.
         21    1    1    2  503  501 -0.45283415892E+02 -0.38974843606E+02 -0.16721017116E+03  0.17756369992E+03  0.00000000000E+00 0.  1.
         -4    1    1    2    0  502 -0.38621392567E+02  0.10169138633E+03 -0.14188366366E+03  0.17878401503E+03  0.00000000000E+00 0.  1.
<scales pt_clust_5="13000.00000" pt_clust_6="13000.00000" pt_clust_7="13000.00000" pt_clust_8="13000.00000" pt_clust_9="59.74635" pt_clust_10="87.61292"></scales>
<clustering>
<clus scale="   59.746">  2  9  1 -1</clus>
<clus scale="   80.822">  5  6 -1 -1</clus>
<clus scale="   94.683">  7  8 -1 -1</clus>
<clus scale="  101.085">  1  5  2 -1</clus>
<clus scale="   87.613">  2 10  1 -1</clus>
<clus scale="   59.746">  2  5  1 -1</clus>
</clustering>
</event>
<event>
10    4  0.3043429E-005  0.2027456E+03  0.7546771E-02  0.1163122E+00
          2   -1    0    0  502    0 -0.00000000000E+00  0.00000000000E+00  0.64046166773E+03  0.64046166773E+03  0.00000000000E+00 0. -1.
         21   -1    0    0  503  502  0.00000000000E+00 -0.00000000000E+00 -0.36299899379E+03  0.36299899379E+03  0.00000000000E+00 0. -1.
         23    2    1    2    0    0 -0.96090491187E+02 -0.36482392836E+02  0.11348682025E+03  0.18046608902E+03  0.95521743252E+02 0.  0.
         24    2    1    2    0    0  0.27537338354E+03  0.57030611963E+02  0.41395167195E+03  0.50646591053E+03  0.77902122911E+02 0.  0.
        -13    1    4    4    0    0  0.55706349365E+02 -0.12200625044E+02  0.12143736391E+03  0.13416067220E+03  0.00000000000E+00 0.  1.
         14    1    4    4    0    0  0.21966703417E+03  0.69231237008E+02  0.29251430804E+03  0.37230523833E+03  0.00000000000E+00 0. -1.
        -13    1    3    3    0    0 -0.45433011825E+02 -0.60092988759E+02  0.32452755847E+02  0.82027478466E+02  0.00000000000E+00 0. -1.
         13    1    3    3    0    0 -0.50657479363E+02  0.23610595923E+02  0.81034064400E+02  0.98438610557E+02  0.00000000000E+00 0.  1.
         21    1    1    2  503  501 -0.90619537213E+02 -0.44970807712E+02 -0.14722688387E+03  0.17863378573E+03  0.00000000000E+00 0. -1.
          1    1    1    2  501    0 -0.88663355136E+02  0.24422588585E+02 -0.10274893438E+03  0.13789487624E+03  0.00000000000E+00 0. -1.
<scales pt_clust_5="13000.00000" pt_clust_6="13000.00000" pt_clust_7="13000.00000" pt_clust_8="13000.00000" pt_clust_9="68.34252" pt_clust_10="200.43691"></scales>
<clustering>
<clus scale="   68.343">  9 10 -1 -1</clus>
<clus scale="   77.902">  5  6 -1 -1</clus>
<clus scale="   95.522">  7  8 -1 -1</clus>
<clus scale="  140.317">  1  7  2 -1</clus>
<clus scale="  200.437">  2  9  1 -1</clus>
<clus scale="  200.437">  2  5  1 -1</clus>
</clustering>
</event>
<event>
10    4  0.3043429E-005  0.4322568E+03  0.7546771E-02  0.1033149E+00
          2   -1    0    0  502    0 -0.00000000000E+00  0.00000000000E+00  0.12731545566E+04  0.12731545566E+04  0.00000000000E+00 0. -1.
         21   -1    0    0  503  502  0.00000000000E+00 -0.00000000000E+00 -0.14974052084E+03  0.14974052084E+03  0.00000000000E+00 0.  1.
         24    2    1    2    0    0  0.15873090908E+03  0.30120755407E+02  0.16629115586E+03  0.24452496039E+03  0.77697788465E+02 0.  0.
         23    2    1    2    0    0  0.18150362917E+03 -0.63108637037E+02  0.44542866049E+03  0.49335283564E+03  0.89800119034E+02 0.  0.
        -13    1    3    3    0    0  0.15220194949E+03  0.42291824198E+01  0.13612395145E+03  0.20423772808E+03  0.00000000000E+00 0.  1.
         14    1    3    3    0    0  0.65289595848E+01  0.25891572987E+02  0.30167204408E+02  0.40287232305E+02  0.00000000000E+00 0. -1.
        -13    1    4    4    0    0  0.71837396321E+02  0.73605691005E+01  0.23475688801E+03  0.24561267466E+03  0.00000000000E+00 0. -1.
         13    1    4    4    0    0  0.10966623285E+03 -0.70469206137E+02  0.21067177248E+03  0.24774016098E+03  0.00000000000E+00 0.  1.
         21    1    1    2  503  501  0.46560616833E+02 -0.21533688688E+02  0.15645225529E+02  0.53631743121E+02  0.00000000000E+00 0.  1.
          1    1    1    2  501    0 -0.38679515508E+03  0.54521570317E+02  0.49604899387E+03  0.63138553828E+03  0.00000000000E+00 0. -1.
<scales pt_clust_5="13000.00000" pt_clust_6="13000.00000" pt_clust_7="13000.00000" pt_clust_8="13000.00000" pt_clust_9="51.29903" pt_clust_10="365.28231"></scales>
<clustering>
<clus scale="   51.299">  2  9  1 -1</clus>
<clus scale="   77.698">  5  6 -1 -1</clus>
<clus scale="   89.800">  7  8 -1 -1</clus>
<clus scale="  173.131">  5  7 -1 -1</clus>
<clus scale="  365.282">  2 10  1 -1</clus>
<clus scale="   51.299">  2  5  1 -1</clus>
</clustering>
</event>
<event>
10    4  0.3043429E-005  0.8961485E+02  0.7546771E-02  0.1310262E+00
         21   -1    0    0  501  502  0.00000000000E+00  0.00000000000E+00  0.65921432850E+02  0.65921432850E+02  0.00000000000E+00 0. -1.
          2   -1    0    0  503    0 -0.00000000000E+00 -0.00000000000E+00 -0.42518877013E+03  0.42518877013E+03  0.00000000000E+00 0. -1.
         24    2    1    2    0    0 -0.15278562937E+02 -0.19005063632E+02 -0.31442427458E+03  0.32456662784E+03  0.76721864752E+02 0.  0.
         23    2    1    2    0    0 -0.57318915232E+01  0.10420877277E+02 -0.43371263903E+02  0.97968185089E+02  0.87035909218E+02 0.  0.
        -11    1    3    3    0    0  0.23066918038E+02 -0.32499183780E+02 -0.15542090248E+03  0.16044917134E+03  0.00000000000E+00 0.  1.
         12    1    3    3    0    0 -0.38345480975E+02  0.13494120147E+02 -0.15900337210E+03  0.16411745650E+03  0.00000000000E+00 0. -1.
        -11    1    4    4    0    0 -0.34396544939E+02  0.21792328858E+02  0.45602250478E+01  0.40973449371E+02  0.00000000000E+00 0. -1.
         11    1    4    4    0    0  0.28664653416E+02 -0.11371451582E+02 -0.47931488951E+02  0.56994735718E+02  0.00000000000E+00 0.  1.
         21    1    1    2  503  502 -0.20617481948E+02  0.14876756781E+02 -0.63149373026E+01  0.26196886978E+02  0.00000000000E+00 0. -1.
          1    1    1    2  501    0  0.41627936408E+02 -0.62925704252E+01  0.48431385089E+01  0.42378503074E+02  0.00000000000E+00 0. -1.
<scales pt_clust_5="13000.00000" pt_clust_6="13000.00000" pt_clust_7="13000.00000" pt_clust_8="13000.00000" pt_clust_9="25.42437" pt_clust_10="32.93213"></scales>
<clustering>
<clus scale="   25.424">  1  9  2 -1</clus>
<clus scale="   32.932">  1 10  2 -1</clus>
<clus scale="   76.722">  5  6 -1 -1</clus>
<clus scale="   79.636">  2  5  1 -1</clus>
<clus scale="   87.036">  7  8 -1 -1</clus>
<clus scale="   25.424">  1  5  2 -1</clus>
</clustering>
</event>
<event>
10    4  0.3043429E-005  0.3035076E+03  0.7546771E-02  0.1083500E+00
         -3   -1    0    0    0  501 -0.00000000000E+00  0.00000000000E+00  0.20375880747E+03  0.20375880747E+03  0.00000000000E+00 0.  1.
         21   -1    0    0  503  502  0.00000000000E+00 -0.00000000000E+00 -0.44929574377E+03  0.44929574377E+03  0.00000000000E+00 0.  1.
         24    2    1    2    0    0  0.82210128964E+02 -0.10567361006E+03 -0.10108052367E+03  0.18598388203E+03  0.80295173838E+02 0.  0.
         23    2    1    2    0    0 -0.13694961777E+02 -0.91204709960E+02 -0.14283775033E+03  0.19295595919E+03  0.91233372023E+02 0.  0.
        -11    1    3    3    0    0  0.74714315507E+02 -0.98219154364E+02 -0.11487896637E+03  0.16860132900E+03  0.00000000000E+00 0.  1.
         12    1    3    3    0    0  0.74958134566E+01 -0.74544556957E+01  0.13798442696E+02  0.17382553033E+02  0.00000000000E+00 0. -1.
        -11    1    4    4    0    0 -0.15868256714E+02 -0.58068821008E+02 -0.14760506035E+03  0.15940841692E+03  0.00000000000E+00 0.  1.
         11    1    4    4    0    0  0.21732949374E+01 -0.33135888952E+02  0.47673100190E+01  0.33547542270E+02  0.00000000000E+00 0. -1.
         21    1    1    2  503  501 -0.27758752332E+01 -0.26731716095E+02 -0.28882493902E+02  0.39452358392E+02  0.00000000000E+00 0.  1.
         -4    1    1    2    0  502 -0.65739291953E+02  0.22361003611E+03  0.27263831601E+02  0.23466235163E+03  0.00000000000E+00 0.  1.
<scales pt_clust_5="13000.00000" pt_clust_6="13000.00000" pt_clust_7="13000.00000" pt_clust_8="13000.00000" pt_clust_9="26.87546" pt_clust_10="226.87671"></scales>
<clustering>
<clus scale="   26.875">  2  9  1 -1</clus>
<clus scale="   80.295">  5  6 -1 -1</clus>
<clus scale="   91.233">  7  8 -1 -1</clus>
<clus scale="  127.661">  5  7 -1 -1</clus>
<clus scale="  226.877">  2 10  1 -1</clus>
<clus scale="   26.875">  2  5  1 -1</clus>
</clustering>
</event>
<event>
10    4  0.3043429E-005  0.2043041E+03  0.7546771E-02  0.1147710E+00
         21   -1    0    0  503  502  0.00000000000E+00  0.00000000000E+00  0.18442450692E+03  0.18442450692E+03  0.00000000000E+00 0. -1.
          4   -1    0    0  502    0 -0.00000000000E+00 -0.00000000000E+00 -0.45238837363E+03  0.45238837363E+03  0.00000000000E+00 0. -1.
         24    2    1    2    0    0  0.16095982981E+03 -0.97462206226E+02 -0.12739560675E+03  0.23843107752E+03  0.72199651320E+02 0.  0.
         23    2    1    2    0    0 -0.18798348737E+03  0.11241625192E+02 -0.95445048147E+01  0.20914870607E+03  0.90487115206E+02 0.  0.
        -13    1    3    3    0    0  0.89792719351E+01 -0.26225389799E+02 -0.12786090620E-01  0.27720002851E+02  0.00000000000E+00 0.  1.
         14    1    3    3    0    0  0.15198055788E+03 -0.71236816427E+02 -0.12738282066E+03  0.21071107466E+03  0.00000000000E+00 0. -1.
        -13    1    4    4    0    0 -0.92005395698E+01  0.23421980278E+02 -0.16026122875E+02  0.29834136538E+02  0.00000000000E+00 0.  1.
         13    1    4    4    0    0 -0.17878294780E+03 -0.12180355087E+02  0.64816180607E+01  0.17931456954E+03  0.00000000000E+00 0. -1.
         21    1    1    2  503  501  0.27876349936E+02  0.10268827705E+01  0.53788245736E+01  0.28409102904E+02  0.00000000000E+00 0. -1.
          3    1    1    2  501    0 -0.85269237888E+00  0.85193698264E+02 -0.13640257973E+03  0.16082399406E+03  0.00000000000E+00 0. -1.
<scales pt_clust_5="13000.00000" pt_clust_6="13000.00000" pt_clust_7="13000.00000" pt_clust_8="13000.00000" pt_clust_9="27.89526" pt_clust_10="85.27674"></scales>
<clustering>
<clus scale="   27.895">  1  9  2 -1</clus>
<clus scale="   72.200">  5  6 -1 -1</clus>
<clus scale="   85.277">  1 10  2 -1</clus>
<clus scale="   90.487">  7  8 -1 -1</clus>
<clus scale="  196.888">  2  5  1 -1</clus>
<clus scale="   27.895">  1  5  2 -1</clus>
</clustering>
</event>
<event>
10    4  0.3043429E-005  0.3482827E+03  0.7546771E-02  0.1110177E+00
          2   -1    0    0  502    0 -0.00000000000E+00  0.00000000000E+00  0.69959052626E+03  0.69959052626E+03  0.00000000000E+00 0. -1.
         21   -1    0    0  503  502  0.00000000000E+00 -0.00000000000E+00 -0.35272661171E+03  0.35272661171E+03  0.00000000000E+00 0. -1.
         24    2    1    2    0    0 -0.40127836393E+02  0.40040013333E+02  0.24833872698E+03  0.26759452135E+03  0.81983282537E+02 0.  0.
         23    2    1    2    0    0 -0.26501982510E+03  0.14276203837E+03 -0.56165626837E+02  0.32013232711E+03  0.93346783145E+02 0.  0.
        -13    1    3    3    0    0 -0.35900244601E+02  0.21445794976E+02  0.38345698473E+02  0.56737485633E+02  0.00000000000E+00 0.  1.
         14    1    3    3    0    0 -0.42275917922E+01  0.18594218356E+02  0.20999302851E+03  0.21085703571E+03  0.00000000000E+00 0. -1.
        -11    1    4    4    0    0 -0.36083816108E+02 -0.11667961555E+02  0.17821582823E+01  0.37965236730E+02  0.00000000000E+00 0.  1.
         11    1    4    4    0    0 -0.22893600899E+03  0.15442999993E+03 -0.57947785119E+02  0.28216709038E+03  0.00000000000E+00 0. -1.
         21    1    1    2  503  501 -0.24608876257E+02  0.10660753247E+02 -0.29795553438E+02  0.40087697055E+02  0.00000000000E+00 0.  1.
          1    1    1    2  501    0  0.32975653775E+03 -0.19346280495E+03  0.18448636784E+03  0.42450259247E+03  0.00000000000E+00 0. -1.
<scales pt_clust_5="13000.00000" pt_clust_6="13000.00000" pt_clust_7="13000.00000" pt_clust_8="13000.00000" pt_clust_9="26.81881" pt_clust_10="335.54031"></scales>
<clustering>
<clus scale="   26.819">  2  9  1 -1</clus>
<clus scale="   81.983">  5  6 -1 -1</clus>
<clus scale="   93.347">  7  8 -1 -1</clus>
<clus scale="  100.105">  1  5  2 -1</clus>
<clus scale="  335.540">  2 10  1 -1</clus>
<clus scale="   26.819">  2  5  1 -1</clus>
</clustering>
</event>
<event>
10    4  0.3043429E-005  0.1607047E+03  0.7546771E-02  0.1201594E+00
         21   -1    0    0  501  502  0.00000000000E+00  0.00000000000E+00  0.39915604130E+03  0.39915604130E+03  0.00000000000E+00 0.  1.
          2   -1    0    0  503    0 -0.00000000000E+00 -0.00000000000E+00 -0.63099684421E+03  0.63099684421E+03  0.00000000000E+00 0. -1.
         24    2    1    2    0    0 -0.94290063716E+02  0.43543170177E+02 -0.88704476562E+02  0.15699431505E+03  0.77408701127E+02 0.  0.
         23    2    1    2    0    0 -0.30297785370E+01  0.87791230291E+02 -0.43641990092E+03  0.45307756542E+03  0.84264290731E+02 0.  0.
        -11    1    3    3    0    0 -0.57517769407E+02 -0.61371721521E+01 -0.13044291966E+02  0.59296814690E+02  0.00000000000E+00 0.  1.
         12    1    3    3    0    0 -0.36772294309E+02  0.49680342329E+02 -0.75660184596E+02  0.97697500356E+02  0.00000000000E+00 0. -1.
        -13    1    4    4    0    0 -0.32517602215E+02  0.83579423704E+02 -0.36138081353E+03  0.37234259347E+03  0.00000000000E+00 0. -1.
         13    1    4    4    0    0  0.29487823679E+02  0.42118065876E+01 -0.75039087388E+02  0.80734971952E+02  0.00000000000E+00 0.  1.
         21    1    1    2  503  502  0.39482473638E+02 -0.16740075264E+02  0.28845705684E+03  0.29162744981E+03  0.00000000000E+00 0.  1.
          1    1    1    2  501    0  0.57837368615E+02 -0.11459432520E+03  0.48265177318E+01  0.12845355523E+03  0.00000000000E+00 0. -1.
<scales pt_clust_5="13000.00000" pt_clust_6="13000.00000" pt_clust_7="13000.00000" pt_clust_8="13000.00000" pt_clust_9="42.88468" pt_clust_10="136.84127"></scales>
<clustering>
<clus scale="   42.885">  1  9  2 -1</clus>
<clus scale="   77.409">  5  6 -1 -1</clus>
<clus scale="   84.264">  7  8 -1 -1</clus>
<clus scale="  119.049">  2  5  1 -1</clus>
<clus scale="  136.841">  1 10  2 -1</clus>
<clus scale="   42.885">  1  5  2 -1</clus>
</clustering>
</event>
<event>
10    4  0.3043429E-005  0.1691281E+03  0.7546771E-02  0.1199751E+00
         21   -1    0    0  501  502  0.00000000000E+00  0.00000000000E+00  0.50728318792E+03  0.50728318792E+03  0.00000000000E+00 0. -1.
          4   -1    0    0  503    0 -0.00000000000E+00 -0.00000000000E+00 -0.66852259456E+03  0.66852259456E+03  0.00000000000E+00 0. -1.
         24    2    1    2    0    0 -0.67010158976E+02 -0.19185975379E+02 -0.43996247376E+03  0.45262156379E+03  0.80254835559E+02 0.  0.
         23    2    1    2    0    0  0.16625525569E+03  0.12343279351E+02 -0.31258557549E+02  0.19220251904E+03  0.90396594605E+02 0.  0.
        -13    1    3    3    0    0  0.10295692190E+02  0.17378547764E+02 -0.66893516373E+02  0.69876732414E+02  0.00000000000E+00 0.  1.
         14    1    3    3    0    0 -0.77305851166E+02 -0.36564523143E+02 -0.37306895739E+03  0.38274483137E+03  0.00000000000E+00 0. -1.
        -13    1    4    4    0    0  0.51288699819E+02  0.31079008063E+02  0.22318252977E+02  0.63988591852E+02  0.00000000000E+00 0.  1.
         13    1    4    4    0    0  0.11496655587E+03 -0.18735728711E+02 -0.53576810526E+02  0.12821392719E+03  0.00000000000E+00 0. -1.
         21    1    1    2  503  502 -0.20093729917E+03  0.49788692951E+02  0.35565634100E+03  0.41151688305E+03  0.00000000000E+00 0. -1.
          3    1    1    2  501    0  0.10169220246E+03 -0.42945996923E+02 -0.45674716336E+02  0.11946481660E+03  0.00000000000E+00 0. -1.
<scales pt_clust_5="13000.00000" pt_clust_6="13000.00000" pt_clust_7="13000.00000" pt_clust_8="13000.00000" pt_clust_9="142.94327" pt_clust_10="91.67811"></scales>
<clustering>
<clus scale="   80.255">  5  6 -1 -1</clus>
<clus scale="   90.397">  7  8 -1 -1</clus>
<clus scale="  106.298">  2  5  1 -1</clus>
<clus scale="   91.678">  1 10  2 -1</clus>
<clus scale="  142.943">  1  9  2 -1</clus>
<clus scale="   91.678">  1  5  2 -1</clus>
</clustering>
</event>
<event>
10    4  0.3043429E-005  0.1414962E+03  0.7546771E-02  0.1213836E+00
         21   -1    0    0  503  502  0.00000000000E+00  0.00000000000E+00  0.11313712265E+03  0.11313712265E+03  0.00000000000E+00 0. -1.
         -1   -1    0    0    0  501 -0.00000000000E+00 -0.00000000000E+00 -0.82290272621E+03  0.82290272621E+03  0.00000000000E+00 0.  1.
         23    2    1    2    0    0  0.66212389345E+02  0.95458373811E+02 -0.65644394205E+03  0.67285648408E+03  0.91218514995E+02 0.  0.
         24    2    1    2    0    0 -0.39111979978E+02 -0.73343790854E+02 -0.10012092548E+03  0.15241476802E+03  0.79353658746E+02 0.  0.
        -13    1    4    4    0    0 -0.64749876858E+01 -0.56170649706E+02 -0.10074781968E+03  0.11553004165E+03  0.00000000000E+00 0.  1.
         14    1    4    4    0    0 -0.32636992293E+02 -0.17173141148E+02  0.62689419946E+00  0.36884726367E+02  0.00000000000E+00 0. -1.
        -11    1    3    3    0    0  0.38180207457E+02  0.10860435785E+03 -0.55407100497E+03  0.56590397890E+03  0.00000000000E+00 0.  1.
         11    1    3    3    0    0  0.28032181888E+02 -0.13145984036E+02 -0.10237293708E+03  0.10695250518E+03  0.00000000000E+00 0. -1.
         21    1    1    2  503  501 -0.12291878674E+02  0.29749649633E+02  0.46837017313E+02  0.56831664813E+02  0.00000000000E+00 0. -1.
         -2    1    1    2    0  502 -0.14808530692E+02 -0.51864232590E+02 -0.37753346183E-01  0.53936931955E+02  0.00000000000E+00 0.  1.
<scales pt_clust_5="13000.00000" pt_clust_6="13000.00000" pt_clust_7="13000.00000" pt_clust_8="13000.00000" pt_clust_9="32.18900" pt_clust_10="43.73644"></scales>
<clustering>
<clus scale="   32.189">  1  9  2 -1</clus>
<clus scale="   43.736">  1 10  2 -1</clus>
<clus scale="   79.354">  5  6 -1 -1</clus>
<clus scale="   91.219">  7  8 -1 -1</clus>
<clus scale="  134.154">  1  5  2 -1</clus>
<clus scale="   32.189">  1  5  2 -1</clus>
</clustering>
</event>
<event>
10    4  0.3043429E-005  0.1315004E+03  0.7546771E-02  0.1227530E+00
         -1   -1    0    0    0  501 -0.00000000000E+00  0.00000000000E+00  0.10523454481E+04  0.10523454481E+04  0.00000000000E+00 0.  1.
         21   -1    0    0  501  502  0.00000000000E+00 -0.00000000000E+00 -0.45682193676E+02  0.45682193676E+02  0.00000000000E+00 0.  1.
         24    2    1    2    0    0 -0.26363640320E+02  0.96358749176E+02  0.36994265851E+03  0.39185082852E+03  0.81911239495E+02 0.  0.
         23    2    1    2    0    0  0.11807919947E+03 -0.34688429406E+02  0.27468593780E+03  0.31444110195E+03  0.90966244763E+02 0.  0.
        -11    1    3    3    0    0  0.97476318052E+01  0.57159381908E+02  0.29020365287E+03  0.29593981044E+03  0.00000000000E+00 0.  1.
         12    1    3    3    0    0 -0.36111272126E+02  0.39199367268E+02  0.79739005635E+02  0.95911018076E+02  0.00000000000E+00 0. -1.
        -11    1    4    4    0    0  0.55883041142E+02 -0.57914432933E+02  0.19347288821E+03  0.20954415836E+03  0.00000000000E+00 0.  1.
         11    1    4    4    0    0  0.62196158331E+02  0.23226003527E+02  0.81213049590E+02  0.10489694359E+03  0.00000000000E+00 0. -1.
         21    1    1    2  503  502  0.16193768181E+02 -0.16086375908E+02  0.20534855598E+02  0.30703255726E+02  0.00000000000E+00 0. -1.
         -2    1    1    2    0  503 -0.10790932733E+03 -0.45583943862E+02  0.34149980253E+03  0.36103245560E+03  0.00000000000E+00 0.  1.
<scales pt_clust_5="13000.00000" pt_clust_6="13000.00000" pt_clust_7="13000.00000" pt_clust_8="13000.00000" pt_clust_9="22.82564" pt_clust_10="115.17178"></scales>
<clustering>
<clus scale="   22.826">  2  9  1 -1</clus>
<clus scale="   81.911">  5  6 -1 -1</clus>
<clus scale="   90.966">  7  8 -1 -1</clus>
<clus scale="  115.172">  2 10  1 -1</clus>
<clus scale="  125.407">  1  5  2 -1</clus>
<clus scale="   22.826">  2  5  1 -1</clus>
</clustering>
</event>
<event>
10    4  0.3043429E-005  0.1417678E+03  0.7546771E-02  0.1236888E+00
         21   -1    0    0  501  502  0.00000000000E+00  0.00000000000E+00  0.68260048339E+02  0.68260048339E+02  0.00000000000E+00 0.  1.
         -1   -1    0    0    0  501 -0.00000000000E+00 -0.00000000000E+00 -0.10263791170E+04  0.10263791170E+04  0.00000000000E+00 0.  1.
         24    2    1    2    0    0  0.19498316683E+02  0.25996791216E+02 -0.33291264538E+02  0.93152146793E+02  0.80703139038E+02 0.  0.
         23    2    1    2    0    0  0.82934929429E+02  0.74063322566E+02 -0.61901041271E+03  0.63520229676E+03  0.89131860122E+02 0.  0.
        -13    1    3    3    0    0  0.27851555454E+02  0.48491221837E+02 -0.51314267925E+01  0.56155491961E+02  0.00000000000E+00 0.  1.
         14    1    3    3    0    0 -0.83532387702E+01 -0.22494430621E+02 -0.28159837745E+02  0.36996654832E+02  0.00000000000E+00 0. -1.
        -13    1    4    4    0    0  0.41874515692E+02  0.79666474006E+02 -0.52213917968E+03  0.52983916909E+03  0.00000000000E+00 0.  1.
         13    1    4    4    0    0  0.41060413738E+02 -0.56031514402E+01 -0.96871233033E+02  0.10536312767E+03  0.00000000000E+00 0. -1.
         21    1    1    2  503  502 -0.56823102934E+01 -0.52538842044E+02 -0.13234183088E+02  0.54477171142E+02  0.00000000000E+00 0.  1.
         -2    1    1    2    0  503 -0.96750935819E+02 -0.47521271738E+02 -0.29258320833E+03  0.31180755066E+03  0.00000000000E+00 0.  1.
<scales pt_clust_5="13000.00000" pt_clust_6="13000.00000" pt_clust_7="13000.00000" pt_clust_8="13000.00000" pt_clust_9="52.84523" pt_clust_10="110.24352"></scales>
<clustering>
<clus scale="   52.845">  1  9  2 -1</clus>
<clus scale="   80.703">  5  6 -1 -1</clus>
<clus scale="   82.558">  2  5  1 -1</clus>
<clus scale="   89.132">  7  8 -1 -1</clus>
<clus scale="  110.244">  1 10  2 -1</clus>
<clus scale="   52.845">  1  5  2 -1</clus>
</clustering>
</event>
<event>
10    4  0.3043429E-005  0.1747248E+03  0.7546771E-02  0.1174547E+00
          2   -1    0    0  503    0 -0.00000000000E+00  0.00000000000E+00  0.11725067222E+04  0.11725067222E+04  0.00000000000E+00 0. -1.
         21   -1    0    0  501  502  0.00000000000E+00 -0.00000000000E+00 -0.46608827232E+02  0.46608827232E+02  0.00000000000E+00 0. -1.
         24    2    1    2    0    0 -0.29404641688E+02 -0.16406641857E+03  0.55360503500E+03  0.58360381390E+03  0.79576718757E+02 0.  0.
         23    2    1    2    0    0  0.12897483300E+02  0.12854426282E+03  0.36114327367E+03  0.39434562563E+03  0.91618970484E+02 0.  0.
        -11    1    3    3    0    0  0.25658570137E+02 -0.35233682064E+02  0.10697144297E+03  0.11551045054E+03  0.00000000000E+00 0.  1.
         12    1    3    3    0    0 -0.55063211824E+02 -0.12883273651E+03  0.44663359204E+03  0.46809336337E+03  0.00000000000E+00 0. -1.
        -13    1    4    4    0    0 -0.31381894989E+02  0.69345135488E+02  0.24605732481E+03  0.25756121261E+03  0.00000000000E+00 0.  1.
         13    1    4    4    0    0  0.44279378288E+02  0.59199127329E+02  0.11508594886E+03  0.13678441301E+03  0.00000000000E+00 0. -1.
         21    1    1    2  503  502  0.32764552270E+02  0.84672758040E+01  0.69573523797E+01  0.34548739443E+02  0.00000000000E+00 0. -1.
          1    1    1    2  501    0 -0.16257393882E+02  0.27054879951E+02  0.20419223392E+03  0.20661737047E+03  0.00000000000E+00 0. -1.
<scales pt_clust_5="13000.00000" pt_clust_6="13000.00000" pt_clust_7="13000.00000" pt_clust_8="13000.00000" pt_clust_9="32.44537" pt_clust_10="31.56375"></scales>
<clustering>
<clus scale="   31.564">  2 10  1 -1</clus>
<clus scale="   32.445">  2  9  1 -1</clus>
<clus scale="   79.577">  5  6 -1 -1</clus>
<clus scale="   91.619">  7  8 -1 -1</clus>
<clus scale="  168.722">  1  5  2 -1</clus>
<clus scale="   31.564">  2  5  1 -1</clus>
</clustering>
</event>
<event>
10    4  0.3043429E-005  0.2020429E+03  0.7546771E-02  0.1149007E+00
         21   -1    0    0  501  502  0.00000000000E+00  0.00000000000E+00  0.43102492043E+03  0.43102492043E+03  0.00000000000E+00 0. -1.
          2   -1    0    0  503    0 -0.00000000000E+00 -0.00000000000E+00 -0.67436395120E+03  0.67436395120E+03  0.00000000000E+00 0. -1.
         24    2    1    2    0    0 -0.10154116943E+03  0.15053552885E+03 -0.57096230428E+03  0.60456933269E+03  0.80836690829E+02 0.  0.
         23    2    1    2    0    0  0.76659693371E+02 -0.15187163326E+03  0.50445169949E+02  0.19969559790E+03  0.91607396394E+02 0.  0.
        -11    1    3    3    0    0  0.78225399538E+01  0.22380943528E+02 -0.31589761795E+02  0.39496984882E+02  0.00000000000E+00 0.  1.
         12    1    3    3    0    0 -0.10936370938E+03  0.12815458532E+03 -0.53937254249E+03  0.56507234781E+03  0.00000000000E+00 0. -1.
        -13    1    4    4    0    0  0.96725298677E+02 -0.13584998488E+03  0.37460263919E+02  0.17092183350E+03  0.00000000000E+00 0.  1.
         13    1    4    4    0    0 -0.20065605305E+02 -0.16021648384E+02  0.12984906030E+02  0.28773764401E+02  0.00000000000E+00 0. -1.
         21    1    1    2  503  502 -0.18463420708E+02 -0.21180538955E+02  0.10478640217E+02  0.29988581752E+02  0.00000000000E+00 0. -1.
          1    1    1    2  501    0  0.43344896765E+02  0.22516643364E+02  0.26669946335E+03  0.27113535928E+03  0.00000000000E+00 0. -1.
<scales pt_clust_5="13000.00000" pt_clust_6="13000.00000" pt_clust_7="13000.00000" pt_clust_8="13000.00000" pt_clust_9="28.09828" pt_clust_10="32.43322"></scales>
<clustering>
<clus scale="   28.098">  1  9  2 -1</clus>
<clus scale="   32.433">  1 10  2 -1</clus>
<clus scale="   80.837">  5  6 -1 -1</clus>
<clus scale="   91.607">  7  8 -1 -1</clus>
<clus scale="  197.393">  2  5  1 -1</clus>
<clus scale="   28.098">  1  5  2 -1</clus>
</clustering>
</event>
<event>
10    4  0.3043429E-005  0.2433349E+03  0.7546771E-02  0.1157712E+00
         21   -1    0    0  503  502  0.00000000000E+00  0.00000000000E+00  0.16160926997E+03  0.16160926997E+03  0.00000000000E+00 0.  1.
         -1   -1    0    0    0  501 -0.00000000000E+00 -0.00000000000E+00 -0.11742164019E+04  0.11742164019E+04  0.00000000000E+00 0.  1.
         24    2    1    2    0    0 -0.38626830700E+01 -0.46346964245E+02 -0.19158334683E+03  0.21296010101E+03  0.80528655905E+02 0.  0.
         23    2    1    2    0    0  0.22552321063E+03  0.12070783084E+03 -0.71537272656E+03  0.76516341503E+03  0.91026451324E+02 0.  0.
        -11    1    3    3    0    0 -0.21218956840E+00 -0.38080363359E+02 -0.23742406278E+02  0.44876062147E+02  0.00000000000E+00 0.  1.
         12    1    3    3    0    0 -0.36504935016E+01 -0.82666008859E+01 -0.16784094056E+03  0.16808403886E+03  0.00000000000E+00 0. -1.
        -13    1    4    4    0    0  0.92904822826E+02  0.64332861268E+01 -0.19419747544E+03  0.21537259051E+03  0.00000000000E+00 0. -1.
         13    1    4    4    0    0  0.13261838780E+03  0.11427454471E+03 -0.52117525112E+03  0.54979082452E+03  0.00000000000E+00 0.  1.
         21    1    1    2  503  501 -0.46045879998E+02  0.21802348085E+02  0.73233025145E+02  0.89211218009E+02  0.00000000000E+00 0. -1.
         -2    1    1    2    0  502 -0.17561464756E+03 -0.96163214676E+02 -0.17888408365E+03  0.26849093780E+03  0.00000000000E+00 0.  1.
<scales pt_clust_5="13000.00000" pt_clust_6="13000.00000" pt_clust_7="13000.00000" pt_clust_8="13000.00000" pt_clust_9="50.94669" pt_clust_10="225.66802"></scales>
<clustering>
<clus scale="   50.947">  1  9  2 -1</clus>
<clus scale="   80.529">  5  6 -1 -1</clus>
<clus scale="   91.026">  7  8 -1 -1</clus>
<clus scale="   92.045">  2  5  1 -1</clus>
<clus scale="  225.668">  1 10  2 -1</clus>
<clus scale="   50.947">  1  5  2 -1</clus>
</clustering>
</event>
<event>
10    4  0.3043429E-005  0.2035513E+03  0.7546771E-02  0.1177815E+00
         21   -1    0    0  501  502  0.00000000000E+00  0.00000000000E+00  0.74371969445E+02  0.74371969445E+02  0.00000000000E+00 0. -1.
          2   -1    0    0  503    0 -0.00000000000E+00 -0.00000000000E+00 -0.11935576723E+04  0.11935576723E+04  0.00000000000E+00 0. -1.
         24    2    1    2    0    0  0.39776657723E+02 -0.45085436413E+02 -0.37230641096E+03  0.38459460600E+03  0.75406022656E+02 0.  0.
         23    2    1    2    0    0 -0.16261822028E+03 -0.77370173381E+02 -0.25047511352E+03  0.32035623872E+03  0.86368442718E+02 0.  0.
        -11    1    3    3    0    0  0.42897514680E+02 -0.48737313902E+02 -0.16619608899E+03  0.17842831201E+03  0.00000000000E+00 0.  1.
         12    1    3    3    0    0 -0.31208569573E+01  0.36518774886E+01 -0.20611032197E+03  0.20616629400E+03  0.00000000000E+00 0. -1.
        -13    1    4    4    0    0 -0.98501799804E+02 -0.91082657597E+02 -0.16802100071E+03  0.21501095730E+03  0.00000000000E+00 0.  1.
         13    1    4    4    0    0 -0.64116420472E+02  0.13712484217E+02 -0.82454112812E+02  0.10534528142E+03  0.00000000000E+00 0. -1.
         21    1    1    2  503  502  0.13689125811E+02 -0.43082710496E+02 -0.25201172555E+02  0.51755301249E+02  0.00000000000E+00 0. -1.
          1    1    1    2  501    0  0.10915243674E+03  0.16553832029E+03 -0.47120300578E+03  0.51122349573E+03  0.00000000000E+00 0. -1.
<scales pt_clust_5="13000.00000" pt_clust_6="13000.00000" pt_clust_7="13000.00000" pt_clust_8="13000.00000" pt_clust_9="45.20522" pt_clust_10="184.31947"></scales>
<clustering>
<clus scale="   45.205">  1  9  2 -1</clus>
<clus scale="   75.406">  5  6 -1 -1</clus>
<clus scale="   86.368">  7  8 -1 -1</clus>
<clus scale="   99.105">  2  5  1 -1</clus>
<clus scale="  184.319">  1 10  2 -1</clus>
<clus scale="   45.205">  1  5  2 -1</clus>
</clustering>
</event>
<event>
10    4  0.6446759E-005  0.2981076E+03  0.7546771E-02  0.1137058E+00
          2   -1    0    0  503    0 -0.00000000000E+00  0.00000000000E+00  0.18523366605E+03  0.18523366605E+03  0.00000000000E+00 0. -1.
         21   -1    0    0  501  502  0.00000000000E+00 -0.00000000000E+00 -0.65062256399E+03  0.65062256399E+03  0.00000000000E+00 0.  1.
         24    2    1    2    0    0  0.13886192391E+02  0.84614875693E+01 -0.33585534574E+02  0.88408338367E+02  0.80147508065E+02 0.  0.
         23    2    1    2    0    0 -0.15590360695E+03  0.22278379759E+03 -0.25769515302E+03  0.38560733361E+03  0.91365577323E+02 0.  0.
        -11    1    3    3    0    0  0.16251072813E+02 -0.28096641965E+02 -0.39686498957E+02  0.51269258399E+02  0.00000000000E+00 0.  1.
         12    1    3    3    0    0 -0.23648804218E+01  0.36558129534E+02  0.61009643830E+01  0.37139079968E+02  0.00000000000E+00 0. -1.
        -13    1    4    4    0    0 -0.10030916166E+03  0.18693184614E+03 -0.23270547755E+03  0.31489249324E+03  0.00000000000E+00 0.  1.
         13    1    4    4    0    0 -0.55594445288E+02  0.35851951445E+02 -0.24989675468E+02  0.70714840376E+02  0.00000000000E+00 0. -1.
         21    1    1    2  503  502 -0.93978425708E+01  0.19876991570E+02 -0.23517340117E+02  0.32194402076E+02  0.00000000000E+00 0. -1.
          1    1    1    2  501    0  0.15141525713E+03 -0.25112227673E+03 -0.15059087023E+03  0.32964615599E+03  0.00000000000E+00 0. -1.
<scales pt_clust_5="13000.00000" pt_clust_6="13000.00000" pt_clust_7="13000.00000" pt_clust_8="13000.00000" pt_clust_9="21.98668" pt_clust_10="283.76144"></scales>
<clustering>
<clus scale="   21.987">  2  9  1 -1</clus>
<clus scale="   80.148">  5  6 -1 -1</clus>
<clus scale="   81.854">  1  5  2 -1</clus>
<clus scale="   91.366">  7  8 -1 -1</clus>
<clus scale="  283.761">  2 10  1 -1</clus>
<clus scale="   21.987">  2  5  1 -1</clus>
</clustering>
</event>
<event>
10    4  0.3043429E-005  0.2670342E+03  0.7546771E-02  0.1135605E+00
         21   -1    0    0  501  502  0.00000000000E+00  0.00000000000E+00  0.47051965162E+03  0.47051965162E+03  0.00000000000E+00 0.  1.
         -3   -1    0    0    0  501 -0.00000000000E+00 -0.00000000000E+00 -0.30178309868E+03  0.30178309868E+03  0.00000000000E+00 0.  1.
         24    2    1    2    0    0  0.59435119822E+02 -0.60712721569E+02 -0.16448790162E+02  0.11755935075E+03  0.79568022612E+02 0.  0.
         23    2    1    2    0    0 -0.17739088203E+03 -0.16241511883E+03 -0.74773522605E+02  0.26861046998E+03  0.93350463553E+02 0.  0.
        -13    1    3    3    0    0  0.34788613564E+02 -0.72008882406E+02 -0.32191876908E+02  0.86208141831E+02  0.00000000000E+00 0.  1.
         14    1    3    3    0    0  0.24646506258E+02  0.11296160837E+02  0.15743086746E+02  0.31351208918E+02  0.00000000000E+00 0. -1.
        -11    1    4    4    0    0 -0.51382004641E+02 -0.91541245084E+02 -0.65513222892E+02  0.12374123131E+03  0.00000000000E+00 0. -1.
         11    1    4    4    0    0 -0.12600887739E+03 -0.70873873748E+02 -0.92602997125E+01  0.14486923867E+03  0.00000000000E+00 0.  1.
         21    1    1    2  503  502  0.81086977380E+01 -0.18414739421E+02  0.20190006646E+02  0.28504209783E+02  0.00000000000E+00 0.  1.
         -4    1    1    2    0  503  0.10984706447E+03  0.24154257982E+03  0.23976885906E+03  0.35762871979E+03  0.00000000000E+00 0.  1.
<scales pt_clust_5="13000.00000" pt_clust_6="13000.00000" pt_clust_7="13000.00000" pt_clust_8="13000.00000" pt_clust_9="20.12097" pt_clust_10="250.18588"></scales>
<clustering>
<clus scale="   20.121">  1  9  2 -1</clus>
<clus scale="   79.568">  5  6 -1 -1</clus>
<clus scale="   93.350">  7  8 -1 -1</clus>
<clus scale="  117.972">  2  5  1 -1</clus>
<clus scale="  250.186">  1 10  2 -1</clus>
<clus scale="   20.121">  1  5  2 -1</clus>
</clustering>
</event>
<event>
10    4  0.3043429E-005  0.2569176E+03  0.7546771E-02  0.1150157E+00
          2   -1    0    0  503    0 -0.00000000000E+00  0.00000000000E+00  0.38964551775E+03  0.38964551775E+03  0.00000000000E+00 0. -1.
         21   -1    0    0  501  502  0.00000000000E+00 -0.00000000000E+00 -0.55581946647E+03  0.55581946647E+03  0.00000000000E+00 0. -1.
         24    2    1    2    0    0  0.26736389775E+02 -0.41116061999E+02  0.79991778978E+02  0.12298744011E+03  0.79510129097E+02 0.  0.
         23    2    1    2    0    0  0.23165177296E+03 -0.44914310629E+02  0.15604629608E+03  0.29701220724E+03  0.90476325705E+02 0.  0.
        -11    1    3    3    0    0 -0.23156813467E+02 -0.30860541020E+02  0.17497961956E+02  0.42364958098E+02  0.00000000000E+00 0.  1.
         12    1    3    3    0    0  0.49893203242E+02 -0.10255520978E+02  0.62493817022E+02  0.80622482015E+02  0.00000000000E+00 0. -1.
        -11    1    4    4    0    0  0.35162956659E+02 -0.42871559208E+02  0.24995421094E+02  0.60820844992E+02  0.00000000000E+00 0.  1.
         11    1    4    4    0    0  0.19648881630E+03 -0.20427514216E+01  0.13105087499E+03  0.23619136225E+03  0.00000000000E+00 0. -1.
         21    1    1    2  503  502 -0.14527171951E+03  0.51163594669E+02 -0.37299757016E+03  0.40354525552E+03  0.00000000000E+00 0. -1.
          1    1    1    2  501    0 -0.11311644323E+03  0.34866777959E+02 -0.29214453623E+02  0.12192008134E+03  0.00000000000E+00 0. -1.
<scales pt_clust_5="13000.00000" pt_clust_6="13000.00000" pt_clust_7="13000.00000" pt_clust_8="13000.00000" pt_clust_9="240.45938" pt_clust_10="112.42364"></scales>
<clustering>
<clus scale="   79.510">  5  6 -1 -1</clus>
<clus scale="   90.476">  7  8 -1 -1</clus>
<clus scale="   93.420">  1  5  2 -1</clus>
<clus scale="  112.424">  2 10  1 -1</clus>
<clus scale="  240.459">  2  9  1 -1</clus>
<clus scale="  112.424">  2  5  1 -1</clus>
</clustering>
</event>
<event>
10    4  0.3705819E-005  0.2220408E+03  0.7546771E-02  0.1173144E+00
          2   -1    0    0  502    0 -0.00000000000E+00  0.00000000000E+00  0.64450298222E+03  0.64450298222E+03  0.00000000000E+00 0. -1.
         21   -1    0    0  503  502  0.00000000000E+00 -0.00000000000E+00 -0.11817223333E+03  0.11817223333E+03  0.00000000000E+00 0. -1.
         24    2    1    2    0    0 -0.20546859095E+02  0.21114370817E+02  0.15419510907E+03  0.17568065336E+03  0.78864251917E+02 0.  0.
         23    2    1    2    0    0 -0.17000095807E+03 -0.86338485286E+02  0.23499726438E+03  0.31705171622E+03  0.94569639447E+02 0.  0.
        -13    1    3    3    0    0 -0.12280296960E+02  0.28100744801E+02  0.11774863640E+02  0.32849733112E+02  0.00000000000E+00 0.  1.
         14    1    3    3    0    0 -0.82665621347E+01 -0.69863739835E+01  0.14242024542E+03  0.14283092024E+03  0.00000000000E+00 0. -1.
        -11    1    4    4    0    0 -0.13930534916E+03 -0.61827304694E+02  0.23209562421E+03  0.27766341979E+03  0.00000000000E+00 0.  1.
         11    1    4    4    0    0 -0.30695608906E+02 -0.24511180591E+02  0.29016401724E+01  0.39388296432E+02  0.00000000000E+00 0. -1.
         21    1    1    2  503  501 -0.15346764243E+02  0.12929922709E+02  0.11026603643E+02  0.22897424787E+02  0.00000000000E+00 0. -1.
          1    1    1    2  501    0  0.20589458141E+03  0.52294191760E+02  0.12611177180E+03  0.24704542119E+03  0.00000000000E+00 0. -1.
<scales pt_clust_5="13000.00000" pt_clust_6="13000.00000" pt_clust_7="13000.00000" pt_clust_8="13000.00000" pt_clust_9="20.06754" pt_clust_10="200.89471"></scales>
<clustering>
<clus scale="   20.068">  2  9  1 -1</clus>
<clus scale="   78.864">  5  6 -1 -1</clus>
<clus scale="   84.876">  1  5  2 -1</clus>
<clus scale="   94.570">  7  8 -1 -1</clus>
<clus scale="  200.895">  2 10  1 -1</clus>
<clus scale="   20.068">  2  5  1 -1</clus>
</clustering>
</event>
<event>
10    4  0.3043429E-005  0.2728323E+03  0.7546771E-02  0.1137861E+00
         21   -1    0    0  503  502  0.00000000000E+00  0.00000000000E+00  0.78544383230E+03  0.78544383230E+03  0.00000000000E+00 0.  1.
         -1   -1    0    0    0  501 -0.00000000000E+00 -0.00000000000E+00 -0.17018867166E+03  0.17018867166E+03  0.00000000000E+00 0.  1.
         23    2    1    2    0    0 -0.30015673358E+02  0.22310649080E+02  0.25016539276E+01  0.10025115744E+03  0.92980269871E+02 0.  0.
         24    2    1    2    0    0  0.21580140897E+03  0.14628467972E+03  0.19114604383E+03  0.33258995666E+03  0.78165296410E+02 0.  0.
        -11    1    4    4    0    0  0.84274266996E+02  0.97121121068E+02  0.66175097725E+02  0.14461607032E+03  0.00000000000E+00 0.  1.
         12    1    4    4    0    0  0.13152714198E+03  0.49163558652E+02  0.12497094610E+03  0.18797388634E+03  0.00000000000E+00 0. -1.
        -11    1    3    3    0    0  0.32299048495E+02  0.11356663909E+02  0.11984327366E+02  0.36274322203E+02  0.00000000000E+00 0. -1.
         11    1    3    3    0    0 -0.62314721854E+02  0.10953985171E+02 -0.94826734387E+01  0.63976835233E+02  0.00000000000E+00 0.  1.
         21    1    1    2  503  501 -0.16051513629E+02  0.35674230067E+02  0.28596826430E+02  0.48456993948E+02  0.00000000000E+00 0.  1.
         -2    1    1    2    0  502 -0.16973422199E+03 -0.20426955887E+03  0.39301063645E+03  0.47433439593E+03  0.00000000000E+00 0.  1.
<scales pt_clust_5="13000.00000" pt_clust_6="13000.00000" pt_clust_7="13000.00000" pt_clust_8="13000.00000" pt_clust_9="39.11907" pt_clust_10="261.39560"></scales>
<clustering>
<clus scale="   39.119">  2  9  1 -1</clus>
<clus scale="   78.165">  5  6 -1 -1</clus>
<clus scale="   92.980">  7  8 -1 -1</clus>
<clus scale="  104.717">  2  7  1 -1</clus>
<clus scale="  261.396">  1 10  2 -1</clus>
<clus scale="  261.396">  1  5  2 -1</clus>
</clustering>
</event>
<event>
10    4  0.3043429E-005  0.4158431E+03  0.7546771E-02  0.1082322E+00
         21   -1    0    0  503  502  0.00000000000E+00  0.00000000000E+00  0.20468566111E+03  0.20468566111E+03  0.00000000000E+00 0. -1.
          2   -1    0    0  502    0 -0.00000000000E+00 -0.00000000000E+00 -0.11389173724E+04  0.11389173724E+04  0.00000000000E+00 0. -1.
         24    2    1    2    0    0  0.21733243327E+01 -0.91171172974E+02 -0.98087790639E+02  0.15637598577E+03  0.80717582552E+02 0.  0.
         23    2    1    2    0    0  0.38439096537E+03  0.14524158394E+03 -0.31189400802E+03  0.52382879206E+03  0.90924139759E+02 0.  0.
        -13    1    3    3    0    0  0.13237210743E+02 -0.10083042113E+03 -0.98644591720E+02  0.14167834361E+03  0.00000000000E+00 0.  1.
         14    1    3    3    0    0 -0.11063886411E+02  0.96592481579E+01  0.55680108091E+00  0.14697642155E+02  0.00000000000E+00 0. -1.
        -13    1    4    4    0    0  0.17089907220E+03  0.20888105309E+02 -0.10573662194E+03  0.20204712085E+03  0.00000000000E+00 0. -1.
         13    1    4    4    0    0  0.21349189317E+03  0.12435347863E+03 -0.20615738607E+03  0.32178167122E+03  0.00000000000E+00 0.  1.
         21    1    1    2  503  501 -0.15137245503E+03 -0.72860522044E+02 -0.18177112762E+03  0.24751367366E+03  0.00000000000E+00 0. -1.
          1    1    1    2  501    0 -0.23519183467E+03  0.18790111080E+02 -0.34247878504E+03  0.41588458204E+03  0.00000000000E+00 0. -1.
<scales pt_clust_5="13000.00000" pt_clust_6="13000.00000" pt_clust_7="13000.00000" pt_clust_8="13000.00000" pt_clust_9="95.85251" pt_clust_10="95.85251"></scales>
<clustering>
<clus scale="   80.718">  5  6 -1 -1</clus>
<clus scale="   90.924">  7  8 -1 -1</clus>
<clus scale="   95.853">  9 10 -1 -1</clus>
<clus scale="  121.788">  2  5  1 -1</clus>
<clus scale="  410.231">  2  7  1 -1</clus>
<clus scale="  415.843">  1  5  2 -1</clus>
</clustering>
</event>
<event>
10    4  0.3043429E-005  0.1771048E+03  0.7546771E-02  0.1172101E+00
         21   -1    0    0  503  502  0.00000000000E+00  0.00000000000E+00  0.21165516618E+03  0.21165516618E+03  0.00000000000E+00 0. -1.
         -1   -1    0    0    0  501 -0.00000000000E+00 -0.00000000000E+00 -0.50220702799E+03  0.50220702799E+03  0.00000000000E+00 0.  1.
         23    2    1    2    0    0 -0.14072677673E+03  0.11286261629E+03 -0.23873864514E+03  0.31291728168E+03  0.91537362004E+02 0.  0.
         24    2    1    2    0    0  0.80276788381E+02 -0.88367730834E+02 -0.77751790310E+02  0.16323861666E+03  0.79676134863E+02 0.  0.
        -13    1    4    4    0    0  0.78929824382E+02 -0.29153274693E+02 -0.49418829177E+02  0.97580998558E+02  0.00000000000E+00 0.  1.
         14    1    4    4    0    0  0.13469639989E+01 -0.59214456141E+02 -0.28332961133E+02  0.65657618101E+02  0.00000000000E+00 0. -1.
        -13    1    3    3    0    0 -0.75551758538E+02  0.34158406570E+02 -0.17178859897E+03  0.19075163877E+03  0.00000000000E+00 0.  1.
         13    1    3    3    0    0 -0.65175018196E+02  0.78704209716E+02 -0.66950046168E+02  0.12216564290E+03  0.00000000000E+00 0. -1.
         21    1    1    2  503  501  0.14691272872E+02 -0.26910213468E+02  0.12492291861E+03  0.12863020128E+03  0.00000000000E+00 0. -1.
         -2    1    1    2    0  502  0.45758715481E+02  0.24153280158E+01 -0.98984344974E+02  0.10907609455E+03  0.00000000000E+00 0.  1.
<scales pt_clust_5="13000.00000" pt_clust_6="13000.00000" pt_clust_7="13000.00000" pt_clust_8="13000.00000" pt_clust_9="30.65931" pt_clust_10="46.63924"></scales>
<clustering>
<clus scale="   30.659">  1  9  2 -1</clus>
<clus scale="   46.639">  1 10  2 -1</clus>
<clus scale="   79.676">  5  6 -1 -1</clus>
<clus scale="   91.537">  7  8 -1 -1</clus>
<clus scale="  171.276">  1  5  2 -1</clus>
<clus scale="   30.659">  1  5  2 -1</clus>
</clustering>
</event>
<event>
10    4  0.3043429E-005  0.1488405E+03  0.7546771E-02  0.1210833E+00
         21   -1    0    0  501  502  0.00000000000E+00  0.00000000000E+00  0.19248310989E+03  0.19248310989E+03  0.00000000000E+00 0. -1.
          2   -1    0    0  503    0 -0.00000000000E+00 -0.00000000000E+00 -0.55337248248E+03  0.55337248248E+03  0.00000000000E+00 0. -1.
         23    2    1    2    0    0  0.56506861294E+02  0.95436016243E+02 -0.94870034035E+02  0.17403769415E+03  0.94803676398E+02 0.  0.
         24    2    1    2    0    0  0.71602728034E+02 -0.94870764173E+02 -0.25901318031E+03  0.29623732421E+03  0.80878378577E+02 0.  0.
        -11    1    4    4    0    0  0.59334929521E+02 -0.59809230834E+02 -0.90361707052E+02  0.12354357958E+03  0.00000000000E+00 0.  1.
         12    1    4    4    0    0  0.12267798514E+02 -0.35061533338E+02 -0.16865147326E+03  0.17269374462E+03  0.00000000000E+00 0. -1.
        -13    1    3    3    0    0  0.26479021715E+02  0.66277246574E+02 -0.11325758115E+01  0.71379932280E+02  0.00000000000E+00 0. -1.
         13    1    3    3    0    0  0.30027839579E+02  0.29158769669E+02 -0.93737458224E+02  0.10265776187E+03  0.00000000000E+00 0.  1.
         21    1    1    2  503  502 -0.16892974866E+02 -0.90735314291E+02  0.67341748974E+02  0.11425051866E+03  0.00000000000E+00 0. -1.
          1    1    1    2  501    0 -0.11121661446E+03  0.90170062221E+02 -0.74347907209E+02  0.16133005535E+03  0.00000000000E+00 0. -1.
<scales pt_clust_5="13000.00000" pt_clust_6="13000.00000" pt_clust_7="13000.00000" pt_clust_8="13000.00000" pt_clust_9="92.29447" pt_clust_10="124.94866"></scales>
<clustering>
<clus scale="   80.878">  5  6 -1 -1</clus>
<clus scale="   92.294">  1  9  2 -1</clus>
<clus scale="   94.804">  7  8 -1 -1</clus>
<clus scale="  122.861">  2  7  1 -1</clus>
<clus scale="  124.949">  1 10  2 -1</clus>
<clus scale="   92.294">  1  5  2 -1</clus>
</clustering>
</event>
<event>
10    4  0.3043429E-005  0.1682705E+03  0.7546771E-02  0.1208163E+00
          2   -1    0    0  503    0 -0.00000000000E+00  0.00000000000E+00  0.15406753242E+04  0.15406753242E+04  0.00000000000E+00 0. -1.
         21   -1    0    0  501  502  0.00000000000E+00 -0.00000000000E+00 -0.48800150176E+02  0.48800150176E+02  0.00000000000E+00 0.  1.
         23    2    1    2    0    0  0.40811525674E+01  0.77662069559E+01  0.89819765639E+02  0.12745120526E+03  0.89995831275E+02 0.  0.
         24    2    1    2    0    0  0.12129917245E+03  0.11205363148E+03  0.43132202716E+03  0.46539776825E+03  0.57331370251E+02 0.  0.
        -11    1    4    4    0    0  0.72614536037E+02  0.91449943249E+02  0.23991134908E+03  0.26682094817E+03  0.00000000000E+00 0.  1.
         12    1    4    4    0    0  0.48684636416E+02  0.20603688233E+02  0.19141067807E+03  0.19857682008E+03  0.00000000000E+00 0. -1.
        -11    1    3    3    0    0 -0.23747534851E+02  0.26754660767E+02  0.49188375177E+01  0.36110278963E+02  0.00000000000E+00 0.  1.
         11    1    3    3    0    0  0.27828687418E+02 -0.18988453811E+02  0.84900928122E+02  0.91340926301E+02  0.00000000000E+00 0. -1.
         21    1    1    2  503  502 -0.53656088603E+01 -0.20187606982E+02  0.97242917570E+01  0.23041073852E+02  0.00000000000E+00 0. -1.
          1    1    1    2  501    0 -0.12001471616E+03 -0.99632231457E+02  0.96100908943E+03  0.97358542697E+03  0.00000000000E+00 0. -1.
<scales pt_clust_5="13000.00000" pt_clust_6="13000.00000" pt_clust_7="13000.00000" pt_clust_8="13000.00000" pt_clust_9="20.88850" pt_clust_10="158.20267"></scales>
<clustering>
<clus scale="   20.888">  2  9  1 -1</clus>
<clus scale="   57.331">  5  6 -1 -1</clus>
<clus scale="   89.996">  7  8 -1 -1</clus>
<clus scale="   90.020">  1  7  2 -1</clus>
<clus scale="  158.203">  2 10  1 -1</clus>
<clus scale="   20.888">  2  5  1 -1</clus>
</clustering>
</event>
<event>
10    4  0.3043429E-005  0.1289770E+03  0.7546771E-02  0.1231371E+00
         -3   -1    0    0    0  501 -0.00000000000E+00  0.00000000000E+00  0.58133064453E+03  0.58133064453E+03  0.00000000000E+00 0.  1.
         21   -1    0    0  501  502  0.00000000000E+00 -0.00000000000E+00 -0.26871869964E+03  0.26871869964E+03  0.00000000000E+00 0. -1.
         24    2    1    2    0    0  0.90903996980E+02 -0.30123483217E+02  0.35393575042E+03  0.37565257700E+03  0.81690772242E+02 0.  0.
         23    2    1    2    0    0 -0.89642003769E+02 -0.23033261204E+02  0.13885475861E+03  0.18995539066E+03  0.90753437907E+02 0.  0.
        -13    1    3    3    0    0  0.17870917994E+01  0.20403389217E+02  0.95109846856E+02  0.97290158586E+02  0.00000000000E+00 0.  1.
         14    1    3    3    0    0  0.89116905180E+02 -0.50526872434E+02  0.25882590357E+03  0.27836241841E+03  0.00000000000E+00 0. -1.
        -13    1    4    4    0    0 -0.82758339472E+02 -0.10862506212E+01  0.14427041532E+03  0.16632520985E+03  0.00000000000E+00 0.  1.
         13    1    4    4    0    0 -0.68836642968E+01 -0.21947010582E+02 -0.54156567173E+01  0.23630180815E+02  0.00000000000E+00 0. -1.
         21    1    1    2  503  502  0.14081148954E+02 -0.23343829665E+02 -0.20167579124E+03  0.20351004376E+03  0.00000000000E+00 0. -1.
         -4    1    1    2    0  503 -0.15343142165E+02  0.76500574086E+02  0.21497227113E+02  0.80931332749E+02  0.00000000000E+00 0.  1.
<scales pt_clust_5="13000.00000" pt_clust_6="13000.00000" pt_clust_7="13000.00000" pt_clust_8="13000.00000" pt_clust_9="27.26194" pt_clust_10="66.62257"></scales>
<clustering>
<clus scale="   27.262">  2  9  1 -1</clus>
<clus scale="   66.623">  2 10  1 -1</clus>
<clus scale="   81.691">  5  6 -1 -1</clus>
<clus scale="   90.753">  7  8 -1 -1</clus>
<clus scale="  122.769">  1  5  2 -1</clus>
<clus scale="   27.262">  2  5  1 -1</clus>
</clustering>
</event>
<event>
10    4  0.3043429E-005  0.1394911E+03  0.7546771E-02  0.1217081E+00
          2   -1    0    0  502    0 -0.00000000000E+00  0.00000000000E+00  0.52449174008E+03  0.52449174008E+03  0.00000000000E+00 0. -1.
         21   -1    0    0  503  502  0.00000000000E+00 -0.00000000000E+00 -0.37901543945E+03  0.37901543945E+03  0.00000000000E+00 0.  1.
         23    2    1    2    0    0 -0.11009382149E+03 -0.84530128468E+01  0.22369064213E+03  0.26566974105E+03  0.91382738954E+02 0.  0.
         24    2    1    2    0    0  0.56671124740E+02 -0.63517232544E+01 -0.19466483970E+03  0.21709561876E+03  0.77357269246E+02 0.  0.
        -11    1    4    4    0    0  0.74839151418E+02 -0.10619826234E+02 -0.17096586322E+03  0.18693048355E+03  0.00000000000E+00 0.  1.
         12    1    4    4    0    0 -0.18168026677E+02  0.42681029798E+01 -0.23698976473E+02  0.30165135210E+02  0.00000000000E+00 0. -1.
        -13    1    3    3    0    0 -0.98636962204E+01  0.31335801873E+02  0.32788751224E+02  0.46414730302E+02  0.00000000000E+00 0.  1.
         13    1    3    3    0    0 -0.10023012527E+03 -0.39788814720E+02  0.19090189090E+03  0.21925501075E+03  0.00000000000E+00 0. -1.
         21    1    1    2  503  501  0.92142348275E+01  0.28751735793E+02 -0.14861624871E+03  0.15165208148E+03  0.00000000000E+00 0.  1.
          1    1    1    2  501    0  0.44208461924E+02 -0.13946999692E+02  0.26506674691E+03  0.26908973824E+03  0.00000000000E+00 0. -1.
<scales pt_clust_5="13000.00000" pt_clust_6="13000.00000" pt_clust_7="13000.00000" pt_clust_8="13000.00000" pt_clust_9="30.19213" pt_clust_10="46.35829"></scales>
<clustering>
<clus scale="   30.192">  2  9  1 -1</clus>
<clus scale="   46.358">  2 10  1 -1</clus>
<clus scale="   77.357">  5  6 -1 -1</clus>
<clus scale="   91.383">  7  8 -1 -1</clus>
<clus scale="  130.733">  2  5  1 -1</clus>
<clus scale="   30.192">  2  5  1 -1</clus>
</clustering>
</event>
<event>
10    4  0.3043429E-005  0.1055489E+03  0.7546771E-02  0.1272231E+00
         21   -1    0    0  501  502  0.00000000000E+00  0.00000000000E+00  0.66928969752E+02  0.66928969752E+02  0.00000000000E+00 0. -1.
          2   -1    0    0  503    0 -0.00000000000E+00 -0.00000000000E+00 -0.77273154053E+03  0.77273154053E+03  0.00000000000E+00 0. -1.
         24    2    1    2    0    0 -0.64943110559E+02  0.31502045397E+02 -0.57550906041E+03  0.58543319921E+03  0.79444103912E+02 0.  0.
         23    2    1    2    0    0  0.15603444257E+01  0.11734290840E+02 -0.54010495944E+02  0.10324790589E+03  0.87194427249E+02 0.  0.
        -11    1    3    3    0    0 -0.30935167573E+02  0.37577408109E+02 -0.13384751579E+03  0.14242262347E+03  0.00000000000E+00 0.  1.
         12    1    3    3    0    0 -0.34007942986E+02 -0.60753627125E+01 -0.44166154462E+03  0.44301057574E+03  0.00000000000E+00 0. -1.
        -13    1    4    4    0    0 -0.15723381765E+02  0.40650610185E+02 -0.51346740330E+01  0.43886919691E+02  0.00000000000E+00 0. -1.
         13    1    4    4    0    0  0.17283726191E+02 -0.28916319346E+02 -0.48875821911E+02  0.59360986204E+02  0.00000000000E+00 0.  1.
         21    1    1    2  503  502  0.28890638454E+02  0.97578715209E+01  0.19508881517E+02  0.36200573268E+02  0.00000000000E+00 0. -1.
          1    1    1    2  501    0  0.34492127679E+02 -0.52994207757E+02 -0.95791895944E+02  0.11477883192E+03  0.00000000000E+00 0. -1.
<scales pt_clust_5="13000.00000" pt_clust_6="13000.00000" pt_clust_7="13000.00000" pt_clust_8="13000.00000" pt_clust_9="30.49402" pt_clust_10="65.46700"></scales>
<clustering>
<clus scale="   30.494">  1  9  2 -1</clus>
<clus scale="   65.467">  1 10  2 -1</clus>
<clus scale="   79.444">  5  6 -1 -1</clus>
<clus scale="   87.194">  7  8 -1 -1</clus>
<clus scale="   99.242">  2  5  1 -1</clus>
<clus scale="   30.494">  1  5  2 -1</clus>
</clustering>
</event>
<event>
10    4  0.3043429E-005  0.1250784E+03  0.7546771E-02  0.1237753E+00
          4   -1    0    0  503    0 -0.00000000000E+00  0.00000000000E+00  0.12570140576E+04  0.12570140576E+04  0.00000000000E+00 0. -1.
         21   -1    0    0  501  502  0.00000000000E+00 -0.00000000000E+00 -0.68143255925E+02  0.68143255925E+02  0.00000000000E+00 0.  1.
         24    2    1    2    0    0  0.37264334812E+02 -0.98660923667E+02  0.62723843194E+03  0.64119453531E+03  0.81115800590E+02 0.  0.
         23    2    1    2    0    0 -0.60858893327E+02 -0.14874117819E+02  0.90532017868E+02  0.14281400218E+03  0.90965645611E+02 0.  0.
        -11    1    3    3    0    0 -0.43136718181E+01 -0.48477500855E+02  0.11567263686E+03  0.12549436151E+03  0.00000000000E+00 0.  1.
         12    1    3    3    0    0  0.41578006630E+02 -0.50183422813E+02  0.51156579508E+03  0.51570017380E+03  0.00000000000E+00 0. -1.
        -11    1    4    4    0    0 -0.80988344973E+02 -0.15570764911E+02  0.47184165581E+02  0.95015294679E+02  0.00000000000E+00 0.  1.
         11    1    4    4    0    0  0.20129451646E+02  0.69664709157E+00  0.43347852288E+02  0.47798707501E+02  0.00000000000E+00 0. -1.
         21    1    1    2  503  502 -0.31360543582E+02  0.33338535446E+02 -0.12841906811E+02  0.47537944949E+02  0.00000000000E+00 0.  1.
          3    1    1    2  501    0  0.54955102097E+02  0.80196506040E+02  0.48394225869E+03  0.49361083109E+03  0.00000000000E+00 0. -1.
<scales pt_clust_5="13000.00000" pt_clust_6="13000.00000" pt_clust_7="13000.00000" pt_clust_8="13000.00000" pt_clust_9="45.77053" pt_clust_10="98.62863"></scales>
<clustering>
<clus scale="   45.771">  2  9  1 -1</clus>
<clus scale="   81.116">  5  6 -1 -1</clus>
<clus scale="   90.966">  7  8 -1 -1</clus>
<clus scale="   98.629">  2 10  1 -1</clus>
<clus scale="  118.109">  1  5  2 -1</clus>
<clus scale="   45.771">  2  5  1 -1</clus>
</clustering>
</event>
<event>
10    4  0.3043429E-005  0.1659029E+03  0.7546771E-02  0.1218804E+00
          2   -1    0    0  503    0 -0.00000000000E+00  0.00000000000E+00  0.70804243033E+03  0.70804243033E+03  0.00000000000E+00 0. -1.
         21   -1    0    0  501  502  0.00000000000E+00 -0.00000000000E+00 -0.10230924925E+03  0.10230924925E+03  0.00000000000E+00 0. -1.
         24    2    1    2    0    0  0.16181324576E+02  0.32562940459E+02  0.29511052701E+03  0.30430104567E+03  0.64704890786E+02 0.  0.
         23    2    1    2    0    0 -0.14968877601E+03 -0.18458472364E+02  0.23687905684E+03  0.29429527407E+03  0.88037355176E+02 0.  0.
        -11    1    3    3    0    0  0.26679636460E+02  0.45943132802E+02  0.17191252723E+03  0.17993468668E+03  0.00000000000E+00 0.  1.
         12    1    3    3    0    0 -0.10498311883E+02 -0.13380192342E+02  0.12319799978E+03  0.12436635899E+03  0.00000000000E+00 0. -1.
        -13    1    4    4    0    0 -0.44592716929E+02  0.38475240240E+01  0.14874633091E+03  0.15533442891E+03  0.00000000000E+00 0.  1.
         13    1    4    4    0    0 -0.10509605909E+03 -0.22305996388E+02  0.88132725929E+02  0.13896084517E+03  0.00000000000E+00 0. -1.
         21    1    1    2  503  502  0.13787825791E+03 -0.49758717908E+02  0.21201019948E+02  0.14810748550E+03  0.00000000000E+00 0. -1.
          1    1    1    2  501    0 -0.43708064751E+01  0.35654249812E+02  0.52542577287E+02  0.63647874331E+02  0.00000000000E+00 0. -1.
<scales pt_clust_5="13000.00000" pt_clust_6="13000.00000" pt_clust_7="13000.00000" pt_clust_8="13000.00000" pt_clust_9="140.61720" pt_clust_10="35.92117"></scales>
<clustering>
<clus scale="   35.921">  2 10  1 -1</clus>
<clus scale="   64.705">  5  6 -1 -1</clus>
<clus scale="   74.936">  1  5  2 -1</clus>
<clus scale="   88.037">  7  8 -1 -1</clus>
<clus scale="  140.617">  2  9  1 -1</clus>
<clus scale="   35.921">  2  5  1 -1</clus>
</clustering>
</event>
<event>
10    4  0.3043429E-005  0.9387388E+02  0.7546771E-02  0.1301440E+00
         21   -1    0    0  503  502  0.00000000000E+00  0.00000000000E+00  0.10717578394E+03  0.10717578394E+03  0.00000000000E+00 0. -1.
          2   -1    0    0  502    0 -0.00000000000E+00 -0.00000000000E+00 -0.38928892552E+03  0.38928892552E+03  0.00000000000E+00 0. -1.
         24    2    1    2    0    0  0.15008358134E+01 -0.37037650053E+02 -0.21364633053E+03  0.23080339359E+03  0.79065870722E+02 0.  0.
         23    2    1    2    0    0 -0.31991115112E+02 -0.39741027673E+02 -0.90998023244E+02  0.13900339990E+03  0.91861440347E+02 0.  0.
        -11    1    3    3    0    0 -0.65583600419E+01  0.24317324380E+02 -0.54057901291E+02  0.59637245438E+02  0.00000000000E+00 0.  1.
         12    1    3    3    0    0  0.80591958553E+01 -0.61354974433E+02 -0.15958842924E+03  0.17116614815E+03  0.00000000000E+00 0. -1.
        -11    1    4    4    0    0 -0.18390701404E+02  0.27951878147E+02 -0.44849228213E+02  0.55955148658E+02  0.00000000000E+00 0.  1.
         11    1    4    4    0    0 -0.13600413708E+02 -0.67692905820E+02 -0.46148795031E+02  0.83048251241E+02  0.00000000000E+00 0. -1.
         21    1    1    2  503  501  0.32733883666E+02  0.18370735430E+02  0.49633511670E+02  0.62229225777E+02  0.00000000000E+00 0. -1.
          1    1    1    2  501    0 -0.22436043681E+01  0.58407942296E+02 -0.27102299469E+02  0.64428690195E+02  0.00000000000E+00 0. -1.
<scales pt_clust_5="13000.00000" pt_clust_6="13000.00000" pt_clust_7="13000.00000" pt_clust_8="13000.00000" pt_clust_9="37.53653" pt_clust_10="65.81403"></scales>
<clustering>
<clus scale="   37.537">  1  9  2 -1</clus>
<clus scale="   65.814">  1 10  2 -1</clus>
<clus scale="   79.066">  5  6 -1 -1</clus>
<clus scale="   81.395">  2  5  1 -1</clus>
<clus scale="   91.861">  7  8 -1 -1</clus>
<clus scale="   37.537">  1  5  2 -1</clus>
</clustering>
</event>
<event>
10    4  0.3043429E-005  0.1150581E+03  0.7546771E-02  0.1254571E+00
         -1   -1    0    0    0  501 -0.00000000000E+00  0.00000000000E+00  0.19827224129E+03  0.19827224129E+03  0.00000000000E+00 0.  1.
         21   -1    0    0  503  502  0.00000000000E+00 -0.00000000000E+00 -0.53931766558E+03  0.53931766558E+03  0.00000000000E+00 0.  1.
         23    2    1    2    0    0 -0.33071128232E+02  0.59526352004E+02  0.13629643379E+03  0.17634834885E+03  0.88797163086E+02 0.  0.
         24    2    1    2    0    0  0.66692902975E+02 -0.80432627167E+02 -0.81507878962E+02  0.15464336070E+03  0.79709998458E+02 0.  0.
        -11    1    4    4    0    0  0.34780559130E+02 -0.27109850619E+02  0.88517485498E+01  0.44977602720E+02  0.00000000000E+00 0.  1.
         12    1    4    4    0    0  0.31912343845E+02 -0.53322776547E+02 -0.90359627512E+02  0.10966575798E+03  0.00000000000E+00 0. -1.
        -11    1    3    3    0    0 -0.42787270768E+02  0.78379901477E+02  0.12010709820E+03  0.14966587632E+03  0.00000000000E+00 0.  1.
         11    1    3    3    0    0  0.97161425362E+01 -0.18853549473E+02  0.16189335586E+02  0.26682472529E+02  0.00000000000E+00 0. -1.
         21    1    1    2  503  501 -0.22601858590E+02  0.41602552691E+02 -0.36397284331E+03  0.36703929908E+03  0.00000000000E+00 0.  1.
         -2    1    1    2    0  502 -0.11019916153E+02 -0.20696277528E+02 -0.31861135806E+02  0.39558898245E+02  0.00000000000E+00 0.  1.
<scales pt_clust_5="13000.00000" pt_clust_6="13000.00000" pt_clust_7="13000.00000" pt_clust_8="13000.00000" pt_clust_9="40.53316" pt_clust_10="23.44727"></scales>
<clustering>
<clus scale="   23.447">  2 10  1 -1</clus>
<clus scale="   40.533">  2  9  1 -1</clus>
<clus scale="   79.710">  5  6 -1 -1</clus>
<clus scale="   88.797">  7  8 -1 -1</clus>
<clus scale="  108.199">  2  5  1 -1</clus>
<clus scale="   23.447">  2  5  1 -1</clus>
</clustering>
</event>
<event>
10    4  0.3043429E-005  0.1436590E+03  0.7546771E-02  0.1228864E+00
          2   -1    0    0  502    0 -0.00000000000E+00  0.00000000000E+00  0.62476365462E+03  0.62476365462E+03  0.00000000000E+00 0. -1.
         21   -1    0    0  503  502  0.00000000000E+00 -0.00000000000E+00 -0.20926943223E+03  0.20926943223E+03  0.00000000000E+00 0.  1.
         24    2    1    2    0    0  0.76178501216E+01 -0.46801723371E+02  0.20257514799E+03  0.22303813839E+03  0.80379646944E+02 0.  0.
         23    2    1    2    0    0 -0.12292515425E+03  0.50270744254E+02 -0.55416051435E+02  0.16929091068E+03  0.89166879533E+02 0.  0.
        -11    1    3    3    0    0  0.46694903215E+01 -0.68360055664E+02  0.17483562638E+03  0.18778284693E+03  0.00000000000E+00 0.  1.
         12    1    3    3    0    0  0.29483598000E+01  0.21558332293E+02  0.27739521612E+02  0.35255291461E+02  0.00000000000E+00 0. -1.
        -11    1    4    4    0    0 -0.13621033985E+02  0.40085525344E+02  0.71494652109E+01  0.42935961172E+02  0.00000000000E+00 0. -1.
         11    1    4    4    0    0 -0.10930412027E+03  0.10185218910E+02 -0.62565516646E+02  0.12635494950E+03  0.00000000000E+00 0.  1.
         21    1    1    2  503  501  0.20101370606E+02 -0.24376731612E+01 -0.79000959962E+02  0.81554638284E+02  0.00000000000E+00 0.  1.
          1    1    1    2  501    0  0.95205933524E+02 -0.10313477220E+01  0.34733608581E+03  0.36014939950E+03  0.00000000000E+00 0. -1.
<scales pt_clust_5="13000.00000" pt_clust_6="13000.00000" pt_clust_7="13000.00000" pt_clust_8="13000.00000" pt_clust_9="20.24864" pt_clust_10="112.63741"></scales>
<clustering>
<clus scale="   20.249">  2  9  1 -1</clus>
<clus scale="   80.380">  5  6 -1 -1</clus>
<clus scale="   89.167">  7  8 -1 -1</clus>
<clus scale="   93.564">  1  5  2 -1</clus>
<clus scale="  112.637">  2 10  1 -1</clus>
<clus scale="   20.249">  2  5  1 -1</clus>
</clustering>
</event>
<event>
10    4  0.3043429E-005  0.2211156E+03  0.7546771E-02  0.1133239E+00
          2   -1    0    0  503    0 -0.00000000000E+00  0.00000000000E+00  0.16710120197E+04  0.16710120197E+04  0.00000000000E+00 0. -1.
         21   -1    0    0  501  502  0.00000000000E+00 -0.00000000000E+00 -0.57249096371E+02  0.57249096371E+02  0.00000000000E+00 0.  1.
         23    2    1    2    0    0  0.19910917604E+03 -0.55012698373E+02  0.11863442001E+04  0.12074549653E+04  0.88679598721E+02 0.  0.
         24    2    1    2    0    0 -0.17980269290E+03  0.68189978415E+02  0.35983794236E+03  0.41699770490E+03  0.86167624967E+02 0.  0.
        -11    1    4    4    0    0 -0.14692742495E+03  0.14551946344E+02  0.25975134818E+03  0.29878117448E+03  0.00000000000E+00 0.  1.
         12    1    4    4    0    0 -0.32875267957E+02  0.53638032072E+02  0.10008659419E+03  0.11821653042E+03  0.00000000000E+00 0. -1.
        -13    1    3    3    0    0  0.26308117769E+02 -0.44051367307E+02  0.30014982474E+03  0.30450378867E+03  0.00000000000E+00 0.  1.
         13    1    3    3    0    0  0.17280105828E+03 -0.10961331066E+02  0.88619437532E+03  0.90295117663E+03  0.00000000000E+00 0. -1.
         21    1    1    2  503  502  0.19706868267E+02  0.36296271303E+01 -0.41305335669E+01  0.20459622615E+02  0.00000000000E+00 0.  1.
          1    1    1    2  501    0 -0.39013351407E+02 -0.16806907172E+02  0.71711314489E+02  0.83348823282E+02  0.00000000000E+00 0. -1.
<scales pt_clust_5="13000.00000" pt_clust_6="13000.00000" pt_clust_7="13000.00000" pt_clust_8="13000.00000" pt_clust_9="20.03833" pt_clust_10="39.95519"></scales>
<clustering>
<clus scale="   20.038">  2  9  1 -1</clus>
<clus scale="   39.955">  2 10  1 -1</clus>
<clus scale="   86.168">  5  6 -1 -1</clus>
<clus scale="   88.680">  7  8 -1 -1</clus>
<clus scale="  220.120">  2  5  1 -1</clus>
<clus scale="   20.038">  2  5  1 -1</clus>
</clustering>
</event>
<event>
10    4  0.3043429E-005  0.1453654E+03  0.7546771E-02  0.1215330E+00
         21   -1    0    0  503  502  0.00000000000E+00  0.00000000000E+00  0.76052576511E+02  0.76052576511E+02  0.00000000000E+00 0. -1.
          2   -1    0    0  502    0 -0.00000000000E+00 -0.00000000000E+00 -0.98185579443E+03  0.98185579443E+03  0.00000000000E+00 0. -1.
         23    2    1    2    0    0  0.74202975770E+02 -0.90334109112E+01 -0.53825152488E+03  0.55102083300E+03  0.91222641061E+02 0.  0.
         24    2    1    2    0    0  0.54125140357E+02 -0.70829620458E+02 -0.64800415859E+02  0.13677000041E+03  0.80997365167E+02 0.  0.
        -11    1    4    4    0    0  0.95842834060E+00 -0.64914061887E+02 -0.47864575739E+02  0.80658363647E+02  0.00000000000E+00 0.  1.
         12    1    4    4    0    0  0.53166712016E+02 -0.59155585719E+01 -0.16935840120E+02  0.56111636765E+02  0.00000000000E+00 0. -1.
        -11    1    3    3    0    0 -0.18242672505E+02 -0.15192374568E+02 -0.77848321109E+02  0.81387741366E+02  0.00000000000E+00 0.  1.
         11    1    3    3    0    0  0.92445648275E+02  0.61589636566E+01 -0.46040320377E+03  0.46963309164E+03  0.00000000000E+00 0. -1.
         21    1    1    2  503  501  0.34317165317E+02  0.10421830925E+02 -0.45345847371E+02  0.57814602559E+02  0.00000000000E+00 0. -1.
          1    1    1    2  501    0 -0.16264528144E+03  0.69441200444E+02 -0.25740542981E+03  0.31230293497E+03  0.00000000000E+00 0. -1.
<scales pt_clust_5="13000.00000" pt_clust_6="13000.00000" pt_clust_7="13000.00000" pt_clust_8="13000.00000" pt_clust_9="35.86478" pt_clust_10="120.70844"></scales>
<clustering>
<clus scale="   35.865">  1  9  2 -1</clus>
<clus scale="   80.997">  5  6 -1 -1</clus>
<clus scale="   91.223">  7  8 -1 -1</clus>
<clus scale="  119.869">  2  7  1 -1</clus>
<clus scale="  120.708">  1 10  2 -1</clus>
<clus scale="   35.865">  1  5  2 -1</clus>
</clustering>
</event>
<event>
10    4  0.3043429E-005  0.2211056E+03  0.7546771E-02  0.1155169E+00
          2   -1    0    0  502    0 -0.00000000000E+00  0.00000000000E+00  0.17870615714E+04  0.17870615714E+04  0.00000000000E+00 0. -1.
         21   -1    0    0  503  502  0.00000000000E+00 -0.00000000000E+00 -0.73459683989E+02  0.73459683989E+02  0.00000000000E+00 0. -1.
         23    2    1    2    0    0  0.96404109018E+02 -0.45736546012E+02  0.13449562010E+03  0.19625766765E+03  0.95091621125E+02 0.  0.
         24    2    1    2    0    0 -0.16247521216E+03 -0.13892482588E+03  0.51558175090E+03  0.56419723492E+03  0.82435891592E+02 0.  0.
        -13    1    4    4    0    0 -0.38050857490E+02 -0.31448948184E+02  0.49255608302E+02  0.69735350052E+02  0.00000000000E+00 0.  1.
         14    1    4    4    0    0 -0.12442435467E+03 -0.10747587770E+03  0.46632614259E+03  0.49446188487E+03  0.00000000000E+00 0. -1.
        -11    1    3    3    0    0  0.93438133760E+02 -0.40955809181E+01  0.60780956281E+02  0.11154274190E+03  0.00000000000E+00 0. -1.
         11    1    3    3    0    0  0.29659752574E+01 -0.41640965094E+02  0.73714663814E+02  0.84714925748E+02  0.00000000000E+00 0.  1.
         21    1    1    2  503  501 -0.31497640747E+02  0.19455298645E+02  0.26716884724E+02  0.45655251038E+02  0.00000000000E+00 0. -1.
          1    1    1    2  501    0  0.97568743892E+02  0.16520607325E+03  0.10368076317E+04  0.10544111018E+04  0.00000000000E+00 0. -1.
<scales pt_clust_5="13000.00000" pt_clust_6="13000.00000" pt_clust_7="13000.00000" pt_clust_8="13000.00000" pt_clust_9="37.02175" pt_clust_10="205.16344"></scales>
<clustering>
<clus scale="   37.022">  2  9  1 -1</clus>
<clus scale="   82.436">  5  6 -1 -1</clus>
<clus scale="   95.092">  7  8 -1 -1</clus>
<clus scale="  130.221">  1  7  2 -1</clus>
<clus scale="  205.163">  2 10  1 -1</clus>
<clus scale="   37.022">  2  5  1 -1</clus>
</clustering>
</event>
<event>
10    4  0.3043429E-005  0.1324980E+03  0.7546771E-02  0.1226551E+00
         21   -1    0    0  501  502  0.00000000000E+00  0.00000000000E+00  0.26717795155E+03  0.26717795155E+03  0.00000000000E+00 0. -1.
          2   -1    0    0  503    0 -0.00000000000E+00 -0.00000000000E+00 -0.41410496840E+03  0.41410496840E+03  0.00000000000E+00 0. -1.
         23    2    1    2    0    0  0.16335026476E+02 -0.61466601940E+02 -0.13814852071E+03  0.17721466221E+03  0.90967282485E+02 0.  0.
         24    2    1    2    0    0 -0.52732833997E+02  0.14908561532E+03 -0.17675149614E+03  0.25024081257E+03  0.79825437124E+02 0.  0.
        -13    1    4    4    0    0  0.13459543152E+01  0.52612812751E+02 -0.10766355019E+03  0.11983889059E+03  0.00000000000E+00 0.  1.
         14    1    4    4    0    0 -0.54078788313E+02  0.96472802564E+02 -0.69087945952E+02  0.13040192198E+03  0.00000000000E+00 0. -1.
        -13    1    3    3    0    0  0.40924998540E+02 -0.48204720399E+02 -0.39202960224E+02  0.74400421132E+02  0.00000000000E+00 0.  1.
         13    1    3    3    0    0 -0.24589972064E+02 -0.13261881541E+02 -0.98945560484E+02  0.10281424107E+03  0.00000000000E+00 0. -1.
         21    1    1    2  503  502  0.50004985462E+02  0.19618651181E+02  0.12758444329E+03  0.13843113889E+03  0.00000000000E+00 0. -1.
          1    1    1    2  501    0 -0.13607177941E+02 -0.10723766456E+03  0.40388556709E+02  0.11539630628E+03  0.00000000000E+00 0. -1.
<scales pt_clust_5="13000.00000" pt_clust_6="13000.00000" pt_clust_7="13000.00000" pt_clust_8="13000.00000" pt_clust_9="53.71583" pt_clust_10="97.08103"></scales>
<clustering>
<clus scale="   53.716">  1  9  2 -1</clus>
<clus scale="   79.825">  5  6 -1 -1</clus>
<clus scale="   90.967">  7  8 -1 -1</clus>
<clus scale="   97.081">  1 10  2 -1</clus>
<clus scale="  125.111">  1  5  2 -1</clus>
<clus scale="   53.716">  1  5  2 -1</clus>
</clustering>
</event>
<event>
10    4  0.3043429E-005  0.9838650E+02  0.7546771E-02  0.1288652E+00
         21   -1    0    0  501  502  0.00000000000E+00  0.00000000000E+00  0.20686822353E+03  0.20686822353E+03  0.00000000000E+00 0.  1.
          2   -1    0    0  503    0 -0.00000000000E+00 -0.00000000000E+00 -0.15770356168E+03  0.15770356168E+03  0.00000000000E+00 0. -1.
         24    2    1    2    0    0  0.39193495587E+02 -0.47173782499E+02 -0.50645983943E+02  0.11254611860E+03  0.79624853342E+02 0.  0.
         23    2    1    2    0    0 -0.22587858686E+02 -0.14462547594E+02  0.12752779653E+02  0.94140030846E+02  0.89332722873E+02 0.  0.
        -13    1    3    3    0    0  0.42886915633E+01 -0.39346090693E+02 -0.63255106853E+02  0.74617131217E+02  0.00000000000E+00 0.  1.
         14    1    3    3    0    0  0.34904804023E+02 -0.78276918064E+01  0.12609122910E+02  0.37928987378E+02  0.00000000000E+00 0. -1.
        -13    1    4    4    0    0  0.16010932359E+02 -0.21394551189E+02  0.38763579930E+02  0.47081757662E+02  0.00000000000E+00 0.  1.
         13    1    4    4    0    0 -0.38598791045E+02  0.69320035950E+01 -0.26010800277E+02  0.47058273184E+02  0.00000000000E+00 0. -1.
         21    1    1    2  503  502  0.81462193125E+01  0.53709702290E+02  0.11034286335E+03  0.12299040817E+03  0.00000000000E+00 0.  1.
          1    1    1    2  501    0 -0.24751856214E+02  0.79266278026E+01 -0.23284997213E+02  0.34895227604E+02  0.00000000000E+00 0. -1.
<scales pt_clust_5="13000.00000" pt_clust_6="13000.00000" pt_clust_7="13000.00000" pt_clust_8="13000.00000" pt_clust_9="58.63951" pt_clust_10="25.99012"></scales>
<clustering>
<clus scale="   25.990">  1 10  2 -1</clus>
<clus scale="   58.640">  1  9  2 -1</clus>
<clus scale="   79.625">  5  6 -1 -1</clus>
<clus scale="   89.333">  7  8 -1 -1</clus>
<clus scale="   89.664">  2  5  1 -1</clus>
<clus scale="   25.990">  1  5  2 -1</clus>
</clustering>
</event>
<event>
10    4  0.3043429E-005  0.1240815E+03  0.7546771E-02  0.1238315E+00
          2   -1    0    0  502    0 -0.00000000000E+00  0.00000000000E+00  0.60592312614E+03  0.60592312614E+03  0.00000000000E+00 0. -1.
         21   -1    0    0  503  502  0.00000000000E+00 -0.00000000000E+00 -0.77923487852E+02  0.77923487852E+02  0.00000000000E+00 0. -1.
         23    2    1    2    0    0 -0.20825058853E+02  0.92679732775E+02  0.37742306696E+03  0.39881036517E+03  0.87053546447E+02 0.  0.
         24    2    1    2    0    0 -0.11292116453E+02 -0.77746806429E+02  0.12107720717E+03  0.16528234122E+03  0.80538713777E+02 0.  0.
        -13    1    4    4    0    0 -0.14037528858E+02 -0.88033656242E+02  0.12534434283E+03  0.15381216183E+03  0.00000000000E+00 0.  1.
         14    1    4    4    0    0  0.27454124047E+01  0.10286849813E+02 -0.42671356576E+01  0.11470179383E+02  0.00000000000E+00 0. -1.
        -13    1    3    3    0    0  0.23547233872E+02  0.65752741957E+02  0.14888566905E+03  0.16445314757E+03  0.00000000000E+00 0.  1.
         13    1    3    3    0    0 -0.44372292725E+02  0.26926990818E+02  0.22853739791E+03  0.23435721760E+03  0.00000000000E+00 0. -1.
         21    1    1    2  503  501  0.36529561796E+02  0.38188447770E+02 -0.95162447925E+01  0.53696604576E+02  0.00000000000E+00 0. -1.
          1    1    1    2  501    0 -0.44123864891E+01 -0.53121374116E+02  0.39015608951E+02  0.66057303036E+02  0.00000000000E+00 0. -1.
<scales pt_clust_5="13000.00000" pt_clust_6="13000.00000" pt_clust_7="13000.00000" pt_clust_8="13000.00000" pt_clust_9="52.84663" pt_clust_10="42.43639"></scales>
<clustering>
<clus scale="   52.847">  2  9  1 -1</clus>
<clus scale="   42.436">  2 10  1 -1</clus>
<clus scale="   80.539">  5  6 -1 -1</clus>
<clus scale="   87.054">  7  8 -1 -1</clus>
<clus scale="  119.601">  2  5  1 -1</clus>
<clus scale="   52.847">  2  5  1 -1</clus>
</clustering>
</event>
<event>
10    4  0.3043429E-005  0.1009662E+03  0.7546771E-02  0.1279225E+00
         21   -1    0    0  501  502  0.00000000000E+00  0.00000000000E+00  0.16390264929E+03  0.16390264929E+03  0.00000000000E+00 0. -1.
          2   -1    0    0  503    0 -0.00000000000E+00 -0.00000000000E+00 -0.66511718333E+03  0.66511718333E+03  0.00000000000E+00 0. -1.
         24    2    1    2    0    0  0.50905902629E+02  0.14600453645E+02 -0.46010996209E+03  0.47019039084E+03  0.81075534301E+02 0.  0.
         23    2    1    2    0    0 -0.71906459804E+02 -0.13699435564E+01 -0.17287403392E+03  0.20492196492E+03  0.83277634423E+02 0.  0.
        -13    1    3    3    0    0  0.32986883564E+02 -0.32090162457E+02 -0.19038644683E+03  0.19586963049E+03  0.00000000000E+00 0.  1.
         14    1    3    3    0    0  0.17919019065E+02  0.46690616102E+02 -0.26972351526E+03  0.27432076035E+03  0.00000000000E+00 0. -1.
        -13    1    4    4    0    0 -0.32984461337E+02  0.38051336083E+02 -0.11089624588E+03  0.12179431931E+03  0.00000000000E+00 0. -1.
         13    1    4    4    0    0 -0.38921998467E+02 -0.39421279639E+02 -0.61977788042E+02  0.83127645603E+02  0.00000000000E+00 0.  1.
         21    1    1    2  503  502 -0.20808886593E+02 -0.27532450914E+02  0.68932356662E+02  0.77089009655E+02  0.00000000000E+00 0.  1.
          1    1    1    2  501    0  0.41809443769E+02  0.14301940826E+02  0.62837105303E+02  0.76818467197E+02  0.00000000000E+00 0. -1.
<scales pt_clust_5="13000.00000" pt_clust_6="13000.00000" pt_clust_7="13000.00000" pt_clust_8="13000.00000" pt_clust_9="34.51153" pt_clust_10="26.71607"></scales>
<clustering>
<clus scale="   34.512">  1  9  2 -1</clus>
<clus scale="   26.716">  1 10  2 -1</clus>
<clus scale="   81.076">  5  6 -1 -1</clus>
<clus scale="   83.278">  7  8 -1 -1</clus>
<clus scale="   99.158">  2  5  1 -1</clus>
<clus scale="   34.512">  1  5  2 -1</clus>
</clustering>
</event>
<event>
10    4  0.3043429E-005  0.1347781E+03  0.7546771E-02  0.1231995E+00
         21   -1    0    0  501  502  0.00000000000E+00  0.00000000000E+00  0.12020749506E+03  0.12020749506E+03  0.00000000000E+00 0. -1.
          2   -1    0    0  503    0 -0.00000000000E+00 -0.00000000000E+00 -0.40017825270E+03  0.40017825270E+03  0.00000000000E+00 0. -1.
         23    2    1    2    0    0  0.28241843619E+02 -0.49570739191E+02  0.13524070683E+02  0.10829865712E+03  0.91054042915E+02 0.  0.
         24    2    1    2    0    0  0.78044913972E+02 -0.13543465376E+02 -0.20435961053E+03  0.23295436475E+03  0.78933209675E+02 0.  0.
        -11    1    4    4    0    0  0.26831619999E+02  0.24536037755E+02 -0.29526864502E+02  0.46837898200E+02  0.00000000000E+00 0.  1.
         12    1    4    4    0    0  0.51213293974E+02 -0.38079503131E+02 -0.17483274602E+03  0.18611646655E+03  0.00000000000E+00 0. -1.
        -11    1    3    3    0    0 -0.19521783432E+02  0.91942006201E+01 -0.16162166374E+02  0.26960136782E+02  0.00000000000E+00 0.  1.
         11    1    3    3    0    0  0.47763627051E+02 -0.58764939811E+02  0.29686237057E+02  0.81338520337E+02  0.00000000000E+00 0. -1.
         21    1    1    2  503  502  0.11383370514E+02  0.28073389056E+02 -0.30803726359E+02  0.43203771305E+02  0.00000000000E+00 0. -1.
          1    1    1    2  501    0 -0.11767012810E+03  0.35040815511E+02 -0.58331491438E+02  0.13592895458E+03  0.00000000000E+00 0. -1.
<scales pt_clust_5="13000.00000" pt_clust_6="13000.00000" pt_clust_7="13000.00000" pt_clust_8="13000.00000" pt_clust_9="30.29350" pt_clust_10="109.24593"></scales>
<clustering>
<clus scale="   30.294">  2  9  1 -1</clus>
<clus scale="   78.933">  5  6 -1 -1</clus>
<clus scale="   91.054">  7  8 -1 -1</clus>
<clus scale="  106.217">  2  7  1 -1</clus>
<clus scale="  109.246">  1 10  2 -1</clus>
<clus scale="  109.246">  1  5  2 -1</clus>
</clustering>
</event>
<event>
10    4  0.3043429E-005  0.1332179E+03  0.7546771E-02  0.1244155E+00
          4   -1    0    0  503    0 -0.00000000000E+00  0.00000000000E+00  0.67286997003E+03  0.67286997003E+03  0.00000000000E+00 0. -1.
         21   -1    0    0  501  502  0.00000000000E+00 -0.00000000000E+00 -0.17368210433E+03  0.17368210433E+03  0.00000000000E+00 0. -1.
         24    2    1    2    0    0 -0.25277827919E+02  0.15507996865E+02 -0.78409930475E+02  0.11645877530E+03  0.80839734018E+02 0.  0.
         23    2    1    2    0    0  0.46550384254E+02  0.81558857789E+02 -0.26490265794E+01  0.13138497251E+03  0.91848832882E+02 0.  0.
        -11    1    3    3    0    0 -0.41560868103E+02  0.24521186170E+02 -0.15240888741E+02  0.50605128379E+02  0.00000000000E+00 0.  1.
         12    1    3    3    0    0  0.16283040184E+02 -0.90131893046E+01 -0.63169041734E+02  0.65853646920E+02  0.00000000000E+00 0. -1.
        -11    1    4    4    0    0 -0.67952694073E+01  0.50954990961E+02  0.32237661465E+02  0.60678279531E+02  0.00000000000E+00 0. -1.
         11    1    4    4    0    0  0.53345653661E+02  0.30603866829E+02 -0.34886688045E+02  0.70706692980E+02  0.00000000000E+00 0.  1.
         21    1    1    2  503  502  0.30374307715E+02  0.67969662117E+01  0.10546479852E+03  0.10996190725E+03  0.00000000000E+00 0. -1.
          3    1    1    2  501    0 -0.51646864050E+02 -0.10386382087E+03  0.47478202423E+03  0.48874641931E+03  0.00000000000E+00 0. -1.
<scales pt_clust_5="13000.00000" pt_clust_6="13000.00000" pt_clust_7="13000.00000" pt_clust_8="13000.00000" pt_clust_9="31.12551" pt_clust_10="96.49254"></scales>
<clustering>
<clus scale="   31.126">  1  9  2 -1</clus>
<clus scale="   80.840">  5  6 -1 -1</clus>
<clus scale="   85.855">  1  5  2 -1</clus>
<clus scale="   91.849">  7  8 -1 -1</clus>
<clus scale="   96.493">  2 10  1 -1</clus>
<clus scale="   96.493">  2  5  1 -1</clus>
</clustering>
</event>
<event>
10    4  0.3043429E-005  0.1794109E+03  0.7546771E-02  0.1198633E+00
         21   -1    0    0  503  502  0.00000000000E+00  0.00000000000E+00  0.78702733903E+03  0.78702733903E+03  0.00000000000E+00 0. -1.
         -3   -1    0    0    0  501 -0.00000000000E+00 -0.00000000000E+00 -0.12183259928E+03  0.12183259928E+03  0.00000000000E+00 0.  1.
         24    2    1    2    0    0  0.25081670103E+02 -0.33581203810E+02  0.69133584255E+02  0.11509233120E+03  0.81914618999E+02 0.  0.
         23    2    1    2    0    0 -0.27263505116E+02  0.15324234443E+03  0.57977356916E+03  0.60729010517E+03  0.91855133265E+02 0.  0.
        -13    1    3    3    0    0  0.30499314005E+02 -0.58027810208E+02  0.58595903537E+02  0.87925620974E+02  0.00000000000E+00 0.  1.
         14    1    3    3    0    0 -0.54176439020E+01  0.24446606398E+02  0.10537680718E+02  0.27166710231E+02  0.00000000000E+00 0. -1.
        -13    1    4    4    0    0  0.24583447021E+02  0.18839427313E+02  0.17325979092E+03  0.17600632102E+03  0.00000000000E+00 0.  1.
         13    1    4    4    0    0 -0.51846952137E+02  0.13440291712E+03  0.40651377823E+03  0.43128378415E+03  0.00000000000E+00 0. -1.
         21    1    1    2  503  501 -0.22948569865E+02  0.63565212004E+00  0.53380614560E+02  0.58107924789E+02  0.00000000000E+00 0. -1.
         -4    1    1    2    0  502  0.25130404878E+02 -0.12029679274E+03 -0.37093028223E+02  0.12836957714E+03  0.00000000000E+00 0.  1.
<scales pt_clust_5="13000.00000" pt_clust_6="13000.00000" pt_clust_7="13000.00000" pt_clust_8="13000.00000" pt_clust_9="22.95737" pt_clust_10="154.11342"></scales>
<clustering>
<clus scale="   22.957">  1  9  2 -1</clus>
<clus scale="   81.915">  5  6 -1 -1</clus>
<clus scale="   91.240">  2  5  1 -1</clus>
<clus scale="   91.855">  7  8 -1 -1</clus>
<clus scale="  154.113">  1 10  2 -1</clus>
<clus scale="   22.957">  1  5  2 -1</clus>
</clustering>
</event>
<event>
10    4  0.3043429E-005  0.1385234E+03  0.7546771E-02  0.1235280E+00
          2   -1    0    0  502    0 -0.00000000000E+00  0.00000000000E+00  0.51652257190E+03  0.51652257190E+03  0.00000000000E+00 0. -1.
         21   -1    0    0  503  502  0.00000000000E+00 -0.00000000000E+00 -0.10343053009E+03  0.10343053009E+03  0.00000000000E+00 0. -1.
         24    2    1    2    0    0  0.12179989161E+02 -0.41208684606E+02  0.27458177666E+03  0.28932411080E+03  0.80416299279E+02 0.  0.
         23    2    1    2    0    0  0.30096662917E+02  0.11197607317E+03  0.10297401345E+03  0.18071419249E+03  0.92787509062E+02 0.  0.
        -13    1    3    3    0    0  0.94427946205E+01 -0.45598791741E+02  0.66527082074E+02  0.81205103459E+02  0.00000000000E+00 0.  1.
         14    1    3    3    0    0  0.27371945408E+01  0.43901071349E+01  0.20805469459E+03  0.20811900734E+03  0.00000000000E+00 0. -1.
        -13    1    4    4    0    0  0.58022928196E+02  0.10270559750E+03  0.73064235374E+02  0.13875691855E+03  0.00000000000E+00 0. -1.
         13    1    4    4    0    0 -0.27926265279E+02  0.92704756705E+01  0.29909778078E+02  0.41957273937E+02  0.00000000000E+00 0.  1.
         21    1    1    2  503  501  0.34786920275E+02  0.46357787507E+01 -0.34553127175E+01  0.35264138340E+02  0.00000000000E+00 0. -1.
          1    1    1    2  501    0 -0.77063572353E+02 -0.75403167318E+02  0.38991564414E+02  0.11465066036E+03  0.00000000000E+00 0. -1.
<scales pt_clust_5="13000.00000" pt_clust_6="13000.00000" pt_clust_7="13000.00000" pt_clust_8="13000.00000" pt_clust_9="35.09445" pt_clust_10="102.85533"></scales>
<clustering>
<clus scale="   35.094">  2  9  1 -1</clus>
<clus scale="   80.416">  5  6 -1 -1</clus>
<clus scale="   91.452">  1  5  2 -1</clus>
<clus scale="   92.788">  7  8 -1 -1</clus>
<clus scale="  102.855">  2 10  1 -1</clus>
<clus scale="   35.094">  2  5  1 -1</clus>
</clustering>
</event>
<event>
10    4  0.3043429E-005  0.1658992E+03  0.7546771E-02  0.1183182E+00
         21   -1    0    0  503  502  0.00000000000E+00  0.00000000000E+00  0.37132162734E+03  0.37132162734E+03  0.00000000000E+00 0. -1.
         -1   -1    0    0    0  501 -0.00000000000E+00 -0.00000000000E+00 -0.30853350439E+03  0.30853350439E+03  0.00000000000E+00 0.  1.
         24    2    1    2    0    0  0.11899400229E+03  0.45799551290E+02  0.45062713016E+02  0.15765108516E+03  0.81031136417E+02 0.  0.
         23    2    1    2    0    0 -0.16775098191E+03  0.21418019617E+02  0.74705143719E+02  0.20478546120E+03  0.88074418103E+02 0.  0.
        -11    1    3    3    0    0  0.26079181381E+02 -0.22780631003E+02  0.30451851433E+01  0.34761386666E+02  0.00000000000E+00 0.  1.
         12    1    3    3    0    0  0.92914820906E+02  0.68580182293E+02  0.42017527872E+02  0.12288969849E+03  0.00000000000E+00 0. -1.
        -13    1    4    4    0    0 -0.48269413697E+02  0.46601520641E+02  0.14499939011E+02  0.68643180696E+02  0.00000000000E+00 0.  1.
         13    1    4    4    0    0 -0.11948156822E+03 -0.25183501024E+02  0.60205204708E+02  0.13614228051E+03  0.00000000000E+00 0. -1.
         21    1    1    2  503  501  0.11343911878E+03 -0.69300498653E+02  0.87473875930E+02  0.15913098929E+03  0.00000000000E+00 0. -1.
         -2    1    1    2    0  502 -0.64682139155E+02  0.20829277458E+01 -0.14445360971E+03  0.15828759608E+03  0.00000000000E+00 0.  1.
<scales pt_clust_5="13000.00000" pt_clust_6="13000.00000" pt_clust_7="13000.00000" pt_clust_8="13000.00000" pt_clust_9="114.39970" pt_clust_10="64.71570"></scales>
<clustering>
<clus scale="   64.716">  1 10  2 -1</clus>
<clus scale="   81.031">  5  6 -1 -1</clus>
<clus scale="   88.074">  7  8 -1 -1</clus>
<clus scale="  114.400">  1  9  2 -1</clus>
<clus scale="  162.270">  2  5  1 -1</clus>
<clus scale="   64.716">  1  5  2 -1</clus>
</clustering>
</event>
<event>
10    4  0.3043429E-005  0.1198629E+03  0.7546771E-02  0.1246935E+00
         -1   -1    0    0    0  501 -0.00000000000E+00  0.00000000000E+00  0.18460035848E+03  0.18460035848E+03  0.00000000000E+00 0.  1.
         21   -1    0    0  503  502  0.00000000000E+00 -0.00000000000E+00 -0.21088720363E+03  0.21088720363E+03  0.00000000000E+00 0. -1.
         23    2    1    2    0    0 -0.24548014145E+02 -0.90244240532E+02  0.73650432217E+02  0.14962366334E+03  0.90643403060E+02 0.  0.
         24    2    1    2    0    0  0.20085113592E+02  0.46202788589E+02 -0.40851509873E+02  0.10236214878E+03  0.79189987888E+02 0.  0.
        -11    1    4    4    0    0  0.41526069436E+01 -0.21733179673E+02 -0.19215891379E+02  0.29305728529E+02  0.00000000000E+00 0.  1.
         12    1    4    4    0    0  0.15932506648E+02  0.67935968261E+02 -0.21635618494E+02  0.73056420247E+02  0.00000000000E+00 0. -1.
        -13    1    3    3    0    0  0.33949703508E+02 -0.36180002472E+02  0.19516811162E+02  0.53314921599E+02  0.00000000000E+00 0. -1.
         13    1    3    3    0    0 -0.58497717653E+02 -0.54064238060E+02  0.54133621055E+02  0.96308741743E+02  0.00000000000E+00 0.  1.
         21    1    1    2  503  501  0.54420461326E+02  0.20701334972E+01 -0.56098366535E+02  0.78185029204E+02  0.00000000000E+00 0. -1.
         -2    1    1    2    0  502 -0.49957560773E+02  0.41971318446E+02 -0.29874009545E+01  0.65316720792E+02  0.00000000000E+00 0.  1.
<scales pt_clust_5="13000.00000" pt_clust_6="13000.00000" pt_clust_7="13000.00000" pt_clust_8="13000.00000" pt_clust_9="54.45982" pt_clust_10="56.33995"></scales>
<clustering>
<clus scale="   54.460">  2  9  1 -1</clus>
<clus scale="   56.340">  2 10  1 -1</clus>
<clus scale="   79.190">  5  6 -1 -1</clus>
<clus scale="   90.643">  7  8 -1 -1</clus>
<clus scale="  111.454">  2  5  1 -1</clus>
<clus scale="   54.460">  2  5  1 -1</clus>
</clustering>
</event>
<event>
10    4  0.3043429E-005  0.9682275E+02  0.7546771E-02  0.1290569E+00
         -3   -1    0    0    0  501 -0.00000000000E+00  0.00000000000E+00  0.45376680801E+02  0.45376680801E+02  0.00000000000E+00 0.  1.
         21   -1    0    0  503  502  0.00000000000E+00 -0.00000000000E+00 -0.94650995900E+03  0.94650995900E+03  0.00000000000E+00 0. -1.
         23    2    1    2    0    0  0.14764555776E+02  0.40426240906E+02 -0.99377783111E+02  0.13964496903E+03  0.88161786153E+02 0.  0.
         24    2    1    2    0    0 -0.74194347984E+02  0.12759964964E+02 -0.56409283032E+03  0.57489444769E+03  0.81457269723E+02 0.  0.
        -13    1    4    4    0    0 -0.26684776787E+02 -0.27254799968E+02 -0.10689671439E+03  0.11349805717E+03  0.00000000000E+00 0.  1.
         14    1    4    4    0    0 -0.47509571197E+02  0.40014764932E+02 -0.45719611593E+03  0.46139639053E+03  0.00000000000E+00 0. -1.
        -11    1    3    3    0    0 -0.10136411336E+01 -0.26967341709E+02 -0.41070218855E+02  0.49142933002E+02  0.00000000000E+00 0. -1.
         11    1    3    3    0    0  0.15778196909E+02  0.67393582615E+02 -0.58307564255E+02  0.90502036026E+02  0.00000000000E+00 0.  1.
         21    1    1    2  503  501  0.61365888609E+01 -0.69496173735E+02 -0.19516439070E+03  0.20725953605E+03  0.00000000000E+00 0.  1.
         -4    1    1    2    0  502  0.53293203348E+02  0.16309967864E+02 -0.42498274074E+02  0.70087687036E+02  0.00000000000E+00 0.  1.
<scales pt_clust_5="13000.00000" pt_clust_6="13000.00000" pt_clust_7="13000.00000" pt_clust_8="13000.00000" pt_clust_9="68.27525" pt_clust_10="55.73315"></scales>
<clustering>
<clus scale="   55.733">  2 10  1 -1</clus>
<clus scale="   68.275">  2  9  1 -1</clus>
<clus scale="   81.457">  5  6 -1 -1</clus>
<clus scale="   88.162">  7  8 -1 -1</clus>
<clus scale="   90.760">  2  5  1 -1</clus>
<clus scale="   55.733">  2  5  1 -1</clus>
</clustering>
</event>
<event>
10    4  0.3043429E-005  0.1501125E+03  0.7546771E-02  0.1221845E+00
          2   -1    0    0  503    0 -0.00000000000E+00  0.00000000000E+00  0.59094112414E+03  0.59094112414E+03  0.00000000000E+00 0. -1.
         21   -1    0    0  501  502  0.00000000000E+00 -0.00000000000E+00 -0.45399751288E+03  0.45399751288E+03  0.00000000000E+00 0. -1.
         23    2    1    2    0    0  0.82438393447E+01 -0.32480852544E+02  0.39361010588E+02  0.10451666672E+03  0.90837645278E+02 0.  0.
         24    2    1    2    0    0 -0.24962721987E+02  0.14754820338E+03  0.45187853534E+03  0.48266674187E+03  0.79870915813E+02 0.  0.
        -11    1    4    4    0    0  0.23243758350E+02  0.78287312517E+02  0.17310994774E+03  0.19140592888E+03  0.00000000000E+00 0.  1.
         12    1    4    4    0    0 -0.48206480337E+02  0.69260890864E+02  0.27876858760E+03  0.29126081299E+03  0.00000000000E+00 0. -1.
        -13    1    3    3    0    0  0.21255935572E+02 -0.59489463728E+02  0.39558289068E+02  0.74536362439E+02  0.00000000000E+00 0. -1.
         13    1    3    3    0    0 -0.13012096227E+02  0.27008611183E+02 -0.19727848020E+00  0.29980304286E+02  0.00000000000E+00 0.  1.
         21    1    1    2  503  502 -0.15690992826E+02  0.72580614737E+02 -0.26847641995E+02  0.78961691801E+02  0.00000000000E+00 0. -1.
          1    1    1    2  501    0  0.32409875468E+02 -0.18764796557E+03 -0.32744829268E+03  0.37879353663E+03  0.00000000000E+00 0. -1.
<scales pt_clust_5="13000.00000" pt_clust_6="13000.00000" pt_clust_7="13000.00000" pt_clust_8="13000.00000" pt_clust_9="74.25734" pt_clust_10="127.09998"></scales>
<clustering>
<clus scale="   74.257">  2  9  1 -1</clus>
<clus scale="   79.871">  5  6 -1 -1</clus>
<clus scale="   90.838">  7  8 -1 -1</clus>
<clus scale="   94.904">  1  7  2 -1</clus>
<clus scale="  127.100">  2 10  1 -1</clus>
<clus scale="   74.257">  2  5  1 -1</clus>
</clustering>
</event>
<event>
10    4  0.3043429E-005  0.1239542E+03  0.7546771E-02  0.1241959E+00
         21   -1    0    0  501  502  0.00000000000E+00  0.00000000000E+00  0.12772871867E+03  0.12772871867E+03  0.00000000000E+00 0. -1.
          4   -1    0    0  503    0 -0.00000000000E+00 -0.00000000000E+00 -0.42312502035E+03  0.42312502035E+03  0.00000000000E+00 0. -1.
         24    2    1    2    0    0 -0.18329179120E+02  0.86459427090E+02 -0.31427896768E+03  0.33568584523E+03  0.78118665017E+02 0.  0.
         23    2    1    2    0    0 -0.26612047215E+02 -0.17976815323E+02  0.48285750507E+02  0.11143119376E+03  0.95152668357E+02 0.  0.
        -11    1    3    3    0    0  0.11065891674E+02  0.47306274826E+02 -0.25110093675E+03  0.25575773309E+03  0.00000000000E+00 0.  1.
         12    1    3    3    0    0 -0.29395070794E+02  0.39153152264E+02 -0.63178030928E+02  0.79928112146E+02  0.00000000000E+00 0. -1.
        -13    1    4    4    0    0  0.13242471552E+02 -0.25598311878E+02 -0.17805878473E+02  0.33877513663E+02  0.00000000000E+00 0.  1.
         13    1    4    4    0    0 -0.39854518767E+02  0.76214965547E+01  0.66091628980E+02  0.77553680100E+02  0.00000000000E+00 0. -1.
         21    1    1    2  503  502  0.42332803184E+02 -0.47765511282E+02  0.44305874297E+01  0.63978436980E+02  0.00000000000E+00 0.  1.
          3    1    1    2  501    0  0.26084231516E+01 -0.20717100485E+02 -0.33833671932E+02  0.39758263043E+02  0.00000000000E+00 0. -1.
<scales pt_clust_5="13000.00000" pt_clust_6="13000.00000" pt_clust_7="13000.00000" pt_clust_8="13000.00000" pt_clust_9="68.62578" pt_clust_10="20.88067"></scales>
<clustering>
<clus scale="   20.881">  1 10  2 -1</clus>
<clus scale="   68.626">  1  9  2 -1</clus>
<clus scale="   78.119">  5  6 -1 -1</clus>
<clus scale="   95.153">  7  8 -1 -1</clus>
<clus scale="  111.414">  2  5  1 -1</clus>
<clus scale="   20.881">  1  5  2 -1</clus>
</clustering>
</event>
<event>
10    4  0.3043429E-005  0.2141819E+03  0.7546771E-02  0.1163711E+00
         21   -1    0    0  501  502  0.00000000000E+00  0.00000000000E+00  0.21483437964E+03  0.21483437964E+03  0.00000000000E+00 0.  1.
         -3   -1    0    0    0  501 -0.00000000000E+00 -0.00000000000E+00 -0.48215230898E+03  0.48215230898E+03  0.00000000000E+00 0.  1.
         24    2    1    2    0    0 -0.78056310291E+02 -0.15406557711E+02 -0.55178776621E+02  0.12717498901E+03  0.82453810366E+02 0.  0.
         23    2    1    2    0    0  0.17572295906E+03  0.16976084604E+03 -0.25778242402E+03  0.36914246749E+03  0.10058369642E+03 0.  0.
        -13    1    3    3    0    0 -0.93887451746E+02 -0.44660877248E+01 -0.52735664221E+02  0.10777685195E+03  0.00000000000E+00 0.  1.
         14    1    3    3    0    0  0.15831141456E+02 -0.10940469986E+02 -0.24431123998E+01  0.19398137063E+02  0.00000000000E+00 0. -1.
        -11    1    4    4    0    0  0.55386740857E+02  0.90802400778E+02 -0.52985375785E+02  0.11882851971E+03  0.00000000000E+00 0. -1.
         11    1    4    4    0    0  0.12033621820E+03  0.78958445264E+02 -0.20479704823E+03  0.25031394778E+03  0.00000000000E+00 0.  1.
         21    1    1    2  503  502 -0.22579572201E+02  0.73085161436E+00  0.10045542095E+02  0.24724161074E+02  0.00000000000E+00 0. -1.
         -4    1    1    2    0  503 -0.75087076567E+02 -0.15508513994E+03  0.35597729204E+02  0.17594507104E+03  0.00000000000E+00 0.  1.
<scales pt_clust_5="13000.00000" pt_clust_6="13000.00000" pt_clust_7="13000.00000" pt_clust_8="13000.00000" pt_clust_9="22.59140" pt_clust_10="189.09466"></scales>
<clustering>
<clus scale="   22.591">  1  9  2 -1</clus>
<clus scale="   82.454">  5  6 -1 -1</clus>
<clus scale="  100.584">  7  8 -1 -1</clus>
<clus scale="  117.407">  2  5  1 -1</clus>
<clus scale="  189.095">  1 10  2 -1</clus>
<clus scale="   22.591">  1  5  2 -1</clus>
</clustering>
</event>
<event>
10    4  0.3043429E-005  0.1301587E+03  0.7546771E-02  0.1243078E+00
         21   -1    0    0  503  502  0.00000000000E+00  0.00000000000E+00  0.36447085905E+03  0.36447085905E+03  0.00000000000E+00 0. -1.
          2   -1    0    0  502    0 -0.00000000000E+00 -0.00000000000E+00 -0.21316555052E+03  0.21316555052E+03  0.00000000000E+00 0. -1.
         24    2    1    2    0    0  0.24121249873E+01 -0.48737724144E+02  0.10335833843E+03  0.13976043449E+03  0.80429154075E+02 0.  0.
         23    2    1    2    0    0 -0.10160756306E+03 -0.73443144248E+01  0.24194133352E+02  0.13485322811E+03  0.84982358267E+02 0.  0.
        -13    1    3    3    0    0 -0.13673548850E+02  0.15792240113E+02  0.57802190767E+01  0.21674217829E+02  0.00000000000E+00 0.  1.
         14    1    3    3    0    0  0.16085673837E+02 -0.64529964256E+02  0.97578119352E+02  0.11808621666E+03  0.00000000000E+00 0. -1.
        -13    1    4    4    0    0 -0.22854998848E+02  0.27986387504E+02  0.31894240381E+02  0.48195761508E+02  0.00000000000E+00 0. -1.
         13    1    4    4    0    0 -0.78752564216E+02 -0.35330701929E+02 -0.77001070294E+01  0.86657466601E+02  0.00000000000E+00 0.  1.
         21    1    1    2  503  501  0.12008164459E+02  0.96921781269E+02  0.12807500156E+03  0.16106282539E+03  0.00000000000E+00 0. -1.
          1    1    1    2  501    0  0.87187273618E+02 -0.40839742701E+02 -0.10432216481E+03  0.14195992158E+03  0.00000000000E+00 0. -1.
<scales pt_clust_5="13000.00000" pt_clust_6="13000.00000" pt_clust_7="13000.00000" pt_clust_8="13000.00000" pt_clust_9="93.59870" pt_clust_10="98.58655"></scales>
<clustering>
<clus scale="   80.429">  5  6 -1 -1</clus>
<clus scale="   84.982">  7  8 -1 -1</clus>
<clus scale="   94.075">  2  5  1 -1</clus>
<clus scale="   93.599">  1  9  2 -1</clus>
<clus scale="   98.587">  1 10  2 -1</clus>
<clus scale="   93.599">  1  5  2 -1</clus>
</clustering>
</event>
<event>
10    4  0.3043429E-005  0.3697998E+03  0.7546771E-02  0.1071834E+00
          2   -1    0    0  503    0 -0.00000000000E+00  0.00000000000E+00  0.19186461475E+04  0.19186461475E+04  0.00000000000E+00 0. -1.
         21   -1    0    0  501  502  0.00000000000E+00 -0.00000000000E+00 -0.42000600909E+03  0.42000600909E+03  0.00000000000E+00 0.  1.
         24    2    1    2    0    0  0.21418965629E+03  0.10804696191E+02  0.61303010879E+03  0.65440841483E+03  0.80315059550E+02 0.  0.
         23    2    1    2    0    0  0.21414962509E+03 -0.12354540229E+03  0.46537481348E+02  0.26773700010E+03  0.91617878712E+02 0.  0.
        -13    1    3    3    0    0  0.55298463647E+02  0.31286214208E+02  0.24334864029E+03  0.25150607948E+03  0.00000000000E+00 0.  1.
         14    1    3    3    0    0  0.15889119265E+03 -0.20481518017E+02  0.36968146850E+03  0.40290233535E+03  0.00000000000E+00 0. -1.
        -11    1    4    4    0    0  0.10564709749E+03 -0.95754443605E+01  0.24134541987E+02  0.10879096681E+03  0.00000000000E+00 0.  1.
         11    1    4    4    0    0  0.10850252760E+03 -0.11396995793E+03  0.22402939361E+02  0.15894603329E+03  0.00000000000E+00 0. -1.
         21    1    1    2  503  502 -0.45603316143E+03  0.32488440363E+03  0.97261143704E+01  0.56000956898E+03  0.00000000000E+00 0.  1.
          1    1    1    2  501    0  0.27693880049E+02 -0.21214369752E+03  0.82934643391E+03  0.85649717269E+03  0.00000000000E+00 0. -1.
<scales pt_clust_5="13000.00000" pt_clust_6="13000.00000" pt_clust_7="13000.00000" pt_clust_8="13000.00000" pt_clust_9="358.27093" pt_clust_10="213.94379"></scales>
<clustering>
<clus scale="   80.315">  5  6 -1 -1</clus>
<clus scale="   91.618">  7  8 -1 -1</clus>
<clus scale="  213.944">  2 10  1 -1</clus>
<clus scale="  230.073">  1  5  2 -1</clus>
<clus scale="  358.271">  2  9  1 -1</clus>
<clus scale="  213.944">  2  5  1 -1</clus>
</clustering>
</event>
<event>
10    4  0.3043429E-005  0.1753501E+03  0.7546771E-02  0.1196636E+00
          2   -1    0    0  502    0 -0.00000000000E+00  0.00000000000E+00  0.74478930830E+03  0.74478930830E+03  0.00000000000E+00 0. -1.
         21   -1    0    0  503  502  0.00000000000E+00 -0.00000000000E+00 -0.92081050353E+02  0.92081050353E+02  0.00000000000E+00 0.  1.
         23    2    1    2    0    0 -0.33891411445E+02  0.74176297023E+01  0.11505515691E+03  0.15301141993E+03  0.94716189203E+02 0.  0.
         24    2    1    2    0    0  0.91125917499E+02 -0.12459429281E+03  0.15915872078E+03  0.23543694291E+03  0.79192076905E+02 0.  0.
        -11    1    4    4    0    0  0.71714179581E+02 -0.12243275002E+03  0.10121667196E+03  0.17429147000E+03  0.00000000000E+00 0.  1.
         12    1    4    4    0    0  0.19411737918E+02 -0.21615427872E+01  0.57942048816E+02  0.61145472908E+02  0.00000000000E+00 0. -1.
        -13    1    3    3    0    0 -0.10644765977E+01  0.31895933770E+02  0.11114007878E+01  0.31933037958E+02  0.00000000000E+00 0.  1.
         13    1    3    3    0    0 -0.32826934848E+02 -0.24478304068E+02  0.11394375613E+03  0.12107838197E+03  0.00000000000E+00 0. -1.
         21    1    1    2  503  501 -0.15733118220E+02 -0.29781681138E+02 -0.64507101489E+01  0.34294186122E+02  0.00000000000E+00 0.  1.
          1    1    1    2  501    0 -0.41501387833E+02  0.14695834424E+03  0.38494509041E+03  0.41412780970E+03  0.00000000000E+00 0. -1.
<scales pt_clust_5="13000.00000" pt_clust_6="13000.00000" pt_clust_7="13000.00000" pt_clust_8="13000.00000" pt_clust_9="33.68204" pt_clust_10="156.44904"></scales>
<clustering>
<clus scale="   33.682">  2  9  1 -1</clus>
<clus scale="   79.192">  5  6 -1 -1</clus>
<clus scale="   94.716">  7  8 -1 -1</clus>
<clus scale="  102.076">  1  7  2 -1</clus>
<clus scale="  156.449">  2 10  1 -1</clus>
<clus scale="   33.682">  2  5  1 -1</clus>
</clustering>
</event>
<event>
10    4  0.3043429E-005  0.2140824E+03  0.7546771E-02  0.1139359E+00
          2   -1    0    0  503    0 -0.00000000000E+00  0.00000000000E+00  0.15520733354E+03  0.15520733354E+03  0.00000000000E+00 0. -1.
         21   -1    0    0  501  502  0.00000000000E+00 -0.00000000000E+00 -0.57383100558E+03  0.57383100558E+03  0.00000000000E+00 0.  1.
         23    2    1    2    0    0  0.18492766172E+03 -0.48418748292E+02 -0.25292777052E+02  0.21364876497E+03  0.91997037707E+02 0.  0.
         24    2    1    2    0    0 -0.18806214027E+03  0.58786988479E+02 -0.14366094277E+03  0.25649914278E+03  0.79561706584E+02 0.  0.
        -13    1    4    4    0    0 -0.14419670233E+03  0.69172488107E+02 -0.13767393686E+03  0.21102519983E+03  0.00000000000E+00 0.  1.
         14    1    4    4    0    0 -0.43865437935E+02 -0.10385499629E+02 -0.59870059140E+01  0.45473942952E+02  0.00000000000E+00 0. -1.
        -11    1    3    3    0    0  0.96963038600E+02  0.92282214635E+00 -0.51006537931E+02  0.10956436176E+03  0.00000000000E+00 0.  1.
         11    1    3    3    0    0  0.87964623123E+02 -0.49341570438E+02  0.25713760879E+02  0.10408440322E+03  0.00000000000E+00 0. -1.
         21    1    1    2  503  502 -0.65200201440E+01  0.22161217622E+02 -0.37645998539E+02  0.44168443885E+02  0.00000000000E+00 0.  1.
          1    1    1    2  501    0  0.96544986894E+01 -0.32529457810E+02 -0.21202395368E+03  0.21472198748E+03  0.00000000000E+00 0. -1.
<scales pt_clust_5="13000.00000" pt_clust_6="13000.00000" pt_clust_7="13000.00000" pt_clust_8="13000.00000" pt_clust_9="23.10044" pt_clust_10="24.68296"></scales>
<clustering>
<clus scale="   23.100">  2  9  1 -1</clus>
<clus scale="   24.683">  2 10  1 -1</clus>
<clus scale="   79.562">  5  6 -1 -1</clus>
<clus scale="   91.997">  7  8 -1 -1</clus>
<clus scale="  209.040">  2  5  1 -1</clus>
<clus scale="   23.100">  2  5  1 -1</clus>
</clustering>
</event>
<event>
10    4  0.3043429E-005  0.4174054E+03  0.7546771E-02  0.1087744E+00
          2   -1    0    0  502    0 -0.00000000000E+00  0.00000000000E+00  0.10787573260E+04  0.10787573260E+04  0.00000000000E+00 0. -1.
         21   -1    0    0  503  502  0.00000000000E+00 -0.00000000000E+00 -0.51380358310E+03  0.51380358310E+03  0.00000000000E+00 0.  1.
         24    2    1    2    0    0  0.42206218031E+02 -0.51934903692E+02  0.51602690888E+03  0.52644308109E+03  0.79874575899E+02 0.  0.
         23    2    1    2    0    0  0.28820966066E+03 -0.45621706985E+02 -0.18471232032E+03  0.35750783620E+03  0.92450327278E+02 0.  0.
        -13    1    3    3    0    0  0.31850006935E+02 -0.72318167201E+02  0.44049283013E+03  0.44752460675E+03  0.00000000000E+00 0.  1.
         14    1    3    3    0    0  0.10356211096E+02  0.20383263508E+02  0.75534078747E+02  0.78918474337E+02  0.00000000000E+00 0. -1.
        -13    1    4    4    0    0  0.24382141505E+03 -0.52207888150E+02 -0.11497281897E+03  0.27457839523E+03  0.00000000000E+00 0.  1.
         13    1    4    4    0    0  0.44388245611E+02  0.65861811650E+01 -0.69739501347E+02  0.82929440966E+02  0.00000000000E+00 0. -1.
         21    1    1    2  503  501  0.13925847685E+03 -0.72413947233E+02 -0.52284670599E+00  0.15696170392E+03  0.00000000000E+00 0. -1.
          1    1    1    2  501    0 -0.46967435555E+03  0.16997055791E+03  0.23416200105E+03  0.55164828791E+03  0.00000000000E+00 0. -1.
<scales pt_clust_5="13000.00000" pt_clust_6="13000.00000" pt_clust_7="13000.00000" pt_clust_8="13000.00000" pt_clust_9="165.61810" pt_clust_10="407.03855"></scales>
<clustering>
<clus scale="   79.875">  5  6 -1 -1</clus>
<clus scale="   92.450">  7  8 -1 -1</clus>
<clus scale="  104.204">  1  5  2 -1</clus>
<clus scale="  165.618">  2  9  1 -1</clus>
<clus scale="  407.039">  2 10  1 -1</clus>
<clus scale="  165.618">  2  5  1 -1</clus>
</clustering>
</event>
<event>
10    4  0.3043429E-005  0.1028805E+03  0.7546771E-02  0.1279617E+00
         21   -1    0    0  501  502  0.00000000000E+00  0.00000000000E+00  0.11877643560E+03  0.11877643560E+03  0.00000000000E+00 0.  1.
          2   -1    0    0  503    0 -0.00000000000E+00 -0.00000000000E+00 -0.53551505264E+03  0.53551505264E+03  0.00000000000E+00 0. -1.
         24    2    1    2    0    0 -0.18955134866E+02  0.71714688888E+02 -0.19385185136E+03  0.22242147938E+03  0.79940480837E+02 0.  0.
         23    2    1    2    0    0 -0.44396577295E+02  0.20858944936E+01 -0.58429736388E+02  0.11709068106E+03  0.91218344999E+02 0.  0.
        -13    1    3    3    0    0 -0.35396549086E+02  0.81878677068E+02 -0.16707779519E+03  0.18939911058E+03  0.00000000000E+00 0.  1.
         14    1    3    3    0    0  0.16441414221E+02 -0.10163988180E+02 -0.26774056170E+02  0.33022368799E+02  0.00000000000E+00 0. -1.
        -13    1    4    4    0    0 -0.72114401999E+02 -0.28407189527E+01 -0.49655945211E+02  0.87602908369E+02  0.00000000000E+00 0.  1.
         13    1    4    4    0    0  0.27717824704E+02  0.49266134463E+01 -0.87737911767E+01  0.29487772686E+02  0.00000000000E+00 0. -1.
         21    1    1    2  503  502  0.49889077961E+02  0.15283678386E+01  0.59760962828E+02  0.77862883881E+02  0.00000000000E+00 0.  1.
          1    1    1    2  501    0  0.13462634199E+02 -0.75328951220E+02 -0.22421799212E+03  0.23691644393E+03  0.00000000000E+00 0. -1.
<scales pt_clust_5="13000.00000" pt_clust_6="13000.00000" pt_clust_7="13000.00000" pt_clust_8="13000.00000" pt_clust_9="49.91248" pt_clust_10="77.70048"></scales>
<clustering>
<clus scale="   49.912">  1  9  2 -1</clus>
<clus scale="   77.700">  1 10  2 -1</clus>
<clus scale="   79.940">  5  6 -1 -1</clus>
<clus scale="   91.218">  7  8 -1 -1</clus>
<clus scale="   93.027">  2  5  1 -1</clus>
<clus scale="   49.912">  1  5  2 -1</clus>
</clustering>
</event>
<event>
10    4  0.3599306E-005  0.1407963E+03  0.7546771E-02  0.1235943E+00
         21   -1    0    0  501  502  0.00000000000E+00  0.00000000000E+00  0.16985731977E+03  0.16985731977E+03  0.00000000000E+00 0. -1.
          2   -1    0    0  503    0 -0.00000000000E+00 -0.00000000000E+00 -0.59713275218E+03  0.59713275218E+03  0.00000000000E+00 0. -1.
         24    2    1    2    0    0  0.36116431683E+02 -0.24244818743E+02  0.41325043519E+02  0.95535679677E+02  0.74344461771E+02 0.  0.
         23    2    1    2    0    0  0.22516840844E+02  0.10085435835E+03 -0.50329517304E+03  0.52171240945E+03  0.90549418849E+02 0.  0.
        -13    1    3    3    0    0 -0.21328015284E+01 -0.35357365185E+02 -0.34724982471E+01  0.35591436600E+02  0.00000000000E+00 0.  1.
         14    1    3    3    0    0  0.38249233211E+02  0.11112546443E+02  0.44797541766E+02  0.59944243076E+02  0.00000000000E+00 0. -1.
        -13    1    4    4    0    0  0.13676357177E+02 -0.15355004012E+02 -0.64124749994E+02  0.67340941897E+02  0.00000000000E+00 0.  1.
         13    1    4    4    0    0  0.88404836671E+01  0.11620936236E+03 -0.43917042304E+03  0.45437146756E+03  0.00000000000E+00 0. -1.
         21    1    1    2  503  502  0.10247326644E+02  0.22638369988E+02  0.65515072001E+01  0.25698749885E+02  0.00000000000E+00 0.  1.
          1    1    1    2  501    0 -0.68880599171E+02 -0.99247909591E+02  0.28143189910E+02  0.12404323294E+03  0.00000000000E+00 0. -1.
<scales pt_clust_5="13000.00000" pt_clust_6="13000.00000" pt_clust_7="13000.00000" pt_clust_8="13000.00000" pt_clust_9="24.84962" pt_clust_10="107.81649"></scales>
<clustering>
<clus scale="   24.850">  1  9  2 -1</clus>
<clus scale="   74.344">  5  6 -1 -1</clus>
<clus scale="   85.922">  2  5  1 -1</clus>
<clus scale="   90.549">  7  8 -1 -1</clus>
<clus scale="  107.816">  1 10  2 -1</clus>
<clus scale="   24.850">  1  5  2 -1</clus>
</clustering>
</event>
<event>
10    4  0.3043429E-005  0.9930241E+02  0.7546771E-02  0.1286013E+00
         -1   -1    0    0    0  501 -0.00000000000E+00  0.00000000000E+00  0.11682907308E+03  0.11682907308E+03  0.00000000000E+00 0.  1.
         21   -1    0    0  503  502  0.00000000000E+00 -0.00000000000E+00 -0.30732982750E+03  0.30732982750E+03  0.00000000000E+00 0. -1.
         24    2    1    2    0    0 -0.85924955903E+01  0.38672541105E+02  0.33648607022E+02  0.94941973089E+02  0.79450318335E+02 0.  0.
         23    2    1    2    0    0 -0.16773178922E+02 -0.83260915401E+02 -0.14971944989E+03  0.19340149252E+03  0.88173148228E+02 0.  0.
        -13    1    3    3    0    0 -0.18947265942E+02  0.19846828185E+02  0.56969139809E+02  0.63232731764E+02  0.00000000000E+00 0.  1.
         14    1    3    3    0    0  0.10354770351E+02  0.18825712920E+02 -0.23320532787E+02  0.31709241326E+02  0.00000000000E+00 0. -1.
        -13    1    4    4    0    0  0.18257705647E+02  0.11205433610E+02 -0.21729474770E+02  0.30513531944E+02  0.00000000000E+00 0.  1.
         13    1    4    4    0    0 -0.35030884569E+02 -0.94466349011E+02 -0.12798997512E+03  0.16288796058E+03  0.00000000000E+00 0. -1.
         21    1    1    2  503  501  0.13250191997E+02  0.17867482944E+02 -0.96545259548E+02  0.99074727736E+02  0.00000000000E+00 0. -1.
         -2    1    1    2    0  502  0.12115482515E+02  0.26720891352E+02  0.22115347996E+02  0.36740707236E+02  0.00000000000E+00 0.  1.
<scales pt_clust_5="13000.00000" pt_clust_6="13000.00000" pt_clust_7="13000.00000" pt_clust_8="13000.00000" pt_clust_9="22.24443" pt_clust_10="30.09863"></scales>
<clustering>
<clus scale="   22.244">  2  9  1 -1</clus>
<clus scale="   30.099">  2 10  1 -1</clus>
<clus scale="   79.450">  5  6 -1 -1</clus>
<clus scale="   88.173">  7  8 -1 -1</clus>
<clus scale="   91.645">  1  5  2 -1</clus>
<clus scale="   22.244">  2  5  1 -1</clus>
</clustering>
</event>
<event>
10    4  0.3043429E-005  0.1303515E+03  0.7546771E-02  0.1229100E+00
          2   -1    0    0  502    0 -0.00000000000E+00  0.00000000000E+00  0.70105910542E+03  0.70105910542E+03  0.00000000000E+00 0. -1.
         21   -1    0    0  503  502  0.00000000000E+00 -0.00000000000E+00 -0.15977864488E+03  0.15977864488E+03  0.00000000000E+00 0. -1.
         23    2    1    2    0    0 -0.69898212921E+02  0.28540990255E+02 -0.41945655345E+02  0.12124460615E+03  0.85090940899E+02 0.  0.
         24    2    1    2    0    0  0.25155495526E+02 -0.10566340758E+03  0.11313900897E+03  0.16909033755E+03  0.63194558677E+02 0.  0.
        -11    1    4    4    0    0  0.45947900147E+02 -0.81582396282E+02  0.80039895810E+02  0.12317987592E+03  0.00000000000E+00 0.  1.
         12    1    4    4    0    0 -0.20792404621E+02 -0.24081011293E+02  0.33099113163E+02  0.45910461630E+02  0.00000000000E+00 0. -1.
        -13    1    3    3    0    0 -0.89900809209E+02  0.20930385993E+02 -0.35459241270E+02  0.98881718966E+02  0.00000000000E+00 0. -1.
         13    1    3    3    0    0  0.20002596288E+02  0.76106042617E+01 -0.64864140750E+01  0.22362887181E+02  0.00000000000E+00 0.  1.
         21    1    1    2  503  501 -0.30796384959E+02 -0.37800513816E+02 -0.26312767978E+02  0.55404493770E+02  0.00000000000E+00 0. -1.
          1    1    1    2  501    0  0.75539102354E+02  0.11492293114E+03  0.49639987489E+03  0.51509831282E+03  0.00000000000E+00 0. -1.
<scales pt_clust_5="13000.00000" pt_clust_6="13000.00000" pt_clust_7="13000.00000" pt_clust_8="13000.00000" pt_clust_9="48.75752" pt_clust_10="114.00869"></scales>
<clustering>
<clus scale="   48.758">  2  9  1 -1</clus>
<clus scale="   63.195">  5  6 -1 -1</clus>
<clus scale="   85.091">  7  8 -1 -1</clus>
<clus scale="  124.633">  1  7  2 -1</clus>
<clus scale="  114.009">  2 10  1 -1</clus>
<clus scale="   48.758">  2  5  1 -1</clus>
</clustering>
</event>
<event>
10    4  0.3043429E-005  0.1867494E+03  0.7546771E-02  0.1180816E+00
         21   -1    0    0  503  502  0.00000000000E+00  0.00000000000E+00  0.29707496396E+03  0.29707496396E+03  0.00000000000E+00 0. -1.
          2   -1    0    0  502    0 -0.00000000000E+00 -0.00000000000E+00 -0.75804637878E+03  0.75804637878E+03  0.00000000000E+00 0. -1.
         24    2    1    2    0    0  0.79831109875E+02 -0.71969569876E+02 -0.21583074620E+02  0.13544008549E+03  0.79533405282E+02 0.  0.
         23    2    1    2    0    0 -0.38251489414E+02 -0.12694849590E+03 -0.61993150706E+02  0.17262135496E+03  0.91519857956E+02 0.  0.
        -13    1    3    3    0    0  0.22048963647E+02  0.86381275457E+01 -0.27247600764E+02  0.36099941728E+02  0.00000000000E+00 0.  1.
         14    1    3    3    0    0  0.57782146228E+02 -0.80607697422E+02  0.56645261438E+01  0.99340143763E+02  0.00000000000E+00 0. -1.
        -11    1    4    4    0    0 -0.63413069711E+02 -0.77132192197E+02 -0.17786832570E+02  0.10142467104E+03  0.00000000000E+00 0. -1.
         11    1    4    4    0    0  0.25161580297E+02 -0.49816303703E+02 -0.44206318137E+02  0.71196683918E+02  0.00000000000E+00 0.  1.
         21    1    1    2  503  501 -0.83036097996E+02 -0.14201528982E+02  0.15260519667E+03  0.17431300309E+03  0.00000000000E+00 0. -1.
          1    1    1    2  501    0  0.41456477535E+02  0.21311959476E+03 -0.53000038617E+03  0.57274689920E+03  0.00000000000E+00 0. -1.
<scales pt_clust_5="13000.00000" pt_clust_6="13000.00000" pt_clust_7="13000.00000" pt_clust_8="13000.00000" pt_clust_9="84.24178" pt_clust_10="162.78666"></scales>
<clustering>
<clus scale="   79.533">  5  6 -1 -1</clus>
<clus scale="   84.242">  1  9  2 -1</clus>
<clus scale="   91.520">  7  8 -1 -1</clus>
<clus scale="  119.953">  2  5  1 -1</clus>
<clus scale="  162.787">  1 10  2 -1</clus>
<clus scale="   84.242">  1  5  2 -1</clus>
</clustering>
</event>
<event>
10    4  0.3043429E-005  0.4348123E+03  0.7546771E-02  0.1076693E+00
          2   -1    0    0  502    0 -0.00000000000E+00  0.00000000000E+00  0.18376742327E+04  0.18376742327E+04  0.00000000000E+00 0. -1.
         21   -1    0    0  503  502  0.00000000000E+00 -0.00000000000E+00 -0.10751281785E+04  0.10751281785E+04  0.00000000000E+00 0. -1.
         23    2    1    2    0    0  0.82223287058E+02  0.17022761499E+01  0.10028190483E+02  0.12439805740E+03  0.92794102186E+02 0.  0.
         24    2    1    2    0    0 -0.18459236581E+03 -0.14080597461E+03 -0.59076890494E+03  0.63951741339E+03  0.77935607991E+02 0.  0.
        -13    1    4    4    0    0 -0.12500451697E+03 -0.49681531577E+02 -0.29092834118E+03  0.32052095648E+03  0.00000000000E+00 0.  1.
         14    1    4    4    0    0 -0.59587848832E+02 -0.91124443031E+02 -0.29984056376E+03  0.31899645691E+03  0.00000000000E+00 0. -1.
        -13    1    3    3    0    0  0.42300638826E+02  0.27177817034E+02 -0.33221061648E+02  0.60262896718E+02  0.00000000000E+00 0.  1.
         13    1    3    3    0    0  0.39922648232E+02 -0.25475540884E+02  0.43249252130E+02  0.64135160677E+02  0.00000000000E+00 0. -1.
         21    1    1    2  503  501 -0.32304556821E+03 -0.27229197524E+03 -0.22070992992E+03  0.47666994040E+03  0.00000000000E+00 0.  1.
          1    1    1    2  501    0  0.42541464695E+03  0.41139567370E+03  0.15639966986E+04  0.16722170001E+04  0.00000000000E+00 0. -1.
<scales pt_clust_5="13000.00000" pt_clust_6="13000.00000" pt_clust_7="13000.00000" pt_clust_8="13000.00000" pt_clust_9="13000.00000" pt_clust_10="434.81229"></scales>
<clustering>
<clus scale="   77.936">  5  6 -1 -1</clus>
<clus scale="   92.794">  7  8 -1 -1</clus>
<clus scale="  123.993">  1  7  2 -1</clus>
<clus scale="  244.032">  1  5  2 -1</clus>
<clus scale="  434.812">  1 10  2 -1</clus>
<clus scale="  434.812">  2  5  1 -1</clus>
</clustering>
</event>
<event>
10    4  0.3043429E-005  0.9498645E+02  0.7546771E-02  0.1296127E+00
         21   -1    0    0  501  502  0.00000000000E+00  0.00000000000E+00  0.28189582185E+02  0.28189582185E+02  0.00000000000E+00 0.  1.
          2   -1    0    0  503    0 -0.00000000000E+00 -0.00000000000E+00 -0.76052407478E+03  0.76052407478E+03  0.00000000000E+00 0. -1.
         23    2    1    2    0    0  0.36242494213E+02  0.28926364973E+02 -0.36885529346E+03  0.38195259564E+03  0.87654462671E+02 0.  0.
         24    2    1    2    0    0  0.14459998471E+02 -0.32201809759E+02 -0.10534812856E+03  0.13607712156E+03  0.78566575034E+02 0.  0.
        -11    1    4    4    0    0  0.42919415008E+02 -0.36608013158E+02 -0.78786867242E+02  0.96899913632E+02  0.00000000000E+00 0.  1.
         12    1    4    4    0    0 -0.28459416537E+02  0.44062033993E+01 -0.26561261318E+02  0.39177207925E+02  0.00000000000E+00 0. -1.
        -11    1    3    3    0    0 -0.17106299460E+02 -0.20310038988E+02 -0.96049011470E+02  0.99652073582E+02  0.00000000000E+00 0.  1.
         11    1    3    3    0    0  0.53348793673E+02  0.49236403961E+02 -0.27280628199E+03  0.28230052205E+03  0.00000000000E+00 0. -1.
         21    1    1    2  503  502 -0.24458843467E+02  0.17752146938E+02 -0.38149028725E+02  0.48669519592E+02  0.00000000000E+00 0. -1.
          1    1    1    2  501    0 -0.26243649217E+02 -0.14476702152E+02 -0.21998204185E+03  0.22201442018E+03  0.00000000000E+00 0. -1.
<scales pt_clust_5="13000.00000" pt_clust_6="13000.00000" pt_clust_7="13000.00000" pt_clust_8="13000.00000" pt_clust_9="33.10670" pt_clust_10="29.97174"></scales>
<clustering>
<clus scale="   29.972">  1 10  2 -1</clus>
<clus scale="   33.107">  1  9  2 -1</clus>
<clus scale="   78.567">  5  6 -1 -1</clus>
<clus scale="   86.671">  1  5  2 -1</clus>
<clus scale="   87.654">  7  8 -1 -1</clus>
<clus scale="   29.972">  1  5  2 -1</clus>
</clustering>
</event>
<event>
10    4  0.3043429E-005  0.1720416E+03  0.7546771E-02  0.1199120E+00
         21   -1    0    0  501  502  0.00000000000E+00  0.00000000000E+00  0.69721481473E+02  0.69721481473E+02  0.00000000000E+00 0.  1.
          2   -1    0    0  503    0 -0.00000000000E+00 -0.00000000000E+00 -0.11137719847E+04  0.11137719847E+04  0.00000000000E+00 0. -1.
         23    2    1    2    0    0 -0.23515672958E+01 -0.42223517873E+02 -0.45000966353E+03  0.46136243454E+03  0.92510774513E+02 0.  0.
         24    2    1    2    0    0 -0.15329402068E+03 -0.12677363418E+02 -0.12788398246E+03  0.21709507803E+03  0.84357498873E+02 0.  0.
        -11    1    4    4    0    0 -0.12986544322E+03 -0.39305491309E+02 -0.80018725620E+02  0.15752127297E+03  0.00000000000E+00 0.  1.
         12    1    4    4    0    0 -0.23428577464E+02  0.26628127891E+02 -0.47865256839E+02  0.59573805059E+02  0.00000000000E+00 0. -1.
        -11    1    3    3    0    0 -0.47311511816E+02 -0.20650714612E+02 -0.21342290772E+03  0.21957724996E+03  0.00000000000E+00 0.  1.
         11    1    3    3    0    0  0.44959944520E+02 -0.21572803262E+02 -0.23658675582E+03  0.24178518457E+03  0.00000000000E+00 0. -1.
         21    1    1    2  503  502  0.12196632917E+02 -0.18389645474E+02 -0.16968184802E+02  0.27836239161E+02  0.00000000000E+00 0. -1.
          1    1    1    2  501    0  0.14344895506E+03  0.73290526765E+02 -0.44918867245E+03  0.47719971445E+03  0.00000000000E+00 0. -1.
<scales pt_clust_5="13000.00000" pt_clust_6="13000.00000" pt_clust_7="13000.00000" pt_clust_8="13000.00000" pt_clust_9="22.06665" pt_clust_10="149.94051"></scales>
<clustering>
<clus scale="   22.067">  1  9  2 -1</clus>
<clus scale="   84.357">  5  6 -1 -1</clus>
<clus scale="   92.511">  7  8 -1 -1</clus>
<clus scale="  102.384">  2  7  1 -1</clus>
<clus scale="  149.941">  1 10  2 -1</clus>
<clus scale="   22.067">  1  5  2 -1</clus>
</clustering>
</event>
<event>
10    4  0.3043429E-005  0.2455708E+03  0.7546771E-02  0.1161176E+00
          2   -1    0    0  502    0 -0.00000000000E+00  0.00000000000E+00  0.44700314581E+03  0.44700314581E+03  0.00000000000E+00 0. -1.
         21   -1    0    0  503  502  0.00000000000E+00 -0.00000000000E+00 -0.79337370025E+03  0.79337370025E+03  0.00000000000E+00 0.  1.
         24    2    1    2    0    0  0.74149727827E+01  0.16346632538E+02  0.16351270162E+03  0.18293865723E+03  0.80049700188E+02 0.  0.
         23    2    1    2    0    0  0.15492731346E+03 -0.19242689581E+03  0.12997066765E+03  0.29282253523E+03  0.88442523720E+02 0.  0.
        -11    1    3    3    0    0 -0.31473919907E+02  0.57385808823E+00  0.31981077349E+02  0.44874561344E+02  0.00000000000E+00 0.  1.
         12    1    3    3    0    0  0.38888892690E+02  0.15772774450E+02  0.13153162427E+03  0.13806409588E+03  0.00000000000E+00 0. -1.
        -13    1    4    4    0    0  0.87700752440E+02 -0.13765713662E+03  0.12568461304E+03  0.20600371646E+03  0.00000000000E+00 0. -1.
         13    1    4    4    0    0  0.67226561021E+02 -0.54769759195E+02  0.42860546100E+01  0.86818818773E+02  0.00000000000E+00 0.  1.
         21    1    1    2  503  501  0.15738691535E+02  0.68039907339E+02 -0.51925422630E+03  0.52392946752E+03  0.00000000000E+00 0.  1.
          1    1    1    2  501    0 -0.17808097778E+03  0.10804035594E+03 -0.12059969741E+03  0.24068618609E+03  0.00000000000E+00 0. -1.
<scales pt_clust_5="13000.00000" pt_clust_6="13000.00000" pt_clust_7="13000.00000" pt_clust_8="13000.00000" pt_clust_9="69.83649" pt_clust_10="229.09159"></scales>
<clustering>
<clus scale="   69.836">  2  9  1 -1</clus>
<clus scale="   80.050">  5  6 -1 -1</clus>
<clus scale="   82.609">  1  5  2 -1</clus>
<clus scale="   88.443">  7  8 -1 -1</clus>
<clus scale="  229.092">  2 10  1 -1</clus>
<clus scale="   69.836">  2  5  1 -1</clus>
</clustering>
</event>
<event>
10    4  0.3043429E-005  0.6515595E+03  0.7546771E-02  0.1032791E+00
          2   -1    0    0  503    0 -0.00000000000E+00  0.00000000000E+00  0.62557335775E+03  0.62557335775E+03  0.00000000000E+00 0. -1.
         21   -1    0    0  501  502  0.00000000000E+00 -0.00000000000E+00 -0.22111164185E+04  0.22111164185E+04  0.00000000000E+00 0.  1.
         23    2    1    2    0    0  0.14787304850E+02  0.88087237089E+02  0.73901450071E+02  0.14741806295E+03  0.91063907450E+02 0.  0.
         24    2    1    2    0    0 -0.70685771084E+03  0.11180633816E+02 -0.35829456050E+03  0.79657382526E+03  0.79887652752E+02 0.  0.
        -13    1    4    4    0    0 -0.54941725878E+03  0.30076866710E+02 -0.30599949167E+03  0.62960275655E+03  0.00000000000E+00 0.  1.
         14    1    4    4    0    0 -0.15744045206E+03 -0.18896232894E+02 -0.52295068840E+02  0.16697106872E+03  0.00000000000E+00 0. -1.
        -11    1    3    3    0    0 -0.99242720379E+01  0.91660166566E+02  0.30073365216E+02  0.96976721979E+02  0.00000000000E+00 0. -1.
         11    1    3    3    0    0  0.24711576888E+02 -0.35729294776E+01  0.43828084855E+02  0.50441340975E+02  0.00000000000E+00 0.  1.
         21    1    1    2  503  502  0.49560225570E+03 -0.39011459720E+02 -0.15159764726E+04  0.15954084603E+04  0.00000000000E+00 0.  1.
          1    1    1    2  501    0  0.19646815029E+03 -0.60256411185E+02  0.21482652226E+03  0.29728942772E+03  0.00000000000E+00 0. -1.
<scales pt_clust_5="13000.00000" pt_clust_6="13000.00000" pt_clust_7="13000.00000" pt_clust_8="13000.00000" pt_clust_9="646.64349" pt_clust_10="204.48465"></scales>
<clustering>
<clus scale="   79.888">  5  6 -1 -1</clus>
<clus scale="   91.064">  7  8 -1 -1</clus>
<clus scale="  127.557">  1  7  2 -1</clus>
<clus scale="  204.485">  2 10  1 -1</clus>
<clus scale="  646.643">  2  9  1 -1</clus>
<clus scale="  204.485">  2  5  1 -1</clus>
</clustering>
</event>
<event>
10    4  0.3043429E-005  0.5517179E+03  0.7546771E-02  0.1001097E+00
         21   -1    0    0  503  502  0.00000000000E+00  0.00000000000E+00  0.39659632030E+03  0.39659632030E+03  0.00000000000E+00 0. -1.
          2   -1    0    0  502    0 -0.00000000000E+00 -0.00000000000E+00 -0.14676671697E+04  0.14676671697E+04  0.00000000000E+00 0. -1.
         24    2    1    2    0    0 -0.57386403575E+02  0.21011079097E+03 -0.38637210883E+03  0.45065576207E+03  0.79796400951E+02 0.  0.
         23    2    1    2    0    0 -0.25739418567E+03  0.23858042054E+03 -0.33891235583E+03  0.49605489557E+03  0.89646475690E+02 0.  0.
        -11    1    3    3    0    0 -0.25648767457E+02  0.52732468280E+02 -0.17924507494E+03  0.18859313183E+03  0.00000000000E+00 0.  1.
         12    1    3    3    0    0 -0.31737636118E+02  0.15737832269E+03 -0.20712703389E+03  0.26206263024E+03  0.00000000000E+00 0. -1.
        -11    1    4    4    0    0 -0.24401256714E+03  0.20153779197E+03 -0.26700074707E+03  0.41406402096E+03  0.00000000000E+00 0. -1.
         11    1    4    4    0    0 -0.13381618529E+02  0.37042628579E+02 -0.71911608752E+02  0.81990874613E+02  0.00000000000E+00 0.  1.
         21    1    1    2  503  501  0.16430303634E+03 -0.30660935752E+02  0.16890758116E+03  0.23762439207E+03  0.00000000000E+00 0. -1.
          1    1    1    2  501    0  0.15047755290E+03 -0.41803027576E+03 -0.51469396586E+03  0.67992844026E+03  0.00000000000E+00 0. -1.
<scales pt_clust_5="13000.00000" pt_clust_6="13000.00000" pt_clust_7="13000.00000" pt_clust_8="13000.00000" pt_clust_9="167.13941" pt_clust_10="484.33458"></scales>
<clustering>
<clus scale="   79.796">  5  6 -1 -1</clus>
<clus scale="   89.646">  7  8 -1 -1</clus>
<clus scale="  167.139">  1  9  2 -1</clus>
<clus scale="  191.142">  5  7 -1 -1</clus>
<clus scale="  484.335">  1 10  2 -1</clus>
<clus scale="  167.139">  1  5  2 -1</clus>
</clustering>
</event>
<event>
10    4  0.3043429E-005  0.4394983E+03  0.7546771E-02  0.1030901E+00
          2   -1    0    0  503    0 -0.00000000000E+00  0.00000000000E+00  0.28387440951E+04  0.28387440951E+04  0.00000000000E+00 0. -1.
         21   -1    0    0  501  502  0.00000000000E+00 -0.00000000000E+00 -0.63141074175E+02  0.63141074175E+02  0.00000000000E+00 0. -1.
         24    2    1    2    0    0 -0.82596908033E+02  0.23545373871E+03  0.13215735044E+04  0.13473885703E+04  0.81478337264E+02 0.  0.
         23    2    1    2    0    0 -0.50884235040E+02  0.99587430369E+02  0.33724497660E+03  0.36665885657E+03  0.90541047002E+02 0.  0.
        -11    1    3    3    0    0  0.11874728771E+02  0.52426386126E+02  0.20221764711E+03  0.20924032104E+03  0.00000000000E+00 0.  1.
         12    1    3    3    0    0 -0.94471636804E+02  0.18302735259E+03  0.11193558573E+04  0.11381482492E+04  0.00000000000E+00 0. -1.
        -13    1    4    4    0    0  0.26095230248E+02  0.23816097302E+02  0.69987507629E+02  0.78399099208E+02  0.00000000000E+00 0. -1.
         13    1    4    4    0    0 -0.76979465288E+02  0.75771333067E+02  0.26725746898E+03  0.28825975736E+03  0.00000000000E+00 0.  1.
         21    1    1    2  503  502 -0.17132746298E+02  0.15473776575E+02  0.58724696990E+02  0.63099594244E+02  0.00000000000E+00 0.  1.
          1    1    1    2  501    0  0.15061388937E+03 -0.35051494566E+03  0.10580598429E+04  0.11247381482E+04  0.00000000000E+00 0. -1.
<scales pt_clust_5="13000.00000" pt_clust_6="13000.00000" pt_clust_7="13000.00000" pt_clust_8="13000.00000" pt_clust_9="23.08612" pt_clust_10="370.06587"></scales>
<clustering>
<clus scale="   23.086">  2  9  1 -1</clus>
<clus scale="   81.478">  5  6 -1 -1</clus>
<clus scale="   90.541">  7  8 -1 -1</clus>
<clus scale="  134.391">  5  7 -1 -1</clus>
<clus scale="  370.066">  2 10  1 -1</clus>
<clus scale="   23.086">  2  5  1 -1</clus>
</clustering>
</event>
<event>
10    4  0.3043429E-005  0.2908183E+03  0.7546771E-02  0.1115048E+00
          2   -1    0    0  503    0 -0.00000000000E+00  0.00000000000E+00  0.66065422439E+03  0.66065422439E+03  0.00000000000E+00 0. -1.
         21   -1    0    0  501  502  0.00000000000E+00 -0.00000000000E+00 -0.91402041606E+03  0.91402041606E+03  0.00000000000E+00 0. -1.
         23    2    1    2    0    0  0.26294786362E+02 -0.11880117471E+03  0.38698761745E+03  0.41587089609E+03  0.91564465002E+02 0.  0.
         24    2    1    2    0    0  0.16998463501E+03 -0.12309847027E+03  0.15054423161E+03  0.27034752188E+03  0.79851157755E+02 0.  0.
        -11    1    4    4    0    0  0.95545789343E+01 -0.35781552575E+02  0.62137413562E+01  0.37552896891E+02  0.00000000000E+00 0.  1.
         12    1    4    4    0    0  0.16043005608E+03 -0.87316917696E+02  0.14433049025E+03  0.23279462499E+03  0.00000000000E+00 0. -1.
        -11    1    3    3    0    0 -0.87046608664E+01 -0.90595101049E+02  0.33500945814E+03  0.34715209995E+03  0.00000000000E+00 0. -1.
         11    1    3    3    0    0  0.34999447229E+02 -0.28206073661E+02  0.51978159310E+02  0.68718796140E+02  0.00000000000E+00 0.  1.
         21    1    1    2  503  502 -0.72481484548E+02 -0.21320686204E+01 -0.42722350619E+03  0.43333363077E+03  0.00000000000E+00 0. -1.
          1    1    1    2  501    0 -0.12379793683E+03  0.24403171360E+03 -0.36367453454E+03  0.45512259170E+03  0.00000000000E+00 0. -1.
<scales pt_clust_5="13000.00000" pt_clust_6="13000.00000" pt_clust_7="13000.00000" pt_clust_8="13000.00000" pt_clust_9="72.51284" pt_clust_10="279.64098"></scales>
<clustering>
<clus scale="   72.513">  2  9  1 -1</clus>
<clus scale="   79.851">  5  6 -1 -1</clus>
<clus scale="   91.564">  7  8 -1 -1</clus>
<clus scale="  151.971">  1  7  2 -1</clus>
<clus scale="  279.641">  2 10  1 -1</clus>
<clus scale="   72.513">  2  5  1 -1</clus>
</clustering>
</event>
<event>
10    4  0.3043429E-005  0.2576525E+03  0.7546771E-02  0.1137307E+00
         21   -1    0    0  503  502  0.00000000000E+00  0.00000000000E+00  0.41257254146E+03  0.41257254146E+03  0.00000000000E+00 0. -1.
          2   -1    0    0  502    0 -0.00000000000E+00 -0.00000000000E+00 -0.40302821956E+03  0.40302821956E+03  0.00000000000E+00 0. -1.
         24    2    1    2    0    0 -0.94036701495E+02  0.30230131481E+02  0.36302251803E+02  0.13114256054E+03  0.78254428762E+02 0.  0.
         23    2    1    2    0    0  0.22415752733E+03 -0.93581328330E+02  0.18876442754E+02  0.25986245690E+03  0.90377620828E+02 0.  0.
        -11    1    3    3    0    0 -0.60603692643E+02 -0.10348689788E+02 -0.84996502764E+01  0.62065666814E+02  0.00000000000E+00 0.  1.
         12    1    3    3    0    0 -0.33433008852E+02  0.40578821269E+02  0.44801902079E+02  0.69076893723E+02  0.00000000000E+00 0. -1.
        -11    1    4    4    0    0  0.34722503780E+02 -0.11646397692E+02 -0.30480010080E+02  0.47647894628E+02  0.00000000000E+00 0.  1.
         11    1    4    4    0    0  0.18943502355E+03 -0.81934930638E+02  0.49356452834E+02  0.21221456228E+03  0.00000000000E+00 0. -1.
         21    1    1    2  503  501  0.33629869251E+00 -0.15091620911E+03  0.45611688755E+02  0.15765862304E+03  0.00000000000E+00 0. -1.
          1    1    1    2  501    0 -0.13045712453E+03  0.21426740596E+03 -0.91246061414E+02  0.26693712053E+03  0.00000000000E+00 0. -1.
<scales pt_clust_5="13000.00000" pt_clust_6="13000.00000" pt_clust_7="13000.00000" pt_clust_8="13000.00000" pt_clust_9="146.86907" pt_clust_10="241.28146"></scales>
<clustering>
<clus scale="   78.254">  5  6 -1 -1</clus>
<clus scale="   90.378">  7  8 -1 -1</clus>
<clus scale="  126.018">  2  5  1 -1</clus>
<clus scale="  146.869">  1  9  2 -1</clus>
<clus scale="  241.281">  1 10  2 -1</clus>
<clus scale="  146.869">  1  5  2 -1</clus>
</clustering>
</event>
<event>
10    4  0.3043429E-005  0.1268232E+03  0.7546771E-02  0.1235323E+00
         21   -1    0    0  503  502  0.00000000000E+00  0.00000000000E+00  0.26657398344E+03  0.26657398344E+03  0.00000000000E+00 0.  1.
         -3   -1    0    0    0  501 -0.00000000000E+00 -0.00000000000E+00 -0.35884428485E+03  0.35884428485E+03  0.00000000000E+00 0.  1.
         24    2    1    2    0    0  0.26135547457E+02 -0.65391196703E+02 -0.10877048455E+03  0.15263763753E+03  0.80673134529E+02 0.  0.
         23    2    1    2    0    0 -0.15067721574E+03  0.14525277585E+03  0.45780667614E+02  0.23305299402E+03  0.91737867086E+02 0.  0.
        -11    1    3    3    0    0  0.38510199051E+02 -0.45358842513E+02 -0.23163463007E+02  0.63851437286E+02  0.00000000000E+00 0.  1.
         12    1    3    3    0    0 -0.12374651595E+02 -0.20032354191E+02 -0.85607021541E+02  0.88786200243E+02  0.00000000000E+00 0. -1.
        -13    1    4    4    0    0 -0.12417870857E+03  0.58937644096E+02  0.36925185082E+02  0.14232872812E+03  0.00000000000E+00 0.  1.
         13    1    4    4    0    0 -0.26498507168E+02  0.86315131755E+02  0.88554825316E+01  0.90724265899E+02  0.00000000000E+00 0. -1.
         21    1    1    2  503  501  0.62582914651E+02 -0.45468611146E+02  0.78840625346E+02  0.11045297647E+03  0.00000000000E+00 0.  1.
         -4    1    1    2    0  502  0.61958753635E+02 -0.34392968002E+02 -0.10812110982E+03  0.12927466028E+03  0.00000000000E+00 0.  1.
<scales pt_clust_5="13000.00000" pt_clust_6="13000.00000" pt_clust_7="13000.00000" pt_clust_8="13000.00000" pt_clust_9="103.41173" pt_clust_10="70.86444"></scales>
<clustering>
<clus scale="   70.864">  1 10  2 -1</clus>
<clus scale="   80.673">  5  6 -1 -1</clus>
<clus scale="   91.738">  7  8 -1 -1</clus>
<clus scale="  103.412">  1  9  2 -1</clus>
<clus scale="  119.065">  2  5  1 -1</clus>
<clus scale="   70.864">  1  5  2 -1</clus>
</clustering>
</event>
<event>
10    4  0.3043429E-005  0.9178030E+02  0.7546771E-02  0.1318657E+00
         21   -1    0    0  503  502  0.00000000000E+00  0.00000000000E+00  0.52375805559E+03  0.52375805559E+03  0.00000000000E+00 0.  1.
          2   -1    0    0  502    0 -0.00000000000E+00 -0.00000000000E+00 -0.26746576171E+03  0.26746576171E+03  0.00000000000E+00 0. -1.
         23    2    1    2    0    0  0.86220858627E+00 -0.10085072782E+02 -0.21268569803E+03  0.23168608679E+03  0.91327895902E+02 0.  0.
         24    2    1    2    0    0  0.39605056134E+02 -0.13272893757E+02  0.19891786097E+03  0.21281633265E+03  0.63069373310E+02 0.  0.
        -13    1    4    4    0    0  0.54260551131E+02  0.19893033343E+01  0.14970536154E+03  0.15924779437E+03  0.00000000000E+00 0.  1.
         14    1    4    4    0    0 -0.14655494997E+02 -0.15262197092E+02  0.49212499431E+02  0.53568538285E+02  0.00000000000E+00 0. -1.
        -13    1    3    3    0    0 -0.15333120323E+02  0.37458527653E+02 -0.11364703512E+03  0.12063952281E+03  0.00000000000E+00 0.  1.
         13    1    3    3    0    0  0.16195328909E+02 -0.47543600435E+02 -0.99038662916E+02  0.11104656399E+03  0.00000000000E+00 0. -1.
         21    1    1    2  503  501  0.52601036759E+02  0.19128383247E+02  0.24349286874E+03  0.24984303321E+03  0.00000000000E+00 0.  1.
          1    1    1    2  501    0 -0.93068301480E+02  0.42295832916E+01  0.26567262201E+02  0.96878364643E+02  0.00000000000E+00 0. -1.
<scales pt_clust_5="13000.00000" pt_clust_6="13000.00000" pt_clust_7="13000.00000" pt_clust_8="13000.00000" pt_clust_9="55.97110" pt_clust_10="81.79310"></scales>
<clustering>
<clus scale="   55.971">  1  9  2 -1</clus>
<clus scale="   63.069">  5  6 -1 -1</clus>
<clus scale="   81.793">  1 10  2 -1</clus>
<clus scale="   63.723">  1  5  2 -1</clus>
<clus scale="   91.328">  7  8 -1 -1</clus>
<clus scale="   55.971">  1  5  2 -1</clus>
</clustering>
</event>
<event>
10    4  0.3043429E-005  0.1312388E+03  0.7546771E-02  0.1228502E+00
         21   -1    0    0  501  502  0.00000000000E+00  0.00000000000E+00  0.17201171221E+03  0.17201171221E+03  0.00000000000E+00 0.  1.
         -3   -1    0    0    0  501 -0.00000000000E+00 -0.00000000000E+00 -0.39332288757E+03  0.39332288757E+03  0.00000000000E+00 0.  1.
         23    2    1    2    0    0 -0.68120872317E+02 -0.57352008276E+02 -0.84621550871E+02  0.15338646891E+03  0.91852576849E+02 0.  0.
         24    2    1    2    0    0  0.96419539086E+02  0.47531831098E+02  0.32590855751E+02  0.13827217840E+03  0.80628958540E+02 0.  0.
        -13    1    4    4    0    0  0.97246571326E+02  0.41092642370E+02  0.52087836687E+02  0.11772274046E+03  0.00000000000E+00 0.  1.
         14    1    4    4    0    0 -0.82703224036E+00  0.64391887274E+01 -0.19496980935E+02  0.20549437934E+02  0.00000000000E+00 0. -1.
        -11    1    3    3    0    0 -0.59282294797E+02  0.98893916620E+01 -0.38767720670E+02  0.71520114022E+02  0.00000000000E+00 0.  1.
         11    1    3    3    0    0 -0.88385775197E+01 -0.67241399938E+02 -0.45853830201E+02  0.81866354886E+02  0.00000000000E+00 0. -1.
         21    1    1    2  503  502 -0.53087934028E+01 -0.19714268217E+02  0.48542285152E+02  0.52661077719E+02  0.00000000000E+00 0.  1.
         -4    1    1    2    0  503 -0.22989873367E+02  0.29534445395E+02 -0.21782276539E+03  0.22101487476E+03  0.00000000000E+00 0.  1.
<scales pt_clust_5="13000.00000" pt_clust_6="13000.00000" pt_clust_7="13000.00000" pt_clust_8="13000.00000" pt_clust_9="20.41655" pt_clust_10="37.26649"></scales>
<clustering>
<clus scale="   20.417">  1  9  2 -1</clus>
<clus scale="   37.266">  1 10  2 -1</clus>
<clus scale="   80.629">  5  6 -1 -1</clus>
<clus scale="   91.853">  7  8 -1 -1</clus>
<clus scale="  123.644">  1  5  2 -1</clus>
<clus scale="   20.417">  1  5  2 -1</clus>
</clustering>
</event>
<event>
10    4  0.3043429E-005  0.1334878E+03  0.7546771E-02  0.1242738E+00
          2   -1    0    0  502    0 -0.00000000000E+00  0.00000000000E+00  0.14894301171E+04  0.14894301171E+04  0.00000000000E+00 0. -1.
         21   -1    0    0  503  502  0.00000000000E+00 -0.00000000000E+00 -0.92549163447E+02  0.92549163447E+02  0.00000000000E+00 0.  1.
         24    2    1    2    0    0  0.35630083458E+02 -0.31116897082E+01  0.81444781569E+03  0.81916796660E+03  0.80198052122E+02 0.  0.
         23    2    1    2    0    0 -0.76925542730E+02  0.42029743714E+02  0.31252040927E+03  0.33700875230E+03  0.90674442015E+02 0.  0.
        -13    1    3    3    0    0  0.48798721296E+01 -0.25391972061E+02  0.87788776859E+02  0.91517401293E+02  0.00000000000E+00 0.  1.
         14    1    3    3    0    0  0.30750211329E+02  0.22280282353E+02  0.72665903883E+03  0.72765056531E+03  0.00000000000E+00 0. -1.
        -13    1    4    4    0    0 -0.30691215704E+02  0.60614700931E+02  0.11755798949E+03  0.13577913530E+03  0.00000000000E+00 0. -1.
         13    1    4    4    0    0 -0.46234327026E+02 -0.18584957217E+02  0.19496241978E+03  0.20122961700E+03  0.00000000000E+00 0.  1.
         21    1    1    2  503  501 -0.99269868883E+02 -0.45930453102E+02 -0.12669649325E+02  0.11011191309E+03  0.00000000000E+00 0.  1.
          1    1    1    2  501    0  0.14056532816E+03  0.70123990966E+01  0.28258237802E+03  0.31569064856E+03  0.00000000000E+00 0. -1.
<scales pt_clust_5="13000.00000" pt_clust_6="13000.00000" pt_clust_7="13000.00000" pt_clust_8="13000.00000" pt_clust_9="107.14069" pt_clust_10="97.96505"></scales>
<clustering>
<clus scale="   80.198">  5  6 -1 -1</clus>
<clus scale="   87.812">  1  5  2 -1</clus>
<clus scale="   90.674">  7  8 -1 -1</clus>
<clus scale="  107.141">  2  9  1 -1</clus>
<clus scale="   97.965">  2 10  1 -1</clus>
<clus scale="  107.141">  2  5  1 -1</clus>
</clustering>
</event>
<event>
10    4  0.3043429E-005  0.2708161E+03  0.7546771E-02  0.1135695E+00
         21   -1    0    0  501  502  0.00000000000E+00  0.00000000000E+00  0.91487927896E+02  0.91487927896E+02  0.00000000000E+00 0.  1.
          2   -1    0    0  503    0 -0.00000000000E+00 -0.00000000000E+00 -0.23983046018E+04  0.23983046018E+04  0.00000000000E+00 0. -1.
         24    2    1    2    0    0 -0.55022426049E+02 -0.54728002149E+02 -0.13659697292E+04  0.13705791355E+04  0.81186476404E+02 0.  0.
         23    2    1    2    0    0 -0.89295226002E+02 -0.17703971169E+03 -0.61280711752E+03  0.65135814668E+03  0.97047282642E+02 0.  0.
        -11    1    3    3    0    0 -0.24125797906E+02  0.11375376150E+02 -0.14512699967E+03  0.14755778305E+03  0.00000000000E+00 0.  1.
         12    1    3    3    0    0 -0.30896628143E+02 -0.66103378299E+02 -0.12208427295E+04  0.12230213524E+04  0.00000000000E+00 0. -1.
        -13    1    4    4    0    0 -0.26949121575E+02 -0.15046168639E+03 -0.41415621896E+03  0.44146386933E+03  0.00000000000E+00 0.  1.
         13    1    4    4    0    0 -0.62346104426E+02 -0.26578025304E+02 -0.19865089856E+03  0.20989427735E+03  0.00000000000E+00 0. -1.
         21    1    1    2  503  502 -0.31867283482E+02 -0.62597198151E+01 -0.11668263970E+02  0.34508784864E+02  0.00000000000E+00 0. -1.
          1    1    1    2  501    0  0.17618493553E+03  0.23802743366E+03 -0.31637156318E+03  0.43334646263E+03  0.00000000000E+00 0. -1.
<scales pt_clust_5="13000.00000" pt_clust_6="13000.00000" pt_clust_7="13000.00000" pt_clust_8="13000.00000" pt_clust_9="32.47627" pt_clust_10="252.83035"></scales>
<clustering>
<clus scale="   32.476">  1  9  2 -1</clus>
<clus scale="   81.186">  5  6 -1 -1</clus>
<clus scale="   97.047">  7  8 -1 -1</clus>
<clus scale="  112.851">  2  5  1 -1</clus>
<clus scale="  252.830">  1 10  2 -1</clus>
<clus scale="   32.476">  1  5  2 -1</clus>
</clustering>
</event>
<event>
10    4  0.3043429E-005  0.1473608E+03  0.7546771E-02  0.1226439E+00
         21   -1    0    0  501  502  0.00000000000E+00  0.00000000000E+00  0.15322234018E+03  0.15322234018E+03  0.00000000000E+00 0. -1.
          2   -1    0    0  503    0 -0.00000000000E+00 -0.00000000000E+00 -0.32743063285E+03  0.32743063285E+03  0.00000000000E+00 0. -1.
         24    2    1    2    0    0  0.39765005701E+02 -0.21102269430E+02 -0.77524426997E+02  0.11985059689E+03  0.79546007690E+02 0.  0.
         23    2    1    2    0    0 -0.11315077663E+03  0.13460782320E+02  0.48912735205E+02  0.15392521172E+03  0.91193334315E+02 0.  0.
        -11    1    3    3    0    0  0.15768470117E+02  0.24143818532E+02 -0.24101576394E+01  0.28937475408E+02  0.00000000000E+00 0.  1.
         12    1    3    3    0    0  0.23996535584E+02 -0.45246087962E+02 -0.75114269358E+02  0.90913121479E+02  0.00000000000E+00 0. -1.
        -13    1    4    4    0    0 -0.11128528980E+03 -0.13718072031E+02  0.56621327497E+02  0.12561280171E+03  0.00000000000E+00 0. -1.
         13    1    4    4    0    0 -0.18654868276E+01  0.27178854351E+02 -0.77085922922E+01  0.28312410001E+02  0.00000000000E+00 0.  1.
         21    1    1    2  503  502 -0.18255544429E+02 -0.24234319351E+02  0.18198921174E+01  0.30395380309E+02  0.00000000000E+00 0.  1.
          1    1    1    2  501    0  0.91641315359E+02  0.31875806460E+02 -0.14741649300E+03  0.17648178412E+03  0.00000000000E+00 0. -1.
<scales pt_clust_5="13000.00000" pt_clust_6="13000.00000" pt_clust_7="13000.00000" pt_clust_8="13000.00000" pt_clust_9="30.34085" pt_clust_10="115.75397"></scales>
<clustering>
<clus scale="   30.341">  1  9  2 -1</clus>
<clus scale="   79.546">  5  6 -1 -1</clus>
<clus scale="   91.158">  2  5  1 -1</clus>
<clus scale="   91.193">  7  8 -1 -1</clus>
<clus scale="  115.754">  1 10  2 -1</clus>
<clus scale="   30.341">  1  5  2 -1</clus>
</clustering>
</event>
<event>
10    4  0.3043429E-005  0.2151189E+03  0.7546771E-02  0.1176555E+00
         21   -1    0    0  501  502  0.00000000000E+00  0.00000000000E+00  0.27915696588E+03  0.27915696588E+03  0.00000000000E+00 0. -1.
          2   -1    0    0  503    0 -0.00000000000E+00 -0.00000000000E+00 -0.55426544348E+03  0.55426544348E+03  0.00000000000E+00 0. -1.
         24    2    1    2    0    0  0.92273340767E+01 -0.31219171027E+02 -0.17881114524E+03  0.19858496211E+03  0.80017380496E+02 0.  0.
         23    2    1    2    0    0 -0.69824458828E+02 -0.12881801397E+03 -0.12666772198E+03  0.21450191286E+03  0.92178213566E+02 0.  0.
        -13    1    3    3    0    0  0.36006142923E+02 -0.23061637510E+02 -0.45788876428E+02  0.62649043547E+02  0.00000000000E+00 0.  1.
         14    1    3    3    0    0 -0.26778808847E+02 -0.81575335173E+01 -0.13302226881E+03  0.13593591857E+03  0.00000000000E+00 0. -1.
        -11    1    4    4    0    0  0.14105522343E+02 -0.21858452586E+02  0.35352301711E+01  0.26253677121E+02  0.00000000000E+00 0.  1.
         11    1    4    4    0    0 -0.83929981171E+02 -0.10695956138E+03 -0.13020295215E+03  0.18824823574E+03  0.00000000000E+00 0. -1.
         21    1    1    2  503  502 -0.24335318342E+02 -0.10507013286E+03  0.84165281942E+02  0.13680546489E+03  0.00000000000E+00 0. -1.
          1    1    1    2  501    0  0.84932443093E+02  0.26510731786E+03 -0.53794892328E+02  0.28353006950E+03  0.00000000000E+00 0. -1.
<scales pt_clust_5="13000.00000" pt_clust_6="13000.00000" pt_clust_7="13000.00000" pt_clust_8="13000.00000" pt_clust_9="109.89739" pt_clust_10="194.36900"></scales>
<clustering>
<clus scale="   80.017">  5  6 -1 -1</clus>
<clus scale="   86.386">  2  5  1 -1</clus>
<clus scale="   92.178">  7  8 -1 -1</clus>
<clus scale="  109.897">  1  9  2 -1</clus>
<clus scale="  194.369">  1 10  2 -1</clus>
<clus scale="  109.897">  1  5  2 -1</clus>
</clustering>
</event>
<event>
10    4  0.3043429E-005  0.1631307E+03  0.7546771E-02  0.1213311E+00
          2   -1    0    0  503    0 -0.00000000000E+00  0.00000000000E+00  0.12326175341E+04  0.12326175341E+04  0.00000000000E+00 0. -1.
         21   -1    0    0  501  502  0.00000000000E+00 -0.00000000000E+00 -0.15235059075E+03  0.15235059075E+03  0.00000000000E+00 0. -1.
         24    2    1    2    0    0 -0.28616084769E+02 -0.15949947301E+02  0.10515119172E+03  0.13745458957E+03  0.82241777381E+02 0.  0.
         23    2    1    2    0    0  0.55416447120E+02 -0.85223105792E+02 -0.84132952012E+01  0.14568509042E+03  0.10401635286E+03 0.  0.
        -11    1    3    3    0    0  0.27889283726E+02 -0.55901415639E+01  0.51589998563E+02  0.58911711749E+02  0.00000000000E+00 0.  1.
         12    1    3    3    0    0 -0.56505368495E+02 -0.10359805737E+02  0.53561193153E+02  0.78542877816E+02  0.00000000000E+00 0. -1.
        -13    1    4    4    0    0 -0.19994730178E+02 -0.38153411236E+02  0.26053839429E+02  0.50341578967E+02  0.00000000000E+00 0.  1.
         13    1    4    4    0    0  0.75411177297E+02 -0.47069694555E+02 -0.34467134630E+02  0.95343511455E+02  0.00000000000E+00 0. -1.
         21    1    1    2  503  502  0.14507857327E+03  0.80525592802E+02  0.84351373459E+02  0.18613789975E+03  0.00000000000E+00 0. -1.
          1    1    1    2  501    0 -0.17187893562E+03  0.20647460290E+02  0.89917767339E+03  0.91569054513E+03  0.00000000000E+00 0. -1.
<scales pt_clust_5="13000.00000" pt_clust_6="13000.00000" pt_clust_7="13000.00000" pt_clust_8="13000.00000" pt_clust_9="163.13074" pt_clust_10="13000.00000"></scales>
<clustering>
<clus scale="   82.242">  5  6 -1 -1</clus>
<clus scale="   88.527">  1  5  2 -1</clus>
<clus scale="  104.016">  7  8 -1 -1</clus>
<clus scale="  145.360">  1  7  2 -1</clus>
<clus scale="  163.131">  2  9  1 -1</clus>
<clus scale="  163.131">  2  5  1 -1</clus>
</clustering>
</event>
<event>
10    4  0.3043429E-005  0.1631882E+03  0.7546771E-02  0.1206426E+00
         21   -1    0    0  503  502  0.00000000000E+00  0.00000000000E+00  0.33783312999E+03  0.33783312999E+03  0.00000000000E+00 0.  1.
         -1   -1    0    0    0  501 -0.00000000000E+00 -0.00000000000E+00 -0.60784288467E+03  0.60784288467E+03  0.00000000000E+00 0.  1.
         24    2    1    2    0    0 -0.66911479072E+02 -0.12796495399E+01 -0.11645073425E+03  0.15521465345E+03  0.77794804486E+02 0.  0.
         23    2    1    2    0    0  0.15908919603E+03  0.46782319520E+02 -0.17867176505E+03  0.26050281318E+03  0.91870334350E+02 0.  0.
        -13    1    3    3    0    0 -0.54988990734E+02 -0.23077612516E+02 -0.11592369822E+03  0.13036360347E+03  0.00000000000E+00 0.  1.
         14    1    3    3    0    0 -0.11922488338E+02  0.21797962976E+02 -0.52703602652E+00  0.24851049979E+02  0.00000000000E+00 0. -1.
        -13    1    4    4    0    0  0.19036061299E+02 -0.16063492090E+02 -0.64648952091E+02  0.69281270300E+02  0.00000000000E+00 0. -1.
         13    1    4    4    0    0  0.14005313473E+03  0.62845811610E+02 -0.11402281296E+03  0.19122154288E+03  0.00000000000E+00 0.  1.
         21    1    1    2  503  501 -0.97013933035E+02 -0.93881810067E+02  0.25846312538E+03  0.29159678435E+03  0.00000000000E+00 0.  1.
         -2    1    1    2    0  502  0.48362160743E+01  0.48379140088E+02 -0.23335038076E+03  0.23836176367E+03  0.00000000000E+00 0.  1.
<scales pt_clust_5="13000.00000" pt_clust_6="13000.00000" pt_clust_7="13000.00000" pt_clust_8="13000.00000" pt_clust_9="134.87117" pt_clust_10="48.62029"></scales>
<clustering>
<clus scale="   48.620">  1 10  2 -1</clus>
<clus scale="   77.795">  5  6 -1 -1</clus>
<clus scale="   91.870">  7  8 -1 -1</clus>
<clus scale="  102.441">  2  5  1 -1</clus>
<clus scale="  134.871">  1  9  2 -1</clus>
<clus scale="   48.620">  1  5  2 -1</clus>
</clustering>
</event>
<event>
10    4  0.3043429E-005  0.1404159E+03  0.7546771E-02  0.1230328E+00
          4   -1    0    0  503    0 -0.00000000000E+00  0.00000000000E+00  0.81030935202E+03  0.81030935202E+03  0.00000000000E+00 0. -1.
         21   -1    0    0  501  502  0.00000000000E+00 -0.00000000000E+00 -0.14456830397E+03  0.14456830397E+03  0.00000000000E+00 0. -1.
         24    2    1    2    0    0 -0.31944462313E+02 -0.46744344391E+02  0.62752847178E+02  0.10645932961E+03  0.64731650887E+02 0.  0.
         23    2    1    2    0    0 -0.60771221578E+02 -0.24446073021E+02  0.32417204476E+03  0.34343599549E+03  0.92574383814E+02 0.  0.
        -11    1    3    3    0    0 -0.25121812068E+02  0.98279398949E+01  0.98872341861E+01  0.28730667309E+02  0.00000000000E+00 0.  1.
         12    1    3    3    0    0 -0.68226502447E+01 -0.56572284286E+02  0.52865612992E+02  0.77728662298E+02  0.00000000000E+00 0. -1.
        -13    1    4    4    0    0 -0.54510100866E+02  0.26111763489E+02  0.20756961985E+03  0.21619047707E+03  0.00000000000E+00 0. -1.
         13    1    4    4    0    0 -0.62611207120E+01 -0.50557836511E+02  0.11660242491E+03  0.12724551842E+03  0.00000000000E+00 0.  1.
         21    1    1    2  503  502 -0.20612844683E+02 -0.26317600162E+02 -0.95891186379E+02  0.10155109586E+03  0.00000000000E+00 0. -1.
          3    1    1    2  501    0  0.11332852857E+03  0.97508017574E+02  0.37470734250E+03  0.40343123503E+03  0.00000000000E+00 0. -1.
<scales pt_clust_5="13000.00000" pt_clust_6="13000.00000" pt_clust_7="13000.00000" pt_clust_8="13000.00000" pt_clust_9="33.42911" pt_clust_10="105.57749"></scales>
<clustering>
<clus scale="   33.429">  2  9  1 -1</clus>
<clus scale="   64.732">  5  6 -1 -1</clus>
<clus scale="   92.574">  7  8 -1 -1</clus>
<clus scale="   97.211">  1  5  2 -1</clus>
<clus scale="  105.577">  2 10  1 -1</clus>
<clus scale="   33.429">  2  5  1 -1</clus>
</clustering>
</event>
<event>
10    4  0.3043429E-005  0.5962996E+03  0.7546771E-02  0.9913113E-01
          2   -1    0    0  503    0 -0.00000000000E+00  0.00000000000E+00  0.13767576476E+04  0.13767576476E+04  0.00000000000E+00 0. -1.
         21   -1    0    0  501  502  0.00000000000E+00 -0.00000000000E+00 -0.63873753147E+03  0.63873753147E+03  0.00000000000E+00 0.  1.
         24    2    1    2    0    0  0.92487175794E+02 -0.86203346106E+02  0.11601419520E+03  0.18896622209E+03  0.79145720252E+02 0.  0.
         23    2    1    2    0    0  0.35511659565E+03 -0.30547643363E+03  0.64602196642E+03  0.80322292243E+03  0.91646243868E+02 0.  0.
        -13    1    3    3    0    0  0.13838248623E+02 -0.21238995646E+02  0.74741448331E+02  0.78923229531E+02  0.00000000000E+00 0.  1.
         14    1    3    3    0    0  0.78648927172E+02 -0.64964350460E+02  0.41272746873E+02  0.11004299256E+03  0.00000000000E+00 0. -1.
        -13    1    4    4    0    0  0.12043343612E+03 -0.51783105194E+02  0.15979221515E+03  0.20668636758E+03  0.00000000000E+00 0.  1.
         13    1    4    4    0    0  0.23468315953E+03 -0.25369332843E+03  0.48622975127E+03  0.59653655485E+03  0.00000000000E+00 0. -1.
         21    1    1    2  503  502 -0.48154352131E+03  0.24786720068E+02 -0.29559524919E+03  0.56557501337E+03  0.00000000000E+00 0.  1.
          1    1    1    2  501    0  0.33939749868E+02  0.36689305967E+03  0.27157920367E+03  0.45773102115E+03  0.00000000000E+00 0. -1.
<scales pt_clust_5="13000.00000" pt_clust_6="13000.00000" pt_clust_7="13000.00000" pt_clust_8="13000.00000" pt_clust_9="552.80669" pt_clust_10="368.45971"></scales>
<clustering>
<clus scale="   79.146">  5  6 -1 -1</clus>
<clus scale="   91.646">  7  8 -1 -1</clus>
<clus scale="  102.006">  5  7 -1 -1</clus>
<clus scale="  368.460">  2 10  1 -1</clus>
<clus scale="  552.807">  2  9  1 -1</clus>
<clus scale="  368.460">  2  5  1 -1</clus>
</clustering>
</event>
<event>
10    4  0.3043429E-005  0.4741872E+03  0.7546771E-02  0.1064295E+00
         21   -1    0    0  501  502  0.00000000000E+00  0.00000000000E+00  0.37239082885E+03  0.37239082885E+03  0.00000000000E+00 0. -1.
          2   -1    0    0  503    0 -0.00000000000E+00 -0.00000000000E+00 -0.27427268270E+04  0.27427268270E+04  0.00000000000E+00 0. -1.
         23    2    1    2    0    0 -0.78168929135E+02  0.61250135706E+02 -0.32718936204E+03  0.35368765850E+03  0.90444018793E+02 0.  0.
         24    2    1    2    0    0  0.30480851500E+03 -0.37203567646E+03 -0.38929772812E+03  0.62405692599E+03  0.81089767461E+02 0.  0.
        -13    1    4    4    0    0  0.14522040261E+03 -0.12366975251E+03 -0.17913590848E+03  0.26167316776E+03  0.00000000000E+00 0.  1.
         14    1    4    4    0    0  0.15958811239E+03 -0.24836592395E+03 -0.21016181963E+03  0.36238375823E+03  0.00000000000E+00 0. -1.
        -11    1    3    3    0    0  0.12154243527E+02  0.39504503105E+02 -0.95018779907E+02  0.10361901339E+03  0.00000000000E+00 0. -1.
         11    1    3    3    0    0 -0.90323172663E+02  0.21745632600E+02 -0.23217058213E+03  0.25006864511E+03  0.00000000000E+00 0.  1.
         21    1    1    2  503  502 -0.54869946181E+03  0.94820727581E+02 -0.13932673204E+03  0.57399826484E+03  0.00000000000E+00 0. -1.
          1    1    1    2  501    0  0.32205987595E+03  0.21596481317E+03 -0.15145221760E+04  0.15633748065E+04  0.00000000000E+00 0. -1.
<scales pt_clust_5="13000.00000" pt_clust_6="13000.00000" pt_clust_7="13000.00000" pt_clust_8="13000.00000" pt_clust_9="467.20223" pt_clust_10="372.96593"></scales>
<clustering>
<clus scale="   81.090">  5  6 -1 -1</clus>
<clus scale="   90.444">  7  8 -1 -1</clus>
<clus scale="  134.321">  2  7  1 -1</clus>
<clus scale="  372.966">  1 10  2 -1</clus>
<clus scale="  467.202">  1  9  2 -1</clus>
<clus scale="  372.966">  1  5  2 -1</clus>
</clustering>
</event>
<event>
10    4  0.3043429E-005  0.4081356E+03  0.7546771E-02  0.1040998E+00
         21   -1    0    0  501  502  0.00000000000E+00  0.00000000000E+00  0.11002181582E+04  0.11002181582E+04  0.00000000000E+00 0.  1.
          2   -1    0    0  503    0 -0.00000000000E+00 -0.00000000000E+00 -0.26182813572E+03  0.26182813572E+03  0.00000000000E+00 0. -1.
         24    2    1    2    0    0 -0.26070685053E+03 -0.13223077273E+03  0.30154919642E+03  0.42749478746E+03  0.79792457513E+02 0.  0.
         23    2    1    2    0    0 -0.62491109475E+02 -0.33226958475E+02  0.41820427324E+02  0.12309548136E+03  0.91620848371E+02 0.  0.
        -11    1    3    3    0    0 -0.25529376341E+03 -0.14138901170E+03  0.28564937072E+03  0.40836420174E+03  0.00000000000E+00 0.  1.
         12    1    3    3    0    0 -0.54130871231E+01  0.91582389655E+01  0.15899825695E+02  0.19130585728E+02  0.00000000000E+00 0. -1.
        -13    1    4    4    0    0 -0.73723535668E+02  0.15854297071E+01  0.44985429959E+02  0.86379176931E+02  0.00000000000E+00 0. -1.
         13    1    4    4    0    0  0.11232426192E+02 -0.34812388182E+02 -0.31650026353E+01  0.36716304427E+02  0.00000000000E+00 0.  1.
         21    1    1    2  503  502  0.60617954492E+02 -0.30247831969E+02  0.47879662915E+03  0.48356559000E+03  0.00000000000E+00 0.  1.
          1    1    1    2  501    0  0.26258000552E+03  0.19570556318E+03  0.16223769623E+02  0.32789043514E+03  0.00000000000E+00 0. -1.
<scales pt_clust_5="13000.00000" pt_clust_6="13000.00000" pt_clust_7="13000.00000" pt_clust_8="13000.00000" pt_clust_9="67.74561" pt_clust_10="336.39412"></scales>
<clustering>
<clus scale="   67.746">  1  9  2 -1</clus>
<clus scale="   79.792">  5  6 -1 -1</clus>
<clus scale="   91.621">  7  8 -1 -1</clus>
<clus scale="  100.978">  5  7 -1 -1</clus>
<clus scale="  336.394">  1 10  2 -1</clus>
<clus scale="   67.746">  1  5  2 -1</clus>
</clustering>
</event>
<event>
10    4  0.3043429E-005  0.1368480E+03  0.7546771E-02  0.1219713E+00
         -1   -1    0    0    0  501 -0.00000000000E+00  0.00000000000E+00  0.67205742892E+03  0.67205742892E+03  0.00000000000E+00 0.  1.
         21   -1    0    0  503  502  0.00000000000E+00 -0.00000000000E+00 -0.11532756251E+03  0.11532756251E+03  0.00000000000E+00 0. -1.
         23    2    1    2    0    0 -0.81574239250E+02 -0.83132724545E+02  0.38253188545E+03  0.41011642355E+03  0.91101213393E+02 0.  0.
         24    2    1    2    0    0  0.75912278989E+02  0.46214149961E+02  0.24269065637E+03  0.27115947678E+03  0.82038316685E+02 0.  0.
        -11    1    4    4    0    0  0.26546441906E+02  0.35599457644E+02  0.20050010349E+03  0.20535901846E+03  0.00000000000E+00 0.  1.
         12    1    4    4    0    0  0.49365837083E+02  0.10614692317E+02  0.42190552874E+02  0.65800458325E+02  0.00000000000E+00 0. -1.
        -13    1    3    3    0    0 -0.92852613475E+02 -0.42073963553E+02  0.30604754527E+03  0.32257855819E+03  0.00000000000E+00 0. -1.
         13    1    3    3    0    0  0.11278374225E+02 -0.41058760992E+02  0.76484340184E+02  0.87537865366E+02  0.00000000000E+00 0.  1.
         21    1    1    2  503  501 -0.18021539076E+02  0.32465098185E+02 -0.72711638632E+02  0.81643988532E+02  0.00000000000E+00 0. -1.
         -2    1    1    2    0  502  0.23683499337E+02  0.44534763994E+01  0.42189632267E+01  0.24465102566E+02  0.00000000000E+00 0.  1.
<scales pt_clust_5="13000.00000" pt_clust_6="13000.00000" pt_clust_7="13000.00000" pt_clust_8="13000.00000" pt_clust_9="35.73802" pt_clust_10="24.09858"></scales>
<clustering>
<clus scale="   24.099">  2 10  1 -1</clus>
<clus scale="   35.738">  2  9  1 -1</clus>
<clus scale="   82.038">  5  6 -1 -1</clus>
<clus scale="   91.101">  7  8 -1 -1</clus>
<clus scale="  130.989">  2  5  1 -1</clus>
<clus scale="   24.099">  2  5  1 -1</clus>
</clustering>
</event>
<event>
10    4  0.3043429E-005  0.1107627E+03  0.7546771E-02  0.1261127E+00
         21   -1    0    0  501  502  0.00000000000E+00  0.00000000000E+00  0.52886568610E+03  0.52886568610E+03  0.00000000000E+00 0. -1.
          4   -1    0    0  503    0 -0.00000000000E+00 -0.00000000000E+00 -0.66471225278E+02  0.66471225278E+02  0.00000000000E+00 0. -1.
         24    2    1    2    0    0 -0.53067191749E+02 -0.25935163503E+02  0.64896493862E+02  0.12264915069E+03  0.85688387207E+02 0.  0.
         23    2    1    2    0    0  0.75337890488E+02  0.29914450371E+02  0.10467323480E+03  0.16056261914E+03  0.90847105050E+02 0.  0.
        -13    1    3    3    0    0 -0.76525166912E+02 -0.16233657076E+02  0.53814327399E+02  0.94950590448E+02  0.00000000000E+00 0.  1.
         14    1    3    3    0    0  0.23457975163E+02 -0.97015064270E+01  0.11082166463E+02  0.27698560237E+02  0.00000000000E+00 0. -1.
        -11    1    4    4    0    0  0.43605178249E+02  0.68780404208E+01 -0.46796526241E+01  0.44391645146E+02  0.00000000000E+00 0.  1.
         11    1    4    4    0    0  0.31732712240E+02  0.23036409951E+02  0.10935288743E+03  0.11617097399E+03  0.00000000000E+00 0. -1.
         21    1    1    2  503  502  0.28365735689E+02  0.15046752242E+02  0.30516821204E+02  0.44297811352E+02  0.00000000000E+00 0. -1.
          3    1    1    2  501    0 -0.50636434428E+02 -0.19026039110E+02  0.26230791096E+03  0.26782733021E+03  0.00000000000E+00 0. -1.
<scales pt_clust_5="13000.00000" pt_clust_6="13000.00000" pt_clust_7="13000.00000" pt_clust_8="13000.00000" pt_clust_9="32.10950" pt_clust_10="52.61816"></scales>
<clustering>
<clus scale="   32.109">  2  9  1 -1</clus>
<clus scale="   52.618">  1 10  2 -1</clus>
<clus scale="   85.688">  5  6 -1 -1</clus>
<clus scale="   90.847">  7  8 -1 -1</clus>
<clus scale="  106.572">  2  5  1 -1</clus>
<clus scale="   52.618">  1  5  2 -1</clus>
</clustering>
</event>
<event>
10    4  0.3043429E-005  0.1264007E+03  0.7546771E-02  0.1249493E+00
         21   -1    0    0  503  502  0.00000000000E+00  0.00000000000E+00  0.65590990097E+02  0.65590990097E+02  0.00000000000E+00 0.  1.
         -3   -1    0    0    0  501 -0.00000000000E+00 -0.00000000000E+00 -0.59822788332E+03  0.59822788332E+03  0.00000000000E+00 0.  1.
         23    2    1    2    0    0  0.86071554999E+02 -0.16010774388E+02 -0.36499930508E+03  0.38678484396E+03  0.93345408760E+02 0.  0.
         24    2    1    2    0    0  0.47217075182E-01 -0.47911178582E+02 -0.10730782110E+03  0.14189234578E+03  0.79517206046E+02 0.  0.
        -11    1    4    4    0    0  0.63686334497E+01  0.20720994180E+02 -0.13685033570E+02  0.25635897403E+02  0.00000000000E+00 0.  1.
         12    1    4    4    0    0 -0.63214163745E+01 -0.68632172762E+02 -0.93622787532E+02  0.11625644837E+03  0.00000000000E+00 0. -1.
        -13    1    3    3    0    0  0.10910897156E+02 -0.45833667160E+02 -0.13511767609E+03  0.14309632810E+03  0.00000000000E+00 0.  1.
         13    1    3    3    0    0  0.75160657843E+02  0.29822892773E+02 -0.22988162898E+03  0.24368851586E+03  0.00000000000E+00 0. -1.
         21    1    1    2  503  501 -0.69629700381E+02  0.44572360750E+02 -0.16249370689E+02  0.84255756871E+02  0.00000000000E+00 0.  1.
         -4    1    1    2    0  502 -0.16489071692E+02  0.19349592219E+02 -0.44080396360E+02  0.50885926813E+02  0.00000000000E+00 0.  1.
<scales pt_clust_5="13000.00000" pt_clust_6="13000.00000" pt_clust_7="13000.00000" pt_clust_8="13000.00000" pt_clust_9="85.22783" pt_clust_10="25.42237"></scales>
<clustering>
<clus scale="   25.422">  1 10  2 -1</clus>
<clus scale="   79.517">  5  6 -1 -1</clus>
<clus scale="   90.291">  1  5  2 -1</clus>
<clus scale="   85.228">  1  9  2 -1</clus>
<clus scale="   93.345">  7  8 -1 -1</clus>
<clus scale="   25.422">  1  5  2 -1</clus>
</clustering>
</event>
<event>
10    4  0.3043429E-005  0.1877333E+03  0.7546771E-02  0.1161233E+00
         -1   -1    0    0    0  501 -0.00000000000E+00  0.00000000000E+00  0.77703822070E+02  0.77703822070E+02  0.00000000000E+00 0.  1.
         21   -1    0    0  501  502  0.00000000000E+00 -0.00000000000E+00 -0.12919004334E+04  0.12919004334E+04  0.00000000000E+00 0. -1.
         24    2    1    2    0    0  0.31926162980E+02 -0.11325415893E+03 -0.32687874257E+03  0.35670795754E+03  0.80901608312E+02 0.  0.
         23    2    1    2    0    0 -0.12179216581E+03  0.23334663614E+03 -0.64045896393E+03  0.69797004799E+03  0.87695605116E+02 0.  0.
        -11    1    3    3    0    0  0.17451625879E+02 -0.68868389690E+02 -0.28587801157E+03  0.29457367813E+03  0.00000000000E+00 0.  1.
         12    1    3    3    0    0  0.14474537101E+02 -0.44385769241E+02 -0.41000730998E+02  0.62134279410E+02  0.00000000000E+00 0. -1.
        -11    1    4    4    0    0 -0.88627557353E+02  0.10076176959E+03 -0.39298911031E+03  0.41526885142E+03  0.00000000000E+00 0. -1.
         11    1    4    4    0    0 -0.33164608461E+02  0.13258486655E+03 -0.24746985362E+03  0.28270119657E+03  0.00000000000E+00 0.  1.
         21    1    1    2  503  502  0.24652065073E+02 -0.75152294406E+01 -0.15135599009E+03  0.15353448708E+03  0.00000000000E+00 0. -1.
         -2    1    1    2    0  503  0.65213937762E+02 -0.11257724777E+03 -0.95502914696E+02  0.16139176283E+03  0.00000000000E+00 0.  1.
<scales pt_clust_5="13000.00000" pt_clust_6="13000.00000" pt_clust_7="13000.00000" pt_clust_8="13000.00000" pt_clust_9="25.77214" pt_clust_10="132.24277"></scales>
<clustering>
<clus scale="   25.772">  2  9  1 -1</clus>
<clus scale="   80.902">  5  6 -1 -1</clus>
<clus scale="   87.696">  7  8 -1 -1</clus>
<clus scale="  132.243">  2 10  1 -1</clus>
<clus scale="  184.657">  1  5  2 -1</clus>
<clus scale="   25.772">  2  5  1 -1</clus>
</clustering>
</event>
<event>
10    4  0.3043429E-005  0.2615215E+03  0.7546771E-02  0.1106233E+00
          2   -1    0    0  503    0 -0.00000000000E+00  0.00000000000E+00  0.10901031798E+04  0.10901031798E+04  0.00000000000E+00 0. -1.
         21   -1    0    0  501  502  0.00000000000E+00 -0.00000000000E+00 -0.70371250323E+02  0.70371250323E+02  0.00000000000E+00 0. -1.
         24    2    1    2    0    0 -0.42702751589E+02  0.12516857911E+03  0.19769034240E+03  0.25071094971E+03  0.79270490315E+02 0.  0.
         23    2    1    2    0    0  0.31320218590E+02  0.41536391298E+02  0.13127665763E+03  0.16781892087E+03  0.90682972329E+02 0.  0.
        -13    1    3    3    0    0 -0.15275699797E+02  0.79179898778E+02  0.17474764550E+03  0.19245660026E+03  0.00000000000E+00 0.  1.
         14    1    3    3    0    0 -0.27427051792E+02  0.45988680334E+02  0.22942696901E+02  0.58254349451E+02  0.00000000000E+00 0. -1.
        -13    1    4    4    0    0 -0.13937378272E+02  0.20144812121E+02  0.11123032064E+03  0.11389577779E+03  0.00000000000E+00 0.  1.
         13    1    4    4    0    0  0.45257596862E+02  0.21391579178E+02  0.20046336988E+02  0.53923143084E+02  0.00000000000E+00 0. -1.
         21    1    1    2  503  502  0.26991428462E+02  0.53687335002E+01 -0.23485358600E+01  0.27620212355E+02  0.00000000000E+00 0. -1.
          1    1    1    2  501    0 -0.15608895463E+02 -0.17207370391E+03  0.69311346531E+03  0.71432434719E+03  0.00000000000E+00 0. -1.
<scales pt_clust_5="13000.00000" pt_clust_6="13000.00000" pt_clust_7="13000.00000" pt_clust_8="13000.00000" pt_clust_9="27.52018" pt_clust_10="171.36414"></scales>
<clustering>
<clus scale="   27.520">  2  9  1 -1</clus>
<clus scale="   79.270">  5  6 -1 -1</clus>
<clus scale="   90.683">  7  8 -1 -1</clus>
<clus scale="  106.995">  5  7 -1 -1</clus>
<clus scale="  171.364">  2 10  1 -1</clus>
<clus scale="   27.520">  2  5  1 -1</clus>
</clustering>
</event>
<event>
10    4  0.3043429E-005  0.1329373E+03  0.7546771E-02  0.1247090E+00
          2   -1    0    0  503    0 -0.00000000000E+00  0.00000000000E+00  0.12322548039E+04  0.12322548039E+04  0.00000000000E+00 0. -1.
         21   -1    0    0  501  502  0.00000000000E+00 -0.00000000000E+00 -0.61678315997E+02  0.61678315997E+02  0.00000000000E+00 0. -1.
         24    2    1    2    0    0  0.11420561971E+02  0.50244878055E+01  0.57913246380E+03  0.58470924924E+03  0.79591587516E+02 0.  0.
         23    2    1    2    0    0  0.59711798577E+02 -0.49306772316E+02  0.40726016095E+03  0.42439994772E+03  0.90872549428E+02 0.  0.
        -11    1    3    3    0    0  0.15740909927E+01 -0.35823672897E+02  0.19350548184E+03  0.19679985976E+03  0.00000000000E+00 0.  1.
         12    1    3    3    0    0  0.98464709784E+01  0.40848160703E+02  0.38562698196E+03  0.38790938947E+03  0.00000000000E+00 0. -1.
        -13    1    4    4    0    0  0.26742388744E+02  0.64523484966E+01  0.26597388491E+02  0.38264987017E+02  0.00000000000E+00 0.  1.
         13    1    4    4    0    0  0.32969409833E+02 -0.55759120812E+02  0.38066277246E+03  0.38613496070E+03  0.00000000000E+00 0. -1.
         21    1    1    2  503  502  0.65262219790E+02  0.99615605085E+01  0.20746552678E+02  0.69201224466E+02  0.00000000000E+00 0. -1.
          1    1    1    2  501    0 -0.13639458034E+03  0.34320724002E+02  0.16343731047E+03  0.21562269847E+03  0.00000000000E+00 0. -1.
<scales pt_clust_5="13000.00000" pt_clust_6="13000.00000" pt_clust_7="13000.00000" pt_clust_8="13000.00000" pt_clust_9="66.01810" pt_clust_10="97.02834"></scales>
<clustering>
<clus scale="   66.018">  2  9  1 -1</clus>
<clus scale="   79.592">  5  6 -1 -1</clus>
<clus scale="   81.444">  1  5  2 -1</clus>
<clus scale="   90.873">  7  8 -1 -1</clus>
<clus scale="   97.028">  2 10  1 -1</clus>
<clus scale="   66.018">  2  5  1 -1</clus>
</clustering>
</event>
<event>
10    4  0.3043429E-005  0.1088993E+03  0.7546771E-02  0.1267456E+00
         21   -1    0    0  501  502  0.00000000000E+00  0.00000000000E+00  0.98917824960E+03  0.98917824960E+03  0.00000000000E+00 0. -1.
          2   -1    0    0  503    0 -0.00000000000E+00 -0.00000000000E+00 -0.92956640879E+03  0.92956640879E+03  0.00000000000E+00 0. -1.
         24    2    1    2    0    0  0.55951653853E+02  0.65403125411E+01 -0.91328421493E+03  0.91867796901E+03  0.81901100379E+02 0.  0.
         23    2    1    2    0    0  0.10327388800E+02  0.31030682174E+02  0.34931271328E+03  0.36308913904E+03  0.93513598149E+02 0.  0.
        -11    1    3    3    0    0  0.13750848330E+02  0.26573257523E+02 -0.10881465863E+03  0.11285324000E+03  0.00000000000E+00 0.  1.
         12    1    3    3    0    0  0.42200805523E+02 -0.20032944981E+02 -0.80446955630E+03  0.80582472901E+03  0.00000000000E+00 0. -1.
        -11    1    4    4    0    0  0.24177519614E+02  0.57472873329E+02  0.29071946098E+03  0.29733060491E+03  0.00000000000E+00 0. -1.
         11    1    4    4    0    0 -0.13850130814E+02 -0.26442191155E+02  0.58593252292E+02  0.65758534129E+02  0.00000000000E+00 0.  1.
         21    1    1    2  503  502 -0.80007420361E+02  0.93922688674E+01  0.41321245588E+03  0.42099161004E+03  0.00000000000E+00 0. -1.
          1    1    1    2  501    0  0.13728377708E+02 -0.46963263583E+02  0.21037088658E+03  0.21598594029E+03  0.00000000000E+00 0. -1.
<scales pt_clust_5="13000.00000" pt_clust_6="13000.00000" pt_clust_7="13000.00000" pt_clust_8="13000.00000" pt_clust_9="74.33790" pt_clust_10="48.92869"></scales>
<clustering>
<clus scale="   48.929">  1 10  2 -1</clus>
<clus scale="   74.338">  1  9  2 -1</clus>
<clus scale="   81.901">  5  6 -1 -1</clus>
<clus scale="   93.514">  7  8 -1 -1</clus>
<clus scale="   99.106">  2  5  1 -1</clus>
<clus scale="   48.929">  1  5  2 -1</clus>
</clustering>
</event>
<event>
10    4  0.4515907E-005  0.1662652E+03  0.7546771E-02  0.1183104E+00
          2   -1    0    0  503    0 -0.00000000000E+00  0.00000000000E+00  0.11468921649E+04  0.11468921649E+04  0.00000000000E+00 0. -1.
         21   -1    0    0  501  502  0.00000000000E+00 -0.00000000000E+00 -0.28551381332E+03  0.28551381332E+03  0.00000000000E+00 0.  1.
         24    2    1    2    0    0 -0.50211850004E+02 -0.14445030354E+03  0.21726868271E+03  0.27846697911E+03  0.83373004611E+02 0.  0.
         23    2    1    2    0    0 -0.49415124243E+02  0.40898909353E+02 -0.22602775770E+03  0.25243156532E+03  0.92296113839E+02 0.  0.
        -13    1    3    3    0    0 -0.67146816306E+02 -0.87847787211E+02  0.10978870053E+03  0.15581876466E+03  0.00000000000E+00 0.  1.
         14    1    3    3    0    0  0.16934966302E+02 -0.56602516327E+02  0.10747998218E+03  0.12264821445E+03  0.00000000000E+00 0. -1.
        -11    1    4    4    0    0 -0.52717282891E+02 -0.11998621018E+02 -0.75624778533E+02  0.92963358104E+02  0.00000000000E+00 0. -1.
         11    1    4    4    0    0  0.33021586488E+01  0.52897530371E+02 -0.15040297917E+03  0.15946820722E+03  0.00000000000E+00 0.  1.
         21    1    1    2  503  502 -0.46124534098E+01  0.44007146583E+02  0.31485069448E+02  0.54306659582E+02  0.00000000000E+00 0. -1.
          1    1    1    2  501    0  0.10423942766E+03  0.59544247601E+02  0.83865235717E+03  0.84720077425E+03  0.00000000000E+00 0. -1.
<scales pt_clust_5="13000.00000" pt_clust_6="13000.00000" pt_clust_7="13000.00000" pt_clust_8="13000.00000" pt_clust_9="44.24821" pt_clust_10="120.32702"></scales>
<clustering>
<clus scale="   44.248">  2  9  1 -1</clus>
<clus scale="   83.373">  5  6 -1 -1</clus>
<clus scale="   92.296">  7  8 -1 -1</clus>
<clus scale="  120.327">  2 10  1 -1</clus>
<clus scale="  161.482">  1  5  2 -1</clus>
<clus scale="   44.248">  2  5  1 -1</clus>
</clustering>
</event>
<event>
10    4  0.3043429E-005  0.1026523E+03  0.7546771E-02  0.1281936E+00
          4   -1    0    0  503    0 -0.00000000000E+00  0.00000000000E+00  0.17170975114E+03  0.17170975114E+03  0.00000000000E+00 0. -1.
         21   -1    0    0  501  502  0.00000000000E+00 -0.00000000000E+00 -0.36442871716E+03  0.36442871716E+03  0.00000000000E+00 0.  1.
         23    2    1    2    0    0 -0.33025995178E+02  0.21323136867E+01  0.10702970985E+03  0.14589831193E+03  0.93464942709E+02 0.  0.
         24    2    1    2    0    0  0.96360867980E+02  0.17977264232E+02 -0.75763284592E+02  0.14689139395E+03  0.78920259870E+02 0.  0.
        -11    1    4    4    0    0  0.94867332536E+02  0.33851590639E+02 -0.81886176924E+02  0.12981173654E+03  0.00000000000E+00 0.  1.
         12    1    4    4    0    0  0.14935354446E+01 -0.15874326406E+02  0.61228923315E+01  0.17079657417E+02  0.00000000000E+00 0. -1.
        -13    1    3    3    0    0 -0.39834057461E+02 -0.38995051060E+02  0.74363684373E+02  0.92937202963E+02  0.00000000000E+00 0.  1.
         13    1    3    3    0    0  0.68080622832E+01  0.41127364747E+02  0.32666025477E+02  0.52961108972E+02  0.00000000000E+00 0. -1.
         21    1    1    2  503  502 -0.30581720903E+02 -0.60696415928E+01 -0.19482206422E+03  0.19730108694E+03  0.00000000000E+00 0.  1.
          3    1    1    2  501    0 -0.32753151900E+02 -0.14039936326E+02 -0.29163327049E+02  0.46047675468E+02  0.00000000000E+00 0. -1.
<scales pt_clust_5="13000.00000" pt_clust_6="13000.00000" pt_clust_7="13000.00000" pt_clust_8="13000.00000" pt_clust_9="31.17823" pt_clust_10="42.47228"></scales>
<clustering>
<clus scale="   31.178">  2  9  1 -1</clus>
<clus scale="   42.472">  2 10  1 -1</clus>
<clus scale="   78.920">  5  6 -1 -1</clus>
<clus scale="   89.611">  2  5  1 -1</clus>
<clus scale="   93.465">  7  8 -1 -1</clus>
<clus scale="   31.178">  2  5  1 -1</clus>
</clustering>
</event>
<event>
10    4  0.3043429E-005  0.1687039E+03  0.7546771E-02  0.1205976E+00
         21   -1    0    0  503  502  0.00000000000E+00  0.00000000000E+00  0.10852806764E+03  0.10852806764E+03  0.00000000000E+00 0.  1.
          2   -1    0    0  502    0 -0.00000000000E+00 -0.00000000000E+00 -0.11256432460E+04  0.11256432460E+04  0.00000000000E+00 0. -1.
         23    2    1    2    0    0  0.23405847241E+02 -0.14060819520E+01 -0.41464772935E+03  0.42501025845E+03  0.90283827925E+02 0.  0.
         24    2    1    2    0    0 -0.16206152946E+03  0.13829818445E+02 -0.17504328662E+03  0.25215874212E+03  0.80552317324E+02 0.  0.
        -13    1    4    4    0    0 -0.12915215483E+03 -0.13307168082E+02 -0.93057473699E+02  0.15974058104E+03  0.00000000000E+00 0.  1.
         14    1    4    4    0    0 -0.32909374627E+02  0.27136986527E+02 -0.81985812925E+02  0.92418161078E+02  0.00000000000E+00 0. -1.
        -13    1    3    3    0    0  0.53468861182E+02 -0.19446305151E+02 -0.28984259879E+03  0.29537401709E+03  0.00000000000E+00 0. -1.
         13    1    3    3    0    0 -0.30063013941E+02  0.18040223199E+02 -0.12480513056E+03  0.12963624136E+03  0.00000000000E+00 0.  1.
         21    1    1    2  503  501  0.96356539133E+01 -0.31298363094E+02  0.51286873666E+02  0.60850445923E+02  0.00000000000E+00 0.  1.
          1    1    1    2  501    0  0.12902002831E+03  0.18874626601E+02 -0.47871103606E+03  0.49615186715E+03  0.00000000000E+00 0. -1.
<scales pt_clust_5="13000.00000" pt_clust_6="13000.00000" pt_clust_7="13000.00000" pt_clust_8="13000.00000" pt_clust_9="32.74803" pt_clust_10="148.23070"></scales>
<clustering>
<clus scale="   32.748">  1  9  2 -1</clus>
<clus scale="   80.552">  5  6 -1 -1</clus>
<clus scale="   90.284">  7  8 -1 -1</clus>
<clus scale="   93.620">  2  7  1 -1</clus>
<clus scale="  148.231">  1 10  2 -1</clus>
<clus scale="   32.748">  1  5  2 -1</clus>
</clustering>
</event>
<event>
10    4  0.3043429E-005  0.3778798E+03  0.7546771E-02  0.1110088E+00
         21   -1    0    0  503  502  0.00000000000E+00  0.00000000000E+00  0.48906008747E+02  0.48906008747E+02  0.00000000000E+00 0. -1.
          2   -1    0    0  502    0 -0.00000000000E+00 -0.00000000000E+00 -0.39154358204E+04  0.39154358204E+04  0.00000000000E+00 0. -1.
         23    2    1    2    0    0  0.88898669108E+01  0.26128164702E+01 -0.25309460340E+03  0.26500512991E+03  0.78006307868E+02 0.  0.
         24    2    1    2    0    0 -0.30315735416E+03 -0.21408654079E+03 -0.23824996275E+04  0.24125563860E+04  0.79915029083E+02 0.  0.
        -11    1    4    4    0    0 -0.20454723551E+03 -0.10079556642E+03 -0.13330354245E+04  0.13523988911E+04  0.00000000000E+00 0.  1.
         12    1    4    4    0    0 -0.98610118651E+02 -0.11329097437E+03 -0.10494642030E+04  0.10601574948E+04  0.00000000000E+00 0. -1.
        -13    1    3    3    0    0  0.39755275369E+02 -0.15611377661E+02 -0.13775135928E+03  0.14422078219E+03  0.00000000000E+00 0. -1.
         13    1    3    3    0    0 -0.30865408458E+02  0.18224194131E+02 -0.11534324412E+03  0.12078434772E+03  0.00000000000E+00 0.  1.
         21    1    1    2  503  501  0.63042199583E+02  0.49196253196E+01 -0.16628688079E+03  0.17790404258E+03  0.00000000000E+00 0.  1.
          1    1    1    2  501    0  0.23122528767E+03  0.20655409900E+03 -0.10646486999E+04  0.11088762707E+04  0.00000000000E+00 0. -1.
<scales pt_clust_5="13000.00000" pt_clust_6="13000.00000" pt_clust_7="13000.00000" pt_clust_8="13000.00000" pt_clust_9="43.52018" pt_clust_10="43.52018"></scales>
<clustering>
<clus scale="   43.520">  9 10 -1 -1</clus>
<clus scale="   78.006">  7  8 -1 -1</clus>
<clus scale="   78.555">  2  7  1 -1</clus>
<clus scale="   79.915">  5  6 -1 -1</clus>
<clus scale="  374.023">  2  5  1 -1</clus>
<clus scale="  377.880">  1  5  2 -1</clus>
</clustering>
</event>
<event>
10    4  0.3043429E-005  0.2284918E+03  0.7546771E-02  0.1147982E+00
          2   -1    0    0  503    0 -0.00000000000E+00  0.00000000000E+00  0.89920936372E+03  0.89920936372E+03  0.00000000000E+00 0. -1.
         21   -1    0    0  501  502  0.00000000000E+00 -0.00000000000E+00 -0.24367302307E+03  0.24367302307E+03  0.00000000000E+00 0. -1.
         24    2    1    2    0    0  0.23914052042E+02  0.10639347458E+03  0.69026302273E+02  0.15176452648E+03  0.79852287224E+02 0.  0.
         23    2    1    2    0    0 -0.85061857722E+02  0.15614375056E+03 -0.91531409831E+02  0.21952769005E+03  0.90542902736E+02 0.  0.
        -13    1    3    3    0    0 -0.13637700242E+01  0.10955516077E+03  0.53462045785E+02  0.12191137543E+03  0.00000000000E+00 0.  1.
         14    1    3    3    0    0  0.25277822066E+02 -0.31616861850E+01  0.15564256488E+02  0.29853151056E+02  0.00000000000E+00 0. -1.
        -11    1    4    4    0    0 -0.39489966711E+02  0.94771821905E+02 -0.99121436731E+02  0.14271024812E+03  0.00000000000E+00 0.  1.
         11    1    4    4    0    0 -0.45571891010E+02  0.61371928650E+02  0.75900269000E+01  0.76817441931E+02  0.00000000000E+00 0. -1.
         21    1    1    2  503  502 -0.32181376996E+01  0.33297279133E+02  0.53094783870E+01  0.33871164264E+02  0.00000000000E+00 0.  1.
          1    1    1    2  501    0  0.64365943379E+02 -0.29583450427E+03  0.67273196982E+03  0.73771900600E+03  0.00000000000E+00 0. -1.
<scales pt_clust_5="13000.00000" pt_clust_6="13000.00000" pt_clust_7="13000.00000" pt_clust_8="13000.00000" pt_clust_9="33.45243" pt_clust_10="209.78688"></scales>
<clustering>
<clus scale="   33.452">  2  9  1 -1</clus>
<clus scale="   79.852">  5  6 -1 -1</clus>
<clus scale="   90.543">  7  8 -1 -1</clus>
<clus scale="  139.837">  1  5  2 -1</clus>
<clus scale="  209.787">  2 10  1 -1</clus>
<clus scale="   33.452">  2  5  1 -1</clus>
</clustering>
</event>
<event>
10    4  0.3043429E-005  0.1734522E+03  0.7546771E-02  0.1175183E+00
         21   -1    0    0  503  502  0.00000000000E+00  0.00000000000E+00  0.79078956627E+02  0.79078956627E+02  0.00000000000E+00 0.  1.
         -1   -1    0    0    0  501 -0.00000000000E+00 -0.00000000000E+00 -0.77501157678E+03  0.77501157678E+03  0.00000000000E+00 0.  1.
         24    2    1    2    0    0  0.12733884314E+03  0.44677565885E+02 -0.31772640351E+03  0.35567415022E+03  0.85689951466E+02 0.  0.
         23    2    1    2    0    0 -0.17193147209E+03 -0.52655909061E+02 -0.14162563232E+03  0.24682263762E+03  0.92360808006E+02 0.  0.
        -13    1    3    3    0    0  0.10512213517E+03  0.69341079561E+02 -0.26443047245E+03  0.29288619527E+03  0.00000000000E+00 0.  1.
         14    1    3    3    0    0  0.22216707971E+02 -0.24663513675E+02 -0.53295931061E+02  0.62787954956E+02  0.00000000000E+00 0. -1.
        -13    1    4    4    0    0 -0.14161944225E+03 -0.78492458654E+02 -0.10729987633E+03  0.19424313617E+03  0.00000000000E+00 0.  1.
         13    1    4    4    0    0 -0.30312029838E+02  0.25836549593E+02 -0.34325755993E+02  0.52579501446E+02  0.00000000000E+00 0. -1.
         21    1    1    2  503  501  0.18957198219E+02 -0.12676451786E+02 -0.14363718105E+02  0.26951515579E+02  0.00000000000E+00 0.  1.
         -2    1    1    2    0  502  0.25635430732E+02  0.20654794962E+02 -0.22221686621E+03  0.22464222999E+03  0.00000000000E+00 0.  1.
<scales pt_clust_5="13000.00000" pt_clust_6="13000.00000" pt_clust_7="13000.00000" pt_clust_8="13000.00000" pt_clust_9="22.80499" pt_clust_10="33.03650"></scales>
<clustering>
<clus scale="   22.805">  1  9  2 -1</clus>
<clus scale="   33.037">  1 10  2 -1</clus>
<clus scale="   85.690">  5  6 -1 -1</clus>
<clus scale="   92.361">  7  8 -1 -1</clus>
<clus scale="  169.994">  2  5  1 -1</clus>
<clus scale="   22.805">  1  5  2 -1</clus>
</clustering>
</event>
<event>
10    4  0.3043429E-005  0.2935447E+03  0.7546771E-02  0.1088929E+00
         21   -1    0    0  501  502  0.00000000000E+00  0.00000000000E+00  0.11045641725E+04  0.11045641725E+04  0.00000000000E+00 0. -1.
          2   -1    0    0  503    0 -0.00000000000E+00 -0.00000000000E+00 -0.29969421767E+03  0.29969421767E+03  0.00000000000E+00 0. -1.
         23    2    1    2    0    0  0.12844076966E+03  0.25276645146E+03 -0.17805165399E+03  0.34668655855E+03  0.90007044722E+02 0.  0.
         24    2    1    2    0    0 -0.11585108776E+03 -0.20924334215E+03  0.80648949962E+03  0.84489680218E+03  0.78873585933E+02 0.  0.
        -11    1    4    4    0    0 -0.73712329646E+01 -0.91130401364E+02  0.28513448424E+03  0.29943406492E+03  0.00000000000E+00 0.  1.
         12    1    4    4    0    0 -0.10847985480E+03 -0.11811294079E+03  0.52135501538E+03  0.54546273726E+03  0.00000000000E+00 0. -1.
        -13    1    3    3    0    0  0.67431921880E+02  0.19023414366E+03 -0.15980770668E+03  0.25743852978E+03  0.00000000000E+00 0. -1.
         13    1    3    3    0    0  0.61008847781E+02  0.62532307798E+02 -0.18243947310E+02  0.89248028771E+02  0.00000000000E+00 0.  1.
         21    1    1    2  503  502 -0.18217279653E+02  0.24419579901E+02  0.12109303167E+03  0.12486675891E+03  0.00000000000E+00 0. -1.
          1    1    1    2  501    0  0.56275977546E+01 -0.67942689204E+02  0.55339077502E+02  0.87808270519E+02  0.00000000000E+00 0. -1.
<scales pt_clust_5="13000.00000" pt_clust_6="13000.00000" pt_clust_7="13000.00000" pt_clust_8="13000.00000" pt_clust_9="30.46613" pt_clust_10="66.30164"></scales>
<clustering>
<clus scale="   30.466">  1  9  2 -1</clus>
<clus scale="   66.302">  1 10  2 -1</clus>
<clus scale="   78.874">  5  6 -1 -1</clus>
<clus scale="   90.007">  7  8 -1 -1</clus>
<clus scale="  290.324">  1  5  2 -1</clus>
<clus scale="   30.466">  1  5  2 -1</clus>
</clustering>
</event>
<event>
10    4  0.3043429E-005  0.2979105E+03  0.7546771E-02  0.1102603E+00
          2   -1    0    0  502    0 -0.00000000000E+00  0.00000000000E+00  0.17382080275E+04  0.17382080275E+04  0.00000000000E+00 0. -1.
         21   -1    0    0  503  502  0.00000000000E+00 -0.00000000000E+00 -0.14667897648E+03  0.14667897648E+03  0.00000000000E+00 0. -1.
         23    2    1    2    0    0  0.15668043060E+03 -0.64995370414E+02  0.69015672553E+03  0.71644224721E+03  0.90554029703E+02 0.  0.
         24    2    1    2    0    0 -0.11971385440E+03  0.33747716438E+03  0.72164593301E+03  0.80961536344E+03  0.80510500331E+02 0.  0.
        -11    1    4    4    0    0 -0.31767839439E+02  0.44064273950E+02  0.17208086520E+03  0.18045132316E+03  0.00000000000E+00 0.  1.
         12    1    4    4    0    0 -0.87946014964E+02  0.29341289043E+03  0.54956506781E+03  0.62916404028E+03  0.00000000000E+00 0. -1.
        -13    1    3    3    0    0  0.40781015851E+02 -0.76610690907E+01  0.58717256378E+02  0.71899231081E+02  0.00000000000E+00 0.  1.
         13    1    3    3    0    0  0.11589941475E+03 -0.57334301324E+02  0.63143946915E+03  0.64454301613E+03  0.00000000000E+00 0. -1.
         21    1    1    2  503  501  0.20271994173E+02 -0.69772624708E+01 -0.13651803238E+02  0.25416680959E+02  0.00000000000E+00 0. -1.
          1    1    1    2  501    0 -0.57238570369E+02 -0.26550453150E+03  0.19337819569E+03  0.33341271234E+03  0.00000000000E+00 0. -1.
<scales pt_clust_5="13000.00000" pt_clust_6="13000.00000" pt_clust_7="13000.00000" pt_clust_8="13000.00000" pt_clust_9="21.43912" pt_clust_10="286.82524"></scales>
<clustering>
<clus scale="   21.439">  2  9  1 -1</clus>
<clus scale="   80.511">  5  6 -1 -1</clus>
<clus scale="   90.554">  7  8 -1 -1</clus>
<clus scale="  194.238">  1  7  2 -1</clus>
<clus scale="  286.825">  2 10  1 -1</clus>
<clus scale="   21.439">  2  5  1 -1</clus>
</clustering>
</event>
<event>
10    4  0.3043429E-005  0.1861487E+03  0.7546771E-02  0.1163032E+00
          2   -1    0    0  503    0 -0.00000000000E+00  0.00000000000E+00  0.69437660469E+03  0.69437660469E+03  0.00000000000E+00 0. -1.
         21   -1    0    0  501  502  0.00000000000E+00 -0.00000000000E+00 -0.12379236884E+03  0.12379236884E+03  0.00000000000E+00 0. -1.
         23    2    1    2    0    0  0.19355678256E+02 -0.19071616412E+03  0.23731099614E+03  0.31863767086E+03  0.92011732215E+02 0.  0.
         24    2    1    2    0    0 -0.11994171524E+03  0.98383917382E+02  0.11991513825E+03  0.21275442884E+03  0.82579636446E+02 0.  0.
        -11    1    4    4    0    0 -0.34532616987E+01  0.42167946128E+02  0.11137769870E+02  0.43750549879E+02  0.00000000000E+00 0.  1.
         12    1    4    4    0    0 -0.11648845354E+03  0.56215971254E+02  0.10877736838E+03  0.16900387896E+03  0.00000000000E+00 0. -1.
        -11    1    3    3    0    0  0.86584183114E+00 -0.12417103685E+03  0.21080731957E+03  0.24466083066E+03  0.00000000000E+00 0. -1.
         11    1    3    3    0    0  0.18489836425E+02 -0.66545127266E+02  0.26503676566E+02  0.73976840196E+02  0.00000000000E+00 0.  1.
         21    1    1    2  503  502  0.10359417339E+03  0.27465238582E+02  0.66308294445E+02  0.12602730657E+03  0.00000000000E+00 0.  1.
          1    1    1    2  501    0 -0.30081364036E+01  0.64867008154E+02  0.14704980702E+03  0.16074956726E+03  0.00000000000E+00 0. -1.
<scales pt_clust_5="13000.00000" pt_clust_6="13000.00000" pt_clust_7="13000.00000" pt_clust_8="13000.00000" pt_clust_9="111.85560" pt_clust_10="64.93675"></scales>
<clustering>
<clus scale="   64.937">  2 10  1 -1</clus>
<clus scale="   82.580">  5  6 -1 -1</clus>
<clus scale="   92.012">  7  8 -1 -1</clus>
<clus scale="  111.856">  2  9  1 -1</clus>
<clus scale="  181.672">  2  5  1 -1</clus>
<clus scale="   64.937">  2  5  1 -1</clus>
</clustering>
</event>
<event>
10    4  0.3043429E-005  0.5913533E+03  0.7546771E-02  0.9923509E-01
         21   -1    0    0  503  502  0.00000000000E+00  0.00000000000E+00  0.23296441166E+03  0.23296441166E+03  0.00000000000E+00 0. -1.
          2   -1    0    0  502    0 -0.00000000000E+00 -0.00000000000E+00 -0.17538357336E+04  0.17538357336E+04  0.00000000000E+00 0. -1.
         24    2    1    2    0    0  0.95474854583E+02 -0.49015030958E+03 -0.88175795423E+03  0.10164927074E+04  0.79984751799E+02 0.  0.
         23    2    1    2    0    0  0.13887186798E+02 -0.33461227824E+02 -0.17815924826E+03  0.20366323592E+03  0.91790458126E+02 0.  0.
        -11    1    3    3    0    0  0.38960373111E+02 -0.19501770309E+03 -0.43212093013E+03  0.47568720127E+03  0.00000000000E+00 0.  1.
         12    1    3    3    0    0  0.56514481472E+02 -0.29513260649E+03 -0.44963702410E+03  0.54080550614E+03  0.00000000000E+00 0. -1.
        -11    1    4    4    0    0  0.40925220549E+02 -0.53138155023E+01 -0.31548639381E+02  0.51946385427E+02  0.00000000000E+00 0.  1.
         11    1    4    4    0    0 -0.27038033752E+02 -0.28147412322E+02 -0.14661060887E+03  0.15171685050E+03  0.00000000000E+00 0. -1.
         21    1    1    2  503  501  0.57606637633E+02  0.49601754952E+02  0.11493738953E+02  0.76882799304E+02  0.00000000000E+00 0. -1.
          1    1    1    2  501    0 -0.16696867901E+03  0.47400978245E+03 -0.47244785839E+03  0.68976140261E+03  0.00000000000E+00 0. -1.
<scales pt_clust_5="13000.00000" pt_clust_6="13000.00000" pt_clust_7="13000.00000" pt_clust_8="13000.00000" pt_clust_9="76.01881" pt_clust_10="520.06903"></scales>
<clustering>
<clus scale="   76.019">  1  9  2 -1</clus>
<clus scale="   79.985">  5  6 -1 -1</clus>
<clus scale="   91.790">  7  8 -1 -1</clus>
<clus scale="   93.727">  5  7 -1 -1</clus>
<clus scale="  520.069">  1 10  2 -1</clus>
<clus scale="   76.019">  1  5  2 -1</clus>
</clustering>
</event>
<event>
10    4  0.3043429E-005  0.2692571E+03  0.7546771E-02  0.1102460E+00
          2   -1    0    0  503    0 -0.00000000000E+00  0.00000000000E+00  0.47452198151E+03  0.47452198151E+03  0.00000000000E+00 0. -1.
         21   -1    0    0  501  502  0.00000000000E+00 -0.00000000000E+00 -0.99693021371E+03  0.99693021371E+03  0.00000000000E+00 0. -1.
         23    2    1    2    0    0  0.24393976868E+03  0.20664633992E+03  0.27572101071E+03  0.43266315065E+03  0.94688994275E+02 0.  0.
         24    2    1    2    0    0 -0.10476466538E+03 -0.11361816291E+03 -0.48255398359E+02  0.18002179626E+03  0.78705410250E+02 0.  0.
        -13    1    4    4    0    0 -0.68208053034E+02 -0.11099009084E+03 -0.57227120116E+02  0.14228872774E+03  0.00000000000E+00 0.  1.
         14    1    4    4    0    0 -0.36556612345E+02 -0.26280720677E+01  0.89717217561E+01  0.37733068523E+02  0.00000000000E+00 0. -1.
        -13    1    3    3    0    0  0.10263629396E+03  0.49698858163E+02  0.14431836676E+03  0.18393470669E+03  0.00000000000E+00 0. -1.
         13    1    3    3    0    0  0.14130347472E+03  0.15694748176E+03  0.13140264395E+03  0.24872844396E+03  0.00000000000E+00 0.  1.
         21    1    1    2  503  502 -0.80514906420E+02 -0.61256349392E+02 -0.77931038025E+03  0.78584964164E+03  0.00000000000E+00 0. -1.
          1    1    1    2  501    0 -0.58660196882E+02 -0.31771827617E+02  0.29436535695E+02  0.72917606667E+02  0.00000000000E+00 0. -1.
<scales pt_clust_5="13000.00000" pt_clust_6="13000.00000" pt_clust_7="13000.00000" pt_clust_8="13000.00000" pt_clust_9="154.28887" pt_clust_10="66.71186"></scales>
<clustering>
<clus scale="   66.712">  2 10  1 -1</clus>
<clus scale="   78.705">  5  6 -1 -1</clus>
<clus scale="   94.689">  7  8 -1 -1</clus>
<clus scale="  154.289">  2  9  1 -1</clus>
<clus scale="  264.060">  2  5  1 -1</clus>
<clus scale="   66.712">  2  5  1 -1</clus>
</clustering>
</event>
<event>
10    4  0.3043429E-005  0.1123190E+03  0.7546771E-02  0.1260149E+00
          2   -1    0    0  502    0 -0.00000000000E+00  0.00000000000E+00  0.88758042109E+03  0.88758042109E+03  0.00000000000E+00 0. -1.
         21   -1    0    0  503  502  0.00000000000E+00 -0.00000000000E+00 -0.12792991080E+03  0.12792991080E+03  0.00000000000E+00 0. -1.
         24    2    1    2    0    0 -0.60749620771E+02 -0.34882734685E+02  0.57775874838E+03  0.58744073227E+03  0.79838092456E+02 0.  0.
         23    2    1    2    0    0  0.22021108394E+02 -0.37223912906E+02 -0.77529817008E+02  0.12655779906E+03  0.90196757542E+02 0.  0.
        -13    1    3    3    0    0 -0.56172483179E+02  0.13185470646E+02  0.29521579040E+03  0.30080154156E+03  0.00000000000E+00 0.  1.
         14    1    3    3    0    0 -0.45771375923E+01 -0.48068205331E+02  0.28254295798E+03  0.28663919072E+03  0.00000000000E+00 0. -1.
        -13    1    4    4    0    0 -0.20645956570E+02 -0.49374607232E+02 -0.29244172386E+02  0.60986301582E+02  0.00000000000E+00 0.  1.
         13    1    4    4    0    0  0.42667064964E+02  0.12150694327E+02 -0.48285644621E+02  0.65571497480E+02  0.00000000000E+00 0. -1.
         21    1    1    2  503  501  0.16889857141E+02  0.20419848812E+02 -0.84594577173E+01  0.27817259474E+02  0.00000000000E+00 0. -1.
          1    1    1    2  501    0  0.21838655236E+02  0.51686798778E+02  0.26788103663E+03  0.27369454108E+03  0.00000000000E+00 0. -1.
<scales pt_clust_5="13000.00000" pt_clust_6="13000.00000" pt_clust_7="13000.00000" pt_clust_8="13000.00000" pt_clust_9="26.49976" pt_clust_10="56.78348"></scales>
<clustering>
<clus scale="   26.500">  2  9  1 -1</clus>
<clus scale="   56.783">  2 10  1 -1</clus>
<clus scale="   79.838">  5  6 -1 -1</clus>
<clus scale="   90.197">  7  8 -1 -1</clus>
<clus scale="  104.184">  1  5  2 -1</clus>
<clus scale="   26.500">  2  5  1 -1</clus>
</clustering>
</event>
<event>
10    4  0.3043429E-005  0.1650171E+03  0.7546771E-02  0.1213834E+00
          2   -1    0    0  502    0 -0.00000000000E+00  0.00000000000E+00  0.49579691595E+03  0.49579691595E+03  0.00000000000E+00 0. -1.
         21   -1    0    0  503  502  0.00000000000E+00 -0.00000000000E+00 -0.21838707809E+03  0.21838707809E+03  0.00000000000E+00 0.  1.
         24    2    1    2    0    0  0.34576881262E+02  0.18287616792E+01  0.10455096257E+03  0.13585768466E+03  0.79545594598E+02 0.  0.
         23    2    1    2    0    0  0.11398619539E+03  0.67599298818E+02  0.15740025226E+03  0.22486335866E+03  0.90698250908E+02 0.  0.
        -11    1    3    3    0    0 -0.12966382342E+02  0.22170150003E+02  0.90069891932E+01  0.27217062232E+02  0.00000000000E+00 0.  1.
         12    1    3    3    0    0  0.47543263604E+02 -0.20341388324E+02  0.95543973376E+02  0.10864062243E+03  0.00000000000E+00 0. -1.
        -11    1    4    4    0    0  0.27705438143E+02 -0.54354537001E+01 -0.32582848305E+01  0.28420976051E+02  0.00000000000E+00 0. -1.
         11    1    4    4    0    0  0.86280757245E+02  0.73034752519E+02  0.16065853709E+03  0.19644238261E+03  0.00000000000E+00 0.  1.
         21    1    1    2  503  501 -0.31854425136E+02  0.17986601822E+02 -0.13741368957E+03  0.14219966360E+03  0.00000000000E+00 0.  1.
          1    1    1    2  501    0 -0.11670865151E+03 -0.87414662320E+02  0.15287231259E+03  0.21126328712E+03  0.00000000000E+00 0. -1.
<scales pt_clust_5="13000.00000" pt_clust_6="13000.00000" pt_clust_7="13000.00000" pt_clust_8="13000.00000" pt_clust_9="36.58172" pt_clust_10="137.85674"></scales>
<clustering>
<clus scale="   36.582">  2  9  1 -1</clus>
<clus scale="   79.546">  5  6 -1 -1</clus>
<clus scale="   84.580">  1  5  2 -1</clus>
<clus scale="   90.698">  7  8 -1 -1</clus>
<clus scale="  137.857">  2 10  1 -1</clus>
<clus scale="   36.582">  2  5  1 -1</clus>
</clustering>
</event>
<event>
10    4  0.3043429E-005  0.3185947E+03  0.7546771E-02  0.1123281E+00
          4   -1    0    0  502    0 -0.00000000000E+00  0.00000000000E+00  0.14339522556E+04  0.14339522556E+04  0.00000000000E+00 0. -1.
         21   -1    0    0  503  502  0.00000000000E+00 -0.00000000000E+00 -0.11914574972E+03  0.11914574972E+03  0.00000000000E+00 0.  1.
         23    2    1    2    0    0 -0.24846260432E+02  0.11936538535E+02  0.14136087051E+03  0.16968413843E+03  0.89721756089E+02 0.  0.
         24    2    1    2    0    0  0.47010295630E+02  0.27293470320E+03  0.34424343851E+03  0.44896379188E+03  0.79759772787E+02 0.  0.
        -11    1    4    4    0    0  0.57491142912E+02  0.25075761580E+03  0.28023278670E+03  0.38041428488E+03  0.00000000000E+00 0.  1.
         12    1    4    4    0    0 -0.10480847282E+02  0.22177087398E+02  0.64010651810E+02  0.68549507003E+02  0.00000000000E+00 0. -1.
        -13    1    3    3    0    0  0.38638524165E+00 -0.30243952615E+02  0.14317222466E+02  0.33463843510E+02  0.00000000000E+00 0.  1.
         13    1    3    3    0    0 -0.25232645674E+02  0.42180491150E+02  0.12704364804E+03  0.13622029492E+03  0.00000000000E+00 0. -1.
         21    1    1    2  503  501  0.24656677489E+02  0.45596267185E+02  0.14191002136E+02  0.53743426274E+02  0.00000000000E+00 0.  1.
          3    1    1    2  501    0 -0.46820712687E+02 -0.33046750892E+03  0.81501119476E+03  0.88070664877E+03  0.00000000000E+00 0. -1.
<scales pt_clust_5="13000.00000" pt_clust_6="13000.00000" pt_clust_7="13000.00000" pt_clust_8="13000.00000" pt_clust_9="51.83600" pt_clust_10="308.44943"></scales>
<clustering>
<clus scale="   51.836">  2  9  1 -1</clus>
<clus scale="   79.760">  5  6 -1 -1</clus>
<clus scale="   89.722">  7  8 -1 -1</clus>
<clus scale="   94.047">  1  7  2 -1</clus>
<clus scale="  308.449">  2 10  1 -1</clus>
<clus scale="   51.836">  2  5  1 -1</clus>
</clustering>
</event>
<event>
10    4  0.3043429E-005  0.3233745E+03  0.7546771E-02  0.1074107E+00
         21   -1    0    0  501  502  0.00000000000E+00  0.00000000000E+00  0.26653670710E+03  0.26653670710E+03  0.00000000000E+00 0.  1.
         -1   -1    0    0    0  501 -0.00000000000E+00 -0.00000000000E+00 -0.20905098274E+04  0.20905098274E+04  0.00000000000E+00 0.  1.
         24    2    1    2    0    0  0.22244904097E+02 -0.30958185961E+02 -0.19251151598E+03  0.21340810045E+03  0.83839659546E+02 0.  0.
         23    2    1    2    0    0  0.21223967934E+02 -0.17819056020E+03 -0.27852307522E+03  0.34389569364E+03  0.92123895445E+02 0.  0.
        -11    1    3    3    0    0 -0.13438253948E+02 -0.49713070446E+02 -0.99503061261E+02  0.11203943610E+03  0.00000000000E+00 0.  1.
         12    1    3    3    0    0  0.35683158046E+02  0.18754884486E+02 -0.93008454723E+02  0.10136866434E+03  0.00000000000E+00 0. -1.
        -13    1    4    4    0    0 -0.30525651226E+02 -0.69185021213E+02 -0.70373578171E+02  0.10329967593E+03  0.00000000000E+00 0. -1.
         13    1    4    4    0    0  0.51749619160E+02 -0.10900553899E+03 -0.20814949705E+03  0.24059601770E+03  0.00000000000E+00 0.  1.
         21    1    1    2  503  502  0.42699881367E+01 -0.42651641816E+02  0.21081405480E+03  0.21512777842E+03  0.00000000000E+00 0.  1.
         -2    1    1    2    0  503 -0.47738860168E+02  0.25180038797E+03 -0.15637525839E+04  0.15846149620E+04  0.00000000000E+00 0.  1.
<scales pt_clust_5="13000.00000" pt_clust_6="13000.00000" pt_clust_7="13000.00000" pt_clust_8="13000.00000" pt_clust_9="42.86485" pt_clust_10="247.97171"></scales>
<clustering>
<clus scale="   42.865">  1  9  2 -1</clus>
<clus scale="   83.840">  5  6 -1 -1</clus>
<clus scale="   92.124">  7  8 -1 -1</clus>
<clus scale="   94.022">  5  7 -1 -1</clus>
<clus scale="  247.972">  1 10  2 -1</clus>
<clus scale="   42.865">  1  5  2 -1</clus>
</clustering>
</event>
<event>
10    4  0.3043429E-005  0.1161010E+03  0.7546771E-02  0.1255571E+00
          2   -1    0    0  503    0 -0.00000000000E+00  0.00000000000E+00  0.11071649136E+04  0.11071649136E+04  0.00000000000E+00 0. -1.
         21   -1    0    0  501  502  0.00000000000E+00 -0.00000000000E+00 -0.28409661868E+03  0.28409661868E+03  0.00000000000E+00 0. -1.
         24    2    1    2    0    0  0.68523762160E+02  0.24648172137E+02  0.10078148787E+04  0.10133628883E+04  0.76879614848E+02 0.  0.
         23    2    1    2    0    0 -0.19708153269E+02  0.10188244094E+01  0.27418683596E+02  0.99356140368E+02  0.93436658279E+02 0.  0.
        -11    1    3    3    0    0  0.26754504860E+02  0.17386534605E+02  0.10965468633E+03  0.11420265036E+03  0.00000000000E+00 0.  1.
         12    1    3    3    0    0  0.41769257301E+02  0.72616375317E+01  0.89816019238E+03  0.89916023789E+03  0.00000000000E+00 0. -1.
        -13    1    4    4    0    0 -0.38528199277E+02 -0.13606309567E+02 -0.20591255402E+02  0.45755366883E+02  0.00000000000E+00 0. -1.
         13    1    4    4    0    0  0.18820046009E+02  0.14625133977E+02  0.48009938998E+02  0.53600773485E+02  0.00000000000E+00 0.  1.
         21    1    1    2  503  502 -0.45955633480E+02  0.27257325662E+01 -0.23656137502E+03  0.24099924070E+03  0.00000000000E+00 0. -1.
          1    1    1    2  501    0 -0.28599754118E+01 -0.28392729112E+02  0.24396107662E+02  0.37543262976E+02  0.00000000000E+00 0. -1.
<scales pt_clust_5="13000.00000" pt_clust_6="13000.00000" pt_clust_7="13000.00000" pt_clust_8="13000.00000" pt_clust_9="53.05824" pt_clust_10="28.53642"></scales>
<clustering>
<clus scale="   28.536">  2 10  1 -1</clus>
<clus scale="   53.058">  2  9  1 -1</clus>
<clus scale="   76.880">  5  6 -1 -1</clus>
<clus scale="   93.437">  7  8 -1 -1</clus>
<clus scale="  103.245">  1  5  2 -1</clus>
<clus scale="   28.536">  2  5  1 -1</clus>
</clustering>
</event>
<event>
10    4  0.3043429E-005  0.6028077E+03  0.7546771E-02  0.1038559E+00
          2   -1    0    0  503    0 -0.00000000000E+00  0.00000000000E+00  0.92790300560E+03  0.92790300560E+03  0.00000000000E+00 0. -1.
         21   -1    0    0  501  502  0.00000000000E+00 -0.00000000000E+00 -0.88168376655E+03  0.88168376655E+03  0.00000000000E+00 0.  1.
         23    2    1    2    0    0  0.46293515313E+02 -0.87266977286E+02  0.33811857960E+03  0.36436232465E+03  0.93151032586E+02 0.  0.
         24    2    1    2    0    0  0.12832378009E+02  0.62663326764E+03 -0.45274607108E+03  0.77744446827E+03  0.81283296646E+02 0.  0.
        -11    1    4    4    0    0  0.14741599978E+02  0.31027079314E+03 -0.17541516166E+03  0.35672925138E+03  0.00000000000E+00 0.  1.
         12    1    4    4    0    0 -0.19092219693E+01  0.31636247450E+03 -0.27733090943E+03  0.42071521689E+03  0.00000000000E+00 0. -1.
        -13    1    3    3    0    0  0.60903942745E-01 -0.62712384507E+02  0.83552155696E+02  0.10446918015E+03  0.00000000000E+00 0. -1.
         13    1    3    3    0    0  0.46232611370E+02 -0.24554592779E+02  0.25456642390E+03  0.25989314450E+03  0.00000000000E+00 0.  1.
         21    1    1    2  503  502  0.22891483845E+02 -0.84616412548E+01 -0.76634409740E+02  0.80426688118E+02  0.00000000000E+00 0. -1.
          1    1    1    2  501    0 -0.82017377167E+02 -0.53090464910E+03  0.23748114027E+03  0.58735329111E+03  0.00000000000E+00 0. -1.
<scales pt_clust_5="13000.00000" pt_clust_6="13000.00000" pt_clust_7="13000.00000" pt_clust_8="13000.00000" pt_clust_9="24.40532" pt_clust_10="597.30271"></scales>
<clustering>
<clus scale="   24.405">  2  9  1 -1</clus>
<clus scale="   81.283">  5  6 -1 -1</clus>
<clus scale="   93.151">  7  8 -1 -1</clus>
<clus scale="  135.995">  1  7  2 -1</clus>
<clus scale="  597.303">  2 10  1 -1</clus>
<clus scale="   24.405">  2  5  1 -1</clus>
</clustering>
</event>
<event>
10    4  0.3043429E-005  0.1453478E+03  0.7546771E-02  0.1209730E+00
          2   -1    0    0  502    0 -0.00000000000E+00  0.00000000000E+00  0.18763766162E+04  0.18763766162E+04  0.00000000000E+00 0. -1.
         21   -1    0    0  503  502  0.00000000000E+00 -0.00000000000E+00 -0.78192756513E+02  0.78192756513E+02  0.00000000000E+00 0.  1.
         24    2    1    2    0    0  0.69858072845E+02 -0.10240761434E+03  0.12045365798E+04  0.12135191872E+04  0.79705557033E+02 0.  0.
         23    2    1    2    0    0 -0.75867624145E+02  0.40782532125E+02  0.44840556546E+03  0.46660481574E+03  0.96090538622E+02 0.  0.
        -13    1    3    3    0    0  0.39394780093E+02 -0.60003932089E+02  0.34447215117E+03  0.35187140193E+03  0.00000000000E+00 0.  1.
         14    1    3    3    0    0  0.30463292752E+02 -0.42403682248E+02  0.86006442864E+03  0.86164778528E+03  0.00000000000E+00 0. -1.
        -11    1    4    4    0    0 -0.77213807350E+02 -0.50559916727E+01  0.20939946387E+03  0.22323904355E+03  0.00000000000E+00 0.  1.
         11    1    4    4    0    0  0.13461832047E+01  0.45838523797E+02  0.23900610159E+03  0.24336577219E+03  0.00000000000E+00 0. -1.
         21    1    1    2  503  501  0.27741987146E+02 -0.11705207776E+02 -0.53557458718E+02  0.61441281922E+02  0.00000000000E+00 0.  1.
          1    1    1    2  501    0 -0.21732435846E+02  0.73330289988E+02  0.19879917314E+03  0.21300408784E+03  0.00000000000E+00 0. -1.
<scales pt_clust_5="13000.00000" pt_clust_6="13000.00000" pt_clust_7="13000.00000" pt_clust_8="13000.00000" pt_clust_9="30.11029" pt_clust_10="70.38014"></scales>
<clustering>
<clus scale="   30.110">  2  9  1 -1</clus>
<clus scale="   70.380">  2 10  1 -1</clus>
<clus scale="   79.706">  5  6 -1 -1</clus>
<clus scale="   96.091">  7  8 -1 -1</clus>
<clus scale="  135.076">  1  5  2 -1</clus>
<clus scale="   30.110">  2  5  1 -1</clus>
</clustering>
</event>
<event>
10    4  0.3043429E-005  0.1817773E+03  0.7546771E-02  0.1167724E+00
         21   -1    0    0  503  502  0.00000000000E+00  0.00000000000E+00  0.45255647427E+02  0.45255647427E+02  0.00000000000E+00 0.  1.
          2   -1    0    0  502    0 -0.00000000000E+00 -0.00000000000E+00 -0.18308126252E+04  0.18308126252E+04  0.00000000000E+00 0. -1.
         24    2    1    2    0    0  0.31676237105E+02 -0.15545755028E+03 -0.13188170516E+04  0.13307126550E+04  0.79670073337E+02 0.  0.
         23    2    1    2    0    0 -0.98788676724E+02  0.12569641278E+03 -0.40674825371E+03  0.44691926183E+03  0.93455304116E+02 0.  0.
        -11    1    3    3    0    0  0.12646911820E+02 -0.48068440081E+02 -0.18164382397E+03  0.18832152850E+03  0.00000000000E+00 0.  1.
         12    1    3    3    0    0  0.19029325285E+02 -0.10738911020E+03 -0.11371732277E+04  0.11423911265E+04  0.00000000000E+00 0. -1.
        -11    1    4    4    0    0 -0.60010753086E+02  0.26600528339E+02 -0.81163259340E+02  0.10438559891E+03  0.00000000000E+00 0.  1.
         11    1    4    4    0    0 -0.38777923638E+02  0.99095884439E+02 -0.32558499437E+03  0.34253366292E+03  0.00000000000E+00 0. -1.
         21    1    1    2  503  501  0.40140014312E+02  0.38234827185E+01 -0.26790429354E+02  0.48410400474E+02  0.00000000000E+00 0.  1.
          1    1    1    2  501    0  0.26972425307E+02  0.25937654785E+02 -0.33201243065E+02  0.50025955301E+02  0.00000000000E+00 0. -1.
<scales pt_clust_5="13000.00000" pt_clust_6="13000.00000" pt_clust_7="13000.00000" pt_clust_8="13000.00000" pt_clust_9="25.50440" pt_clust_10="78.04304"></scales>
<clustering>
<clus scale="   25.504">  9 10 -1 -1</clus>
<clus scale="   78.043">  1  9  2 -1</clus>
<clus scale="   79.670">  5  6 -1 -1</clus>
<clus scale="   93.455">  7  8 -1 -1</clus>
<clus scale="  175.090">  2  5  1 -1</clus>
<clus scale="   78.043">  1  5  2 -1</clus>
</clustering>
</event>
<event>
10    4  0.3043429E-005  0.4681607E+03  0.7546771E-02  0.1062510E+00
         21   -1    0    0  501  502  0.00000000000E+00  0.00000000000E+00  0.43730232270E+03  0.43730232270E+03  0.00000000000E+00 0.  1.
         -1   -1    0    0    0  501 -0.00000000000E+00 -0.00000000000E+00 -0.84261612643E+03  0.84261612643E+03  0.00000000000E+00 0.  1.
         24    2    1    2    0    0 -0.71292856504E+02 -0.92096721321E+02 -0.14422352862E+03  0.20232640587E+03  0.81062141836E+02 0.  0.
         23    2    1    2    0    0  0.43662919587E+03 -0.18301682052E+03 -0.30235382149E+02  0.48275442129E+03  0.89428416400E+02 0.  0.
        -11    1    3    3    0    0 -0.54377358690E+02 -0.90497353790E+02 -0.15081869618E+03  0.18410037289E+03  0.00000000000E+00 0.  1.
         12    1    3    3    0    0 -0.16915497814E+02 -0.15993675303E+01  0.65951675673E+01  0.18226032976E+02  0.00000000000E+00 0. -1.
        -13    1    4    4    0    0  0.34495223382E+02 -0.44213508339E+02  0.20528378787E+01  0.56115674273E+02  0.00000000000E+00 0. -1.
         13    1    4    4    0    0  0.40213397249E+03 -0.13880331219E+03 -0.32288220028E+02  0.42663874702E+03  0.00000000000E+00 0.  1.
         21    1    1    2  503  502 -0.47156078316E+02 -0.65136741312E+02 -0.16711014709E+02  0.82132507593E+02  0.00000000000E+00 0.  1.
         -2    1    1    2    0  503 -0.31818026105E+03  0.34025028316E+03 -0.21414387825E+03  0.51270511438E+03  0.00000000000E+00 0.  1.
<scales pt_clust_5="13000.00000" pt_clust_6="13000.00000" pt_clust_7="13000.00000" pt_clust_8="13000.00000" pt_clust_9="80.41449" pt_clust_10="459.54018"></scales>
<clustering>
<clus scale="   80.414">  1  9  2 -1</clus>
<clus scale="   81.062">  5  6 -1 -1</clus>
<clus scale="   89.428">  7  8 -1 -1</clus>
<clus scale="  146.674">  2  5  1 -1</clus>
<clus scale="  459.540">  1 10  2 -1</clus>
<clus scale="   80.414">  1  5  2 -1</clus>
</clustering>
</event>
<event>
10    4  0.3043429E-005  0.1732369E+03  0.7546771E-02  0.1175905E+00
         21   -1    0    0  503  502  0.00000000000E+00  0.00000000000E+00  0.22498239745E+03  0.22498239745E+03  0.00000000000E+00 0. -1.
          2   -1    0    0  502    0 -0.00000000000E+00 -0.00000000000E+00 -0.29784890796E+03  0.29784890796E+03  0.00000000000E+00 0. -1.
         23    2    1    2    0    0  0.44057944620E+02  0.10373974703E+03 -0.34793163868E+02  0.14928244331E+03  0.91496699555E+02 0.  0.
         24    2    1    2    0    0 -0.11715598433E+02 -0.20581486106E+03 -0.48920918194E+02  0.22677670569E+03  0.80854225141E+02 0.  0.
        -13    1    4    4    0    0 -0.19921287761E+01 -0.75484007263E+02 -0.58809935147E+02  0.95710043368E+02  0.00000000000E+00 0.  1.
         14    1    4    4    0    0 -0.97234696572E+01 -0.13033085380E+03  0.98890169528E+01  0.13106666232E+03  0.00000000000E+00 0. -1.
        -11    1    3    3    0    0  0.54854306223E+02  0.43833674381E+02 -0.50412109191E+02  0.86439381500E+02  0.00000000000E+00 0. -1.
         11    1    3    3    0    0 -0.10796361603E+02  0.59906072652E+02  0.15618945323E+02  0.62843061808E+02  0.00000000000E+00 0.  1.
         21    1    1    2  503  501  0.13294081446E+02  0.28580051278E+02  0.44000655288E+02  0.54125868106E+02  0.00000000000E+00 0.  1.
          1    1    1    2  501    0 -0.45636427632E+02  0.73495062754E+02 -0.33153083742E+02  0.92646288311E+02  0.00000000000E+00 0. -1.
<scales pt_clust_5="13000.00000" pt_clust_6="13000.00000" pt_clust_7="13000.00000" pt_clust_8="13000.00000" pt_clust_9="31.52066" pt_clust_10="89.54219"></scales>
<clustering>
<clus scale="   31.521">  1  9  2 -1</clus>
<clus scale="   80.854">  5  6 -1 -1</clus>
<clus scale="   89.542">  1 10  2 -1</clus>
<clus scale="   91.497">  7  8 -1 -1</clus>
<clus scale="  167.859">  1  5  2 -1</clus>
<clus scale="   31.521">  1  5  2 -1</clus>
</clustering>
</event>
<event>
10    4  0.3043429E-005  0.1800233E+03  0.7546771E-02  0.1198979E+00
          2   -1    0    0  502    0 -0.00000000000E+00  0.00000000000E+00  0.20817844324E+04  0.20817844324E+04  0.00000000000E+00 0. -1.
         21   -1    0    0  503  502  0.00000000000E+00 -0.00000000000E+00 -0.34591879072E+02  0.34591879072E+02  0.00000000000E+00 0. -1.
         23    2    1    2    0    0  0.10079820450E+01 -0.26631127077E+02  0.13083475744E+03  0.15859385761E+03  0.85580634253E+02 0.  0.
         24    2    1    2    0    0 -0.50727529764E+01 -0.14112483851E+03  0.14545323718E+04  0.14635627261E+04  0.80059225910E+02 0.  0.
        -11    1    4    4    0    0 -0.29942677404E+02 -0.30916161658E+02  0.24374647238E+03  0.24751710199E+03  0.00000000000E+00 0.  1.
         12    1    4    4    0    0  0.24869924428E+02 -0.11020867686E+03  0.12107858995E+04  0.12160456241E+04  0.00000000000E+00 0. -1.
        -11    1    3    3    0    0  0.38858122461E+02  0.63026187873E+01  0.61178449909E+02  0.72749428988E+02  0.00000000000E+00 0.  1.
         11    1    3    3    0    0 -0.37850140416E+02 -0.32933745865E+02  0.69656307529E+02  0.85844428618E+02  0.00000000000E+00 0. -1.
         21    1    1    2  503  501 -0.13888450705E+02  0.23762022049E+02  0.43850951920E+02  0.51772857166E+02  0.00000000000E+00 0.  1.
          1    1    1    2  501    0  0.17953221636E+02  0.14399394354E+03  0.41797447212E+03  0.44244687059E+03  0.00000000000E+00 0. -1.
<scales pt_clust_5="13000.00000" pt_clust_6="13000.00000" pt_clust_7="13000.00000" pt_clust_8="13000.00000" pt_clust_9="23.09386" pt_clust_10="169.73724"></scales>
<clustering>
<clus scale="   23.094">  9 10 -1 -1</clus>
<clus scale="   80.059">  5  6 -1 -1</clus>
<clus scale="   85.581">  7  8 -1 -1</clus>
<clus scale="   89.634">  1  7  2 -1</clus>
<clus scale="  169.737">  2  9  1 -1</clus>
<clus scale="  169.737">  2  5  1 -1</clus>
</clustering>
</event>
<event>
10    4  0.3043429E-005  0.8736283E+02  0.7546771E-02  0.1314642E+00
          2   -1    0    0  503    0 -0.00000000000E+00  0.00000000000E+00  0.57593589504E+03  0.57593589504E+03  0.00000000000E+00 0. -1.
         21   -1    0    0  501  502  0.00000000000E+00 -0.00000000000E+00 -0.37857496194E+02  0.37857496194E+02  0.00000000000E+00 0. -1.
         23    2    1    2    0    0 -0.24186021894E+02  0.13864019463E+02  0.30234995959E+03  0.31237552219E+03  0.73387969751E+02 0.  0.
         24    2    1    2    0    0  0.27695019819E+02 -0.27060335028E+02  0.11828077854E+03  0.14900210234E+03  0.81926845876E+02 0.  0.
        -13    1    4    4    0    0 -0.23136553732E+02 -0.10541478014E+02  0.78102028658E+02  0.82136165955E+02  0.00000000000E+00 0.  1.
         14    1    4    4    0    0  0.50831573551E+02 -0.16518857014E+02  0.40178749887E+02  0.66865936389E+02  0.00000000000E+00 0. -1.
        -11    1    3    3    0    0  0.11950778085E+02 -0.18518552801E+02  0.40894946980E+02  0.46455942388E+02  0.00000000000E+00 0.  1.
         11    1    3    3    0    0 -0.36136799980E+02  0.32382572264E+02  0.26145501261E+03  0.26591957980E+03  0.00000000000E+00 0. -1.
         21    1    1    2  503  502 -0.29152486029E+02  0.19278966271E+02  0.31198696522E+01  0.35089593455E+02  0.00000000000E+00 0. -1.
          1    1    1    2  501    0  0.25643488105E+02 -0.60826507054E+01  0.11432779106E+03  0.11732617325E+03  0.00000000000E+00 0. -1.
<scales pt_clust_5="13000.00000" pt_clust_6="13000.00000" pt_clust_7="13000.00000" pt_clust_8="13000.00000" pt_clust_9="24.39987" pt_clust_10="26.35503"></scales>
<clustering>
<clus scale="   26.355">  2 10  1 -1</clus>
<clus scale="   24.400">  2  9  1 -1</clus>
<clus scale="   73.388">  7  8 -1 -1</clus>
<clus scale="   79.411">  1  7  2 -1</clus>
<clus scale="   81.927">  5  6 -1 -1</clus>
<clus scale="   26.355">  2  5  1 -1</clus>
</clustering>
</event>
<event>
10    4  0.3043429E-005  0.1207419E+03  0.7546771E-02  0.1245658E+00
         21   -1    0    0  503  502  0.00000000000E+00  0.00000000000E+00  0.43279524468E+03  0.43279524468E+03  0.00000000000E+00 0.  1.
         -1   -1    0    0    0  501 -0.00000000000E+00 -0.00000000000E+00 -0.13337707749E+03  0.13337707749E+03  0.00000000000E+00 0.  1.
         24    2    1    2    0    0 -0.63474546580E+02 -0.51558892456E+02 -0.18440202988E+02  0.11475990961E+03  0.78373836918E+02 0.  0.
         23    2    1    2    0    0  0.19233891599E+02  0.82376025950E+02  0.23956229060E+03  0.26972470592E+03  0.90584621597E+02 0.  0.
        -13    1    3    3    0    0 -0.33002643240E+02  0.16173386585E+02  0.44991518207E+01  0.37026953177E+02  0.00000000000E+00 0.  1.
         14    1    3    3    0    0 -0.30471903340E+02 -0.67732279041E+02 -0.22939354809E+02  0.77732956436E+02  0.00000000000E+00 0. -1.
        -13    1    4    4    0    0  0.40839068484E+02  0.10915823436E+02  0.13342575822E+03  0.13996220087E+03  0.00000000000E+00 0.  1.
         13    1    4    4    0    0 -0.21605176885E+02  0.71460202513E+02  0.10613653238E+03  0.12976250505E+03  0.00000000000E+00 0. -1.
         21    1    1    2  503  501 -0.37224768064E+02 -0.26614941633E+02  0.88349206281E+02  0.99496837769E+02  0.00000000000E+00 0.  1.
         -2    1    1    2    0  502  0.81465423044E+02 -0.42021918606E+01 -0.10053126706E+02  0.82190868865E+02  0.00000000000E+00 0.  1.
<scales pt_clust_5="13000.00000" pt_clust_6="13000.00000" pt_clust_7="13000.00000" pt_clust_8="13000.00000" pt_clust_9="45.76067" pt_clust_10="77.82197"></scales>
<clustering>
<clus scale="   45.761">  1  9  2 -1</clus>
<clus scale="   77.822">  1 10  2 -1</clus>
<clus scale="   78.374">  5  6 -1 -1</clus>
<clus scale="   90.585">  7  8 -1 -1</clus>
<clus scale="  111.873">  2  5  1 -1</clus>
<clus scale="   45.761">  1  5  2 -1</clus>
</clustering>
</event>
<event>
10    4  0.3043429E-005  0.1456455E+03  0.7546771E-02  0.1208072E+00
         21   -1    0    0  501  502  0.00000000000E+00  0.00000000000E+00  0.30268007600E+03  0.30268007600E+03  0.00000000000E+00 0. -1.
          2   -1    0    0  503    0 -0.00000000000E+00 -0.00000000000E+00 -0.59140447611E+03  0.59140447611E+03  0.00000000000E+00 0. -1.
         24    2    1    2    0    0 -0.10196482594E+03  0.66922903111E+02 -0.46244642647E+03  0.48480502309E+03  0.79395921581E+02 0.  0.
         23    2    1    2    0    0  0.77763084996E+02 -0.10779183091E+02  0.28159142448E+01  0.11975026406E+03  0.90382012549E+02 0.  0.
        -13    1    3    3    0    0 -0.16764153637E+02  0.17810500478E+02 -0.20099270785E+02  0.31658039430E+02  0.00000000000E+00 0.  1.
         14    1    3    3    0    0 -0.85200672305E+02  0.49112402633E+02 -0.44234715569E+03  0.45314698366E+03  0.00000000000E+00 0. -1.
        -11    1    4    4    0    0 -0.36689970641E+01  0.21383437477E+02  0.21148477018E+02  0.30298036537E+02  0.00000000000E+00 0.  1.
         11    1    4    4    0    0  0.81432082061E+02 -0.32162620568E+02 -0.18332562773E+02  0.89452227520E+02  0.00000000000E+00 0. -1.
         21    1    1    2  503  502 -0.66199020259E+02 -0.72755670077E+02  0.17139262920E+03  0.19761359051E+03  0.00000000000E+00 0. -1.
          1    1    1    2  501    0  0.90400761204E+02  0.16611950056E+02 -0.48651707138E+00  0.91915674451E+02  0.00000000000E+00 0. -1.
<scales pt_clust_5="13000.00000" pt_clust_6="13000.00000" pt_clust_7="13000.00000" pt_clust_8="13000.00000" pt_clust_9="60.84186" pt_clust_10="91.91439"></scales>
<clustering>
<clus scale="   79.396">  5  6 -1 -1</clus>
<clus scale="   90.382">  7  8 -1 -1</clus>
<clus scale="   91.914">  1 10  2 -1</clus>
<clus scale="   60.842">  1  9  2 -1</clus>
<clus scale="  139.095">  2  5  1 -1</clus>
<clus scale="   91.914">  1  5  2 -1</clus>
</clustering>
</event>
<event>
10    4  0.3043429E-005  0.1898107E+03  0.7546771E-02  0.1159628E+00
         21   -1    0    0  501  502  0.00000000000E+00  0.00000000000E+00  0.59232772140E+03  0.59232772140E+03  0.00000000000E+00 0. -1.
          2   -1    0    0  503    0 -0.00000000000E+00 -0.00000000000E+00 -0.14712703974E+03  0.14712703974E+03  0.00000000000E+00 0. -1.
         24    2    1    2    0    0 -0.56149859641E+02  0.19208253102E+03  0.83985977715E+02  0.23143333266E+03  0.80369381931E+02 0.  0.
         23    2    1    2    0    0 -0.37369973610E+02 -0.11497401376E+03  0.23328401852E+03  0.27772400486E+03  0.89964719821E+02 0.  0.
        -13    1    3    3    0    0  0.71168842923E+01  0.45539831714E+02  0.50443240652E+02  0.68330423986E+02  0.00000000000E+00 0.  1.
         14    1    3    3    0    0 -0.63266743933E+02  0.14654269931E+03  0.33542737063E+02  0.16310290868E+03  0.00000000000E+00 0. -1.
        -13    1    4    4    0    0 -0.41430225085E+02 -0.89938868948E+02  0.95312113589E+02  0.13744039688E+03  0.00000000000E+00 0.  1.
         13    1    4    4    0    0  0.40602514756E+01 -0.25035144811E+02  0.13797190493E+03  0.14028360798E+03  0.00000000000E+00 0. -1.
         21    1    1    2  503  502  0.39065794741E+02  0.35073700941E+02  0.12158322059E+01  0.52514560499E+02  0.00000000000E+00 0. -1.
          1    1    1    2  501    0  0.54454038509E+02 -0.11218221821E+03  0.12671485322E+03  0.17778286312E+03  0.00000000000E+00 0. -1.
<scales pt_clust_5="13000.00000" pt_clust_6="13000.00000" pt_clust_7="13000.00000" pt_clust_8="13000.00000" pt_clust_9="52.50048" pt_clust_10="122.11502"></scales>
<clustering>
<clus scale="   52.500">  2  9  1 -1</clus>
<clus scale="   80.369">  5  6 -1 -1</clus>
<clus scale="   89.965">  7  8 -1 -1</clus>
<clus scale="  122.115">  1 10  2 -1</clus>
<clus scale="  185.455">  2  5  1 -1</clus>
<clus scale="  122.115">  1  5  2 -1</clus>
</clustering>
</event>
<event>
10    4  0.3043429E-005  0.2170703E+03  0.7546771E-02  0.1152704E+00
         -1   -1    0    0    0  501 -0.00000000000E+00  0.00000000000E+00  0.23769772417E+03  0.23769772417E+03  0.00000000000E+00 0.  1.
         21   -1    0    0  501  502  0.00000000000E+00 -0.00000000000E+00 -0.68208559087E+03  0.68208559087E+03  0.00000000000E+00 0.  1.
         24    2    1    2    0    0 -0.92615969262E+02  0.85858099356E+02 -0.13919249818E+03  0.20465071387E+03  0.80981677876E+02 0.  0.
         23    2    1    2    0    0 -0.12106104230E+03 -0.15154029863E+02  0.13682087063E+03  0.20443254123E+03  0.90483659795E+02 0.  0.
        -13    1    3    3    0    0 -0.93890420267E+02  0.96488123941E+02 -0.13959304930E+03  0.19393707353E+03  0.00000000000E+00 0.  1.
         14    1    3    3    0    0  0.12744510047E+01 -0.10630024585E+02  0.40055111917E+00  0.10713640336E+02  0.00000000000E+00 0. -1.
        -11    1    4    4    0    0 -0.41025740887E+02  0.23190752743E+02  0.76963619610E+01  0.47750983399E+02  0.00000000000E+00 0. -1.
         11    1    4    4    0    0 -0.80035301413E+02 -0.38344782606E+02  0.12912450867E+03  0.15668155783E+03  0.00000000000E+00 0.  1.
         21    1    1    2  503  502  0.20969284377E+02  0.18871760985E-01 -0.16280590478E+03  0.16415076568E+03  0.00000000000E+00 0.  1.
         -2    1    1    2    0  503  0.19270772718E+03 -0.70722941254E+02 -0.27921033437E+03  0.34654929427E+03  0.00000000000E+00 0.  1.
<scales pt_clust_5="13000.00000" pt_clust_6="13000.00000" pt_clust_7="13000.00000" pt_clust_8="13000.00000" pt_clust_9="20.96929" pt_clust_10="197.31255"></scales>
<clustering>
<clus scale="   20.969">  2  9  1 -1</clus>
<clus scale="   80.982">  5  6 -1 -1</clus>
<clus scale="   90.484">  7  8 -1 -1</clus>
<clus scale="  145.839">  1  5  2 -1</clus>
<clus scale="  197.313">  2 10  1 -1</clus>
<clus scale="   20.969">  2  5  1 -1</clus>
</clustering>
</event>
<event>
10    4  0.3043429E-005  0.9733310E+02  0.7546771E-02  0.1296576E+00
         21   -1    0    0  501  502  0.00000000000E+00  0.00000000000E+00  0.62563121906E+02  0.62563121906E+02  0.00000000000E+00 0. -1.
          2   -1    0    0  503    0 -0.00000000000E+00 -0.00000000000E+00 -0.64889882723E+03  0.64889882723E+03  0.00000000000E+00 0. -1.
         24    2    1    2    0    0  0.16171483776E+02 -0.26962013702E+02 -0.30921845441E+03  0.31963077016E+03  0.74560778018E+02 0.  0.
         23    2    1    2    0    0 -0.12458580480E+02 -0.63394062591E+00 -0.94011197925E+01  0.94316855462E+02  0.93014354068E+02 0.  0.
        -11    1    3    3    0    0  0.17735788725E+02  0.12221477951E+02 -0.26239194662E+02  0.33947283566E+02  0.00000000000E+00 0.  1.
         12    1    3    3    0    0 -0.15643049489E+01 -0.39183491653E+02 -0.28297925974E+03  0.28568348659E+03  0.00000000000E+00 0. -1.
        -11    1    4    4    0    0  0.10461414482E+01 -0.39842427581E+02 -0.28161671378E+02  0.48801569465E+02  0.00000000000E+00 0.  1.
         11    1    4    4    0    0 -0.13504721929E+02  0.39208486955E+02  0.18760551585E+02  0.45515285997E+02  0.00000000000E+00 0. -1.
         21    1    1    2  503  502  0.34897674124E+02 -0.12278143044E+02 -0.16974602256E+02  0.40703041380E+02  0.00000000000E+00 0.  1.
          1    1    1    2  501    0 -0.38610577419E+02  0.39874097372E+02 -0.25074152887E+03  0.25681128213E+03  0.00000000000E+00 0. -1.
<scales pt_clust_5="13000.00000" pt_clust_6="13000.00000" pt_clust_7="13000.00000" pt_clust_8="13000.00000" pt_clust_9="36.99460" pt_clust_10="53.53222"></scales>
<clustering>
<clus scale="   36.995">  1  9  2 -1</clus>
<clus scale="   53.532">  1 10  2 -1</clus>
<clus scale="   74.561">  5  6 -1 -1</clus>
<clus scale="   79.883">  2  5  1 -1</clus>
<clus scale="   93.014">  7  8 -1 -1</clus>
<clus scale="   36.995">  1  5  2 -1</clus>
</clustering>
</event>
<event>
10    4  0.3043429E-005  0.1036567E+03  0.7546771E-02  0.1281217E+00
          4   -1    0    0  502    0 -0.00000000000E+00  0.00000000000E+00  0.72937967180E+03  0.72937967180E+03  0.00000000000E+00 0. -1.
         21   -1    0    0  503  502  0.00000000000E+00 -0.00000000000E+00 -0.68926409995E+02  0.68926409995E+02  0.00000000000E+00 0. -1.
         24    2    1    2    0    0  0.20801244466E+01 -0.34365609462E+02  0.41550796562E+03  0.42472026576E+03  0.80963650025E+02 0.  0.
         23    2    1    2    0    0 -0.77769870730E+02  0.15341889464E+02  0.19457370528E+03  0.23164218148E+03  0.97548178296E+02 0.  0.
        -11    1    3    3    0    0  0.39454939163E+02 -0.21414431207E+02  0.16038582481E+03  0.16654994112E+03  0.00000000000E+00 0.  1.
         12    1    3    3    0    0 -0.37374814717E+02 -0.12951178255E+02  0.25512214080E+03  0.25817032464E+03  0.00000000000E+00 0. -1.
        -13    1    4    4    0    0 -0.17022867929E+02  0.37145002348E+02  0.19944490278E+02  0.45467701992E+02  0.00000000000E+00 0. -1.
         13    1    4    4    0    0 -0.60747002801E+02 -0.21803112884E+02  0.17462921500E+03  0.18617447949E+03  0.00000000000E+00 0.  1.
         21    1    1    2  503  501  0.38090399363E+02 -0.17505814035E+02 -0.25987086075E+02  0.49322010212E+02  0.00000000000E+00 0. -1.
          3    1    1    2  501    0  0.37599346921E+02  0.36529534032E+02  0.76358676991E+02  0.92621624350E+02  0.00000000000E+00 0. -1.
<scales pt_clust_5="13000.00000" pt_clust_6="13000.00000" pt_clust_7="13000.00000" pt_clust_8="13000.00000" pt_clust_9="41.92054" pt_clust_10="57.26411"></scales>
<clustering>
<clus scale="   41.921">  2  9  1 -1</clus>
<clus scale="   57.264">  2 10  1 -1</clus>
<clus scale="   80.964">  5  6 -1 -1</clus>
<clus scale="   88.228">  1  5  2 -1</clus>
<clus scale="   97.548">  7  8 -1 -1</clus>
<clus scale="   41.921">  2  5  1 -1</clus>
</clustering>
</event>
<event>
10    4  0.3043429E-005  0.1024277E+03  0.7546771E-02  0.1279878E+00
         21   -1    0    0  501  502  0.00000000000E+00  0.00000000000E+00  0.24357465567E+03  0.24357465567E+03  0.00000000000E+00 0. -1.
          2   -1    0    0  503    0 -0.00000000000E+00 -0.00000000000E+00 -0.10629777200E+03  0.10629777200E+03  0.00000000000E+00 0. -1.
         24    2    1    2    0    0  0.12701416138E+02 -0.41472079512E+02 -0.25157132897E+02  0.94925485520E+02  0.80602153288E+02 0.  0.
         23    2    1    2    0    0  0.23087211241E+01  0.65684314612E+02  0.88631610205E+02  0.14270580149E+03  0.90496541774E+02 0.  0.
        -13    1    3    3    0    0 -0.29961646194E+02 -0.38436799461E+02 -0.14514956006E+02  0.50850484199E+02  0.00000000000E+00 0.  1.
         14    1    3    3    0    0  0.42663062331E+02 -0.30352800510E+01 -0.10642176891E+02  0.44075001321E+02  0.00000000000E+00 0. -1.
        -13    1    4    4    0    0  0.29147164394E+02 -0.17861377336E+01  0.14390524431E+01  0.29237276757E+02  0.00000000000E+00 0.  1.
         13    1    4    4    0    0 -0.26838443270E+02  0.67470452346E+02  0.87192557762E+02  0.11346852474E+03  0.00000000000E+00 0. -1.
         21    1    1    2  503  502 -0.23047583914E+02  0.25214747182E+02  0.25133434348E+02  0.42410660474E+02  0.00000000000E+00 0. -1.
          1    1    1    2  501    0  0.80374466524E+01 -0.49426982283E+02  0.48668972008E+02  0.69830480183E+02  0.00000000000E+00 0. -1.
<scales pt_clust_5="13000.00000" pt_clust_6="13000.00000" pt_clust_7="13000.00000" pt_clust_8="13000.00000" pt_clust_9="34.16101" pt_clust_10="42.33377"></scales>
<clustering>
<clus scale="   34.161">  1  9  2 -1</clus>
<clus scale="   42.334">  1 10  2 -1</clus>
<clus scale="   80.602">  5  6 -1 -1</clus>
<clus scale="   90.497">  7  8 -1 -1</clus>
<clus scale="   93.800">  2  5  1 -1</clus>
<clus scale="   34.161">  1  5  2 -1</clus>
</clustering>
</event>
<event>
10    4  0.3043429E-005  0.7264815E+03  0.7546771E-02  0.9672987E-01
         21   -1    0    0  501  502  0.00000000000E+00  0.00000000000E+00  0.43600769671E+03  0.43600769671E+03  0.00000000000E+00 0. -1.
          2   -1    0    0  503    0 -0.00000000000E+00 -0.00000000000E+00 -0.16024654998E+04  0.16024654998E+04  0.00000000000E+00 0. -1.
         24    2    1    2    0    0  0.10231554037E+03  0.17673839311E+03 -0.27346379767E+03  0.35084297733E+03  0.81261409689E+02 0.  0.
         23    2    1    2    0    0  0.31081819616E+03  0.32059832535E+03 -0.27193956496E+03  0.53049963910E+03  0.89930544393E+02 0.  0.
        -11    1    3    3    0    0  0.36684783724E+02  0.17197162117E+02 -0.91669474275E+02  0.10022379087E+03  0.00000000000E+00 0.  1.
         12    1    3    3    0    0  0.65630756646E+02  0.15954123099E+03 -0.18179432340E+03  0.25061918647E+03  0.00000000000E+00 0. -1.
        -13    1    4    4    0    0  0.15905075643E+03  0.14602309799E+03 -0.18171062563E+03  0.28220318873E+03  0.00000000000E+00 0.  1.
         13    1    4    4    0    0  0.15176743974E+03  0.17457522736E+03 -0.90228939332E+02  0.24829645037E+03  0.00000000000E+00 0. -1.
         21    1    1    2  503  502 -0.17885435741E+02  0.10098852173E+03  0.97835519653E+02  0.14174046437E+03  0.00000000000E+00 0.  1.
          1    1    1    2  501    0 -0.39524830079E+03 -0.59832524019E+03 -0.71888996007E+03  0.10153901157E+04  0.00000000000E+00 0. -1.
<scales pt_clust_5="13000.00000" pt_clust_6="13000.00000" pt_clust_7="13000.00000" pt_clust_8="13000.00000" pt_clust_9="102.56008" pt_clust_10="683.00740"></scales>
<clustering>
<clus scale="   81.261">  5  6 -1 -1</clus>
<clus scale="   89.931">  7  8 -1 -1</clus>
<clus scale="  102.560">  1  9  2 -1</clus>
<clus scale="  145.495">  5  7 -1 -1</clus>
<clus scale="  683.007">  1 10  2 -1</clus>
<clus scale="  102.560">  1  5  2 -1</clus>
</clustering>
</event>
<event>
10    4  0.3043429E-005  0.3545546E+03  0.7546771E-02  0.1114658E+00
          2   -1    0    0  502    0 -0.00000000000E+00  0.00000000000E+00  0.16742877236E+04  0.16742877236E+04  0.00000000000E+00 0. -1.
         21   -1    0    0  503  502  0.00000000000E+00 -0.00000000000E+00 -0.13254108826E+03  0.13254108826E+03  0.00000000000E+00 0. -1.
         24    2    1    2    0    0  0.13627617845E+02 -0.20973174153E+02  0.33948134835E+03  0.34998745613E+03  0.81351383319E+02 0.  0.
         23    2    1    2    0    0 -0.66596739971E+02 -0.33885987257E+03  0.51683962652E+03  0.62834888370E+03  0.91858484023E+02 0.  0.
        -11    1    3    3    0    0 -0.34255825091E+02 -0.12151696448E+02  0.15231728105E+03  0.15659399537E+03  0.00000000000E+00 0.  1.
         12    1    3    3    0    0  0.47883442936E+02 -0.88214777054E+01  0.18716406730E+03  0.19339346076E+03  0.00000000000E+00 0. -1.
        -11    1    4    4    0    0 -0.87059872203E+02 -0.30325256765E+03  0.46972977187E+03  0.56585121694E+03  0.00000000000E+00 0. -1.
         11    1    4    4    0    0  0.20463132232E+02 -0.35607304918E+02  0.47109854650E+02  0.62497666752E+02  0.00000000000E+00 0.  1.
         21    1    1    2  503  501 -0.17640638510E+02  0.21742786003E+02 -0.25651387486E+02  0.37972813304E+02  0.00000000000E+00 0. -1.
          1    1    1    2  501    0  0.70609760637E+02  0.33809026072E+03  0.71107704793E+03  0.79051965869E+03  0.00000000000E+00 0. -1.
<scales pt_clust_5="13000.00000" pt_clust_6="13000.00000" pt_clust_7="13000.00000" pt_clust_8="13000.00000" pt_clust_9="27.99894" pt_clust_10="342.44872"></scales>
<clustering>
<clus scale="   27.999">  2  9  1 -1</clus>
<clus scale="   81.351">  5  6 -1 -1</clus>
<clus scale="   84.694">  1  5  2 -1</clus>
<clus scale="   91.858">  7  8 -1 -1</clus>
<clus scale="  342.449">  2 10  1 -1</clus>
<clus scale="   27.999">  2  5  1 -1</clus>
</clustering>
</event>
<event>
10    4  0.3043429E-005  0.1494236E+03  0.7546771E-02  0.1203784E+00
         -1   -1    0    0    0  501 -0.00000000000E+00  0.00000000000E+00  0.60311843172E+03  0.60311843172E+03  0.00000000000E+00 0.  1.
         21   -1    0    0  501  502  0.00000000000E+00 -0.00000000000E+00 -0.12630913372E+03  0.12630913372E+03  0.00000000000E+00 0.  1.
         23    2    1    2    0    0  0.36539383230E+02 -0.98678839753E+02  0.36259332075E+03  0.38848749139E+03  0.91520351666E+02 0.  0.
         24    2    1    2    0    0 -0.94735299979E+02  0.12779237518E+03  0.17478684712E+03  0.24870918606E+03  0.77460629278E+02 0.  0.
        -13    1    4    4    0    0 -0.10036021859E+03  0.91529279329E+02  0.11229064931E+03  0.17623555933E+03  0.00000000000E+00 0.  1.
         14    1    4    4    0    0  0.56249186157E+01  0.36263095851E+02  0.62496197814E+02  0.72473626729E+02  0.00000000000E+00 0. -1.
        -11    1    3    3    0    0 -0.14849809814E+01 -0.77216929090E+02  0.31311154268E+03  0.32249573248E+03  0.00000000000E+00 0.  1.
         11    1    3    3    0    0  0.38024364211E+02 -0.21461910663E+02  0.49481778073E+02  0.65991758912E+02  0.00000000000E+00 0. -1.
         21    1    1    2  503  502  0.30744218914E+02 -0.13644547939E+02 -0.47299945637E+02  0.58040206257E+02  0.00000000000E+00 0.  1.
         -2    1    1    2    0  503  0.27451697835E+02 -0.15468987488E+02 -0.13270924235E+02  0.34190681742E+02  0.00000000000E+00 0.  1.
<scales pt_clust_5="13000.00000" pt_clust_6="13000.00000" pt_clust_7="13000.00000" pt_clust_8="13000.00000" pt_clust_9="23.77415" pt_clust_10="69.55362"></scales>
<clustering>
<clus scale="   23.774">  9 10 -1 -1</clus>
<clus scale="   69.554">  2  9  1 -1</clus>
<clus scale="   77.461">  5  6 -1 -1</clus>
<clus scale="   91.520">  7  8 -1 -1</clus>
<clus scale="  141.250">  2  5  1 -1</clus>
<clus scale="   69.554">  2  5  1 -1</clus>
</clustering>
</event>
<event>
10    4  0.3043429E-005  0.4445920E+03  0.7546771E-02  0.1086759E+00
          4   -1    0    0  502    0 -0.00000000000E+00  0.00000000000E+00  0.44020293695E+03  0.44020293695E+03  0.00000000000E+00 0. -1.
         21   -1    0    0  503  502  0.00000000000E+00 -0.00000000000E+00 -0.66819364109E+03  0.66819364109E+03  0.00000000000E+00 0. -1.
         24    2    1    2    0    0  0.28462878409E+02  0.12688662829E+02  0.12024573745E+03  0.14931439120E+03  0.82852956700E+02 0.  0.
         23    2    1    2    0    0 -0.24527533376E+03 -0.36585638796E+03 -0.10747699743E+03  0.46255775368E+03  0.91637789985E+02 0.  0.
        -13    1    3    3    0    0 -0.13995879640E+01  0.26209009631E+02  0.16794417066E+01  0.26300029596E+02  0.00000000000E+00 0.  1.
         14    1    3    3    0    0  0.29862466373E+02 -0.13520346802E+02  0.11856629574E+03  0.12301436160E+03  0.00000000000E+00 0. -1.
        -11    1    4    4    0    0 -0.73114703723E+02 -0.97640259539E+02 -0.72572842625E+02  0.14193730190E+03  0.00000000000E+00 0.  1.
         11    1    4    4    0    0 -0.17216063003E+03 -0.26821612842E+03 -0.34904154802E+02  0.32062045178E+03  0.00000000000E+00 0. -1.
         21    1    1    2  503  501  0.56090648834E+02  0.10453775702E+03 -0.14065009809E+03  0.18400204788E+03  0.00000000000E+00 0. -1.
          3    1    1    2  501    0  0.16072180651E+03  0.24862996811E+03 -0.10010934606E+03  0.31252238528E+03  0.00000000000E+00 0. -1.
<scales pt_clust_5="13000.00000" pt_clust_6="13000.00000" pt_clust_7="13000.00000" pt_clust_8="13000.00000" pt_clust_9="82.13805" pt_clust_10="82.13805"></scales>
<clustering>
<clus scale="   82.138">  9 10 -1 -1</clus>
<clus scale="   82.853">  5  6 -1 -1</clus>
<clus scale="   88.520">  1  5  2 -1</clus>
<clus scale="   91.638">  7  8 -1 -1</clus>
<clus scale="  434.998">  1  7  2 -1</clus>
<clus scale="  444.592">  2  5  1 -1</clus>
</clustering>
</event>
<event>
10    4  0.3043429E-005  0.2123001E+03  0.7546771E-02  0.1163049E+00
          2   -1    0    0  503    0 -0.00000000000E+00  0.00000000000E+00  0.17923180725E+04  0.17923180725E+04  0.00000000000E+00 0. -1.
         21   -1    0    0  501  502  0.00000000000E+00 -0.00000000000E+00 -0.80495419452E+02  0.80495419452E+02  0.00000000000E+00 0. -1.
         24    2    1    2    0    0 -0.81604866716E+02  0.61508312127E+02  0.25122724302E+03  0.28308479560E+03  0.81112558386E+02 0.  0.
         23    2    1    2    0    0  0.13912984188E+03  0.17343443727E+03  0.62708129135E+03  0.67142586845E+03  0.90250395715E+02 0.  0.
        -13    1    3    3    0    0 -0.88261932519E+02  0.23843814931E+02  0.16226578508E+03  0.18624951342E+03  0.00000000000E+00 0.  1.
         14    1    3    3    0    0  0.66570658036E+01  0.37664497196E+02  0.88961457946E+02  0.96835282175E+02  0.00000000000E+00 0. -1.
        -13    1    4    4    0    0  0.14298120670E+03  0.15354535686E+03  0.60950512352E+03  0.64460553649E+03  0.00000000000E+00 0. -1.
         13    1    4    4    0    0 -0.38513648169E+01  0.19889080413E+02  0.17576167836E+02  0.26820331960E+02  0.00000000000E+00 0.  1.
         21    1    1    2  503  502 -0.20542941588E+01 -0.63143454429E+02 -0.22951576737E+01  0.63218539294E+02  0.00000000000E+00 0. -1.
          1    1    1    2  501    0 -0.55470681008E+02 -0.17179929497E+03  0.83580927633E+03  0.85508428860E+03  0.00000000000E+00 0. -1.
<scales pt_clust_5="13000.00000" pt_clust_6="13000.00000" pt_clust_7="13000.00000" pt_clust_8="13000.00000" pt_clust_9="63.17686" pt_clust_10="192.16198"></scales>
<clustering>
<clus scale="   63.177">  2  9  1 -1</clus>
<clus scale="   81.113">  5  6 -1 -1</clus>
<clus scale="   90.250">  7  8 -1 -1</clus>
<clus scale="  122.419">  1  5  2 -1</clus>
<clus scale="  192.162">  2 10  1 -1</clus>
<clus scale="   63.177">  2  5  1 -1</clus>
</clustering>
</event>
<event>
10    4  0.3043429E-005  0.1283411E+03  0.7546771E-02  0.1233484E+00
         21   -1    0    0  503  502  0.00000000000E+00  0.00000000000E+00  0.12909494463E+03  0.12909494463E+03  0.00000000000E+00 0. -1.
          2   -1    0    0  502    0 -0.00000000000E+00 -0.00000000000E+00 -0.51534875087E+03  0.51534875087E+03  0.00000000000E+00 0. -1.
         24    2    1    2    0    0 -0.20823945693E+02  0.91963980598E+02 -0.33730229112E+03  0.35951730860E+03  0.81171726272E+02 0.  0.
         23    2    1    2    0    0  0.59595013758E+02 -0.26890371365E+02  0.30595947519E+02  0.11848009166E+03  0.93950850864E+02 0.  0.
        -11    1    3    3    0    0 -0.35716971156E+02  0.46988394618E+02 -0.89383350263E+02  0.10711206543E+03  0.00000000000E+00 0.  1.
         12    1    3    3    0    0  0.14893025463E+02  0.44975585980E+02 -0.24791894085E+03  0.25240524316E+03  0.00000000000E+00 0. -1.
        -13    1    4    4    0    0  0.40219182475E+02  0.14777237285E+02 -0.22388686158E+02  0.48344623782E+02  0.00000000000E+00 0. -1.
         13    1    4    4    0    0  0.19375831284E+02 -0.41667608650E+02  0.52984633677E+02  0.70135467878E+02  0.00000000000E+00 0.  1.
         21    1    1    2  503  501  0.30968566279E+02 -0.16973792652E+02  0.15981609779E+02  0.38763044069E+02  0.00000000000E+00 0. -1.
          1    1    1    2  501    0 -0.69739634345E+02 -0.48099816581E+02 -0.95529072420E+02  0.12768325118E+03  0.00000000000E+00 0. -1.
<scales pt_clust_5="13000.00000" pt_clust_6="13000.00000" pt_clust_7="13000.00000" pt_clust_8="13000.00000" pt_clust_9="35.31518" pt_clust_10="82.36356"></scales>
<clustering>
<clus scale="   35.315">  1  9  2 -1</clus>
<clus scale="   81.172">  5  6 -1 -1</clus>
<clus scale="   82.364">  1 10  2 -1</clus>
<clus scale="   93.951">  7  8 -1 -1</clus>
<clus scale="  119.304">  2  5  1 -1</clus>
<clus scale="   35.315">  1  5  2 -1</clus>
</clustering>
</event>
<event>
10    4  0.3043429E-005  0.1251933E+03  0.7546771E-02  0.1240957E+00
         21   -1    0    0  501  502  0.00000000000E+00  0.00000000000E+00  0.37079612310E+03  0.37079612310E+03  0.00000000000E+00 0.  1.
         -3   -1    0    0    0  501 -0.00000000000E+00 -0.00000000000E+00 -0.41152491153E+03  0.41152491153E+03  0.00000000000E+00 0.  1.
         23    2    1    2    0    0  0.21940908001E+02  0.82359937515E+02 -0.24453049193E+03  0.27475305167E+03  0.91812391128E+02 0.  0.
         24    2    1    2    0    0 -0.10009533827E+03 -0.56864429835E+02  0.31834921745E+03  0.34573597378E+03  0.70245990567E+02 0.  0.
        -13    1    4    4    0    0 -0.56567293724E+02 -0.42033565513E+02  0.26985340918E+03  0.27890418031E+03  0.00000000000E+00 0.  1.
         14    1    4    4    0    0 -0.43528044542E+02 -0.14830864322E+02  0.48495808264E+02  0.66831793461E+02  0.00000000000E+00 0. -1.
        -13    1    3    3    0    0 -0.34520278784E+02  0.44858106792E+02 -0.95133644189E+02  0.11069918540E+03  0.00000000000E+00 0.  1.
         13    1    3    3    0    0  0.56461186784E+02  0.37501830723E+02 -0.14939684774E+03  0.16405386627E+03  0.00000000000E+00 0. -1.
         21    1    1    2  503  502  0.21369542041E+02 -0.87467532990E+01  0.90391709432E+01  0.24796564917E+02  0.00000000000E+00 0.  1.
         -4    1    1    2    0  503  0.56784888224E+02 -0.16748754381E+02 -0.12358668489E+03  0.13703544427E+03  0.00000000000E+00 0.  1.
<scales pt_clust_5="13000.00000" pt_clust_6="13000.00000" pt_clust_7="13000.00000" pt_clust_8="13000.00000" pt_clust_9="23.09032" pt_clust_10="59.63996"></scales>
<clustering>
<clus scale="   23.090">  1  9  2 -1</clus>
<clus scale="   59.640">  1 10  2 -1</clus>
<clus scale="   70.246">  5  6 -1 -1</clus>
<clus scale="   91.812">  7  8 -1 -1</clus>
<clus scale="  110.356">  1  5  2 -1</clus>
<clus scale="   23.090">  1  5  2 -1</clus>
</clustering>
</event>
<event>
10    4  0.3043429E-005  0.9924769E+02  0.7546771E-02  0.1286032E+00
          2   -1    0    0  502    0 -0.00000000000E+00  0.00000000000E+00  0.10706710539E+04  0.10706710539E+04  0.00000000000E+00 0. -1.
         21   -1    0    0  503  502  0.00000000000E+00 -0.00000000000E+00 -0.59505516875E+02  0.59505516875E+02  0.00000000000E+00 0. -1.
         24    2    1    2    0    0 -0.22871477376E+02  0.36164648217E+02  0.77342204429E+03  0.77867531123E+03  0.79514750036E+02 0.  0.
         23    2    1    2    0    0  0.25582234745E+02 -0.51535380375E+02  0.26581662295E+03  0.28586868541E+03  0.88045909010E+02 0.  0.
        -11    1    3    3    0    0  0.17548640990E+02  0.39091051914E+02  0.24645144184E+03  0.25014871242E+03  0.00000000000E+00 0.  1.
         12    1    3    3    0    0 -0.40420118366E+02 -0.29264036967E+01  0.52697060245E+03  0.52852659882E+03  0.00000000000E+00 0. -1.
        -13    1    4    4    0    0 -0.10256618385E+02 -0.46045996239E+02  0.57287775850E+02  0.74211328327E+02  0.00000000000E+00 0.  1.
         13    1    4    4    0    0  0.35838853130E+02 -0.54893841364E+01  0.20852884710E+03  0.21165735708E+03  0.00000000000E+00 0. -1.
         21    1    1    2  503  501  0.30760082087E+01 -0.21387855785E+02 -0.14504441489E+02  0.26024623427E+02  0.00000000000E+00 0. -1.
          1    1    1    2  501    0 -0.57867655783E+01  0.36758587943E+02 -0.13568688747E+02  0.39607950689E+02  0.00000000000E+00 0. -1.
<scales pt_clust_5="13000.00000" pt_clust_6="13000.00000" pt_clust_7="13000.00000" pt_clust_8="13000.00000" pt_clust_9="21.60792" pt_clust_10="22.57266"></scales>
<clustering>
<clus scale="   21.608">  2  9  1 -1</clus>
<clus scale="   22.573">  2 10  1 -1</clus>
<clus scale="   79.515">  5  6 -1 -1</clus>
<clus scale="   88.046">  7  8 -1 -1</clus>
<clus scale="   91.764">  1  5  2 -1</clus>
<clus scale="   21.608">  2  5  1 -1</clus>
</clustering>
</event>
<event>
10    4  0.3043429E-005  0.1166990E+03  0.7546771E-02  0.1253093E+00
          2   -1    0    0  503    0 -0.00000000000E+00  0.00000000000E+00  0.64245007923E+03  0.64245007923E+03  0.00000000000E+00 0. -1.
         21   -1    0    0  501  502  0.00000000000E+00 -0.00000000000E+00 -0.19370829613E+03  0.19370829613E+03  0.00000000000E+00 0. -1.
         24    2    1    2    0    0 -0.26430065666E+02 -0.63551808838E+02  0.38593230751E+03  0.40029939606E+03  0.80984441305E+02 0.  0.
         23    2    1    2    0    0 -0.17767990706E+02  0.85275059394E+02  0.49265050536E+02  0.13706995668E+03  0.93667446699E+02 0.  0.
        -13    1    3    3    0    0  0.25137172966E+02 -0.40941902811E+02  0.14035281705E+03  0.14834766640E+03  0.00000000000E+00 0.  1.
         14    1    3    3    0    0 -0.51567238632E+02 -0.22609906027E+02  0.24557949045E+03  0.25195172967E+03  0.00000000000E+00 0. -1.
        -11    1    4    4    0    0  0.22570474555E+02  0.33946047656E+02 -0.16891864342E+02  0.44125905703E+02  0.00000000000E+00 0.  1.
         11    1    4    4    0    0 -0.40338465261E+02  0.51329011737E+02  0.66156914878E+02  0.92944050976E+02  0.00000000000E+00 0. -1.
         21    1    1    2  503  502 -0.66512034580E+02  0.52644865621E+02 -0.94616870186E+02  0.12707354069E+03  0.00000000000E+00 0. -1.
          1    1    1    2  501    0  0.11071009095E+03 -0.74368116177E+02  0.10816129525E+03  0.17171548192E+03  0.00000000000E+00 0. -1.
<scales pt_clust_5="13000.00000" pt_clust_6="13000.00000" pt_clust_7="13000.00000" pt_clust_8="13000.00000" pt_clust_9="84.82531" pt_clust_10="100.97046"></scales>
<clustering>
<clus scale="   80.984">  5  6 -1 -1</clus>
<clus scale="   84.825">  2  9  1 -1</clus>
<clus scale="   93.667">  7  8 -1 -1</clus>
<clus scale="  100.970">  2 10  1 -1</clus>
<clus scale="  106.787">  1  5  2 -1</clus>
<clus scale="   84.825">  2  5  1 -1</clus>
</clustering>
</event>
<event>
10    4  0.3043429E-005  0.3385785E+03  0.7546771E-02  0.1081715E+00
         21   -1    0    0  501  502  0.00000000000E+00  0.00000000000E+00  0.50789102913E+03  0.50789102913E+03  0.00000000000E+00 0. -1.
          2   -1    0    0  503    0 -0.00000000000E+00 -0.00000000000E+00 -0.82311857545E+03  0.82311857545E+03  0.00000000000E+00 0. -1.
         23    2    1    2    0    0  0.13674012215E+03 -0.16544949791E+03 -0.27453095985E+03  0.36205753797E+03  0.98219221759E+02 0.  0.
         24    2    1    2    0    0  0.25269035372E+03  0.65386743011E+02 -0.31502891578E+03  0.41808700151E+03  0.86172397096E+02 0.  0.
        -11    1    4    4    0    0  0.23293953618E+03  0.42314508878E+02 -0.30499693510E+03  0.38610163895E+03  0.00000000000E+00 0.  1.
         12    1    4    4    0    0  0.19750817544E+02  0.23072234134E+02 -0.10031980684E+02  0.31985362559E+02  0.00000000000E+00 0. -1.
        -11    1    3    3    0    0  0.61952489862E+02 -0.64341423306E+02 -0.44263581700E+02  0.99685477469E+02  0.00000000000E+00 0.  1.
         11    1    3    3    0    0  0.74787632286E+02 -0.10110807460E+03 -0.23026737815E+03  0.26237206050E+03  0.00000000000E+00 0. -1.
         21    1    1    2  503  502 -0.26187558901E+03  0.10175908225E+03  0.31003565407E+03  0.41839675158E+03  0.00000000000E+00 0. -1.
          1    1    1    2  501    0 -0.12755488687E+03 -0.16963273566E+01 -0.35703324740E+02  0.13246831352E+03  0.00000000000E+00 0. -1.
<scales pt_clust_5="13000.00000" pt_clust_6="13000.00000" pt_clust_7="13000.00000" pt_clust_8="13000.00000" pt_clust_9="327.42893" pt_clust_10="127.56623"></scales>
<clustering>
<clus scale="   86.172">  5  6 -1 -1</clus>
<clus scale="   98.219">  7  8 -1 -1</clus>
<clus scale="  127.566">  1 10  2 -1</clus>
<clus scale="  229.341">  2  7  1 -1</clus>
<clus scale="  327.429">  1  9  2 -1</clus>
<clus scale="  127.566">  1  5  2 -1</clus>
</clustering>
</event>
<event>
10    4  0.3043429E-005  0.1320720E+03  0.7546771E-02  0.1241417E+00
         21   -1    0    0  503  502  0.00000000000E+00  0.00000000000E+00  0.32512851459E+03  0.32512851459E+03  0.00000000000E+00 0.  1.
         -1   -1    0    0    0  501 -0.00000000000E+00 -0.00000000000E+00 -0.89514604857E+03  0.89514604857E+03  0.00000000000E+00 0.  1.
         24    2    1    2    0    0 -0.27347400864E+02 -0.38603710686E+02 -0.37330791993E+03  0.38483017659E+03  0.80606047651E+02 0.  0.
         23    2    1    2    0    0 -0.10339508927E+02 -0.63239023870E+02 -0.37928615597E+03  0.39528066610E+03  0.91009545108E+02 0.  0.
        -13    1    3    3    0    0  0.26289499642E+02 -0.28645720557E+02 -0.16012699230E+03  0.16477975835E+03  0.00000000000E+00 0.  1.
         14    1    3    3    0    0 -0.53636900506E+02 -0.99579901300E+01 -0.21318092763E+03  0.22005041824E+03  0.00000000000E+00 0. -1.
        -13    1    4    4    0    0 -0.33567802737E+02  0.95469573124E+01 -0.11748295773E+03  0.12255687305E+03  0.00000000000E+00 0.  1.
         13    1    4    4    0    0  0.23228293810E+02 -0.72785981183E+02 -0.26180319824E+03  0.27272379305E+03  0.00000000000E+00 0. -1.
         21    1    1    2  503  501  0.28062588349E+02  0.62149263086E+02  0.30426029329E+03  0.31180821965E+03  0.00000000000E+00 0.  1.
         -2    1    1    2    0  502  0.96243214423E+01  0.39693471470E+02 -0.12168375138E+03  0.12835550082E+03  0.00000000000E+00 0.  1.
<scales pt_clust_5="13000.00000" pt_clust_6="13000.00000" pt_clust_7="13000.00000" pt_clust_8="13000.00000" pt_clust_9="95.70934" pt_clust_10="40.84362"></scales>
<clustering>
<clus scale="   40.844">  1 10  2 -1</clus>
<clus scale="   80.606">  5  6 -1 -1</clus>
<clus scale="   91.010">  7  8 -1 -1</clus>
<clus scale="   93.122">  2  5  1 -1</clus>
<clus scale="   95.709">  1  9  2 -1</clus>
<clus scale="   40.844">  1  5  2 -1</clus>
</clustering>
</event>
<event>
10    4  0.3043429E-005  0.1371009E+03  0.7546771E-02  0.1219904E+00
         21   -1    0    0  503  502  0.00000000000E+00  0.00000000000E+00  0.17569254266E+03  0.17569254266E+03  0.00000000000E+00 0.  1.
          2   -1    0    0  502    0 -0.00000000000E+00 -0.00000000000E+00 -0.71575282307E+03  0.71575282307E+03  0.00000000000E+00 0. -1.
         24    2    1    2    0    0  0.93384609225E+02  0.54467233066E+02 -0.27755988231E+03  0.30831498556E+03  0.79569324078E+02 0.  0.
         23    2    1    2    0    0 -0.60651058695E+02 -0.79328997280E+02 -0.22104149249E+03  0.25908474591E+03  0.91070980161E+02 0.  0.
        -11    1    3    3    0    0  0.40453947738E+02  0.59159508941E+02 -0.21279959436E+03  0.22454406415E+03  0.00000000000E+00 0.  1.
         12    1    3    3    0    0  0.52930661487E+02 -0.46922758741E+01 -0.64760287956E+02  0.83770921413E+02  0.00000000000E+00 0. -1.
        -11    1    4    4    0    0 -0.25220794375E+02 -0.78660084011E+02 -0.85090614260E+02  0.11859135686E+03  0.00000000000E+00 0.  1.
         11    1    4    4    0    0 -0.35430264320E+02 -0.66891326921E+00 -0.13595087823E+03  0.14049338905E+03  0.00000000000E+00 0. -1.
         21    1    1    2  503  501  0.29213281053E+02 -0.87812197743E+01  0.13270007594E+03  0.13616106553E+03  0.00000000000E+00 0.  1.
          1    1    1    2  501    0 -0.61946831582E+02  0.33642983988E+02 -0.17415898154E+03  0.18788456873E+03  0.00000000000E+00 0. -1.
<scales pt_clust_5="13000.00000" pt_clust_6="13000.00000" pt_clust_7="13000.00000" pt_clust_8="13000.00000" pt_clust_9="30.50452" pt_clust_10="65.53439"></scales>
<clustering>
<clus scale="   30.505">  1  9  2 -1</clus>
<clus scale="   65.534">  1 10  2 -1</clus>
<clus scale="   79.569">  5  6 -1 -1</clus>
<clus scale="   91.071">  7  8 -1 -1</clus>
<clus scale="  129.746">  2  5  1 -1</clus>
<clus scale="   30.505">  1  5  2 -1</clus>
</clustering>
</event>
<event>
10    4  0.3043429E-005  0.1123817E+03  0.7546771E-02  0.1258899E+00
         21   -1    0    0  501  502  0.00000000000E+00  0.00000000000E+00  0.15370326187E+03  0.15370326187E+03  0.00000000000E+00 0. -1.
          2   -1    0    0  503    0 -0.00000000000E+00 -0.00000000000E+00 -0.24924926061E+03  0.24924926061E+03  0.00000000000E+00 0. -1.
         24    2    1    2    0    0  0.30782596571E+02 -0.66856402739E+02 -0.15237342153E+03  0.18762914853E+03  0.81053630096E+02 0.  0.
         23    2    1    2    0    0 -0.12893052106E+02  0.53239497002E+02  0.17975326154E+02  0.10563933213E+03  0.88520513492E+02 0.  0.
        -13    1    3    3    0    0  0.51677933838E+02 -0.53095695957E+02 -0.14273020228E+03  0.16081564731E+03  0.00000000000E+00 0.  1.
         14    1    3    3    0    0 -0.20895337267E+02 -0.13760706782E+02 -0.96432192482E+01  0.26813501228E+02  0.00000000000E+00 0. -1.
        -11    1    4    4    0    0 -0.86358838697E+01 -0.23728026760E+02 -0.38060999018E+01  0.25535938217E+02  0.00000000000E+00 0.  1.
         11    1    4    4    0    0 -0.42571682365E+01  0.76967523762E+02  0.21781426056E+02  0.80103393913E+02  0.00000000000E+00 0. -1.
         21    1    1    2  503  502  0.22682939793E+02  0.39154927128E+02  0.41867833917E+02  0.61648516552E+02  0.00000000000E+00 0. -1.
          1    1    1    2  501    0 -0.40572484258E+02 -0.25538021391E+02 -0.30157372799E+01  0.48035525258E+02  0.00000000000E+00 0. -1.
<scales pt_clust_5="13000.00000" pt_clust_6="13000.00000" pt_clust_7="13000.00000" pt_clust_8="13000.00000" pt_clust_9="45.25068" pt_clust_10="39.37198"></scales>
<clustering>
<clus scale="   45.251">  1  9  2 -1</clus>
<clus scale="   39.372">  1 10  2 -1</clus>
<clus scale="   81.054">  5  6 -1 -1</clus>
<clus scale="   88.521">  7  8 -1 -1</clus>
<clus scale="  106.600">  2  5  1 -1</clus>
<clus scale="   45.251">  1  5  2 -1</clus>
</clustering>
</event>
<event>
10    4  0.3043429E-005  0.1162412E+03  0.7546771E-02  0.1253524E+00
         21   -1    0    0  501  502  0.00000000000E+00  0.00000000000E+00  0.82522481761E+02  0.82522481761E+02  0.00000000000E+00 0. -1.
          4   -1    0    0  503    0 -0.00000000000E+00 -0.00000000000E+00 -0.14197813835E+04  0.14197813835E+04  0.00000000000E+00 0. -1.
         24    2    1    2    0    0  0.66142999002E+02  0.53011043170E+02 -0.11538610614E+04  0.11596941680E+04  0.79436435748E+02 0.  0.
         23    2    1    2    0    0 -0.42086160171E+02  0.36680409747E+02 -0.20444337078E+03  0.23077824365E+03  0.91349923642E+02 0.  0.
        -13    1    3    3    0    0  0.47441369543E+02  0.49167234116E+01 -0.25957262610E+03  0.26391818037E+03  0.00000000000E+00 0.  1.
         14    1    3    3    0    0  0.18701629459E+02  0.48094319758E+02 -0.89428843527E+03  0.89577598762E+03  0.00000000000E+00 0. -1.
        -11    1    4    4    0    0  0.20501392090E+02  0.36367063763E+02 -0.10819023092E+03  0.11596549690E+03  0.00000000000E+00 0. -1.
         11    1    4    4    0    0 -0.62587552262E+02  0.31334598418E+00 -0.96253139859E+02  0.11481274675E+03  0.00000000000E+00 0.  1.
         21    1    1    2  503  502  0.83618791782E+01 -0.72345389427E+02  0.10490077280E+02  0.73578652584E+02  0.00000000000E+00 0. -1.
          3    1    1    2  501    0 -0.32418718008E+02 -0.17346063489E+02  0.10555453130E+02  0.38252801030E+02  0.00000000000E+00 0. -1.
<scales pt_clust_5="13000.00000" pt_clust_6="13000.00000" pt_clust_7="13000.00000" pt_clust_8="13000.00000" pt_clust_9="86.22090" pt_clust_10="36.76764"></scales>
<clustering>
<clus scale="   36.768">  1 10  2 -1</clus>
<clus scale="   79.436">  5  6 -1 -1</clus>
<clus scale="   86.221">  1  9  2 -1</clus>
<clus scale="   91.350">  7  8 -1 -1</clus>
<clus scale="  107.132">  2  5  1 -1</clus>
<clus scale="   36.768">  1  5  2 -1</clus>
</clustering>
</event>
<event>
10    4  0.3043429E-005  0.2745645E+03  0.7546771E-02  0.1139510E+00
          2   -1    0    0  502    0 -0.00000000000E+00  0.00000000000E+00  0.25029421398E+04  0.25029421398E+04  0.00000000000E+00 0. -1.
         21   -1    0    0  503  502  0.00000000000E+00 -0.00000000000E+00 -0.49987628346E+02  0.49987628346E+02  0.00000000000E+00 0. -1.
         23    2    1    2    0    0  0.11543553229E+02  0.13920341844E+02  0.34431999480E+03  0.35795946011E+03  0.96185688786E+02 0.  0.
         24    2    1    2    0    0 -0.22339550165E+03  0.16703965905E+03  0.90884365982E+03  0.95379673056E+03  0.76964974940E+02 0.  0.
        -11    1    4    4    0    0 -0.21892375148E+02 -0.66321445994E+01  0.58458285862E+02  0.62774458321E+02  0.00000000000E+00 0.  1.
         12    1    4    4    0    0 -0.20150312650E+03  0.17367180365E+03  0.85038537396E+03  0.89102227224E+03  0.00000000000E+00 0. -1.
        -11    1    3    3    0    0 -0.42657542401E+02  0.53686338374E+01  0.14942138720E+03  0.15548388696E+03  0.00000000000E+00 0.  1.
         11    1    3    3    0    0  0.54201095630E+02  0.85517080067E+01  0.19489860760E+03  0.20247557315E+03  0.00000000000E+00 0. -1.
         21    1    1    2  503  501  0.35227739508E+02  0.20704373720E+01  0.37971340100E+02  0.51837274338E+02  0.00000000000E+00 0. -1.
          1    1    1    2  501    0  0.17662420891E+03 -0.18303043827E+03  0.11618195167E+04  0.11893363031E+04  0.00000000000E+00 0. -1.
<scales pt_clust_5="13000.00000" pt_clust_6="13000.00000" pt_clust_7="13000.00000" pt_clust_8="13000.00000" pt_clust_9="35.28853" pt_clust_10="263.55673"></scales>
<clustering>
<clus scale="   35.289">  2  9  1 -1</clus>
<clus scale="   76.965">  5  6 -1 -1</clus>
<clus scale="   96.186">  7  8 -1 -1</clus>
<clus scale="   98.732">  1  7  2 -1</clus>
<clus scale="  263.557">  2 10  1 -1</clus>
<clus scale="   35.289">  2  5  1 -1</clus>
</clustering>
</event>
<event>
10    4  0.3043429E-005  0.3666817E+03  0.7546771E-02  0.1078663E+00
         21   -1    0    0  501  502  0.00000000000E+00  0.00000000000E+00  0.85211436298E+03  0.85211436298E+03  0.00000000000E+00 0. -1.
          2   -1    0    0  503    0 -0.00000000000E+00 -0.00000000000E+00 -0.37647703977E+03  0.37647703977E+03  0.00000000000E+00 0. -1.
         24    2    1    2    0    0  0.76407057773E+02  0.16088647683E+03 -0.13125641211E+03  0.23630389779E+03  0.82998731825E+02 0.  0.
         23    2    1    2    0    0 -0.11691180294E+03 -0.39961785926E+03  0.56556745024E+03  0.70813455223E+03  0.90692889394E+02 0.  0.
        -11    1    3    3    0    0 -0.40190724249E+01  0.69571200446E+02 -0.74573034374E+02  0.10206587251E+03  0.00000000000E+00 0.  1.
         12    1    3    3    0    0  0.80426130198E+02  0.91315276380E+02 -0.56683377741E+02  0.13423802528E+03  0.00000000000E+00 0. -1.
        -11    1    4    4    0    0 -0.31304542218E+02 -0.56987919411E+02  0.44988850111E+02  0.79067021928E+02  0.00000000000E+00 0.  1.
         11    1    4    4    0    0 -0.85607260718E+02 -0.34262993985E+03  0.52057860013E+03  0.62906753030E+03  0.00000000000E+00 0. -1.
         21    1    1    2  503  502  0.15474461114E+02 -0.16777321888E+02  0.11900755293E+02  0.25740346793E+02  0.00000000000E+00 0. -1.
          1    1    1    2  501    0  0.25030284049E+02  0.25550870432E+03  0.29425529793E+02  0.25841260594E+03  0.00000000000E+00 0. -1.
<scales pt_clust_5="13000.00000" pt_clust_6="13000.00000" pt_clust_7="13000.00000" pt_clust_8="13000.00000" pt_clust_9="22.82405" pt_clust_10="355.28919"></scales>
<clustering>
<clus scale="   22.824">  1  9  2 -1</clus>
<clus scale="   82.999">  5  6 -1 -1</clus>
<clus scale="   90.693">  7  8 -1 -1</clus>
<clus scale="  196.016">  2  5  1 -1</clus>
<clus scale="  355.289">  1 10  2 -1</clus>
<clus scale="   22.824">  1  5  2 -1</clus>
</clustering>
</event>
<event>
10    4  0.3043429E-005  0.4402315E+03  0.7546771E-02  0.1030854E+00
         -1   -1    0    0    0  501 -0.00000000000E+00  0.00000000000E+00  0.10884894077E+04  0.10884894077E+04  0.00000000000E+00 0.  1.
         21   -1    0    0  501  502  0.00000000000E+00 -0.00000000000E+00 -0.35483828529E+03  0.35483828529E+03  0.00000000000E+00 0.  1.
         23    2    1    2    0    0  0.27169916208E+03  0.35864714272E+03  0.34474519736E+03  0.57422964465E+03  0.91881586998E+02 0.  0.
         24    2    1    2    0    0 -0.33431097223E+03 -0.23664726297E+03  0.21643860887E+02  0.41789814710E+03  0.80029066054E+02 0.  0.
        -11    1    4    4    0    0 -0.58562517563E+02 -0.76921411787E+02 -0.12172702366E+02  0.97440477921E+02  0.00000000000E+00 0.  1.
         12    1    4    4    0    0 -0.27574845467E+03 -0.15972585119E+03  0.33816563253E+02  0.32045766918E+03  0.00000000000E+00 0. -1.
        -13    1    3    3    0    0  0.18767740503E+03  0.30916937915E+03  0.27484366127E+03  0.45425494109E+03  0.00000000000E+00 0.  1.
         13    1    3    3    0    0  0.84021757053E+02  0.49477763575E+02  0.69901536086E+02  0.11997470356E+03  0.00000000000E+00 0. -1.
         21    1    1    2  503  502 -0.15248762597E+02  0.18837686901E+02 -0.20262022925E+02  0.31590074098E+02  0.00000000000E+00 0. -1.
         -2    1    1    2    0  503  0.77860572745E+02 -0.14083756665E+03  0.38752408713E+03  0.41960982719E+03  0.00000000000E+00 0.  1.
<scales pt_clust_5="13000.00000" pt_clust_6="13000.00000" pt_clust_7="13000.00000" pt_clust_8="13000.00000" pt_clust_9="24.23599" pt_clust_10="159.76321"></scales>
<clustering>
<clus scale="   24.236">  2  9  1 -1</clus>
<clus scale="   80.029">  5  6 -1 -1</clus>
<clus scale="   91.882">  7  8 -1 -1</clus>
<clus scale="  159.763">  2 10  1 -1</clus>
<clus scale="  437.911">  2  5  1 -1</clus>
<clus scale="   24.236">  2  5  1 -1</clus>
</clustering>
</event>
<event>
10    4  0.3043429E-005  0.1047009E+03  0.7546771E-02  0.1278713E+00
         -3   -1    0    0    0  501 -0.00000000000E+00  0.00000000000E+00  0.25629317168E+03  0.25629317168E+03  0.00000000000E+00 0.  1.
         21   -1    0    0  503  502  0.00000000000E+00 -0.00000000000E+00 -0.71320503222E+02  0.71320503222E+02  0.00000000000E+00 0.  1.
         24    2    1    2    0    0 -0.14284276166E+02 -0.24531797457E+02  0.73606160931E+02  0.10854183511E+03  0.74549402479E+02 0.  0.
         23    2    1    2    0    0  0.57717335918E+02  0.55385872797E+02  0.10061274692E+03  0.15804695365E+03  0.91962106020E+02 0.  0.
        -13    1    3    3    0    0  0.30955875696E-01 -0.48136665880E+02  0.29342246285E+02  0.56374701572E+02  0.00000000000E+00 0.  1.
         14    1    3    3    0    0 -0.14315232042E+02  0.23604868423E+02  0.44263914647E+02  0.52167133538E+02  0.00000000000E+00 0. -1.
        -11    1    4    4    0    0 -0.62548174456E+01  0.37224261011E+02  0.36510807457E+00  0.37747869516E+02  0.00000000000E+00 0. -1.
         11    1    4    4    0    0  0.63972153364E+02  0.18161611786E+02  0.10024763885E+03  0.12029908413E+03  0.00000000000E+00 0.  1.
         21    1    1    2  503  501 -0.14906436769E+02 -0.18724806216E+02  0.17060228063E+02  0.29391692815E+02  0.00000000000E+00 0.  1.
         -4    1    1    2    0  502 -0.28526622983E+02 -0.12129269124E+02 -0.63064674594E+01  0.31633193328E+02  0.00000000000E+00 0.  1.
<scales pt_clust_5="13000.00000" pt_clust_6="13000.00000" pt_clust_7="13000.00000" pt_clust_8="13000.00000" pt_clust_9="23.93366" pt_clust_10="32.14758"></scales>
<clustering>
<clus scale="   23.934">  1  9  2 -1</clus>
<clus scale="   32.148">  2 10  1 -1</clus>
<clus scale="   74.549">  5  6 -1 -1</clus>
<clus scale="   89.793">  1  5  2 -1</clus>
<clus scale="   91.962">  7  8 -1 -1</clus>
<clus scale="   32.148">  2  5  1 -1</clus>
</clustering>
</event>
<event>
10    4  0.3043429E-005  0.2941483E+03  0.7546771E-02  0.1091105E+00
         21   -1    0    0  501  502  0.00000000000E+00  0.00000000000E+00  0.22106357779E+03  0.22106357779E+03  0.00000000000E+00 0. -1.
          2   -1    0    0  503    0 -0.00000000000E+00 -0.00000000000E+00 -0.13224830884E+04  0.13224830884E+04  0.00000000000E+00 0. -1.
         23    2    1    2    0    0 -0.63376506586E+01 -0.24930584115E+03 -0.39140189097E+03  0.47126807155E+03  0.81881541020E+02 0.  0.
         24    2    1    2    0    0 -0.25201690343E+03  0.15078659987E+03 -0.55195943153E+03  0.63283071104E+03  0.97807854778E+02 0.  0.
        -13    1    4    4    0    0 -0.12581914032E+02  0.28449836897E+02 -0.20584386728E+02  0.37301672311E+02  0.00000000000E+00 0.  1.
         14    1    4    4    0    0 -0.23943498940E+03  0.12233676298E+03 -0.53137504481E+03  0.59552903873E+03  0.00000000000E+00 0. -1.
        -11    1    3    3    0    0 -0.24041427822E+02 -0.11767822672E+03 -0.12362482003E+03  0.17236371840E+03  0.00000000000E+00 0.  1.
         11    1    3    3    0    0  0.17703777164E+02 -0.13162761443E+03 -0.26777707095E+03  0.29890435315E+03  0.00000000000E+00 0. -1.
         21    1    1    2  503  502 -0.44974039034E+02 -0.46439093321E+02  0.68220427002E+01  0.65006106191E+02  0.00000000000E+00 0. -1.
          1    1    1    2  501    0  0.30332859312E+03  0.14495833460E+03 -0.16488023082E+03  0.37444177744E+03  0.00000000000E+00 0. -1.
<scales pt_clust_5="13000.00000" pt_clust_6="13000.00000" pt_clust_7="13000.00000" pt_clust_8="13000.00000" pt_clust_9="64.64715" pt_clust_10="277.41099"></scales>
<clustering>
<clus scale="   64.647">  1  9  2 -1</clus>
<clus scale="   81.882">  7  8 -1 -1</clus>
<clus scale="   97.808">  5  6 -1 -1</clus>
<clus scale="  272.414">  2  7  1 -1</clus>
<clus scale="  277.411">  1 10  2 -1</clus>
<clus scale="   64.647">  1  5  2 -1</clus>
</clustering>
</event>
<event>
10    4  0.3043429E-005  0.1257029E+03  0.7546771E-02  0.1235284E+00
         -1   -1    0    0    0  501 -0.00000000000E+00  0.00000000000E+00  0.17388695836E+03  0.17388695836E+03  0.00000000000E+00 0.  1.
         21   -1    0    0  503  502  0.00000000000E+00 -0.00000000000E+00 -0.58289877602E+03  0.58289877602E+03  0.00000000000E+00 0.  1.
         24    2    1    2    0    0  0.66916310081E+02  0.20535199038E+02 -0.10298232250E+03  0.15016260831E+03  0.83928321996E+02 0.  0.
         23    2    1    2    0    0 -0.15246978454E+03  0.67876158865E+01 -0.36731374770E+03  0.40753144820E+03  0.88709554727E+02 0.  0.
        -13    1    3    3    0    0  0.25238265993E+02  0.51382390528E+02 -0.58426977375E+02  0.81797504925E+02  0.00000000000E+00 0.  1.
         14    1    3    3    0    0  0.41678044088E+02 -0.30847191491E+02 -0.44555345130E+02  0.68365103390E+02  0.00000000000E+00 0. -1.
        -11    1    4    4    0    0 -0.23057282861E+02 -0.26429906528E+02 -0.13555064757E+03  0.14001484317E+03  0.00000000000E+00 0.  1.
         11    1    4    4    0    0 -0.12941250168E+03  0.33217522415E+02 -0.23176310013E+03  0.26751660503E+03  0.00000000000E+00 0. -1.
         21    1    1    2  503  501  0.25750793349E+02 -0.26021421149E+02 -0.56306470029E+02  0.67161270713E+02  0.00000000000E+00 0.  1.
         -2    1    1    2    0  502  0.59802681115E+02 -0.13013937751E+01  0.11759072257E+03  0.13193040714E+03  0.00000000000E+00 0.  1.
<scales pt_clust_5="13000.00000" pt_clust_6="13000.00000" pt_clust_7="13000.00000" pt_clust_8="13000.00000" pt_clust_9="36.60898" pt_clust_10="60.17986"></scales>
<clustering>
<clus scale="   36.609">  2  9  1 -1</clus>
<clus scale="   60.180">  2 10  1 -1</clus>
<clus scale="   83.928">  5  6 -1 -1</clus>
<clus scale="   88.710">  7  8 -1 -1</clus>
<clus scale="  122.376">  1  5  2 -1</clus>
<clus scale="   36.609">  2  5  1 -1</clus>
</clustering>
</event>
<event>
10    4  0.3043429E-005  0.2244757E+03  0.7546771E-02  0.1131431E+00
         21   -1    0    0  501  502  0.00000000000E+00  0.00000000000E+00  0.23465183721E+03  0.23465183721E+03  0.00000000000E+00 0.  1.
          2   -1    0    0  503    0 -0.00000000000E+00 -0.00000000000E+00 -0.44630585417E+03  0.44630585417E+03  0.00000000000E+00 0. -1.
         24    2    1    2    0    0 -0.10754460062E+03  0.18327366089E+03 -0.24010243455E+03  0.33058358572E+03  0.80506224439E+02 0.  0.
         23    2    1    2    0    0  0.12670115195E+03 -0.13518014753E+03  0.49964260059E+02  0.21293323091E+03  0.92289107436E+02 0.  0.
        -13    1    3    3    0    0 -0.92854386904E+02  0.10562981001E+03 -0.11078316090E+03  0.17903212748E+03  0.00000000000E+00 0.  1.
         14    1    3    3    0    0 -0.14690213712E+02  0.77643850880E+02 -0.12931927365E+03  0.15155145824E+03  0.00000000000E+00 0. -1.
        -11    1    4    4    0    0  0.50174378911E+02 -0.97576038470E+02  0.63237797253E+02  0.12663953010E+03  0.00000000000E+00 0. -1.
         11    1    4    4    0    0  0.76526773042E+02 -0.37604109061E+02 -0.13273537193E+02  0.86293700814E+02  0.00000000000E+00 0.  1.
         21    1    1    2  503  502  0.31993037794E+02  0.27126088063E+02  0.60816969060E+01  0.42383559999E+02  0.00000000000E+00 0. -1.
          1    1    1    2  501    0 -0.51149589130E+02 -0.75219601426E+02 -0.27597539370E+02  0.95057314743E+02  0.00000000000E+00 0. -1.
<scales pt_clust_5="13000.00000" pt_clust_6="13000.00000" pt_clust_7="13000.00000" pt_clust_8="13000.00000" pt_clust_9="41.94495" pt_clust_10="84.50261"></scales>
<clustering>
<clus scale="   41.945">  1  9  2 -1</clus>
<clus scale="   80.506">  5  6 -1 -1</clus>
<clus scale="   84.503">  1 10  2 -1</clus>
<clus scale="   92.289">  7  8 -1 -1</clus>
<clus scale="  219.894">  2  5  1 -1</clus>
<clus scale="   41.945">  1  5  2 -1</clus>
</clustering>
</event>
<event>
10    4  0.3043429E-005  0.3068628E+03  0.7546771E-02  0.1117780E+00
          2   -1    0    0  502    0 -0.00000000000E+00  0.00000000000E+00  0.20671320136E+04  0.20671320136E+04  0.00000000000E+00 0. -1.
         21   -1    0    0  503  502  0.00000000000E+00 -0.00000000000E+00 -0.26541169814E+03  0.26541169814E+03  0.00000000000E+00 0. -1.
         24    2    1    2    0    0 -0.78871675719E+02  0.32395835732E+02  0.17185817306E+03  0.20728294107E+03  0.78490474648E+02 0.  0.
         23    2    1    2    0    0 -0.12184194744E+03 -0.22500232193E+03  0.95494604722E+03  0.99188386451E+03  0.80250498744E+02 0.  0.
        -11    1    3    3    0    0 -0.58216633510E+02  0.58428257467E+02  0.12762005892E+03  0.15195366770E+03  0.00000000000E+00 0.  1.
         12    1    3    3    0    0 -0.20655042208E+02 -0.26032421735E+02  0.44238114135E+02  0.55329273375E+02  0.00000000000E+00 0. -1.
        -13    1    4    4    0    0 -0.25392149131E+02 -0.46881258390E+02  0.10061436203E+03  0.11386774553E+03  0.00000000000E+00 0.  1.
         13    1    4    4    0    0 -0.96449798310E+02 -0.17812106354E+03  0.85433168518E+03  0.87801611897E+03  0.00000000000E+00 0. -1.
         21    1    1    2  503  501 -0.44117740822E+02 -0.57169149962E+02 -0.18847361663E+03  0.20183406781E+03  0.00000000000E+00 0. -1.
          1    1    1    2  501    0  0.24483136398E+03  0.24977563616E+03  0.86338971180E+03  0.93154283833E+03  0.00000000000E+00 0. -1.
<scales pt_clust_5="13000.00000" pt_clust_6="13000.00000" pt_clust_7="13000.00000" pt_clust_8="13000.00000" pt_clust_9="72.21279" pt_clust_10="296.18343"></scales>
<clustering>
<clus scale="   72.213">  2  9  1 -1</clus>
<clus scale="   78.490">  5  6 -1 -1</clus>
<clus scale="   80.250">  7  8 -1 -1</clus>
<clus scale="  120.760">  1  5  2 -1</clus>
<clus scale="  296.183">  2 10  1 -1</clus>
<clus scale="   72.213">  2  5  1 -1</clus>
</clustering>
</event>
<event>
10    4  0.3043429E-005  0.3885620E+03  0.7546771E-02  0.1047814E+00
         21   -1    0    0  503  502  0.00000000000E+00  0.00000000000E+00  0.27813426064E+03  0.27813426064E+03  0.00000000000E+00 0.  1.
          2   -1    0    0  502    0 -0.00000000000E+00 -0.00000000000E+00 -0.14259206727E+04  0.14259206727E+04  0.00000000000E+00 0. -1.
         24    2    1    2    0    0  0.23118291784E+03  0.22968680487E+02 -0.75285631766E+03  0.79231132016E+03  0.83615137585E+02 0.  0.
         23    2    1    2    0    0  0.48827337006E+02 -0.70443299824E+02 -0.27751441278E+03  0.30481429647E+03  0.92472367231E+02 0.  0.
        -11    1    3    3    0    0  0.18106153937E+03  0.34985285744E+02 -0.47163529775E+03  0.50640606764E+03  0.00000000000E+00 0.  1.
         12    1    3    3    0    0  0.50121378471E+02 -0.12016605257E+02 -0.28122101991E+03  0.28590525252E+03  0.00000000000E+00 0. -1.
        -13    1    4    4    0    0  0.27491037039E+02 -0.21738684945E+02 -0.17044505683E+02  0.38972332682E+02  0.00000000000E+00 0. -1.
         13    1    4    4    0    0  0.21336299967E+02 -0.48704614879E+02 -0.26046990710E+03  0.26584196379E+03  0.00000000000E+00 0.  1.
         21    1    1    2  503  501  0.62912550178E+02  0.62195249282E+02  0.14841979219E+03  0.17278504772E+03  0.00000000000E+00 0.  1.
          1    1    1    2  501    0 -0.34292280503E+03 -0.14720629946E+02 -0.26583547380E+03  0.43414426898E+03  0.00000000000E+00 0. -1.
<scales pt_clust_5="13000.00000" pt_clust_6="13000.00000" pt_clust_7="13000.00000" pt_clust_8="13000.00000" pt_clust_9="88.46603" pt_clust_10="299.36467"></scales>
<clustering>
<clus scale="   83.615">  5  6 -1 -1</clus>
<clus scale="   88.466">  1  9  2 -1</clus>
<clus scale="   92.472">  7  8 -1 -1</clus>
<clus scale="  123.987">  5  7 -1 -1</clus>
<clus scale="  299.365">  1 10  2 -1</clus>
<clus scale="   88.466">  1  5  2 -1</clus>
</clustering>
</event>
<event>
10    4  0.3043429E-005  0.1896632E+03  0.7546771E-02  0.1159799E+00
         -3   -1    0    0    0  501 -0.00000000000E+00  0.00000000000E+00  0.51857238057E+03  0.51857238057E+03  0.00000000000E+00 0.  1.
         21   -1    0    0  501  502  0.00000000000E+00 -0.00000000000E+00 -0.20888823221E+03  0.20888823221E+03  0.00000000000E+00 0. -1.
         23    2    1    2    0    0  0.14050836513E+03  0.10847831023E+03  0.23992106519E+03  0.31118974763E+03  0.88129433476E+02 0.  0.
         24    2    1    2    0    0 -0.11488569690E+03 -0.10929319456E+03  0.17662925689E+03  0.24983374554E+03  0.77944084379E+02 0.  0.
        -13    1    4    4    0    0 -0.25079628868E+02 -0.64661820964E+02  0.10786352495E+03  0.12823680785E+03  0.00000000000E+00 0.  1.
         14    1    4    4    0    0 -0.89806068028E+02 -0.44631373597E+02  0.68765731946E+02  0.12159693768E+03  0.00000000000E+00 0. -1.
        -13    1    3    3    0    0  0.89974710063E+02  0.89530791418E+02  0.21936051490E+03  0.25343686898E+03  0.00000000000E+00 0.  1.
         13    1    3    3    0    0  0.50533655068E+02  0.18947518815E+02  0.20560550292E+02  0.57752878648E+02  0.00000000000E+00 0. -1.
         21    1    1    2  503  502  0.24596297514E+02 -0.11086937166E+02 -0.11140736919E+03  0.11462765782E+03  0.00000000000E+00 0. -1.
         -4    1    1    2    0  503 -0.50218965749E+02  0.11901821495E+02  0.45411954692E+01  0.51809461801E+02  0.00000000000E+00 0.  1.
<scales pt_clust_5="13000.00000" pt_clust_6="13000.00000" pt_clust_7="13000.00000" pt_clust_8="13000.00000" pt_clust_9="26.97959" pt_clust_10="45.09733"></scales>
<clustering>
<clus scale="   26.980">  2  9  1 -1</clus>
<clus scale="   45.097">  2 10  1 -1</clus>
<clus scale="   77.944">  5  6 -1 -1</clus>
<clus scale="   88.129">  7  8 -1 -1</clus>
<clus scale="  185.150">  2  5  1 -1</clus>
<clus scale="   26.980">  2  5  1 -1</clus>
</clustering>
</event>
<event>
10    4  0.3043429E-005  0.1290010E+03  0.7546771E-02  0.1231922E+00
         21   -1    0    0  501  502  0.00000000000E+00  0.00000000000E+00  0.59101613378E+02  0.59101613378E+02  0.00000000000E+00 0.  1.
          2   -1    0    0  503    0 -0.00000000000E+00 -0.00000000000E+00 -0.83905717594E+03  0.83905717594E+03  0.00000000000E+00 0. -1.
         23    2    1    2    0    0 -0.11280415615E+02 -0.10588275559E+03 -0.57189986119E+03  0.58879640502E+03  0.90957955244E+02 0.  0.
         24    2    1    2    0    0  0.54472308369E+01  0.26515353060E+02 -0.12410974440E+02  0.85067750466E+02  0.79685341256E+02 0.  0.
        -11    1    4    4    0    0 -0.29394518429E+02  0.15666852751E+02  0.17733679843E+02  0.37735545439E+02  0.00000000000E+00 0.  1.
         12    1    4    4    0    0  0.34841749266E+02  0.10848500308E+02 -0.30144654283E+02  0.47332205027E+02  0.00000000000E+00 0. -1.
        -11    1    3    3    0    0 -0.17829547405E+02  0.12281568723E+02 -0.83107774994E+02  0.85881499495E+02  0.00000000000E+00 0.  1.
         11    1    3    3    0    0  0.65491317894E+01 -0.11816432431E+03 -0.48879208620E+03  0.50291490552E+03  0.00000000000E+00 0. -1.
         21    1    1    2  503  502  0.20212135323E+02 -0.27984255445E+01 -0.15012959564E+02  0.25332796031E+02  0.00000000000E+00 0.  1.
          1    1    1    2  501    0 -0.14378950545E+02  0.82165828070E+02 -0.18063176736E+03  0.19896183780E+03  0.00000000000E+00 0. -1.
<scales pt_clust_5="13000.00000" pt_clust_6="13000.00000" pt_clust_7="13000.00000" pt_clust_8="13000.00000" pt_clust_9="20.40494" pt_clust_10="82.42032"></scales>
<clustering>
<clus scale="   20.405">  1  9  2 -1</clus>
<clus scale="   79.685">  5  6 -1 -1</clus>
<clus scale="   82.420">  1 10  2 -1</clus>
<clus scale="   90.958">  7  8 -1 -1</clus>
<clus scale="  121.316">  1  5  2 -1</clus>
<clus scale="   20.405">  1  5  2 -1</clus>
</clustering>
</event>
<event>
10    4  0.3043429E-005  0.1885291E+03  0.7546771E-02  0.1181678E+00
          2   -1    0    0  503    0 -0.00000000000E+00  0.00000000000E+00  0.89070640138E+03  0.89070640138E+03  0.00000000000E+00 0. -1.
         21   -1    0    0  501  502  0.00000000000E+00 -0.00000000000E+00 -0.10856260457E+03  0.10856260457E+03  0.00000000000E+00 0. -1.
         24    2    1    2    0    0 -0.71412474683E+02  0.78101611817E+02  0.11288231576E+03  0.17494220433E+03  0.81625696542E+02 0.  0.
         23    2    1    2    0    0  0.27046488265E+02  0.14116225036E+03  0.25146499093E+03  0.30321647416E+03  0.89706717057E+02 0.  0.
        -13    1    3    3    0    0  0.10560361929E+02  0.41609874288E+02  0.26856964275E+02  0.50637924645E+02  0.00000000000E+00 0.  1.
         14    1    3    3    0    0 -0.81972836612E+02  0.36491737529E+02  0.86025351486E+02  0.12430427969E+03  0.00000000000E+00 0. -1.
        -11    1    4    4    0    0 -0.18292683642E+02  0.84305853286E+02  0.82940163300E+02  0.11967109033E+03  0.00000000000E+00 0.  1.
         11    1    4    4    0    0  0.45339171907E+02  0.56856397079E+02  0.16852482763E+03  0.18354538383E+03  0.00000000000E+00 0. -1.
         21    1    1    2  503  502  0.80038671899E+02 -0.24052435766E+02  0.36361370390E+02  0.91141965758E+02  0.00000000000E+00 0. -1.
          1    1    1    2  501    0 -0.35672685481E+02 -0.19521142642E+03  0.38143511973E+03  0.42996836169E+03  0.00000000000E+00 0. -1.
<scales pt_clust_5="13000.00000" pt_clust_6="13000.00000" pt_clust_7="13000.00000" pt_clust_8="13000.00000" pt_clust_9="83.57457" pt_clust_10="165.81907"></scales>
<clustering>
<clus scale="   81.626">  5  6 -1 -1</clus>
<clus scale="   83.575">  2  9  1 -1</clus>
<clus scale="   89.707">  7  8 -1 -1</clus>
<clus scale="  114.354">  1  5  2 -1</clus>
<clus scale="  165.819">  2 10  1 -1</clus>
<clus scale="   83.575">  2  5  1 -1</clus>
</clustering>
</event>
<event>
10    4  0.3043429E-005  0.1765932E+03  0.7546771E-02  0.1189550E+00
          2   -1    0    0  503    0 -0.00000000000E+00  0.00000000000E+00  0.12812483903E+04  0.12812483903E+04  0.00000000000E+00 0. -1.
         21   -1    0    0  501  502  0.00000000000E+00 -0.00000000000E+00 -0.18459980105E+03  0.18459980105E+03  0.00000000000E+00 0. -1.
         24    2    1    2    0    0 -0.50563229527E+02  0.63682360166E+02  0.43463241329E+03  0.44949335689E+03  0.80788984612E+02 0.  0.
         23    2    1    2    0    0  0.17751353809E+03 -0.66039653660E+02  0.53307743723E+03  0.57476499180E+03  0.10154284638E+03 0.  0.
        -13    1    3    3    0    0 -0.59665291946E+02  0.23883131534E+02  0.17023473514E+03  0.18196212815E+03  0.00000000000E+00 0.  1.
         14    1    3    3    0    0  0.91020624184E+01  0.39799228632E+02  0.26439767815E+03  0.26753122874E+03  0.00000000000E+00 0. -1.
        -11    1    4    4    0    0 -0.10744399229E+02 -0.17420130374E+02  0.50283657097E+02  0.54289494638E+02  0.00000000000E+00 0.  1.
         11    1    4    4    0    0  0.18825793732E+03 -0.48619523286E+02  0.48279378013E+03  0.52047549716E+03  0.00000000000E+00 0. -1.
         21    1    1    2  503  502 -0.55121967410E+00  0.21367080176E+02 -0.14116215363E+03  0.14277117908E+03  0.00000000000E+00 0. -1.
          1    1    1    2  501    0 -0.12639908889E+03 -0.19009786682E+02  0.27010089239E+03  0.29881866362E+03  0.00000000000E+00 0. -1.
<scales pt_clust_5="13000.00000" pt_clust_6="13000.00000" pt_clust_7="13000.00000" pt_clust_8="13000.00000" pt_clust_9="21.37419" pt_clust_10="144.47915"></scales>
<clustering>
<clus scale="   21.374">  2  9  1 -1</clus>
<clus scale="   80.789">  5  6 -1 -1</clus>
<clus scale="  101.543">  7  8 -1 -1</clus>
<clus scale="  116.777">  1  5  2 -1</clus>
<clus scale="  144.479">  2 10  1 -1</clus>
<clus scale="   21.374">  2  5  1 -1</clus>
</clustering>
</event>
<event>
10    4  0.3043429E-005  0.5187175E+03  0.7546771E-02  0.1037793E+00
         21   -1    0    0  503  502  0.00000000000E+00  0.00000000000E+00  0.68382453337E+03  0.68382453337E+03  0.00000000000E+00 0.  1.
          2   -1    0    0  502    0 -0.00000000000E+00 -0.00000000000E+00 -0.75123116926E+03  0.75123116926E+03  0.00000000000E+00 0. -1.
         24    2    1    2    0    0 -0.17131966709E+03 -0.95945089320E+02  0.17027804302E+03  0.27319985872E+03  0.84188255533E+02 0.  0.
         23    2    1    2    0    0 -0.41886538139E+03  0.20975102235E+03 -0.44002184058E+02  0.47931376972E+03  0.91442870321E+02 0.  0.
        -11    1    3    3    0    0 -0.80786674226E+02 -0.91781993963E+02  0.10896178827E+03  0.16377757005E+03  0.00000000000E+00 0.  1.
         12    1    3    3    0    0 -0.90532992865E+02 -0.41630953564E+01  0.61316254756E+02  0.10942228867E+03  0.00000000000E+00 0. -1.
        -13    1    4    4    0    0 -0.39827214574E+03  0.17259697283E+03 -0.32357018098E+02  0.43526703725E+03  0.00000000000E+00 0.  1.
         13    1    4    4    0    0 -0.20593235659E+02  0.37154049521E+02 -0.11645165960E+02  0.44046732466E+02  0.00000000000E+00 0. -1.
         21    1    1    2  503  501 -0.24814055356E+01 -0.24752605716E+02  0.33397973748E+02  0.41644609659E+02  0.00000000000E+00 0. -1.
          1    1    1    2  501    0  0.59266645402E+03 -0.89053327314E+02 -0.22708046861E+03  0.64089746454E+03  0.00000000000E+00 0. -1.
<scales pt_clust_5="13000.00000" pt_clust_6="13000.00000" pt_clust_7="13000.00000" pt_clust_8="13000.00000" pt_clust_9="24.87667" pt_clust_10="510.59410"></scales>
<clustering>
<clus scale="   24.877">  1  9  2 -1</clus>
<clus scale="   84.188">  5  6 -1 -1</clus>
<clus scale="   91.443">  7  8 -1 -1</clus>
<clus scale="  218.261">  2  5  1 -1</clus>
<clus scale="  510.594">  1 10  2 -1</clus>
<clus scale="   24.877">  1  5  2 -1</clus>
</clustering>
</event>
<event>
10    4  0.3043429E-005  0.1460031E+03  0.7546771E-02  0.1218700E+00
         21   -1    0    0  501  502  0.00000000000E+00  0.00000000000E+00  0.45094062644E+03  0.45094062644E+03  0.00000000000E+00 0.  1.
         -3   -1    0    0    0  501 -0.00000000000E+00 -0.00000000000E+00 -0.34620997854E+03  0.34620997854E+03  0.00000000000E+00 0.  1.
         23    2    1    2    0    0 -0.62476786201E+02 -0.12819362120E+02 -0.20542945240E+03  0.23290924008E+03  0.89318359481E+02 0.  0.
         24    2    1    2    0    0 -0.43647840063E+02  0.79357030602E+02 -0.75013239736E+02  0.14205769107E+03  0.79691462585E+02 0.  0.
        -11    1    4    4    0    0 -0.59221996436E+02  0.79323747966E+02 -0.78208729940E+02  0.12615905553E+03  0.00000000000E+00 0.  1.
         12    1    4    4    0    0  0.15574156373E+02  0.33282636165E-01  0.31954902042E+01  0.15898635543E+02  0.00000000000E+00 0. -1.
        -13    1    3    3    0    0 -0.27043811375E+02  0.31367939724E+02 -0.14179182768E+03  0.14771674845E+03  0.00000000000E+00 0.  1.
         13    1    3    3    0    0 -0.35432974826E+02 -0.44187301845E+02 -0.63637624723E+02  0.85192491628E+02  0.00000000000E+00 0. -1.
         21    1    1    2  503  502 -0.23436091919E+02  0.29978897293E+01  0.33370697201E+02  0.40888154506E+02  0.00000000000E+00 0.  1.
         -4    1    1    2    0  503  0.12956071818E+03 -0.69535558211E+02  0.35180264284E+03  0.38129551933E+03  0.00000000000E+00 0.  1.
<scales pt_clust_5="13000.00000" pt_clust_6="13000.00000" pt_clust_7="13000.00000" pt_clust_8="13000.00000" pt_clust_9="23.62706" pt_clust_10="122.33638"></scales>
<clustering>
<clus scale="   23.627">  1  9  2 -1</clus>
<clus scale="   79.691">  5  6 -1 -1</clus>
<clus scale="   89.318">  7  8 -1 -1</clus>
<clus scale="  110.185">  2  7  1 -1</clus>
<clus scale="  122.336">  1 10  2 -1</clus>
<clus scale="   23.627">  1  5  2 -1</clus>
</clustering>
</event>
<event>
10    4  0.3043429E-005  0.1282291E+03  0.7546771E-02  0.1231074E+00
          2   -1    0    0  502    0 -0.00000000000E+00  0.00000000000E+00  0.85232867988E+03  0.85232867988E+03  0.00000000000E+00 0. -1.
         21   -1    0    0  503  502  0.00000000000E+00 -0.00000000000E+00 -0.44348577590E+02  0.44348577590E+02  0.00000000000E+00 0. -1.
         24    2    1    2    0    0  0.12618776573E+02  0.10616744849E+03  0.56823252003E+03  0.58460131100E+03  0.86253900496E+02 0.  0.
         23    2    1    2    0    0 -0.15764464682E+02 -0.40408689556E+02  0.69545839391E+02  0.12165863533E+03  0.89904500639E+02 0.  0.
        -11    1    3    3    0    0  0.40649701487E+02  0.93378422845E+02  0.36098698722E+03  0.37507803591E+03  0.00000000000E+00 0.  1.
         12    1    3    3    0    0 -0.28030924913E+02  0.12789025647E+02  0.20724553282E+03  0.20952327508E+03  0.00000000000E+00 0. -1.
        -13    1    4    4    0    0 -0.45346168836E+02 -0.47791256730E+02  0.31849191966E+02  0.73175475925E+02  0.00000000000E+00 0. -1.
         13    1    4    4    0    0  0.29581704154E+02  0.73825671743E+01  0.37696647424E+02  0.48483159404E+02  0.00000000000E+00 0.  1.
         21    1    1    2  503  501  0.21912032065E+02 -0.29558224184E+02  0.41753539695E+02  0.55652348047E+02  0.00000000000E+00 0. -1.
          1    1    1    2  501    0 -0.18766343956E+02 -0.36200534752E+02  0.12844820317E+03  0.13476496310E+03  0.00000000000E+00 0. -1.
<scales pt_clust_5="13000.00000" pt_clust_6="13000.00000" pt_clust_7="13000.00000" pt_clust_8="13000.00000" pt_clust_9="36.79437" pt_clust_10="42.23252"></scales>
<clustering>
<clus scale="   36.794">  2  9  1 -1</clus>
<clus scale="   42.233">  2 10  1 -1</clus>
<clus scale="   86.254">  5  6 -1 -1</clus>
<clus scale="   89.905">  7  8 -1 -1</clus>
<clus scale="  125.697">  1  5  2 -1</clus>
<clus scale="   36.794">  2  5  1 -1</clus>
</clustering>
</event>
<event>
10    4  0.3043429E-005  0.9237247E+02  0.7546771E-02  0.1305682E+00
          2   -1    0    0  503    0 -0.00000000000E+00  0.00000000000E+00  0.52553051587E+03  0.52553051587E+03  0.00000000000E+00 0. -1.
         21   -1    0    0  501  502  0.00000000000E+00 -0.00000000000E+00 -0.93532315548E+02  0.93532315548E+02  0.00000000000E+00 0. -1.
         24    2    1    2    0    0  0.81204900422E+01 -0.12567646875E+02  0.24897682758E+03  0.26137633762E+03  0.78129642836E+02 0.  0.
         23    2    1    2    0    0  0.34259878557E+02  0.60565561751E+01  0.17762142169E+03  0.20285386964E+03  0.91596407303E+02 0.  0.
        -11    1    3    3    0    0 -0.24555930184E+02  0.21214597854E+02  0.95344219110E+02  0.10071530662E+03  0.00000000000E+00 0.  1.
         12    1    3    3    0    0  0.32676420226E+02 -0.33782244729E+02  0.15363260847E+03  0.16066103101E+03  0.00000000000E+00 0. -1.
        -13    1    4    4    0    0 -0.71690387613E+01 -0.37024062659E+02  0.78899298111E+02  0.87448702534E+02  0.00000000000E+00 0.  1.
         13    1    4    4    0    0  0.41428917318E+02  0.43080618834E+02  0.98722123582E+02  0.11540516710E+03  0.00000000000E+00 0. -1.
         21    1    1    2  503  502 -0.30421315035E+02 -0.19672681569E+02 -0.67415893231E+02  0.76533479397E+02  0.00000000000E+00 0. -1.
          1    1    1    2  501    0 -0.11959053564E+02  0.26183772269E+02  0.72815844274E+02  0.78299144757E+02  0.00000000000E+00 0. -1.
<scales pt_clust_5="13000.00000" pt_clust_6="13000.00000" pt_clust_7="13000.00000" pt_clust_8="13000.00000" pt_clust_9="39.91664" pt_clust_10="28.78558"></scales>
<clustering>
<clus scale="   28.786">  2 10  1 -1</clus>
<clus scale="   39.917">  2  9  1 -1</clus>
<clus scale="   78.130">  5  6 -1 -1</clus>
<clus scale="   79.038">  1  5  2 -1</clus>
<clus scale="   91.596">  7  8 -1 -1</clus>
<clus scale="   28.786">  2  5  1 -1</clus>
</clustering>
</event>
<event>
10    4  0.3043429E-005  0.1483463E+03  0.7546771E-02  0.1211605E+00
         -3   -1    0    0    0  501 -0.00000000000E+00  0.00000000000E+00  0.27927880932E+03  0.27927880932E+03  0.00000000000E+00 0.  1.
         21   -1    0    0  501  502  0.00000000000E+00 -0.00000000000E+00 -0.29625340600E+03  0.29625340600E+03  0.00000000000E+00 0. -1.
         23    2    1    2    0    0  0.18713811814E+02 -0.89782856406E+02 -0.13409592426E+03  0.18598613748E+03  0.90542577683E+02 0.  0.
         24    2    1    2    0    0  0.12806481582E+03  0.10975123344E+02  0.88289976130E+02  0.17389515032E+03  0.76963322677E+02 0.  0.
        -13    1    4    4    0    0  0.12055736016E+03 -0.12766300552E+02  0.57158076739E+02  0.13403022515E+03  0.00000000000E+00 0.  1.
         14    1    4    4    0    0  0.75074556611E+01  0.23741423896E+02  0.31131899391E+02  0.39864925170E+02  0.00000000000E+00 0. -1.
        -11    1    3    3    0    0 -0.15498086974E+02 -0.18231714299E+02  0.62942746539E+01  0.24742756507E+02  0.00000000000E+00 0.  1.
         11    1    3    3    0    0  0.34211898788E+02 -0.71551142107E+02 -0.14039019892E+03  0.16124338097E+03  0.00000000000E+00 0. -1.
         21    1    1    2  503  502 -0.26911812503E+02  0.12005354497E+02 -0.49526413974E+02  0.57630199287E+02  0.00000000000E+00 0. -1.
         -4    1    1    2    0  503 -0.11986681513E+03  0.66802378565E+02  0.78357765418E+02  0.15802072824E+03  0.00000000000E+00 0.  1.
<scales pt_clust_5="13000.00000" pt_clust_6="13000.00000" pt_clust_7="13000.00000" pt_clust_8="13000.00000" pt_clust_9="29.46819" pt_clust_10="126.81985"></scales>
<clustering>
<clus scale="   29.468">  2  9  1 -1</clus>
<clus scale="   76.963">  5  6 -1 -1</clus>
<clus scale="   90.543">  7  8 -1 -1</clus>
<clus scale="  122.069">  1  7  2 -1</clus>
<clus scale="  126.820">  2 10  1 -1</clus>
<clus scale="   29.468">  2  5  1 -1</clus>
</clustering>
</event>
<event>
10    4  0.3043429E-005  0.2727298E+03  0.7546771E-02  0.1115526E+00
          2   -1    0    0  503    0 -0.00000000000E+00  0.00000000000E+00  0.67919166853E+03  0.67919166853E+03  0.00000000000E+00 0. -1.
         21   -1    0    0  501  502  0.00000000000E+00 -0.00000000000E+00 -0.43631037901E+03  0.43631037901E+03  0.00000000000E+00 0. -1.
         24    2    1    2    0    0  0.97918897941E+02 -0.10500046401E+03 -0.25282069604E+03  0.30164648662E+03  0.80368467237E+02 0.  0.
         23    2    1    2    0    0 -0.14323168576E+03 -0.16680342977E+03  0.17804895225E+03  0.29689210041E+03  0.90026606654E+02 0.  0.
        -13    1    3    3    0    0  0.42742192257E+02 -0.98111918160E+01 -0.29974304577E+02  0.53118861233E+02  0.00000000000E+00 0.  1.
         14    1    3    3    0    0  0.55176705684E+02 -0.95189272199E+02 -0.22284639146E+03  0.24852762538E+03  0.00000000000E+00 0. -1.
        -11    1    4    4    0    0  0.36571097893E+01 -0.32455936511E+02  0.48302052744E+01  0.33016558721E+02  0.00000000000E+00 0. -1.
         11    1    4    4    0    0 -0.14688879555E+03 -0.13434749325E+03  0.17321874697E+03  0.26387554169E+03  0.00000000000E+00 0.  1.
         21    1    1    2  503  502 -0.21033684488E+02 -0.51821854754E+02 -0.37538321590E+01  0.56053650811E+02  0.00000000000E+00 0.  1.
          1    1    1    2  501    0  0.66346472305E+02  0.32362574853E+03  0.32140686547E+03  0.46090980970E+03  0.00000000000E+00 0. -1.
<scales pt_clust_5="13000.00000" pt_clust_6="13000.00000" pt_clust_7="13000.00000" pt_clust_8="13000.00000" pt_clust_9="55.92782" pt_clust_10="257.44284"></scales>
<clustering>
<clus scale="   55.928">  2  9  1 -1</clus>
<clus scale="   80.368">  5  6 -1 -1</clus>
<clus scale="   90.027">  7  8 -1 -1</clus>
<clus scale="  182.048">  1  5  2 -1</clus>
<clus scale="  257.443">  2 10  1 -1</clus>
<clus scale="   55.928">  2  5  1 -1</clus>
</clustering>
</event>
<event>
10    4  0.3043429E-005  0.2205846E+03  0.7546771E-02  0.1174314E+00
          4   -1    0    0  503    0 -0.00000000000E+00  0.00000000000E+00  0.79727727505E+03  0.79727727505E+03  0.00000000000E+00 0. -1.
         21   -1    0    0  501  502  0.00000000000E+00 -0.00000000000E+00 -0.11780484581E+03  0.11780484581E+03  0.00000000000E+00 0. -1.
         24    2    1    2    0    0 -0.27777535939E+02 -0.62255370976E+00  0.32142284243E+03  0.33240627166E+03  0.80058145927E+02 0.  0.
         23    2    1    2    0    0  0.18917927511E+03 -0.34711565533E+02  0.11233831952E+03  0.24248481886E+03  0.95839962608E+02 0.  0.
        -13    1    3    3    0    0  0.14037907885E+02  0.26479586203E+02  0.70875574133E+02  0.76951792389E+02  0.00000000000E+00 0.  1.
         14    1    3    3    0    0 -0.41815443824E+02 -0.27102139913E+02  0.25054726829E+03  0.25545447927E+03  0.00000000000E+00 0. -1.
        -11    1    4    4    0    0  0.98079395637E+02 -0.20946074572E+02  0.41438312774E+01  0.10037667670E+03  0.00000000000E+00 0. -1.
         11    1    4    4    0    0  0.91099879472E+02 -0.13765490961E+02  0.10819448824E+03  0.14210814216E+03  0.00000000000E+00 0.  1.
         21    1    1    2  503  502  0.27066125626E+02 -0.12862321367E+02  0.44878162049E+01  0.30301071955E+02  0.00000000000E+00 0. -1.
          3    1    1    2  501    0 -0.18846786480E+03  0.48196440610E+02  0.24122345110E+03  0.30988995838E+03  0.00000000000E+00 0. -1.
<scales pt_clust_5="13000.00000" pt_clust_6="13000.00000" pt_clust_7="13000.00000" pt_clust_8="13000.00000" pt_clust_9="29.96689" pt_clust_10="198.67635"></scales>
<clustering>
<clus scale="   29.967">  2  9  1 -1</clus>
<clus scale="   80.058">  5  6 -1 -1</clus>
<clus scale="   84.296">  1  5  2 -1</clus>
<clus scale="   95.840">  7  8 -1 -1</clus>
<clus scale="  198.676">  2 10  1 -1</clus>
<clus scale="   29.967">  2  5  1 -1</clus>
</clustering>
</event>
<event>
10    4  0.3043429E-005  0.1259130E+03  0.7546771E-02  0.1234243E+00
          2   -1    0    0  503    0 -0.00000000000E+00  0.00000000000E+00  0.85360480613E+03  0.85360480613E+03  0.00000000000E+00 0. -1.
         21   -1    0    0  501  502  0.00000000000E+00 -0.00000000000E+00 -0.87434448139E+02  0.87434448139E+02  0.00000000000E+00 0. -1.
         23    2    1    2    0    0  0.85258201928E+02  0.27182718375E+02  0.52274871175E+03  0.53682826575E+03  0.83129477908E+02 0.  0.
         24    2    1    2    0    0 -0.15039343579E+03  0.34628082101E+02  0.73382918383E+02  0.18902727861E+03  0.80802040507E+02 0.  0.
        -13    1    4    4    0    0 -0.44400449642E+02  0.12628111157E+02  0.65976880704E+02  0.80522157865E+02  0.00000000000E+00 0.  1.
         14    1    4    4    0    0 -0.10599298615E+03  0.21999970944E+02  0.74060376792E+01  0.10850512075E+03  0.00000000000E+00 0. -1.
        -13    1    3    3    0    0  0.64752577253E+02 -0.19473904932E+02  0.35969901914E+03  0.36599933552E+03  0.00000000000E+00 0. -1.
         13    1    3    3    0    0  0.20505624674E+02  0.46656623306E+02  0.16304969262E+03  0.17082893023E+03  0.00000000000E+00 0.  1.
         21    1    1    2  503  502  0.24970344906E+01  0.20197804891E+02  0.57051947520E+01  0.21136124309E+02  0.00000000000E+00 0. -1.
          1    1    1    2  501    0  0.62638199370E+02 -0.82008605367E+02  0.16433353311E+03  0.19404758560E+03  0.00000000000E+00 0. -1.
<scales pt_clust_5="13000.00000" pt_clust_6="13000.00000" pt_clust_7="13000.00000" pt_clust_8="13000.00000" pt_clust_9="20.35157" pt_clust_10="100.51992"></scales>
<clustering>
<clus scale="   20.352">  2  9  1 -1</clus>
<clus scale="   80.802">  5  6 -1 -1</clus>
<clus scale="   83.129">  7  8 -1 -1</clus>
<clus scale="  100.520">  2 10  1 -1</clus>
<clus scale="  124.389">  2  5  1 -1</clus>
<clus scale="   20.352">  2  5  1 -1</clus>
</clustering>
</event>
<event>
10    4  0.3043429E-005  0.1933422E+03  0.7546771E-02  0.1183162E+00
         21   -1    0    0  503  502  0.00000000000E+00  0.00000000000E+00  0.93579744698E+02  0.93579744698E+02  0.00000000000E+00 0.  1.
         -1   -1    0    0    0  501 -0.00000000000E+00 -0.00000000000E+00 -0.95005834079E+03  0.95005834079E+03  0.00000000000E+00 0.  1.
         24    2    1    2    0    0 -0.27484790808E+02  0.68614937370E+02 -0.31860776913E+03  0.33742097772E+03  0.82937219016E+02 0.  0.
         23    2    1    2    0    0 -0.75177227534E+02  0.12120746887E+03 -0.24460578622E+03  0.29735267565E+03  0.90795137594E+02 0.  0.
        -11    1    3    3    0    0 -0.39606242695E+02  0.47701812387E+02 -0.30149606332E+03  0.30780512271E+03  0.00000000000E+00 0.  1.
         12    1    3    3    0    0  0.12121451887E+02  0.20913124983E+02 -0.17111705808E+02  0.29615855012E+02  0.00000000000E+00 0. -1.
        -13    1    4    4    0    0 -0.63570201893E+02  0.55087804824E+02 -0.67181354251E+02  0.10765301281E+03  0.00000000000E+00 0.  1.
         13    1    4    4    0    0 -0.11607025641E+02  0.66119664047E+02 -0.17742443197E+03  0.18969966283E+03  0.00000000000E+00 0. -1.
         21    1    1    2  503  501 -0.18283343593E+02 -0.45785751415E+02 -0.18583696685E+03  0.19226542573E+03  0.00000000000E+00 0. -1.
         -2    1    1    2    0  502  0.12094536193E+03 -0.14403665483E+03 -0.10742807388E+03  0.21659900638E+03  0.00000000000E+00 0.  1.
<scales pt_clust_5="13000.00000" pt_clust_6="13000.00000" pt_clust_7="13000.00000" pt_clust_8="13000.00000" pt_clust_9="49.30127" pt_clust_10="170.69691"></scales>
<clustering>
<clus scale="   49.301">  2  9  1 -1</clus>
<clus scale="   82.937">  5  6 -1 -1</clus>
<clus scale="   90.795">  7  8 -1 -1</clus>
<clus scale="  102.560">  2  5  1 -1</clus>
<clus scale="  170.697">  1 10  2 -1</clus>
<clus scale="  170.697">  1  5  2 -1</clus>
</clustering>
</event>
<event>
10    4  0.3043429E-005  0.1706448E+03  0.7546771E-02  0.1191815E+00
          2   -1    0    0  502    0 -0.00000000000E+00  0.00000000000E+00  0.18030154284E+04  0.18030154284E+04  0.00000000000E+00 0. -1.
         21   -1    0    0  503  502  0.00000000000E+00 -0.00000000000E+00 -0.39086046341E+02  0.39086046341E+02  0.00000000000E+00 0.  1.
         24    2    1    2    0    0  0.20508756967E+01 -0.90584046226E+02  0.37790555944E+03  0.39688164829E+03  0.80577635727E+02 0.  0.
         23    2    1    2    0    0  0.15351864491E+03  0.65475235154E+02  0.39195243151E+03  0.43570943282E+03  0.91438616162E+02 0.  0.
        -11    1    3    3    0    0 -0.28693968649E+02 -0.91156996600E+01  0.58151492173E+02  0.65483095979E+02  0.00000000000E+00 0.  1.
         12    1    3    3    0    0  0.30744844345E+02 -0.81468346566E+02  0.31975406726E+03  0.33139855232E+03  0.00000000000E+00 0. -1.
        -13    1    4    4    0    0  0.11669049473E+03  0.18059223957E+01  0.23567623848E+03  0.26298901555E+03  0.00000000000E+00 0.  1.
         13    1    4    4    0    0  0.36828150178E+02  0.63669312758E+02  0.15627619303E+03  0.17272041727E+03  0.00000000000E+00 0. -1.
         21    1    1    2  503  501 -0.20735357148E+02 -0.93505169011E+01  0.46405089809E+02  0.51679972548E+02  0.00000000000E+00 0. -1.
          1    1    1    2  501    0 -0.13483416346E+03  0.34459327974E+02  0.94766630130E+03  0.95783042108E+03  0.00000000000E+00 0. -1.
<scales pt_clust_5="13000.00000" pt_clust_6="13000.00000" pt_clust_7="13000.00000" pt_clust_8="13000.00000" pt_clust_9="22.74615" pt_clust_10="144.07857"></scales>
<clustering>
<clus scale="   22.746">  2  9  1 -1</clus>
<clus scale="   80.578">  5  6 -1 -1</clus>
<clus scale="   91.439">  7  8 -1 -1</clus>
<clus scale="  123.111">  1  5  2 -1</clus>
<clus scale="  144.079">  2 10  1 -1</clus>
<clus scale="   22.746">  2  5  1 -1</clus>
</clustering>
</event>
<event>
10    4  0.3043429E-005  0.6103537E+03  0.7546771E-02  0.1054683E+00
         21   -1    0    0  501  502  0.00000000000E+00  0.00000000000E+00  0.57857091550E+03  0.57857091550E+03  0.00000000000E+00 0. -1.
          2   -1    0    0  503    0 -0.00000000000E+00 -0.00000000000E+00 -0.12096378237E+04  0.12096378237E+04  0.00000000000E+00 0. -1.
         24    2    1    2    0    0  0.39370069357E+01 -0.18968250177E+02 -0.22032230045E+02  0.84721429660E+02  0.79479600807E+02 0.  0.
         23    2    1    2    0    0 -0.54548597565E+03 -0.26199802493E+03 -0.49140668685E+03  0.78502065142E+03  0.92622764909E+02 0.  0.
        -11    1    3    3    0    0  0.16324495411E+02  0.27015422859E+02  0.15029134326E+01  0.31600331825E+02  0.00000000000E+00 0.  1.
         12    1    3    3    0    0 -0.12387488476E+02 -0.45983673036E+02 -0.23535143477E+02  0.53121097834E+02  0.00000000000E+00 0. -1.
        -13    1    4    4    0    0 -0.78734851310E+02 -0.42791081045E+02 -0.11888509760E+03  0.14887551800E+03  0.00000000000E+00 0.  1.
         13    1    4    4    0    0 -0.46675112434E+03 -0.21920694388E+03 -0.37252158925E+03  0.63614513342E+03  0.00000000000E+00 0. -1.
         21    1    1    2  503  502  0.23236089089E+02 -0.23910035547E+02  0.22427049493E+03  0.22673522119E+03  0.00000000000E+00 0.  1.
          1    1    1    2  501    0  0.51831287962E+03  0.30487631065E+03 -0.34189848627E+03  0.69173143697E+03  0.00000000000E+00 0. -1.
<scales pt_clust_5="13000.00000" pt_clust_6="13000.00000" pt_clust_7="13000.00000" pt_clust_8="13000.00000" pt_clust_9="33.34075" pt_clust_10="603.28490"></scales>
<clustering>
<clus scale="   33.341">  1  9  2 -1</clus>
<clus scale="   79.480">  5  6 -1 -1</clus>
<clus scale="   82.449">  2  5  1 -1</clus>
<clus scale="   92.623">  7  8 -1 -1</clus>
<clus scale="  603.285">  1 10  2 -1</clus>
<clus scale="   33.341">  1  5  2 -1</clus>
</clustering>
</event>
<event>
10    4  0.3043429E-005  0.5177961E+03  0.7546771E-02  0.1009235E+00
         -1   -1    0    0    0  501 -0.00000000000E+00  0.00000000000E+00  0.75649390061E+03  0.75649390061E+03  0.00000000000E+00 0.  1.
         21   -1    0    0  503  502  0.00000000000E+00 -0.00000000000E+00 -0.10749884313E+04  0.10749884313E+04  0.00000000000E+00 0.  1.
         24    2    1    2    0    0  0.21026200694E+03  0.64729791560E+02  0.14106263379E+03  0.27516104297E+03  0.86109670997E+02 0.  0.
         23    2    1    2    0    0  0.25072924231E+03  0.95869673284E+02  0.49901634435E+02  0.28722749584E+03  0.89181354775E+02 0.  0.
        -13    1    3    3    0    0  0.14384983239E+03  0.72060122043E+02  0.13123880441E+03  0.20762721221E+03  0.00000000000E+00 0.  1.
         14    1    3    3    0    0  0.66412174557E+02 -0.73303304831E+01  0.98238293843E+01  0.67533830768E+02  0.00000000000E+00 0. -1.
        -11    1    4    4    0    0  0.21912955547E+03  0.57539733328E+02  0.64301338746E+02  0.23550635906E+03  0.00000000000E+00 0.  1.
         11    1    4    4    0    0  0.31599686843E+02  0.38329939955E+02 -0.14399704311E+02  0.51721136780E+02  0.00000000000E+00 0. -1.
         21    1    1    2  503  501 -0.30606925888E+03 -0.36718626023E+03 -0.76740335095E+03  0.90410842490E+03  0.00000000000E+00 0.  1.
         -2    1    1    2    0  502 -0.15492199038E+03  0.20658679538E+03  0.25794455199E+03  0.36498536824E+03  0.00000000000E+00 0.  1.
<scales pt_clust_5="13000.00000" pt_clust_6="13000.00000" pt_clust_7="13000.00000" pt_clust_8="13000.00000" pt_clust_9="476.02985" pt_clust_10="258.22276"></scales>
<clustering>
<clus scale="   86.110">  5  6 -1 -1</clus>
<clus scale="   89.181">  7  8 -1 -1</clus>
<clus scale="  129.514">  5  7 -1 -1</clus>
<clus scale="  258.223">  2 10  1 -1</clus>
<clus scale="  476.030">  2  9  1 -1</clus>
<clus scale="  258.223">  2  5  1 -1</clus>
</clustering>
</event>
<event>
10    4  0.3043429E-005  0.1075891E+03  0.7546771E-02  0.1268729E+00
         -1   -1    0    0    0  501 -0.00000000000E+00  0.00000000000E+00  0.63203197538E+03  0.63203197538E+03  0.00000000000E+00 0.  1.
         21   -1    0    0  503  502  0.00000000000E+00 -0.00000000000E+00 -0.69688965577E+02  0.69688965577E+02  0.00000000000E+00 0.  1.
         23    2    1    2    0    0 -0.38577129262E+02  0.41270638119E+02  0.91273357035E+02  0.13977596727E+03  0.89526727011E+02 0.  0.
         24    2    1    2    0    0 -0.56573586988E+02 -0.81106372416E+02  0.11223052596E+03  0.16990311528E+03  0.80576443410E+02 0.  0.
        -13    1    4    4    0    0 -0.56264288422E+02 -0.74637567571E+02  0.47493699255E+02  0.10484315959E+03  0.00000000000E+00 0.  1.
         14    1    4    4    0    0 -0.30929856645E+00 -0.64688048446E+01  0.64736826707E+02  0.65059955686E+02  0.00000000000E+00 0. -1.
        -13    1    3    3    0    0 -0.89237019719E+01  0.50076163138E+02  0.87064863041E+01  0.51604820272E+02  0.00000000000E+00 0.  1.
         13    1    3    3    0    0 -0.29653427290E+02 -0.88055250190E+01  0.82566870731E+02  0.88171146999E+02  0.00000000000E+00 0. -1.
         21    1    1    2  503  501  0.20470732364E+02  0.10795521365E+02 -0.12196305348E+01  0.23175022410E+02  0.00000000000E+00 0.  1.
         -2    1    1    2    0  502  0.74679983886E+02  0.29040212932E+02  0.36005875734E+03  0.36886683599E+03  0.00000000000E+00 0.  1.
<scales pt_clust_5="13000.00000" pt_clust_6="13000.00000" pt_clust_7="13000.00000" pt_clust_8="13000.00000" pt_clust_9="23.14291" pt_clust_10="81.88913"></scales>
<clustering>
<clus scale="   23.143">  2  9  1 -1</clus>
<clus scale="   80.576">  5  6 -1 -1</clus>
<clus scale="   81.889">  2 10  1 -1</clus>
<clus scale="   89.527">  7  8 -1 -1</clus>
<clus scale="  100.264">  2  5  1 -1</clus>
<clus scale="   23.143">  2  5  1 -1</clus>
</clustering>
</event>
<event>
10    4  0.3043429E-005  0.4387884E+03  0.7546771E-02  0.1089721E+00
         21   -1    0    0  503  502  0.00000000000E+00  0.00000000000E+00  0.17829538386E+03  0.17829538386E+03  0.00000000000E+00 0. -1.
          2   -1    0    0  502    0 -0.00000000000E+00 -0.00000000000E+00 -0.19692657370E+04  0.19692657370E+04  0.00000000000E+00 0. -1.
         24    2    1    2    0    0 -0.11399173946E+01  0.30462509904E+02  0.13824173077E+02  0.85043837226E+02  0.78179809206E+02 0.  0.
         23    2    1    2    0    0  0.34144527158E+02  0.41498646322E+03 -0.50915316293E+03  0.66395080734E+03  0.90631770695E+02 0.  0.
        -13    1    3    3    0    0  0.13055464010E+02  0.53487921769E+02  0.17438627067E+02  0.57753862466E+02  0.00000000000E+00 0.  1.
         14    1    3    3    0    0 -0.14195381405E+02 -0.23025411865E+02 -0.36144539900E+01  0.27289974760E+02  0.00000000000E+00 0. -1.
        -11    1    4    4    0    0 -0.22204031964E+02  0.34574043379E+02 -0.58991367638E+02  0.71891341390E+02  0.00000000000E+00 0.  1.
         11    1    4    4    0    0  0.56348559122E+02  0.38041241984E+03 -0.45016179529E+03  0.59205946595E+03  0.00000000000E+00 0. -1.
         21    1    1    2  503  501  0.53791364125E+02 -0.74245139755E+00 -0.51443927776E+02  0.74434802300E+02  0.00000000000E+00 0. -1.
          1    1    1    2  501    0 -0.86795973888E+02 -0.44470652173E+03 -0.12441974355E+04  0.13241316740E+04  0.00000000000E+00 0. -1.
<scales pt_clust_5="13000.00000" pt_clust_6="13000.00000" pt_clust_7="13000.00000" pt_clust_8="13000.00000" pt_clust_9="53.79649" pt_clust_10="429.32655"></scales>
<clustering>
<clus scale="   53.796">  1  9  2 -1</clus>
<clus scale="   78.180">  5  6 -1 -1</clus>
<clus scale="   85.122">  2  5  1 -1</clus>
<clus scale="   90.632">  7  8 -1 -1</clus>
<clus scale="  429.327">  1 10  2 -1</clus>
<clus scale="   53.796">  1  5  2 -1</clus>
</clustering>
</event>
<event>
10    4  0.3043429E-005  0.1570770E+03  0.7546771E-02  0.1202664E+00
          2   -1    0    0  503    0 -0.00000000000E+00  0.00000000000E+00  0.65201845960E+03  0.65201845960E+03  0.00000000000E+00 0. -1.
         21   -1    0    0  501  502  0.00000000000E+00 -0.00000000000E+00 -0.43961475788E+03  0.43961475788E+03  0.00000000000E+00 0. -1.
         24    2    1    2    0    0 -0.27689841889E+02 -0.10208484151E+03  0.61610563256E+02  0.13402999962E+03  0.54590631832E+02 0.  0.
         23    2    1    2    0    0 -0.11565999578E+03  0.60952320680E+02  0.24637833058E+03  0.29384617112E+03  0.92470916950E+02 0.  0.
        -13    1    3    3    0    0  0.12833231573E+02 -0.17114965057E+02  0.25300341001E+02  0.33131874627E+02  0.00000000000E+00 0.  1.
         14    1    3    3    0    0 -0.40523073462E+02 -0.84969876448E+02  0.36310222254E+02  0.10089812499E+03  0.00000000000E+00 0. -1.
        -13    1    4    4    0    0 -0.90908838476E+02  0.80211852175E+02  0.22594094773E+03  0.25641308470E+03  0.00000000000E+00 0. -1.
         13    1    4    4    0    0 -0.24751157307E+02 -0.19259531495E+02  0.20437382850E+02  0.37433086424E+02  0.00000000000E+00 0.  1.
         21    1    1    2  503  502  0.10946035933E+03  0.12572831643E+03 -0.35316500530E+03  0.39053130576E+03  0.00000000000E+00 0. -1.
          1    1    1    2  501    0  0.33889478343E+02 -0.84595795602E+02  0.25757981318E+03  0.27322574098E+03  0.00000000000E+00 0. -1.
<scales pt_clust_5="13000.00000" pt_clust_6="13000.00000" pt_clust_7="13000.00000" pt_clust_8="13000.00000" pt_clust_9="126.97362" pt_clust_10="91.13152"></scales>
<clustering>
<clus scale="   54.591">  5  6 -1 -1</clus>
<clus scale="   91.132">  2 10  1 -1</clus>
<clus scale="   92.471">  7  8 -1 -1</clus>
<clus scale="  124.570">  1  5  2 -1</clus>
<clus scale="  126.974">  2  9  1 -1</clus>
<clus scale="   91.132">  2  5  1 -1</clus>
</clustering>
</event>
<event>
10    4  0.3043429E-005  0.1411264E+03  0.7546771E-02  0.1213199E+00
         21   -1    0    0  503  502  0.00000000000E+00  0.00000000000E+00  0.90267294432E+03  0.90267294432E+03  0.00000000000E+00 0. -1.
          2   -1    0    0  502    0 -0.00000000000E+00 -0.00000000000E+00 -0.72362652070E+02  0.72362652070E+02  0.00000000000E+00 0. -1.
         23    2    1    2    0    0  0.77817012534E+02 -0.21646674717E+01  0.17835908205E+03  0.21480722548E+03  0.90939588432E+02 0.  0.
         24    2    1    2    0    0 -0.15942178983E+03  0.17069358387E+02  0.31706469625E+03  0.36520364045E+03  0.84480810356E+02 0.  0.
        -11    1    4    4    0    0 -0.52703097300E+02  0.25885382837E+02  0.48772019792E+02  0.76330723986E+02  0.00000000000E+00 0.  1.
         12    1    4    4    0    0 -0.10671869252E+03 -0.88160244504E+01  0.26829267646E+03  0.28887291646E+03  0.00000000000E+00 0. -1.
        -13    1    3    3    0    0 -0.13539487851E+02 -0.15235438496E+02  0.97502254870E+01  0.22594318190E+02  0.00000000000E+00 0.  1.
         13    1    3    3    0    0  0.91356500385E+02  0.13070771024E+02  0.16860885657E+03  0.19221290729E+03  0.00000000000E+00 0. -1.
         21    1    1    2  503  501  0.17699101066E+02 -0.63289642933E+02  0.30084525323E+03  0.30793944774E+03  0.00000000000E+00 0.  1.
          1    1    1    2  501    0  0.63905676226E+02  0.48384952018E+02  0.34041260707E+02  0.87085282719E+02  0.00000000000E+00 0. -1.
<scales pt_clust_5="13000.00000" pt_clust_6="13000.00000" pt_clust_7="13000.00000" pt_clust_8="13000.00000" pt_clust_9="65.71786" pt_clust_10="77.96356"></scales>
<clustering>
<clus scale="   65.718">  1  9  2 -1</clus>
<clus scale="   77.964">  1 10  2 -1</clus>
<clus scale="   84.481">  5  6 -1 -1</clus>
<clus scale="   90.940">  7  8 -1 -1</clus>
<clus scale="  137.053">  1  5  2 -1</clus>
<clus scale="   65.718">  1  5  2 -1</clus>
</clustering>
</event>
<event>
10    4  0.3043429E-005  0.2640747E+03  0.7546771E-02  0.1130505E+00
         21   -1    0    0  503  502  0.00000000000E+00  0.00000000000E+00  0.87564124053E+02  0.87564124053E+02  0.00000000000E+00 0. -1.
         -1   -1    0    0    0  501 -0.00000000000E+00 -0.00000000000E+00 -0.16247746437E+04  0.16247746437E+04  0.00000000000E+00 0.  1.
         23    2    1    2    0    0  0.64929285250E+02  0.57526758360E+02 -0.22396823843E+03  0.25947005506E+03  0.98172285486E+02 0.  0.
         24    2    1    2    0    0 -0.53260459179E+02  0.20107173759E+03 -0.72642031568E+03  0.76007415392E+03  0.82217542269E+02 0.  0.
        -11    1    4    4    0    0 -0.30213723399E+02  0.28629802772E+02 -0.74502046596E+02  0.85341019653E+02  0.00000000000E+00 0.  1.
         12    1    4    4    0    0 -0.23046735780E+02  0.17244193482E+03 -0.65191826908E+03  0.67473313427E+03  0.00000000000E+00 0. -1.
        -11    1    3    3    0    0 -0.66672412009E+01 -0.19272627311E+02 -0.71463410748E+02  0.74316252222E+02  0.00000000000E+00 0.  1.
         11    1    3    3    0    0  0.71596526451E+02  0.76799385671E+02 -0.15250482768E+03  0.18515380284E+03  0.00000000000E+00 0. -1.
         21    1    1    2  503  501  0.20532240604E+02  0.40092917116E+02 -0.16106655015E+02  0.47837634168E+02  0.00000000000E+00 0. -1.
         -2    1    1    2    0  502 -0.32201066675E+02 -0.29869141307E+03 -0.57071531057E+03  0.64495692465E+03  0.00000000000E+00 0.  1.
<scales pt_clust_5="13000.00000" pt_clust_6="13000.00000" pt_clust_7="13000.00000" pt_clust_8="13000.00000" pt_clust_9="45.04459" pt_clust_10="250.94964"></scales>
<clustering>
<clus scale="   45.045">  1  9  2 -1</clus>
<clus scale="   82.218">  5  6 -1 -1</clus>
<clus scale="   98.172">  7  8 -1 -1</clus>
<clus scale="  138.165">  2  7  1 -1</clus>
<clus scale="  250.950">  1 10  2 -1</clus>
<clus scale="   45.045">  1  5  2 -1</clus>
</clustering>
</event>
<event>
10    4  0.3043429E-005  0.1680873E+03  0.7546771E-02  0.1199695E+00
          2   -1    0    0  503    0 -0.00000000000E+00  0.00000000000E+00  0.11311355303E+04  0.11311355303E+04  0.00000000000E+00 0. -1.
         21   -1    0    0  501  502  0.00000000000E+00 -0.00000000000E+00 -0.11858022251E+03  0.11858022251E+03  0.00000000000E+00 0.  1.
         23    2    1    2    0    0 -0.15926772276E+02  0.55596106649E+02  0.19484519213E+03  0.22242463317E+03  0.90351975037E+02 0.  0.
         24    2    1    2    0    0  0.39213786305E+02  0.95022046541E+02  0.77556356383E+03  0.78669197293E+03  0.82574259699E+02 0.  0.
        -11    1    4    4    0    0  0.15671277069E+02  0.39824639802E+02  0.10412400653E+03  0.11257619463E+03  0.00000000000E+00 0.  1.
         12    1    4    4    0    0  0.23542509237E+02  0.55197406739E+02  0.67143955730E+03  0.67411577830E+03  0.00000000000E+00 0. -1.
        -13    1    3    3    0    0  0.19294230035E+02  0.45126104172E+02  0.40100563338E+02  0.63377344299E+02  0.00000000000E+00 0. -1.
         13    1    3    3    0    0 -0.35221002311E+02  0.10470002477E+02  0.15474462879E+03  0.15904728887E+03  0.00000000000E+00 0.  1.
         21    1    1    2  503  502  0.19172990676E+01 -0.16124147026E+03 -0.29482214037E+02  0.16392586346E+03  0.00000000000E+00 0.  1.
          1    1    1    2  501    0 -0.25204313097E+02  0.10623317067E+02  0.71628765840E+02  0.76673283221E+02  0.00000000000E+00 0. -1.
<scales pt_clust_5="13000.00000" pt_clust_6="13000.00000" pt_clust_7="13000.00000" pt_clust_8="13000.00000" pt_clust_9="146.40644" pt_clust_10="27.35165"></scales>
<clustering>
<clus scale="   27.352">  2 10  1 -1</clus>
<clus scale="   82.574">  5  6 -1 -1</clus>
<clus scale="   90.352">  7  8 -1 -1</clus>
<clus scale="  108.418">  1  7  2 -1</clus>
<clus scale="  146.406">  2  9  1 -1</clus>
<clus scale="   27.352">  2  5  1 -1</clus>
</clustering>
</event>
<event>
10    4  0.3043429E-005  0.4242348E+03  0.7546771E-02  0.1090055E+00
         21   -1    0    0  501  502  0.00000000000E+00  0.00000000000E+00  0.53866771148E+03  0.53866771148E+03  0.00000000000E+00 0. -1.
         -1   -1    0    0    0  501 -0.00000000000E+00 -0.00000000000E+00 -0.52202398279E+03  0.52202398279E+03  0.00000000000E+00 0.  1.
         23    2    1    2    0    0 -0.97321840530E+01 -0.43467033645E+02 -0.95484059882E+02  0.13313101454E+03  0.81379130737E+02 0.  0.
         24    2    1    2    0    0  0.20523410461E+03 -0.33256841012E+03  0.10467356918E+03  0.41331557305E+03  0.84560166374E+02 0.  0.
        -13    1    4    4    0    0  0.65473386355E+02 -0.17982035510E+03  0.32821707587E+02  0.19416330477E+03  0.00000000000E+00 0.  1.
         14    1    4    4    0    0  0.13976071826E+03 -0.15274805502E+03  0.71851861592E+02  0.21915226828E+03  0.00000000000E+00 0. -1.
        -11    1    3    3    0    0  0.33361446538E+02 -0.21613790442E+02 -0.22720832687E+02  0.45786223805E+02  0.00000000000E+00 0.  1.
         11    1    3    3    0    0 -0.43093630591E+02 -0.21853243204E+02 -0.72763227194E+02  0.87344790730E+02  0.00000000000E+00 0. -1.
         21    1    1    2  503  502 -0.93649731351E+01 -0.29231205582E+02  0.57798998660E+02  0.65443795334E+02  0.00000000000E+00 0. -1.
         -2    1    1    2    0  503 -0.18613694742E+03  0.40526664934E+03 -0.50344779270E+02  0.44880131135E+03  0.00000000000E+00 0.  1.
<scales pt_clust_5="13000.00000" pt_clust_6="13000.00000" pt_clust_7="13000.00000" pt_clust_8="13000.00000" pt_clust_9="30.69472" pt_clust_10="415.72214"></scales>
<clustering>
<clus scale="   30.695">  1  9  2 -1</clus>
<clus scale="   81.379">  7  8 -1 -1</clus>
<clus scale="   84.560">  5  6 -1 -1</clus>
<clus scale="   93.357">  2  7  1 -1</clus>
<clus scale="  415.722">  1 10  2 -1</clus>
<clus scale="   30.695">  1  5  2 -1</clus>
</clustering>
</event>
<event>
10    4  0.3043429E-005  0.1342121E+03  0.7546771E-02  0.1225728E+00
          2   -1    0    0  503    0 -0.00000000000E+00  0.00000000000E+00  0.47094955896E+03  0.47094955896E+03  0.00000000000E+00 0. -1.
         21   -1    0    0  501  502  0.00000000000E+00 -0.00000000000E+00 -0.10519203864E+03  0.10519203864E+03  0.00000000000E+00 0. -1.
         23    2    1    2    0    0 -0.71225857849E+02  0.31859885455E+02  0.11819643363E+03  0.16850239587E+03  0.91293402634E+02 0.  0.
         24    2    1    2    0    0  0.12270945869E+03 -0.92231370445E+02  0.44931539745E+02  0.17578485640E+03  0.72919376911E+02 0.  0.
        -11    1    4    4    0    0  0.53013230912E+02 -0.15937307135E+01  0.27654247985E+00  0.53037902532E+02  0.00000000000E+00 0.  1.
         12    1    4    4    0    0  0.69696227774E+02 -0.90637639732E+02  0.44654997265E+02  0.12274695386E+03  0.00000000000E+00 0. -1.
        -11    1    3    3    0    0 -0.78629760790E+02  0.40785139029E+01  0.46943989108E+02  0.91667942439E+02  0.00000000000E+00 0. -1.
         11    1    3    3    0    0  0.74039029419E+01  0.27781371552E+02  0.71252444523E+02  0.76834453434E+02  0.00000000000E+00 0.  1.
         21    1    1    2  503  502 -0.24581918707E+02  0.20981622903E+02  0.10635565094E+02  0.34023733949E+02  0.00000000000E+00 0. -1.
          1    1    1    2  501    0 -0.26901682129E+02  0.39389862087E+02  0.19199398185E+03  0.19783061139E+03  0.00000000000E+00 0. -1.
<scales pt_clust_5="13000.00000" pt_clust_6="13000.00000" pt_clust_7="13000.00000" pt_clust_8="13000.00000" pt_clust_9="32.31871" pt_clust_10="48.67397"></scales>
<clustering>
<clus scale="   32.319">  2  9  1 -1</clus>
<clus scale="   48.674">  2 10  1 -1</clus>
<clus scale="   72.919">  5  6 -1 -1</clus>
<clus scale="   91.293">  7  8 -1 -1</clus>
<clus scale="  122.457">  2  5  1 -1</clus>
<clus scale="   32.319">  2  5  1 -1</clus>
</clustering>
</event>
<event>
10    4  0.3043429E-005  0.2782404E+03  0.7546771E-02  0.1146317E+00
         21   -1    0    0  503  502  0.00000000000E+00  0.00000000000E+00  0.61102723000E+02  0.61102723000E+02  0.00000000000E+00 0. -1.
          2   -1    0    0  502    0 -0.00000000000E+00 -0.00000000000E+00 -0.31904663044E+04  0.31904663044E+04  0.00000000000E+00 0. -1.
         24    2    1    2    0    0  0.54207704798E+01  0.67958469541E+01 -0.35047833376E+03  0.35961696319E+03  0.80085763316E+02 0.  0.
         23    2    1    2    0    0  0.16341186839E+02 -0.28028495564E+03 -0.73067222631E+03  0.78702248049E+03  0.81827817662E+02 0.  0.
        -11    1    3    3    0    0  0.14062627434E+02  0.38831996350E+02 -0.12341508078E+03  0.13014209002E+03  0.00000000000E+00 0.  1.
         12    1    3    3    0    0 -0.86418569545E+01 -0.32036149396E+02 -0.22706325298E+03  0.22947487316E+03  0.00000000000E+00 0. -1.
        -13    1    4    4    0    0  0.28273488501E+02 -0.26125211808E+03 -0.60870265874E+03  0.66300149782E+03  0.00000000000E+00 0. -1.
         13    1    4    4    0    0 -0.11932301662E+02 -0.19032837564E+02 -0.12196956757E+03  0.12402098267E+03  0.00000000000E+00 0.  1.
         21    1    1    2  503  501 -0.39372162784E+02  0.17817226672E+02 -0.25662116391E+01  0.43292103331E+02  0.00000000000E+00 0. -1.
          1    1    1    2  501    0  0.17610205466E+02  0.25567188202E+03 -0.20456468097E+04  0.20616374804E+04  0.00000000000E+00 0. -1.
<scales pt_clust_5="13000.00000" pt_clust_6="13000.00000" pt_clust_7="13000.00000" pt_clust_8="13000.00000" pt_clust_9="43.21598" pt_clust_10="265.93609"></scales>
<clustering>
<clus scale="   43.216">  1  9  2 -1</clus>
<clus scale="   80.086">  5  6 -1 -1</clus>
<clus scale="   80.573">  2  5  1 -1</clus>
<clus scale="   81.828">  7  8 -1 -1</clus>
<clus scale="  265.936">  1 10  2 -1</clus>
<clus scale="   43.216">  1  5  2 -1</clus>
</clustering>
</event>
<event>
10    4  0.3043429E-005  0.2291351E+03  0.7546771E-02  0.1127866E+00
         21   -1    0    0  503  502  0.00000000000E+00  0.00000000000E+00  0.97581653107E+02  0.97581653107E+02  0.00000000000E+00 0.  1.
          2   -1    0    0  502    0 -0.00000000000E+00 -0.00000000000E+00 -0.10507629489E+04  0.10507629489E+04  0.00000000000E+00 0. -1.
         24    2    1    2    0    0 -0.22482421240E+03  0.37098597089E+02 -0.81641302926E+03  0.85147248469E+03  0.80950141730E+02 0.  0.
         23    2    1    2    0    0  0.14705500734E+03 -0.31049849041E+02 -0.62933036604E+02  0.18621075219E+03  0.90136612010E+02 0.  0.
        -11    1    3    3    0    0 -0.11803262159E+03 -0.17479071544E+02 -0.34532262613E+03  0.36535590021E+03  0.00000000000E+00 0.  1.
         12    1    3    3    0    0 -0.10679159081E+03  0.54577668633E+02 -0.47109040313E+03  0.48611658448E+03  0.00000000000E+00 0. -1.
        -13    1    4    4    0    0  0.92845993595E+02  0.69702424354E+01 -0.74186053304E+02  0.11904844943E+03  0.00000000000E+00 0. -1.
         13    1    4    4    0    0  0.54209013744E+02 -0.38020091477E+02  0.11253016700E+02  0.67162302758E+02  0.00000000000E+00 0.  1.
         21    1    1    2  503  501  0.36472343130E+02  0.10284858289E+02 -0.37017957823E+02  0.52974893344E+02  0.00000000000E+00 0.  1.
          1    1    1    2  501    0  0.41296861930E+02 -0.16333606337E+02 -0.36817272078E+02  0.57686471764E+02  0.00000000000E+00 0. -1.
<scales pt_clust_5="13000.00000" pt_clust_6="13000.00000" pt_clust_7="13000.00000" pt_clust_8="13000.00000" pt_clust_9="24.60797" pt_clust_10="82.42752"></scales>
<clustering>
<clus scale="   24.608">  9 10 -1 -1</clus>
<clus scale="   80.950">  5  6 -1 -1</clus>
<clus scale="   82.428">  1  9  2 -1</clus>
<clus scale="   90.137">  7  8 -1 -1</clus>
<clus scale="  225.679">  2  5  1 -1</clus>
<clus scale="   82.428">  1  5  2 -1</clus>
</clustering>
</event>
<event>
10    4  0.3043429E-005  0.1999919E+03  0.7546771E-02  0.1161517E+00
          2   -1    0    0  503    0 -0.00000000000E+00  0.00000000000E+00  0.12489328150E+04  0.12489328150E+04  0.00000000000E+00 0. -1.
         21   -1    0    0  501  502  0.00000000000E+00 -0.00000000000E+00 -0.14208304266E+03  0.14208304266E+03  0.00000000000E+00 0.  1.
         24    2    1    2    0    0 -0.10699943216E+03  0.95462966407E+02  0.36728345980E+03  0.40245102587E+03  0.80669894929E+02 0.  0.
         23    2    1    2    0    0 -0.11310365095E+03 -0.62041589837E+02  0.65683899004E+03  0.67567496287E+03  0.91965221073E+02 0.  0.
        -13    1    3    3    0    0 -0.37774544940E+02  0.16776617044E+02  0.35421949026E+02  0.54434231855E+02  0.00000000000E+00 0.  1.
         14    1    3    3    0    0 -0.69224887215E+02  0.78686349363E+02  0.33186151077E+03  0.34801679402E+03  0.00000000000E+00 0. -1.
        -13    1    4    4    0    0 -0.44286486897E+02  0.19184997737E+02  0.27815490252E+03  0.28231101086E+03  0.00000000000E+00 0.  1.
         13    1    4    4    0    0 -0.68817164054E+02 -0.81226587574E+02  0.37868408752E+03  0.39336395201E+03  0.00000000000E+00 0. -1.
         21    1    1    2  503  502  0.13530365859E+03  0.28595279729E+02 -0.46906549990E+02  0.14603079978E+03  0.00000000000E+00 0.  1.
          1    1    1    2  501    0  0.84799424515E+02 -0.62016656299E+02  0.12963387247E+03  0.16685906912E+03  0.00000000000E+00 0. -1.
<scales pt_clust_5="13000.00000" pt_clust_6="13000.00000" pt_clust_7="13000.00000" pt_clust_8="13000.00000" pt_clust_9="177.59268" pt_clust_10="105.05717"></scales>
<clustering>
<clus scale="   80.670">  5  6 -1 -1</clus>
<clus scale="   91.965">  7  8 -1 -1</clus>
<clus scale="  105.057">  2 10  1 -1</clus>
<clus scale="  151.733">  1  5  2 -1</clus>
<clus scale="  177.593">  2  9  1 -1</clus>
<clus scale="  105.057">  2  5  1 -1</clus>
</clustering>
</event>
<event>
10    4  0.3043429E-005  0.1513002E+03  0.7546771E-02  0.1200132E+00
          2   -1    0    0  503    0 -0.00000000000E+00  0.00000000000E+00  0.35732604154E+03  0.35732604154E+03  0.00000000000E+00 0. -1.
         21   -1    0    0  501  502  0.00000000000E+00 -0.00000000000E+00 -0.81358070642E+03  0.81358070642E+03  0.00000000000E+00 0. -1.
         24    2    1    2    0    0 -0.72526911750E+02  0.92718767796E+02  0.25673230858E+03  0.29440291296E+03  0.83094368400E+02 0.  0.
         23    2    1    2    0    0  0.55049951299E+02 -0.15400694008E+03 -0.11866250549E+03  0.22123021561E+03  0.90074321305E+02 0.  0.
        -11    1    3    3    0    0 -0.69451984839E+02  0.57119113259E+02  0.10371854246E+03  0.13727238377E+03  0.00000000000E+00 0.  1.
         12    1    3    3    0    0 -0.30749269108E+01  0.35599654537E+02  0.15301376612E+03  0.15713052918E+03  0.00000000000E+00 0. -1.
        -13    1    4    4    0    0  0.53388048603E+02 -0.36037930457E+02 -0.65365803371E+02  0.91769844805E+02  0.00000000000E+00 0.  1.
         13    1    4    4    0    0  0.16619026956E+01 -0.11796900962E+03 -0.53296702123E+02  0.12946037081E+03  0.00000000000E+00 0. -1.
         21    1    1    2  503  502 -0.34911834808E+02 -0.87079776877E+02 -0.10278059737E+03  0.13916024916E+03  0.00000000000E+00 0. -1.
          1    1    1    2  501    0  0.52388795259E+02  0.14836794916E+03 -0.49154387060E+03  0.51611337023E+03  0.00000000000E+00 0. -1.
<scales pt_clust_5="13000.00000" pt_clust_6="13000.00000" pt_clust_7="13000.00000" pt_clust_8="13000.00000" pt_clust_9="93.81750" pt_clust_10="89.20503"></scales>
<clustering>
<clus scale="   83.094">  5  6 -1 -1</clus>
<clus scale="   90.074">  7  8 -1 -1</clus>
<clus scale="   93.818">  2  9  1 -1</clus>
<clus scale="   89.205">  2 10  1 -1</clus>
<clus scale="  147.252">  1  5  2 -1</clus>
<clus scale="   93.818">  2  5  1 -1</clus>
</clustering>
</event>
<event>
10    4  0.3043429E-005  0.2298832E+03  0.7546771E-02  0.1158386E+00
         21   -1    0    0  503  502  0.00000000000E+00  0.00000000000E+00  0.10061053468E+03  0.10061053468E+03  0.00000000000E+00 0. -1.
          2   -1    0    0  502    0 -0.00000000000E+00 -0.00000000000E+00 -0.12637573305E+04  0.12637573305E+04  0.00000000000E+00 0. -1.
         23    2    1    2    0    0 -0.31885508624E+02 -0.79932888086E+02 -0.14084265042E+03  0.18779827492E+03  0.89585644098E+02 0.  0.
         24    2    1    2    0    0 -0.22139050914E+03  0.37097884012E+02 -0.67090314764E+03  0.71202905524E+03  0.80525346692E+02 0.  0.
        -13    1    4    4    0    0 -0.67337504557E+02  0.41815693776E+02 -0.16291425944E+03  0.18117380521E+03  0.00000000000E+00 0.  1.
         14    1    4    4    0    0 -0.15405300458E+03 -0.47178097631E+01 -0.50798888820E+03  0.53085525003E+03  0.00000000000E+00 0. -1.
        -11    1    3    3    0    0  0.18867934971E+01 -0.62438024108E+02 -0.27514200165E+02  0.68257586062E+02  0.00000000000E+00 0. -1.
         11    1    3    3    0    0 -0.33772302121E+02 -0.17494863977E+02 -0.11332845025E+03  0.11954068886E+03  0.00000000000E+00 0.  1.
         21    1    1    2  503  501  0.56040070943E+02  0.70005087160E+02 -0.48179709275E+02  0.10179629740E+03  0.00000000000E+00 0. -1.
          1    1    1    2  501    0  0.19723594682E+03 -0.27170083087E+02 -0.30322128854E+03  0.36274423766E+03  0.00000000000E+00 0. -1.
<scales pt_clust_5="13000.00000" pt_clust_6="13000.00000" pt_clust_7="13000.00000" pt_clust_8="13000.00000" pt_clust_9="89.67275" pt_clust_10="215.31830"></scales>
<clustering>
<clus scale="   80.525">  5  6 -1 -1</clus>
<clus scale="   89.586">  7  8 -1 -1</clus>
<clus scale="   89.673">  1  9  2 -1</clus>
<clus scale="  107.463">  2  7  1 -1</clus>
<clus scale="  215.318">  1 10  2 -1</clus>
<clus scale="   89.673">  1  5  2 -1</clus>
</clustering>
</event>
<event>
10    4  0.3043429E-005  0.1377089E+03  0.7546771E-02  0.1232977E+00
         21   -1    0    0  501  502  0.00000000000E+00  0.00000000000E+00  0.11261920250E+03  0.11261920250E+03  0.00000000000E+00 0.  1.
          2   -1    0    0  503    0 -0.00000000000E+00 -0.00000000000E+00 -0.14597430885E+04  0.14597430885E+04  0.00000000000E+00 0. -1.
         23    2    1    2    0    0  0.44172327803E+02  0.18250274428E+01 -0.11433509513E+03  0.15293541198E+03  0.91445070901E+02 0.  0.
         24    2    1    2    0    0  0.54774139794E+02  0.80482609885E+02 -0.60966021471E+03  0.62268680863E+03  0.81090242029E+02 0.  0.
        -13    1    4    4    0    0  0.16022060163E+02  0.84948622233E+02 -0.45823554803E+03  0.46631833795E+03  0.00000000000E+00 0.  1.
         14    1    4    4    0    0  0.38752079630E+02 -0.44660123483E+01 -0.15142466668E+03  0.15636847068E+03  0.00000000000E+00 0. -1.
        -11    1    3    3    0    0  0.13231034278E+02 -0.42415409724E+02 -0.33134445098E+02  0.55425794556E+02  0.00000000000E+00 0.  1.
         11    1    3    3    0    0  0.30941293524E+02  0.44240437167E+02 -0.81200650030E+02  0.97509617428E+02  0.00000000000E+00 0. -1.
         21    1    1    2  503  502 -0.20486477444E+02  0.17715700447E+02  0.78835351199E+02  0.83357989414E+02  0.00000000000E+00 0.  1.
          1    1    1    2  501    0 -0.78459990153E+02 -0.10002333777E+03 -0.70196392734E+03  0.71338208096E+03  0.00000000000E+00 0. -1.
<scales pt_clust_5="13000.00000" pt_clust_6="13000.00000" pt_clust_7="13000.00000" pt_clust_8="13000.00000" pt_clust_9="27.08398" pt_clust_10="111.30193"></scales>
<clustering>
<clus scale="   27.084">  1  9  2 -1</clus>
<clus scale="   81.090">  5  6 -1 -1</clus>
<clus scale="   91.445">  7  8 -1 -1</clus>
<clus scale="   97.587">  2  7  1 -1</clus>
<clus scale="  111.302">  1 10  2 -1</clus>
<clus scale="   27.084">  1  5  2 -1</clus>
</clustering>
</event>
<event>
10    4  0.3043429E-005  0.2531494E+03  0.7546771E-02  0.1111331E+00
         21   -1    0    0  503  502  0.00000000000E+00  0.00000000000E+00  0.78680071339E+02  0.78680071339E+02  0.00000000000E+00 0. -1.
          2   -1    0    0  502    0 -0.00000000000E+00 -0.00000000000E+00 -0.78955067452E+03  0.78955067452E+03  0.00000000000E+00 0. -1.
         24    2    1    2    0    0  0.40826594794E+02 -0.10169300510E+03 -0.64517691560E+02  0.15043131742E+03  0.80366476880E+02 0.  0.
         23    2    1    2    0    0  0.17197391997E+02 -0.80438157727E+01 -0.14411246952E+03  0.17151667243E+03  0.91044559351E+02 0.  0.
        -11    1    3    3    0    0 -0.14693314606E+02 -0.61099238010E+02 -0.49593921324E+02  0.80053528415E+02  0.00000000000E+00 0.  1.
         12    1    3    3    0    0  0.55519909400E+02 -0.40593767093E+02 -0.14923770236E+02  0.70377789001E+02  0.00000000000E+00 0. -1.
        -13    1    4    4    0    0 -0.23211686767E+02 -0.18922430073E+02 -0.11900402387E+03  0.12271429607E+03  0.00000000000E+00 0.  1.
         13    1    4    4    0    0  0.40409078764E+02  0.10878614301E+02 -0.25108445647E+02  0.48802376361E+02  0.00000000000E+00 0. -1.
         21    1    1    2  503  501 -0.16773617410E+02 -0.26335710586E+02 -0.83339421923E+01  0.32316845229E+02  0.00000000000E+00 0.  1.
          1    1    1    2  501    0 -0.41250369381E+02  0.13607253146E+03 -0.49390649991E+03  0.51396591079E+03  0.00000000000E+00 0. -1.
<scales pt_clust_5="13000.00000" pt_clust_6="13000.00000" pt_clust_7="13000.00000" pt_clust_8="13000.00000" pt_clust_9="31.22377" pt_clust_10="139.17476"></scales>
<clustering>
<clus scale="   31.224">  1  9  2 -1</clus>
<clus scale="   80.366">  5  6 -1 -1</clus>
<clus scale="   91.045">  7  8 -1 -1</clus>
<clus scale="   93.030">  5  7 -1 -1</clus>
<clus scale="  139.175">  1 10  2 -1</clus>
<clus scale="   31.224">  1  5  2 -1</clus>
</clustering>
</event>
<event>
10    4  0.3043429E-005  0.9250367E+02  0.7546771E-02  0.1302821E+00
          2   -1    0    0  503    0 -0.00000000000E+00  0.00000000000E+00  0.46191343741E+03  0.46191343741E+03  0.00000000000E+00 0. -1.
         21   -1    0    0  501  502  0.00000000000E+00 -0.00000000000E+00 -0.89911397989E+02  0.89911397989E+02  0.00000000000E+00 0.  1.
         23    2    1    2    0    0  0.16176977635E+02  0.23848690015E+01  0.36990808215E+03  0.38127154023E+03  0.90931930307E+02 0.  0.
         24    2    1    2    0    0 -0.13894123943E+02 -0.27400309690E+02  0.26044769318E+02  0.90619756990E+02  0.81177501174E+02 0.  0.
        -13    1    4    4    0    0 -0.32847348570E+02 -0.48189611781E+02  0.13752447180E+02  0.59919252291E+02  0.00000000000E+00 0.  1.
         14    1    4    4    0    0  0.18953224627E+02  0.20789302092E+02  0.12292322138E+02  0.30700504699E+02  0.00000000000E+00 0. -1.
        -13    1    3    3    0    0 -0.14050836133E+00 -0.43296292513E+02  0.19598881014E+03  0.20071423065E+03  0.00000000000E+00 0.  1.
         13    1    3    3    0    0  0.16317485996E+02  0.45681161514E+02  0.17391927201E+03  0.18055730958E+03  0.00000000000E+00 0. -1.
         21    1    1    2  503  502 -0.13098827976E+02 -0.23267949121E+02 -0.10141137522E+02  0.28562552773E+02  0.00000000000E+00 0.  1.
          1    1    1    2  501    0  0.10815974284E+02  0.48283389810E+02 -0.13809674519E+02  0.51370985406E+02  0.00000000000E+00 0. -1.
<scales pt_clust_5="13000.00000" pt_clust_6="13000.00000" pt_clust_7="13000.00000" pt_clust_8="13000.00000" pt_clust_9="26.70162" pt_clust_10="37.83764"></scales>
<clustering>
<clus scale="   26.702">  2  9  1 -1</clus>
<clus scale="   37.838">  2 10  1 -1</clus>
<clus scale="   81.178">  5  6 -1 -1</clus>
<clus scale="   82.934">  2  5  1 -1</clus>
<clus scale="   90.932">  7  8 -1 -1</clus>
<clus scale="   26.702">  2  5  1 -1</clus>
</clustering>
</event>
<event>
10    4  0.3043429E-005  0.2856951E+03  0.7546771E-02  0.1116022E+00
         21   -1    0    0  501  502  0.00000000000E+00  0.00000000000E+00  0.78533877526E+03  0.78533877526E+03  0.00000000000E+00 0. -1.
          2   -1    0    0  503    0 -0.00000000000E+00 -0.00000000000E+00 -0.63128993914E+03  0.63128993914E+03  0.00000000000E+00 0. -1.
         24    2    1    2    0    0  0.91164089886E+02 -0.98395787784E+02  0.10702518605E+02  0.15716096236E+03  0.81193607182E+02 0.  0.
         23    2    1    2    0    0 -0.31951777171E+03 -0.55296543206E+02 -0.47119478410E+03  0.57918762027E+03  0.91019013313E+02 0.  0.
        -13    1    3    3    0    0  0.67690479677E+02 -0.33372028587E+02 -0.24808366809E+02  0.79442736575E+02  0.00000000000E+00 0.  1.
         14    1    3    3    0    0  0.23473610209E+02 -0.65023759197E+02  0.35510885413E+02  0.77718225785E+02  0.00000000000E+00 0. -1.
        -13    1    4    4    0    0 -0.28382841533E+03 -0.76615704539E+02 -0.39507982602E+03  0.49245974907E+03  0.00000000000E+00 0. -1.
         13    1    4    4    0    0 -0.35689356374E+02  0.21319161333E+02 -0.76114958085E+02  0.86727871198E+02  0.00000000000E+00 0.  1.
         21    1    1    2  503  502  0.19160549945E+02  0.22952184921E+02  0.16326191143E+03  0.16597705019E+03  0.00000000000E+00 0. -1.
          1    1    1    2  501    0  0.20919313188E+03  0.13074014607E+03  0.45127919020E+03  0.51430308158E+03  0.00000000000E+00 0. -1.
<scales pt_clust_5="13000.00000" pt_clust_6="13000.00000" pt_clust_7="13000.00000" pt_clust_8="13000.00000" pt_clust_9="29.89865" pt_clust_10="270.80843"></scales>
<clustering>
<clus scale="   29.899">  1  9  2 -1</clus>
<clus scale="   81.194">  5  6 -1 -1</clus>
<clus scale="   91.019">  7  8 -1 -1</clus>
<clus scale="  156.407">  2  5  1 -1</clus>
<clus scale="  270.808">  1 10  2 -1</clus>
<clus scale="   29.899">  1  5  2 -1</clus>
</clustering>
</event>
<event>
10    4  0.3043429E-005  0.1248901E+03  0.7546771E-02  0.1237652E+00
         -1   -1    0    0    0  501 -0.00000000000E+00  0.00000000000E+00  0.20972450459E+04  0.20972450459E+04  0.00000000000E+00 0.  1.
         21   -1    0    0  503  502  0.00000000000E+00 -0.00000000000E+00 -0.72043692491E+02  0.72043692491E+02  0.00000000000E+00 0. -1.
         24    2    1    2    0    0 -0.58555250077E+02 -0.21172503908E+02  0.52687529415E+03  0.53664585917E+03  0.80710658221E+02 0.  0.
         23    2    1    2    0    0  0.22908626262E+02  0.11770806900E+03  0.49780411238E+02  0.15759341815E+03  0.89317419552E+02 0.  0.
        -11    1    3    3    0    0  0.80664800954E+01 -0.33182582897E+02  0.16602034105E+03  0.16949603403E+03  0.00000000000E+00 0.  1.
         12    1    3    3    0    0 -0.66621730172E+02  0.12010078989E+02  0.36085495310E+03  0.36714982515E+03  0.00000000000E+00 0. -1.
        -11    1    4    4    0    0 -0.15208642288E+02  0.67563531593E+02 -0.10929737964E+02  0.70111288488E+02  0.00000000000E+00 0. -1.
         11    1    4    4    0    0  0.38117268551E+02  0.50144537408E+02  0.60710149203E+02  0.87482129660E+02  0.00000000000E+00 0.  1.
         21    1    1    2  503  501 -0.96201853340E+02 -0.27502322787E+02  0.28560061837E+03  0.30262003826E+03  0.00000000000E+00 0.  1.
         -2    1    1    2    0  502  0.13184847715E+03 -0.69033242306E+02  0.11629450297E+04  0.11724294228E+04  0.00000000000E+00 0.  1.
<scales pt_clust_5="13000.00000" pt_clust_6="13000.00000" pt_clust_7="13000.00000" pt_clust_8="13000.00000" pt_clust_9="100.05586" pt_clust_10="111.26052"></scales>
<clustering>
<clus scale="   80.711">  5  6 -1 -1</clus>
<clus scale="   89.317">  7  8 -1 -1</clus>
<clus scale="  100.056">  1  9  2 -1</clus>
<clus scale="  111.261">  2 10  1 -1</clus>
<clus scale="  118.887">  1  5  2 -1</clus>
<clus scale="  111.261">  2  5  1 -1</clus>
</clustering>
</event>
<event>
10    4  0.3043429E-005  0.2058904E+03  0.7546771E-02  0.1145598E+00
          2   -1    0    0  503    0 -0.00000000000E+00  0.00000000000E+00  0.90603170853E+03  0.90603170853E+03  0.00000000000E+00 0. -1.
         21   -1    0    0  501  502  0.00000000000E+00 -0.00000000000E+00 -0.11532079345E+03  0.11532079345E+03  0.00000000000E+00 0. -1.
         23    2    1    2    0    0  0.13135972859E+03 -0.11203153693E+03  0.45519874827E+03  0.49483346090E+03  0.88587866204E+02 0.  0.
         24    2    1    2    0    0 -0.13001795091E+03  0.16385297853E+03  0.36477598030E+03  0.42801484866E+03  0.79891981688E+02 0.  0.
        -11    1    4    4    0    0 -0.86332292484E+02  0.50692003966E+02  0.13361569339E+03  0.16696136533E+03  0.00000000000E+00 0.  1.
         12    1    4    4    0    0 -0.43685658427E+02  0.11316097457E+03  0.23116028691E+03  0.26105348334E+03  0.00000000000E+00 0. -1.
        -13    1    3    3    0    0  0.31306199507E+02 -0.82600250179E+02  0.17923523054E+03  0.19982028757E+03  0.00000000000E+00 0.  1.
         13    1    3    3    0    0  0.10005352909E+03 -0.29431286754E+02  0.27596351773E+03  0.29501317333E+03  0.00000000000E+00 0. -1.
         21    1    1    2  503  502 -0.14613819118E+02 -0.29582978240E+02 -0.53615872064E+02  0.62955365522E+02  0.00000000000E+00 0. -1.
          1    1    1    2  501    0  0.13272041435E+02 -0.22238463360E+02  0.24352058580E+02  0.35548826894E+02  0.00000000000E+00 0. -1.
<scales pt_clust_5="13000.00000" pt_clust_6="13000.00000" pt_clust_7="13000.00000" pt_clust_8="13000.00000" pt_clust_9="42.08157" pt_clust_10="25.89781"></scales>
<clustering>
<clus scale="   25.898">  2 10  1 -1</clus>
<clus scale="   42.082">  2  9  1 -1</clus>
<clus scale="   79.892">  5  6 -1 -1</clus>
<clus scale="   88.588">  7  8 -1 -1</clus>
<clus scale="  202.301">  2  5  1 -1</clus>
<clus scale="   25.898">  2  5  1 -1</clus>
</clustering>
</event>
<event>
10    4  0.3043429E-005  0.9600418E+02  0.7546771E-02  0.1291063E+00
         21   -1    0    0  501  502  0.00000000000E+00  0.00000000000E+00  0.39965528706E+03  0.39965528706E+03  0.00000000000E+00 0. -1.
          4   -1    0    0  503    0 -0.00000000000E+00 -0.00000000000E+00 -0.13974005330E+03  0.13974005330E+03  0.00000000000E+00 0. -1.
         23    2    1    2    0    0  0.40676604730E+02  0.17517940242E+02  0.27888590804E+02  0.99367006341E+02  0.84466348621E+02 0.  0.
         24    2    1    2    0    0 -0.55703379380E+02  0.16845612493E+02  0.14296833028E+03  0.17393552368E+03  0.80168458885E+02 0.  0.
        -13    1    4    4    0    0  0.76145195289E+01 -0.22999252069E+02  0.36677982525E+02  0.43957034767E+02  0.00000000000E+00 0.  1.
         14    1    4    4    0    0 -0.63317898909E+02  0.39844864562E+02  0.10629034775E+03  0.12997848891E+03  0.00000000000E+00 0. -1.
        -13    1    3    3    0    0  0.36700256714E+02 -0.14461659404E+02 -0.17946221083E+02  0.43337227493E+02  0.00000000000E+00 0.  1.
         13    1    3    3    0    0  0.39763480164E+01  0.31979599645E+02  0.45834811887E+02  0.56029778848E+02  0.00000000000E+00 0. -1.
         21    1    1    2  503  502 -0.22171090220E+02 -0.33634499462E+02  0.17122250474E+03  0.17589764900E+03  0.00000000000E+00 0. -1.
          3    1    1    2  501    0  0.37197864869E+02 -0.72905327252E+00 -0.82164192064E+02  0.90195161328E+02  0.00000000000E+00 0. -1.
<scales pt_clust_5="13000.00000" pt_clust_6="13000.00000" pt_clust_7="13000.00000" pt_clust_8="13000.00000" pt_clust_9="34.45510" pt_clust_10="37.20503"></scales>
<clustering>
<clus scale="   37.205">  1 10  2 -1</clus>
<clus scale="   34.455">  1  9  2 -1</clus>
<clus scale="   80.168">  5  6 -1 -1</clus>
<clus scale="   84.466">  7  8 -1 -1</clus>
<clus scale="   92.245">  1  5  2 -1</clus>
<clus scale="   37.205">  1  5  2 -1</clus>
</clustering>
</event>
<event>
10    4  0.3043429E-005  0.1668402E+03  0.7546771E-02  0.1204849E+00
         21   -1    0    0  503  502  0.00000000000E+00  0.00000000000E+00  0.59540048198E+03  0.59540048198E+03  0.00000000000E+00 0.  1.
         -3   -1    0    0    0  501 -0.00000000000E+00 -0.00000000000E+00 -0.13649271571E+03  0.13649271571E+03  0.00000000000E+00 0.  1.
         23    2    1    2    0    0  0.23546204466E+02  0.17403157872E+02  0.27938508017E+02  0.10205858054E+03  0.93691514996E+02 0.  0.
         24    2    1    2    0    0  0.12915254830E+03 -0.53615071760E+02  0.50809522182E+02  0.17023259450E+03  0.82719840629E+02 0.  0.
        -13    1    4    4    0    0  0.11148784281E+03 -0.59215755606E+02  0.69338231568E+02  0.14402720286E+03  0.00000000000E+00 0.  1.
         14    1    4    4    0    0  0.17664705490E+02  0.56006838451E+01 -0.18528709386E+02  0.26205391642E+02  0.00000000000E+00 0. -1.
        -11    1    3    3    0    0 -0.27729295265E+02 -0.73606831392E+01 -0.13428110140E+02  0.31676609890E+02  0.00000000000E+00 0. -1.
         11    1    3    3    0    0  0.51275499732E+02  0.24763841012E+02  0.41366618157E+02  0.70381970647E+02  0.00000000000E+00 0.  1.
         21    1    1    2  503  501 -0.14376035041E+03 -0.16470613109E+02  0.37951259499E+03  0.40616268809E+03  0.00000000000E+00 0.  1.
         -4    1    1    2    0  502 -0.89384023541E+01  0.52682526997E+02  0.64714108461E+00  0.53439334568E+02  0.00000000000E+00 0.  1.
<scales pt_clust_5="13000.00000" pt_clust_6="13000.00000" pt_clust_7="13000.00000" pt_clust_8="13000.00000" pt_clust_9="144.88990" pt_clust_10="53.43544"></scales>
<clustering>
<clus scale="   53.435">  1 10  2 -1</clus>
<clus scale="   82.720">  5  6 -1 -1</clus>
<clus scale="   93.692">  7  8 -1 -1</clus>
<clus scale="   99.168">  2  7  1 -1</clus>
<clus scale="  144.890">  1  9  2 -1</clus>
<clus scale="   53.435">  1  5  2 -1</clus>
</clustering>
</event>
<event>
10    4  0.3043429E-005  0.3196103E+03  0.7546771E-02  0.1075998E+00
         21   -1    0    0  501  502  0.00000000000E+00  0.00000000000E+00  0.11117074035E+04  0.11117074035E+04  0.00000000000E+00 0.  1.
          2   -1    0    0  503    0 -0.00000000000E+00 -0.00000000000E+00 -0.10739565278E+04  0.10739565278E+04  0.00000000000E+00 0. -1.
         23    2    1    2    0    0 -0.19997966113E+03  0.20757542856E+03 -0.69505987918E+03  0.75735347523E+03  0.86003647577E+02 0.  0.
         24    2    1    2    0    0  0.23764500423E+03 -0.33754124006E+03 -0.11388127326E+03  0.43570637089E+03  0.80385698048E+02 0.  0.
        -13    1    4    4    0    0  0.46401719284E+02 -0.96775753225E+02  0.13854050791E+01  0.10733398955E+03  0.00000000000E+00 0.  1.
         14    1    4    4    0    0  0.19124328495E+03 -0.24076548684E+03 -0.11526667834E+03  0.32837238134E+03  0.00000000000E+00 0. -1.
        -11    1    3    3    0    0 -0.72136628390E+02  0.12560500513E+03 -0.40168340138E+03  0.42700101337E+03  0.00000000000E+00 0. -1.
         11    1    3    3    0    0 -0.12784303275E+03  0.81970423435E+02 -0.29337647779E+03  0.33035246187E+03  0.00000000000E+00 0.  1.
         21    1    1    2  503  502 -0.11916508208E+03  0.20728383338E+03  0.84716946566E+03  0.88026303337E+03  0.00000000000E+00 0.  1.
          1    1    1    2  501    0  0.81499738981E+02 -0.77318021878E+02 -0.47743752040E+00  0.11234105175E+03  0.00000000000E+00 0. -1.
<scales pt_clust_5="13000.00000" pt_clust_6="13000.00000" pt_clust_7="13000.00000" pt_clust_8="13000.00000" pt_clust_9="153.29790" pt_clust_10="112.34009"></scales>
<clustering>
<clus scale="   80.386">  5  6 -1 -1</clus>
<clus scale="   86.004">  7  8 -1 -1</clus>
<clus scale="  112.340">  1 10  2 -1</clus>
<clus scale="  153.298">  1  9  2 -1</clus>
<clus scale="  318.145">  1  5  2 -1</clus>
<clus scale="  112.340">  1  5  2 -1</clus>
</clustering>
</event>
<event>
10    4  0.3043429E-005  0.1697457E+03  0.7546771E-02  0.1198114E+00
          2   -1    0    0  502    0 -0.00000000000E+00  0.00000000000E+00  0.21511347431E+03  0.21511347431E+03  0.00000000000E+00 0. -1.
         21   -1    0    0  503  502  0.00000000000E+00 -0.00000000000E+00 -0.30249958474E+03  0.30249958474E+03  0.00000000000E+00 0. -1.
         23    2    1    2    0    0 -0.10074071908E+02  0.52901363447E+02  0.31818516162E+02  0.11150380393E+03  0.92307308165E+02 0.  0.
         24    2    1    2    0    0  0.14008426680E+03 -0.95785456439E+02 -0.77282204231E+02  0.20323097845E+03  0.80819775067E+02 0.  0.
        -11    1    4    4    0    0  0.66772101241E+02 -0.29562804112E+02 -0.74613905176E+02  0.10440166539E+03  0.00000000000E+00 0.  1.
         12    1    4    4    0    0  0.73312165561E+02 -0.66222652326E+02 -0.26682990551E+01  0.98829313061E+02  0.00000000000E+00 0. -1.
        -11    1    3    3    0    0  0.31000470935E+02  0.24682141664E+02  0.44995555181E+02  0.59956962075E+02  0.00000000000E+00 0.  1.
         11    1    3    3    0    0 -0.41074542844E+02  0.28219221784E+02 -0.13177039019E+02  0.51546841855E+02  0.00000000000E+00 0. -1.
         21    1    1    2  503  501  0.40748689753E+01  0.25274053508E+02 -0.61139800260E+02  0.66283161615E+02  0.00000000000E+00 0.  1.
          1    1    1    2  501    0 -0.13408506387E+03  0.17610039484E+02  0.19217377904E+02  0.13659511505E+03  0.00000000000E+00 0. -1.
<scales pt_clust_5="13000.00000" pt_clust_6="13000.00000" pt_clust_7="13000.00000" pt_clust_8="13000.00000" pt_clust_9="25.60044" pt_clust_10="149.27082"></scales>
<clustering>
<clus scale="   25.600">  2  9  1 -1</clus>
<clus scale="   80.820">  5  6 -1 -1</clus>
<clus scale="   92.307">  7  8 -1 -1</clus>
<clus scale="  108.956">  1  7  2 -1</clus>
<clus scale="  149.271">  2 10  1 -1</clus>
<clus scale="   25.600">  2  5  1 -1</clus>
</clustering>
</event>
<event>
10    4  0.3043429E-005  0.9272745E+02  0.7546771E-02  0.1304245E+00
         -1   -1    0    0    0  501 -0.00000000000E+00  0.00000000000E+00  0.10382869221E+03  0.10382869221E+03  0.00000000000E+00 0.  1.
         21   -1    0    0  501  502  0.00000000000E+00 -0.00000000000E+00 -0.24827394647E+03  0.24827394647E+03  0.00000000000E+00 0.  1.
         23    2    1    2    0    0  0.14975107530E+01 -0.10302206628E+02  0.26400054011E+02  0.95566816008E+02  0.91256098263E+02 0.  0.
         24    2    1    2    0    0 -0.48969767934E+02  0.24666093701E+02 -0.13974623787E+03  0.16940837289E+03  0.78509435455E+02 0.  0.
        -13    1    4    4    0    0 -0.35637611609E+02  0.45448268316E+02 -0.13108201866E+03  0.14324133506E+03  0.00000000000E+00 0.  1.
         14    1    4    4    0    0 -0.13332156325E+02 -0.20782174615E+02 -0.86642192087E+01  0.26167037825E+02  0.00000000000E+00 0. -1.
        -13    1    3    3    0    0 -0.29724408893E+02 -0.16551256402E+02  0.46719640557E+02  0.57794544606E+02  0.00000000000E+00 0.  1.
         13    1    3    3    0    0  0.31221919646E+02  0.62490497747E+01 -0.20319586546E+02  0.37772271402E+02  0.00000000000E+00 0. -1.
         21    1    1    2  503  502  0.73276874754E+01 -0.23195650003E+02 -0.38324417422E+02  0.45392666296E+02  0.00000000000E+00 0.  1.
         -2    1    1    2    0  503  0.40144569706E+02  0.88317629301E+01  0.72253470151E+01  0.41734783488E+02  0.00000000000E+00 0.  1.
<scales pt_clust_5="13000.00000" pt_clust_6="13000.00000" pt_clust_7="13000.00000" pt_clust_8="13000.00000" pt_clust_9="24.32557" pt_clust_10="41.33587"></scales>
<clustering>
<clus scale="   24.326">  2  9  1 -1</clus>
<clus scale="   41.336">  2 10  1 -1</clus>
<clus scale="   78.509">  5  6 -1 -1</clus>
<clus scale="   80.215">  2  5  1 -1</clus>
<clus scale="   91.256">  7  8 -1 -1</clus>
<clus scale="   24.326">  2  5  1 -1</clus>
</clustering>
</event>
<event>
10    4  0.3043429E-005  0.1453417E+03  0.7546771E-02  0.1208383E+00
         21   -1    0    0  501  502  0.00000000000E+00  0.00000000000E+00  0.26984023007E+02  0.26984023007E+02  0.00000000000E+00 0.  1.
          2   -1    0    0  503    0 -0.00000000000E+00 -0.00000000000E+00 -0.17815532919E+04  0.17815532919E+04  0.00000000000E+00 0. -1.
         24    2    1    2    0    0 -0.12463686090E+03 -0.43285594634E+02 -0.96736846775E+03  0.97968018234E+03  0.81015538410E+02 0.  0.
         23    2    1    2    0    0  0.85081390473E+02  0.25991630968E+02 -0.51200598161E+03  0.52765539438E+03  0.91409420340E+02 0.  0.
        -13    1    3    3    0    0  0.69874912999E+01 -0.19947238517E+02 -0.12756946232E+03  0.12930848802E+03  0.00000000000E+00 0.  1.
         14    1    3    3    0    0 -0.13162435220E+03 -0.23338356117E+02 -0.83979900544E+03  0.85037169432E+03  0.00000000000E+00 0. -1.
        -11    1    4    4    0    0  0.89636343089E+02 -0.60543675199E+01 -0.43398714184E+03  0.44318863777E+03  0.00000000000E+00 0. -1.
         11    1    4    4    0    0 -0.45549526157E+01  0.32045998488E+02 -0.78018839771E+02  0.84466756606E+02  0.00000000000E+00 0.  1.
         21    1    1    2  503  502  0.18937868830E+02 -0.42599471159E+02 -0.55113562084E+02  0.72186304410E+02  0.00000000000E+00 0. -1.
          1    1    1    2  501    0  0.20617601600E+02  0.59893434825E+02 -0.22008125744E+03  0.22901543378E+03  0.00000000000E+00 0. -1.
<scales pt_clust_5="13000.00000" pt_clust_6="13000.00000" pt_clust_7="13000.00000" pt_clust_8="13000.00000" pt_clust_9="46.61929" pt_clust_10="55.61645"></scales>
<clustering>
<clus scale="   46.619">  1  9  2 -1</clus>
<clus scale="   55.616">  1 10  2 -1</clus>
<clus scale="   81.016">  5  6 -1 -1</clus>
<clus scale="   91.409">  7  8 -1 -1</clus>
<clus scale="  139.040">  2  5  1 -1</clus>
<clus scale="   46.619">  1  5  2 -1</clus>
</clustering>
</event>
<event>
10    4  0.3043429E-005  0.1297277E+03  0.7546771E-02  0.1245532E+00
         -1   -1    0    0    0  501 -0.00000000000E+00  0.00000000000E+00  0.41878527289E+03  0.41878527289E+03  0.00000000000E+00 0.  1.
         21   -1    0    0  501  502  0.00000000000E+00 -0.00000000000E+00 -0.14222176869E+03  0.14222176869E+03  0.00000000000E+00 0. -1.
         23    2    1    2    0    0  0.14670285532E+02  0.27075617756E+00  0.23079039586E+03  0.24774074227E+03  0.88859315620E+02 0.  0.
         24    2    1    2    0    0 -0.35414324832E+02  0.76026270755E+02 -0.49017527089E+02  0.12448633629E+03  0.77845755915E+02 0.  0.
        -13    1    4    4    0    0 -0.84305269153E+01  0.25634515650E+02  0.20931695187E+02  0.34151691614E+02  0.00000000000E+00 0.  1.
         14    1    4    4    0    0 -0.26983797917E+02  0.50391755105E+02 -0.69949222276E+02  0.90334644681E+02  0.00000000000E+00 0. -1.
        -13    1    3    3    0    0 -0.23395930213E+02 -0.19594898665E+02  0.31428508003E+02  0.43807313539E+02  0.00000000000E+00 0.  1.
         13    1    3    3    0    0  0.38066215745E+02  0.19865654843E+02  0.19936188786E+03  0.20393342873E+03  0.00000000000E+00 0. -1.
         21    1    1    2  503  502  0.27152225761E+02  0.37383021072E+02  0.11232313157E+02  0.47548906266E+02  0.00000000000E+00 0. -1.
         -2    1    1    2    0  503 -0.64081864600E+01 -0.11368004800E+03  0.83558322273E+02  0.14123105674E+03  0.00000000000E+00 0.  1.
<scales pt_clust_5="13000.00000" pt_clust_6="13000.00000" pt_clust_7="13000.00000" pt_clust_8="13000.00000" pt_clust_9="46.20318" pt_clust_10="103.77539"></scales>
<clustering>
<clus scale="   46.203">  2  9  1 -1</clus>
<clus scale="   77.846">  5  6 -1 -1</clus>
<clus scale="   88.859">  7  8 -1 -1</clus>
<clus scale="   90.427">  1  7  2 -1</clus>
<clus scale="  103.775">  2 10  1 -1</clus>
<clus scale="   46.203">  2  5  1 -1</clus>
</clustering>
</event>
<event>
10    4  0.4244193E-005  0.1336742E+03  0.7546771E-02  0.1235781E+00
         21   -1    0    0  503  502  0.00000000000E+00  0.00000000000E+00  0.18969470424E+03  0.18969470424E+03  0.00000000000E+00 0. -1.
         -1   -1    0    0    0  501 -0.00000000000E+00 -0.00000000000E+00 -0.58754659164E+03  0.58754659164E+03  0.00000000000E+00 0.  1.
         23    2    1    2    0    0  0.44703830489E+02 -0.63290388591E+00 -0.24886321485E+03  0.26837361586E+03  0.89959240524E+02 0.  0.
         24    2    1    2    0    0  0.14443862155E+02  0.80045955073E+02  0.13435126364E+03  0.17836986225E+03  0.84555104157E+02 0.  0.
        -11    1    4    4    0    0  0.32041791793E+02  0.59386223677E+01  0.12978815358E+02  0.35076962597E+02  0.00000000000E+00 0.  1.
         12    1    4    4    0    0 -0.17597929638E+02  0.74107332706E+02  0.12137244828E+03  0.14329289965E+03  0.00000000000E+00 0. -1.
        -13    1    3    3    0    0 -0.21867769936E+02 -0.18729971008E+02 -0.47772632365E+02  0.55778450848E+02  0.00000000000E+00 0. -1.
         13    1    3    3    0    0  0.66571600425E+02  0.18097067122E+02 -0.20109058248E+03  0.21259516501E+03  0.00000000000E+00 0.  1.
         21    1    1    2  503  501  0.11360049499E+02  0.21702778693E+02 -0.35450942342E+01  0.24751343818E+02  0.00000000000E+00 0.  1.
         -2    1    1    2    0  502 -0.70507742143E+02 -0.10111582988E+03 -0.27979484195E+03  0.30574647396E+03  0.00000000000E+00 0.  1.
<scales pt_clust_5="13000.00000" pt_clust_6="13000.00000" pt_clust_7="13000.00000" pt_clust_8="13000.00000" pt_clust_9="24.49615" pt_clust_10="103.53376"></scales>
<clustering>
<clus scale="   24.496">  1  9  2 -1</clus>
<clus scale="   84.555">  5  6 -1 -1</clus>
<clus scale="   89.959">  7  8 -1 -1</clus>
<clus scale="  100.733">  2  7  1 -1</clus>
<clus scale="  103.534">  1 10  2 -1</clus>
<clus scale="   24.496">  1  5  2 -1</clus>
</clustering>
</event>
<event>
10    4  0.3043429E-005  0.2235256E+03  0.7546771E-02  0.1131638E+00
         21   -1    0    0  503  502  0.00000000000E+00  0.00000000000E+00  0.78183550611E+03  0.78183550611E+03  0.00000000000E+00 0. -1.
          2   -1    0    0  502    0 -0.00000000000E+00 -0.00000000000E+00 -0.83865026313E+03  0.83865026313E+03  0.00000000000E+00 0. -1.
         24    2    1    2    0    0  0.11694886012E+03 -0.13651871149E+03 -0.30963495917E+03  0.36721390746E+03  0.81595658089E+02 0.  0.
         23    2    1    2    0    0 -0.13473103026E+03  0.25600933301E+03 -0.17841848365E+03  0.35078427938E+03  0.86736533549E+02 0.  0.
        -13    1    3    3    0    0  0.43146356109E+02 -0.24332944971E+02 -0.15340177716E+03  0.16120113366E+03  0.00000000000E+00 0.  1.
         14    1    3    3    0    0  0.73802504015E+02 -0.11218576652E+03 -0.15623318201E+03  0.20601277380E+03  0.00000000000E+00 0. -1.
        -11    1    4    4    0    0 -0.12633371578E+03  0.22557642002E+03 -0.12143988534E+03  0.28564414008E+03  0.00000000000E+00 0. -1.
         11    1    4    4    0    0 -0.83973144814E+01  0.30432912993E+02 -0.56978598303E+02  0.65140139302E+02  0.00000000000E+00 0.  1.
         21    1    1    2  503  501  0.79928470358E+02 -0.31383549645E+02  0.65156264659E+03  0.65719659919E+03  0.00000000000E+00 0. -1.
          1    1    1    2  501    0 -0.62146300220E+02 -0.88107071877E+02 -0.22032396079E+03  0.24529098321E+03  0.00000000000E+00 0. -1.
<scales pt_clust_5="13000.00000" pt_clust_6="13000.00000" pt_clust_7="13000.00000" pt_clust_8="13000.00000" pt_clust_9="85.86901" pt_clust_10="106.13383"></scales>
<clustering>
<clus scale="   81.596">  5  6 -1 -1</clus>
<clus scale="   85.869">  1  9  2 -1</clus>
<clus scale="   86.737">  7  8 -1 -1</clus>
<clus scale="  106.134">  1 10  2 -1</clus>
<clus scale="  221.581">  2  5  1 -1</clus>
<clus scale="   85.869">  1  5  2 -1</clus>
</clustering>
</event>
<event>
10    4  0.3043429E-005  0.1015592E+03  0.7546771E-02  0.1282385E+00
         -1   -1    0    0    0  501 -0.00000000000E+00  0.00000000000E+00  0.28627030070E+03  0.28627030070E+03  0.00000000000E+00 0.  1.
         21   -1    0    0  503  502  0.00000000000E+00 -0.00000000000E+00 -0.83854349074E+02  0.83854349074E+02  0.00000000000E+00 0. -1.
         23    2    1    2    0    0  0.89055863724E+01  0.15309377689E+02  0.83833920029E+02  0.12488037816E+03  0.90847653733E+02 0.  0.
         24    2    1    2    0    0 -0.46057477990E+02 -0.61157337763E+02  0.10393400666E+03  0.15172736099E+03  0.79733324861E+02 0.  0.
        -11    1    4    4    0    0 -0.54259645466E+02 -0.15138622874E+02  0.83469979636E+02  0.10070017145E+03  0.00000000000E+00 0.  1.
         12    1    4    4    0    0  0.82021674760E+01 -0.46018714889E+02  0.20464027019E+02  0.51027189548E+02  0.00000000000E+00 0. -1.
        -11    1    3    3    0    0  0.35207085864E+02  0.42024778209E+02  0.54203284438E+02  0.77094856653E+02  0.00000000000E+00 0.  1.
         11    1    3    3    0    0 -0.26301499491E+02 -0.26715400519E+02  0.29630635591E+02  0.47785521510E+02  0.00000000000E+00 0. -1.
         21    1    1    2  503  501 -0.19051621134E+02  0.11892285518E+02  0.16432232286E+02  0.27828204767E+02  0.00000000000E+00 0.  1.
         -2    1    1    2    0  502  0.56203512752E+02  0.33955674556E+02 -0.17842073479E+01  0.65688705848E+02  0.00000000000E+00 0.  1.
<scales pt_clust_5="13000.00000" pt_clust_6="13000.00000" pt_clust_7="13000.00000" pt_clust_8="13000.00000" pt_clust_9="22.45864" pt_clust_10="64.48134"></scales>
<clustering>
<clus scale="   22.459">  1  9  2 -1</clus>
<clus scale="   64.481">  2 10  1 -1</clus>
<clus scale="   79.733">  5  6 -1 -1</clus>
<clus scale="   90.848">  7  8 -1 -1</clus>
<clus scale="   91.752">  2  5  1 -1</clus>
<clus scale="   64.481">  2  5  1 -1</clus>
</clustering>
</event>
<event>
10    4  0.3043429E-005  0.1471856E+03  0.7546771E-02  0.1205775E+00
          2   -1    0    0  503    0 -0.00000000000E+00  0.00000000000E+00  0.67740216331E+02  0.67740216331E+02  0.00000000000E+00 0. -1.
         21   -1    0    0  501  502  0.00000000000E+00 -0.00000000000E+00 -0.70468098274E+03  0.70468098274E+03  0.00000000000E+00 0. -1.
         23    2    1    2    0    0 -0.12299312786E+03 -0.18253984057E+02 -0.20769727421E+03  0.25861746797E+03  0.91018237683E+02 0.  0.
         24    2    1    2    0    0  0.10211640050E+03 -0.37942984759E+02 -0.41954914716E+03  0.44108560585E+03  0.81655345579E+02 0.  0.
        -13    1    4    4    0    0  0.37994830906E+02 -0.24364044430E+02 -0.57235277824E+02  0.72890951868E+02  0.00000000000E+00 0.  1.
         14    1    4    4    0    0  0.64121569589E+02 -0.13578940329E+02 -0.36231386934E+03  0.36819465398E+03  0.00000000000E+00 0. -1.
        -13    1    3    3    0    0 -0.44795170380E+01 -0.33016592218E+02 -0.32185261046E+02  0.46325505536E+02  0.00000000000E+00 0.  1.
         13    1    3    3    0    0 -0.11851361082E+03  0.14762608161E+02 -0.17551201316E+03  0.21229196243E+03  0.00000000000E+00 0. -1.
         21    1    1    2  503  502  0.15779005843E-01  0.24516610609E+02 -0.21897198102E+02  0.32871746675E+02  0.00000000000E+00 0.  1.
          1    1    1    2  501    0  0.20860948358E+02  0.31680358207E+02  0.12202853065E+02  0.39846378574E+02  0.00000000000E+00 0. -1.
<scales pt_clust_5="13000.00000" pt_clust_6="13000.00000" pt_clust_7="13000.00000" pt_clust_8="13000.00000" pt_clust_9="24.51662" pt_clust_10="46.83518"></scales>
<clustering>
<clus scale="   24.517">  1  9  2 -1</clus>
<clus scale="   46.835">  2 10  1 -1</clus>
<clus scale="   81.655">  5  6 -1 -1</clus>
<clus scale="   91.018">  7  8 -1 -1</clus>
<clus scale="  141.587">  2  5  1 -1</clus>
<clus scale="   46.835">  2  5  1 -1</clus>
</clustering>
</event>
<event>
10    4  0.3043429E-005  0.4238920E+03  0.7546771E-02  0.1081239E+00
          2   -1    0    0  502    0 -0.00000000000E+00  0.00000000000E+00  0.79936335419E+03  0.79936335419E+03  0.00000000000E+00 0. -1.
         21   -1    0    0  503  502  0.00000000000E+00 -0.00000000000E+00 -0.53368661701E+03  0.53368661701E+03  0.00000000000E+00 0. -1.
         24    2    1    2    0    0  0.73004391362E+02  0.43404487313E+02  0.13210304590E+03  0.17647044328E+03  0.80479885292E+02 0.  0.
         23    2    1    2    0    0  0.23198447258E+03  0.28547253425E+03 -0.20754766172E+03  0.43219985351E+03  0.91702334533E+02 0.  0.
        -13    1    3    3    0    0  0.18585182539E+02 -0.23630658614E+02  0.26619771200E+02  0.40155065127E+02  0.00000000000E+00 0.  1.
         14    1    3    3    0    0  0.54419208822E+02  0.67035145927E+02  0.10548327470E+03  0.13631537815E+03  0.00000000000E+00 0. -1.
        -11    1    4    4    0    0  0.17615411216E+02  0.77699764394E+02 -0.31869068519E+02  0.85809053296E+02  0.00000000000E+00 0.  1.
         11    1    4    4    0    0  0.21436906136E+03  0.20777276986E+03 -0.17567859320E+03  0.34639080022E+03  0.00000000000E+00 0. -1.
         21    1    1    2  503  501  0.25368854697E+02  0.32320532612E+02 -0.72632728181E+02  0.83448839536E+02  0.00000000000E+00 0. -1.
          1    1    1    2  501    0 -0.33035771864E+03 -0.36119755418E+03  0.41375408118E+03  0.64093083488E+03  0.00000000000E+00 0. -1.
<scales pt_clust_5="13000.00000" pt_clust_6="13000.00000" pt_clust_7="13000.00000" pt_clust_8="13000.00000" pt_clust_9="41.08766" pt_clust_10="413.85419"></scales>
<clustering>
<clus scale="   41.088">  2  9  1 -1</clus>
<clus scale="   80.480">  5  6 -1 -1</clus>
<clus scale="   91.702">  7  8 -1 -1</clus>
<clus scale="  118.370">  1  5  2 -1</clus>
<clus scale="  413.854">  2 10  1 -1</clus>
<clus scale="   41.088">  2  5  1 -1</clus>
</clustering>
</event>
<event>
10    4  0.3043429E-005  0.2765057E+03  0.7546771E-02  0.1098169E+00
         21   -1    0    0  501  502  0.00000000000E+00  0.00000000000E+00  0.84283910404E+03  0.84283910404E+03  0.00000000000E+00 0.  1.
          2   -1    0    0  503    0 -0.00000000000E+00 -0.00000000000E+00 -0.26714646727E+03  0.26714646727E+03  0.00000000000E+00 0. -1.
         24    2    1    2    0    0 -0.41046246070E+02  0.26647107442E+03 -0.11301196036E+03  0.30310566507E+03  0.80060684449E+02 0.  0.
         23    2    1    2    0    0 -0.37242164577E+02 -0.22080667211E+03  0.45364162731E+03  0.51432044083E+03  0.92694253070E+02 0.  0.
        -11    1    3    3    0    0  0.21103314267E+02  0.11773938826E+03 -0.56540291176E+02  0.13230539652E+03  0.00000000000E+00 0.  1.
         12    1    3    3    0    0 -0.62149560337E+02  0.14873168616E+03 -0.56471669188E+02  0.17080026856E+03  0.00000000000E+00 0. -1.
        -13    1    4    4    0    0 -0.26708448656E+02 -0.16563872820E+03  0.41061266085E+03  0.44356768002E+03  0.00000000000E+00 0.  1.
         13    1    4    4    0    0 -0.10533715921E+02 -0.55167943915E+02  0.43028966455E+02  0.70752760802E+02  0.00000000000E+00 0. -1.
         21    1    1    2  503  502 -0.24750943594E+02  0.28123389395E+02  0.10263793375E+03  0.10926151969E+03  0.00000000000E+00 0. -1.
          1    1    1    2  501    0  0.10303935424E+03 -0.73787791700E+02  0.13242503608E+03  0.18329794572E+03  0.00000000000E+00 0. -1.
<scales pt_clust_5="13000.00000" pt_clust_6="13000.00000" pt_clust_7="13000.00000" pt_clust_8="13000.00000" pt_clust_9="37.46377" pt_clust_10="118.93004"></scales>
<clustering>
<clus scale="   37.464">  1  9  2 -1</clus>
<clus scale="   80.061">  5  6 -1 -1</clus>
<clus scale="   92.694">  7  8 -1 -1</clus>
<clus scale="  118.930">  1 10  2 -1</clus>
<clus scale="  272.531">  2  5  1 -1</clus>
<clus scale="   37.464">  1  5  2 -1</clus>
</clustering>
</event>
<event>
10    4  0.3043429E-005  0.1084971E+03  0.7546771E-02  0.1273607E+00
         21   -1    0    0  501  502  0.00000000000E+00  0.00000000000E+00  0.69059107270E+02  0.69059107270E+02  0.00000000000E+00 0. -1.
          2   -1    0    0  503    0 -0.00000000000E+00 -0.00000000000E+00 -0.46407305003E+03  0.46407305003E+03  0.00000000000E+00 0. -1.
         23    2    1    2    0    0 -0.55979767582E+02 -0.56295299186E+02 -0.29296531410E+03  0.31740646925E+03  0.92818620809E+02 0.  0.
         24    2    1    2    0    0 -0.32246891680E+02  0.34085239253E+02 -0.43073236173E+02  0.93906819834E+02  0.69003779455E+02 0.  0.
        -11    1    4    4    0    0  0.21239780906E+02  0.11313838829E+02 -0.20261846128E+02  0.31459078983E+02  0.00000000000E+00 0.  1.
         12    1    4    4    0    0 -0.53486672586E+02  0.22771400424E+02 -0.22811390045E+02  0.62447740851E+02  0.00000000000E+00 0. -1.
        -13    1    3    3    0    0 -0.94279082114E+01  0.25855554384E+02 -0.58864571788E+02  0.64980250519E+02  0.00000000000E+00 0.  1.
         13    1    3    3    0    0 -0.46551859370E+02 -0.82150853570E+02 -0.23410074231E+03  0.25242621873E+03  0.00000000000E+00 0. -1.
         21    1    1    2  503  502  0.38748690323E+02  0.37493776627E+02 -0.37916680920E+02  0.65915999420E+02  0.00000000000E+00 0.  1.
          1    1    1    2  501    0  0.49477968939E+02 -0.15283716694E+02 -0.21058711566E+02  0.55902868791E+02  0.00000000000E+00 0. -1.
<scales pt_clust_5="13000.00000" pt_clust_6="13000.00000" pt_clust_7="13000.00000" pt_clust_8="13000.00000" pt_clust_9="61.91290" pt_clust_10="51.78476"></scales>
<clustering>
<clus scale="   51.785">  1 10  2 -1</clus>
<clus scale="   61.913">  1  9  2 -1</clus>
<clus scale="   69.004">  5  6 -1 -1</clus>
<clus scale="   88.982">  1  5  2 -1</clus>
<clus scale="   92.819">  7  8 -1 -1</clus>
<clus scale="   51.785">  1  5  2 -1</clus>
</clustering>
</event>
<event>
10    4  0.3043429E-005  0.1206121E+03  0.7546771E-02  0.1247055E+00
          4   -1    0    0  502    0 -0.00000000000E+00  0.00000000000E+00  0.20810771635E+03  0.20810771635E+03  0.00000000000E+00 0. -1.
         21   -1    0    0  503  502  0.00000000000E+00 -0.00000000000E+00 -0.34887044113E+03  0.34887044113E+03  0.00000000000E+00 0.  1.
         23    2    1    2    0    0 -0.40664749506E+02  0.87989451296E+02 -0.78108097162E+02  0.15648269641E+03  0.94816633774E+02 0.  0.
         24    2    1    2    0    0 -0.40657176924E+02 -0.49369567309E+02 -0.18832090701E+03  0.21425811926E+03  0.79695780568E+02 0.  0.
        -13    1    4    4    0    0 -0.33648777783E+02 -0.49696923339E+02 -0.19532904362E+03  0.20434152715E+03  0.00000000000E+00 0.  1.
         14    1    4    4    0    0 -0.70083991409E+01  0.32735603017E+00  0.70081366066E+01  0.99165921155E+01  0.00000000000E+00 0. -1.
        -11    1    3    3    0    0 -0.33283438404E+01  0.81530299095E+02 -0.85158136656E+02  0.11794140826E+03  0.00000000000E+00 0.  1.
         11    1    3    3    0    0 -0.37336405665E+02  0.64591522018E+01  0.70500394945E+01  0.38541288147E+02  0.00000000000E+00 0. -1.
         21    1    1    2  503  501  0.24305492134E+02 -0.13680615582E+02 -0.15538306763E+02  0.31927342007E+02  0.00000000000E+00 0. -1.
          3    1    1    2  501    0  0.57016434296E+02 -0.24939268405E+02  0.14120458616E+03  0.15430999981E+03  0.00000000000E+00 0. -1.
<scales pt_clust_5="13000.00000" pt_clust_6="13000.00000" pt_clust_7="13000.00000" pt_clust_8="13000.00000" pt_clust_9="27.89115" pt_clust_10="62.79149"></scales>
<clustering>
<clus scale="   27.891">  2  9  1 -1</clus>
<clus scale="   62.791">  2 10  1 -1</clus>
<clus scale="   79.696">  5  6 -1 -1</clus>
<clus scale="   94.817">  7  8 -1 -1</clus>
<clus scale="  109.126">  2  5  1 -1</clus>
<clus scale="   27.891">  2  5  1 -1</clus>
</clustering>
</event>
<event>
10    4  0.3043429E-005  0.2174147E+03  0.7546771E-02  0.1138859E+00
          2   -1    0    0  502    0 -0.00000000000E+00  0.00000000000E+00  0.48034171189E+03  0.48034171189E+03  0.00000000000E+00 0. -1.
         21   -1    0    0  503  502  0.00000000000E+00 -0.00000000000E+00 -0.53474261832E+03  0.53474261832E+03  0.00000000000E+00 0.  1.
         24    2    1    2    0    0  0.49282841524E+02  0.19648132176E+03 -0.15707031864E+03  0.26880253568E+03  0.80932131600E+02 0.  0.
         23    2    1    2    0    0 -0.17845162352E+03  0.81065529479E+02 -0.11616047106E+03  0.24540915101E+03  0.91190977392E+02 0.  0.
        -13    1    3    3    0    0  0.30969004911E+02  0.18549185523E+03 -0.16041690081E+03  0.24718391875E+03  0.00000000000E+00 0.  1.
         14    1    3    3    0    0  0.18313836613E+02  0.10989466528E+02  0.33465821728E+01  0.21618616937E+02  0.00000000000E+00 0. -1.
        -11    1    4    4    0    0 -0.39502551873E+02  0.59984232286E+02 -0.18185318060E+02  0.74089577676E+02  0.00000000000E+00 0. -1.
         11    1    4    4    0    0 -0.13894907165E+03  0.21081297194E+02 -0.97975152997E+02  0.17131957334E+03  0.00000000000E+00 0.  1.
         21    1    1    2  503  501 -0.60196383422E+01 -0.36386556050E+02 -0.83445827376E+02  0.91232799001E+02  0.00000000000E+00 0.  1.
          1    1    1    2  501    0  0.13518842034E+03 -0.24116029519E+03  0.30227571064E+03  0.40963984451E+03  0.00000000000E+00 0. -1.
<scales pt_clust_5="13000.00000" pt_clust_6="13000.00000" pt_clust_7="13000.00000" pt_clust_8="13000.00000" pt_clust_9="36.88113" pt_clust_10="197.36612"></scales>
<clustering>
<clus scale="   36.881">  2  9  1 -1</clus>
<clus scale="   80.932">  5  6 -1 -1</clus>
<clus scale="   91.191">  7  8 -1 -1</clus>
<clus scale="  202.001">  1  5  2 -1</clus>
<clus scale="  197.366">  2 10  1 -1</clus>
<clus scale="   36.881">  2  5  1 -1</clus>
</clustering>
</event>
<event>
10    4  0.3043429E-005  0.2282399E+03  0.7546771E-02  0.1160378E+00
         21   -1    0    0  501  502  0.00000000000E+00  0.00000000000E+00  0.83920992278E+02  0.83920992278E+02  0.00000000000E+00 0. -1.
          2   -1    0    0  503    0 -0.00000000000E+00 -0.00000000000E+00 -0.13513435385E+04  0.13513435385E+04  0.00000000000E+00 0. -1.
         24    2    1    2    0    0 -0.48219270352E+02 -0.51352249993E+01 -0.41857623197E+03  0.43146613819E+03  0.92765822741E+02 0.  0.
         23    2    1    2    0    0  0.97570285463E+02  0.19271812166E+03 -0.60455677973E+03  0.64845309638E+03  0.91336100601E+02 0.  0.
        -13    1    3    3    0    0  0.27938922310E+02  0.23080503575E+01 -0.12162137653E+03  0.12481053524E+03  0.00000000000E+00 0.  1.
         14    1    3    3    0    0 -0.76158192662E+02 -0.74432753568E+01 -0.29695485543E+03  0.30665560296E+03  0.00000000000E+00 0. -1.
        -13    1    4    4    0    0  0.56891995451E+02  0.33811586656E+02 -0.12222067549E+03  0.13898854649E+03  0.00000000000E+00 0.  1.
         13    1    4    4    0    0  0.40678290012E+02  0.15890653500E+03 -0.48233610424E+03  0.50946454989E+03  0.00000000000E+00 0. -1.
         21    1    1    2  503  502 -0.62668407470E+01  0.32854819281E+02 -0.31821392276E+02  0.46166150471E+02  0.00000000000E+00 0. -1.
          1    1    1    2  501    0 -0.43084174364E+02 -0.22043771594E+03 -0.21246814227E+03  0.30917914575E+03  0.00000000000E+00 0. -1.
<scales pt_clust_5="13000.00000" pt_clust_6="13000.00000" pt_clust_7="13000.00000" pt_clust_8="13000.00000" pt_clust_9="33.44716" pt_clust_10="209.16778"></scales>
<clustering>
<clus scale="   33.447">  1  9  2 -1</clus>
<clus scale="   91.336">  7  8 -1 -1</clus>
<clus scale="   92.766">  5  6 -1 -1</clus>
<clus scale="  104.820">  2  5  1 -1</clus>
<clus scale="  209.168">  1 10  2 -1</clus>
<clus scale="   33.447">  1  5  2 -1</clus>
</clustering>
</event>
<event>
10    4  0.3043429E-005  0.1207480E+03  0.7546771E-02  0.1253819E+00
         21   -1    0    0  501  502  0.00000000000E+00  0.00000000000E+00  0.25220193218E+03  0.25220193218E+03  0.00000000000E+00 0. -1.
          2   -1    0    0  503    0 -0.00000000000E+00 -0.00000000000E+00 -0.44097363144E+03  0.44097363144E+03  0.00000000000E+00 0. -1.
         24    2    1    2    0    0 -0.56642312314E+02  0.72856254151E+01 -0.20371534875E+03  0.22619272173E+03  0.80011075278E+02 0.  0.
         23    2    1    2    0    0 -0.57806973370E+02  0.64885055886E+02 -0.96899933683E+02  0.15853591653E+03  0.90511452513E+02 0.  0.
        -13    1    3    3    0    0 -0.56353699076E+02 -0.22965651523E+02 -0.90882073080E+02  0.10937418231E+03  0.00000000000E+00 0.  1.
         14    1    3    3    0    0 -0.28861323809E+00  0.30251276938E+02 -0.11283327567E+03  0.11681853942E+03  0.00000000000E+00 0. -1.
        -11    1    4    4    0    0  0.24099463116E+01  0.52656403604E+02 -0.12561645705E+02  0.54187633502E+02  0.00000000000E+00 0.  1.
         11    1    4    4    0    0 -0.60216919682E+02  0.12228652282E+02 -0.84338287978E+02  0.10434828303E+03  0.00000000000E+00 0. -1.
         21    1    1    2  503  502  0.30351483077E+02 -0.40536471361E+02  0.18548510809E+03  0.19227361587E+03  0.00000000000E+00 0. -1.
          1    1    1    2  501    0  0.84097802607E+02 -0.31634209940E+02 -0.73641524931E+02  0.11617330948E+03  0.00000000000E+00 0. -1.
<scales pt_clust_5="13000.00000" pt_clust_6="13000.00000" pt_clust_7="13000.00000" pt_clust_8="13000.00000" pt_clust_9="50.64008" pt_clust_10="79.92354"></scales>
<clustering>
<clus scale="   50.640">  1  9  2 -1</clus>
<clus scale="   80.011">  5  6 -1 -1</clus>
<clus scale="   90.511">  7  8 -1 -1</clus>
<clus scale="   95.021">  2  5  1 -1</clus>
<clus scale="   79.924">  1 10  2 -1</clus>
<clus scale="   50.640">  1  5  2 -1</clus>
</clustering>
</event>
<event>
10    4  0.3043429E-005  0.1001193E+03  0.7546771E-02  0.1285464E+00
         21   -1    0    0  501  502  0.00000000000E+00  0.00000000000E+00  0.14224320688E+03  0.14224320688E+03  0.00000000000E+00 0. -1.
          2   -1    0    0  503    0 -0.00000000000E+00 -0.00000000000E+00 -0.65665151861E+03  0.65665151861E+03  0.00000000000E+00 0. -1.
         23    2    1    2    0    0 -0.52123603996E+02 -0.58554295770E+01 -0.47998659978E+03  0.49126378410E+03  0.90563863909E+02 0.  0.
         24    2    1    2    0    0  0.89330605641E+01 -0.46830816346E+02 -0.94484362079E+02  0.13244325788E+03  0.79630377056E+02 0.  0.
        -13    1    4    4    0    0  0.28951791721E+02 -0.83586927641E+01 -0.81926734049E+02  0.87292976468E+02  0.00000000000E+00 0.  1.
         14    1    4    4    0    0 -0.20018731157E+02 -0.38472123582E+02 -0.12557628030E+02  0.45150281415E+02  0.00000000000E+00 0. -1.
        -11    1    3    3    0    0  0.25991558277E+02 -0.37306749706E+01 -0.10643358249E+03  0.10962475322E+03  0.00000000000E+00 0.  1.
         11    1    3    3    0    0 -0.78115162273E+02 -0.21247546064E+01 -0.37355301729E+03  0.38163903088E+03  0.00000000000E+00 0. -1.
         21    1    1    2  503  502  0.20176558171E+02  0.16294535968E+02  0.10781433962E+03  0.11088975259E+03  0.00000000000E+00 0. -1.
          1    1    1    2  501    0  0.23013985261E+02  0.36391709955E+02 -0.47751689486E+02  0.64297930914E+02  0.00000000000E+00 0. -1.
<scales pt_clust_5="13000.00000" pt_clust_6="13000.00000" pt_clust_7="13000.00000" pt_clust_8="13000.00000" pt_clust_9="25.93464" pt_clust_10="49.27935"></scales>
<clustering>
<clus scale="   25.935">  1  9  2 -1</clus>
<clus scale="   49.279">  1 10  2 -1</clus>
<clus scale="   79.630">  5  6 -1 -1</clus>
<clus scale="   90.350">  1  5  2 -1</clus>
<clus scale="   90.564">  7  8 -1 -1</clus>
<clus scale="   25.935">  1  5  2 -1</clus>
</clustering>
</event>
<event>
10    4  0.3043429E-005  0.2024890E+03  0.7546771E-02  0.1159746E+00
         21   -1    0    0  503  502  0.00000000000E+00  0.00000000000E+00  0.19255297569E+03  0.19255297569E+03  0.00000000000E+00 0. -1.
          2   -1    0    0  502    0 -0.00000000000E+00 -0.00000000000E+00 -0.50991356791E+03  0.50991356791E+03  0.00000000000E+00 0. -1.
         24    2    1    2    0    0 -0.12820597308E+03  0.24600571317E+02 -0.23221913144E+03  0.27772723530E+03  0.78515811018E+02 0.  0.
         23    2    1    2    0    0 -0.82535875612E+02 -0.12193390414E+03 -0.64358652406E+02  0.18367036136E+03  0.88953458393E+02 0.  0.
        -13    1    3    3    0    0 -0.36103245736E+02 -0.21942527535E+02 -0.10961212315E+03  0.11747227932E+03  0.00000000000E+00 0.  1.
         14    1    3    3    0    0 -0.92102727347E+02  0.46543098852E+02 -0.12260700829E+03  0.16025495598E+03  0.00000000000E+00 0. -1.
        -11    1    4    4    0    0 -0.78483591271E+02 -0.40398089382E+02 -0.47762596631E+02  0.10036406409E+03  0.00000000000E+00 0.  1.
         11    1    4    4    0    0 -0.40522843414E+01 -0.81535814759E+02 -0.16596055775E+02  0.83306297265E+02  0.00000000000E+00 0. -1.
         21    1    1    2  503  501  0.22641651802E+02  0.17116189036E+02  0.17046151989E+02  0.33108603430E+02  0.00000000000E+00 0. -1.
          1    1    1    2  501    0  0.18810019689E+03  0.80217143788E+02 -0.37828960370E+02  0.20796034351E+03  0.00000000000E+00 0. -1.
<scales pt_clust_5="13000.00000" pt_clust_6="13000.00000" pt_clust_7="13000.00000" pt_clust_8="13000.00000" pt_clust_9="22.95517" pt_clust_10="192.05602"></scales>
<clustering>
<clus scale="   22.955">  9 10 -1 -1</clus>
<clus scale="   78.516">  5  6 -1 -1</clus>
<clus scale="   88.953">  7  8 -1 -1</clus>
<clus scale="  152.337">  2  5  1 -1</clus>
<clus scale="  192.056">  1  9  2 -1</clus>
<clus scale="  192.056">  1  5  2 -1</clus>
</clustering>
</event>
<event>
10    4  0.3043429E-005  0.1008374E+03  0.7546771E-02  0.1283651E+00
          4   -1    0    0  503    0 -0.00000000000E+00  0.00000000000E+00  0.13562464015E+03  0.13562464015E+03  0.00000000000E+00 0. -1.
         21   -1    0    0  501  502  0.00000000000E+00 -0.00000000000E+00 -0.15896190806E+03  0.15896190806E+03  0.00000000000E+00 0. -1.
         24    2    1    2    0    0 -0.38134790805E+02  0.12723816682E+02  0.43573152612E+02  0.10103760744E+03  0.81815772977E+02 0.  0.
         23    2    1    2    0    0  0.27665516268E+02 -0.43630726446E+02 -0.52166821992E+02  0.11780269619E+03  0.92125332191E+02 0.  0.
        -11    1    3    3    0    0  0.23808785692E+02 -0.12365540970E+01  0.25737845674E+02  0.35083101945E+02  0.00000000000E+00 0.  1.
         12    1    3    3    0    0 -0.61943576497E+02  0.13960370779E+02  0.17835306938E+02  0.65954505495E+02  0.00000000000E+00 0. -1.
        -11    1    4    4    0    0  0.35820026525E+02  0.16559069127E+02 -0.39343383794E+02  0.55724132286E+02  0.00000000000E+00 0.  1.
         11    1    4    4    0    0 -0.81545102576E+01 -0.60189795573E+02 -0.12823438198E+02  0.62078563900E+02  0.00000000000E+00 0. -1.
         21    1    1    2  503  502 -0.22395605814E+02 -0.61363679009E+01 -0.12027462390E+02  0.26151061591E+02  0.00000000000E+00 0. -1.
          3    1    1    2  501    0  0.32864880352E+02  0.37043277664E+02 -0.27161361388E+01  0.49595182994E+02  0.00000000000E+00 0. -1.
<scales pt_clust_5="13000.00000" pt_clust_6="13000.00000" pt_clust_7="13000.00000" pt_clust_8="13000.00000" pt_clust_9="23.22107" pt_clust_10="45.94429"></scales>
<clustering>
<clus scale="   23.221">  2  9  1 -1</clus>
<clus scale="   45.944">  2 10  1 -1</clus>
<clus scale="   81.816">  5  6 -1 -1</clus>
<clus scale="   91.515">  1  5  2 -1</clus>
<clus scale="   92.125">  7  8 -1 -1</clus>
<clus scale="   23.221">  2  5  1 -1</clus>
</clustering>
</event>
<event>
10    4  0.3043429E-005  0.1303220E+03  0.7546771E-02  0.1229516E+00
         21   -1    0    0  503  502  0.00000000000E+00  0.00000000000E+00  0.22615042245E+03  0.22615042245E+03  0.00000000000E+00 0.  1.
         -1   -1    0    0    0  501 -0.00000000000E+00 -0.00000000000E+00 -0.42598426849E+03  0.42598426849E+03  0.00000000000E+00 0.  1.
         23    2    1    2    0    0  0.45038775249E+02 -0.12294719464E+03 -0.23652429246E+03  0.28502352766E+03  0.90278272283E+02 0.  0.
         24    2    1    2    0    0 -0.36972783073E+02  0.37529283449E+02 -0.48887703045E+02  0.10780317540E+03  0.80349756152E+02 0.  0.
        -11    1    4    4    0    0 -0.50065380803E+02  0.50108847340E+02 -0.53851952197E+02  0.88980175837E+02  0.00000000000E+00 0.  1.
         12    1    4    4    0    0  0.13092597730E+02 -0.12579563891E+02  0.49642491518E+01  0.18822999566E+02  0.00000000000E+00 0. -1.
        -13    1    3    3    0    0  0.14425995764E+02 -0.69801065556E+02 -0.45903209447E+02  0.84778551202E+02  0.00000000000E+00 0. -1.
         13    1    3    3    0    0  0.30612779485E+02 -0.53146129085E+02 -0.19062108302E+03  0.20024497645E+03  0.00000000000E+00 0.  1.
         21    1    1    2  503  501  0.29833765386E+01  0.21978855228E+02  0.15963595867E+03  0.16116950677E+03  0.00000000000E+00 0.  1.
         -2    1    1    2    0  502 -0.11049368714E+02  0.63439055965E+02 -0.74057809204E+02  0.98138481111E+02  0.00000000000E+00 0.  1.
<scales pt_clust_5="13000.00000" pt_clust_6="13000.00000" pt_clust_7="13000.00000" pt_clust_8="13000.00000" pt_clust_9="22.18041" pt_clust_10="68.27674"></scales>
<clustering>
<clus scale="   22.180">  1  9  2 -1</clus>
<clus scale="   68.277">  1 10  2 -1</clus>
<clus scale="   80.350">  5  6 -1 -1</clus>
<clus scale="   90.278">  7  8 -1 -1</clus>
<clus scale="  123.652">  1  5  2 -1</clus>
<clus scale="   22.180">  1  5  2 -1</clus>
</clustering>
</event>
<event>
10    4  0.3043429E-005  0.1376166E+03  0.7546771E-02  0.1220504E+00
         21   -1    0    0  503  502  0.00000000000E+00  0.00000000000E+00  0.35507681302E+03  0.35507681302E+03  0.00000000000E+00 0.  1.
         -1   -1    0    0    0  501 -0.00000000000E+00 -0.00000000000E+00 -0.50387667390E+03  0.50387667390E+03  0.00000000000E+00 0.  1.
         23    2    1    2    0    0 -0.80761694694E+02 -0.16101169263E+02 -0.14672591931E+03  0.19134476996E+03  0.91118750050E+02 0.  0.
         24    2    1    2    0    0  0.12593843591E+03  0.73893671744E+02 -0.11916053919E+03  0.20232126784E+03  0.73579188357E+02 0.  0.
        -13    1    4    4    0    0  0.80537617041E+02  0.70974268232E+02 -0.11391437494E+03  0.15652520349E+03  0.00000000000E+00 0.  1.
         14    1    4    4    0    0  0.45400818867E+02  0.29194035123E+01 -0.52461642435E+01  0.45796064350E+02  0.00000000000E+00 0. -1.
        -11    1    3    3    0    0 -0.66662386102E+02 -0.48301609559E+02 -0.12608712503E+03  0.15058181266E+03  0.00000000000E+00 0.  1.
         11    1    3    3    0    0 -0.14099308592E+02  0.32200440296E+02 -0.20638794284E+02  0.40762957296E+02  0.00000000000E+00 0. -1.
         21    1    1    2  503  501  0.51811552964E+02 -0.87623905929E+02  0.26615626171E+03  0.28495884187E+03  0.00000000000E+00 0.  1.
         -2    1    1    2    0  502 -0.96988294177E+02  0.29831403447E+02 -0.14906966409E+03  0.18032860725E+03  0.00000000000E+00 0.  1.
<scales pt_clust_5="13000.00000" pt_clust_6="13000.00000" pt_clust_7="13000.00000" pt_clust_8="13000.00000" pt_clust_9="68.88593" pt_clust_10="101.47242"></scales>
<clustering>
<clus scale="   73.579">  5  6 -1 -1</clus>
<clus scale="   91.119">  7  8 -1 -1</clus>
<clus scale="  101.472">  1 10  2 -1</clus>
<clus scale="   68.886">  1  9  2 -1</clus>
<clus scale="  126.687">  1  5  2 -1</clus>
<clus scale="  101.472">  1  5  2 -1</clus>
</clustering>
</event>
<event>
10    4  0.3043429E-005  0.2866790E+03  0.7546771E-02  0.1092619E+00
          2   -1    0    0  503    0 -0.00000000000E+00  0.00000000000E+00  0.15791247354E+04  0.15791247354E+04  0.00000000000E+00 0. -1.
         21   -1    0    0  501  502  0.00000000000E+00 -0.00000000000E+00 -0.15210888220E+03  0.15210888220E+03  0.00000000000E+00 0.  1.
         24    2    1    2    0    0  0.13887290836E+03  0.22852678521E+03  0.13064390030E+04  0.13359885041E+04  0.81069341721E+02 0.  0.
         23    2    1    2    0    0 -0.13900459692E+03 -0.25914507217E+03  0.14807689931E+03  0.34236133547E+03  0.93840660281E+02 0.  0.
        -11    1    3    3    0    0  0.63337952545E+02  0.13606310338E+03  0.89804530086E+03  0.91049998722E+03  0.00000000000E+00 0.  1.
         12    1    3    3    0    0  0.75534955814E+02  0.92463681838E+02  0.40839370215E+03  0.42548851685E+03  0.00000000000E+00 0. -1.
        -11    1    4    4    0    0 -0.94259322699E+02 -0.78866021172E+02  0.56556818224E+02  0.13528984773E+03  0.00000000000E+00 0. -1.
         11    1    4    4    0    0 -0.44745274225E+02 -0.18027905100E+03  0.91520081088E+02  0.20707148774E+03  0.00000000000E+00 0.  1.
         21    1    1    2  503  502  0.16428411535E+02  0.11947180479E+02 -0.10875340045E+02  0.23041285729E+02  0.00000000000E+00 0.  1.
          1    1    1    2  501    0 -0.16296722969E+02  0.18671106478E+02 -0.16624709077E+02  0.29842492332E+02  0.00000000000E+00 0. -1.
<scales pt_clust_5="13000.00000" pt_clust_6="13000.00000" pt_clust_7="13000.00000" pt_clust_8="13000.00000" pt_clust_9="20.31324" pt_clust_10="24.71906"></scales>
<clustering>
<clus scale="   20.313">  2  9  1 -1</clus>
<clus scale="   24.719">  2 10  1 -1</clus>
<clus scale="   81.069">  5  6 -1 -1</clus>
<clus scale="   93.841">  7  8 -1 -1</clus>
<clus scale="  282.756">  1  5  2 -1</clus>
<clus scale="   20.313">  2  5  1 -1</clus>
</clustering>
</event>
<event>
10    4  0.3043429E-005  0.2527706E+03  0.7546771E-02  0.1111566E+00
         -3   -1    0    0    0  501 -0.00000000000E+00  0.00000000000E+00  0.31380710587E+03  0.31380710587E+03  0.00000000000E+00 0.  1.
         21   -1    0    0  503  502  0.00000000000E+00 -0.00000000000E+00 -0.17758410860E+03  0.17758410860E+03  0.00000000000E+00 0.  1.
         24    2    1    2    0    0 -0.99958298667E+02  0.18225405337E+02  0.38749293937E+02  0.13413243871E+03  0.78525005323E+02 0.  0.
         23    2    1    2    0    0 -0.48141537191E+02  0.20340994264E+02 -0.20371295870E+02  0.10932000349E+03  0.93832349525E+02 0.  0.
        -13    1    3    3    0    0 -0.10639197679E+03  0.31558770004E+02  0.24629467788E+02  0.11367418077E+03  0.00000000000E+00 0.  1.
         14    1    3    3    0    0  0.64336781220E+01 -0.13333364667E+02  0.14119826149E+02  0.20458257942E+02  0.00000000000E+00 0. -1.
        -11    1    4    4    0    0 -0.40171084650E+02 -0.21934315025E+02  0.20344635521E+02  0.50087267964E+02  0.00000000000E+00 0. -1.
         11    1    4    4    0    0 -0.79704525407E+01  0.42275309288E+02 -0.40715931392E+02  0.59232735529E+02  0.00000000000E+00 0.  1.
         21    1    1    2  503  501 -0.12069125492E+02  0.33035569605E+02 -0.23830985656E+01  0.35251834109E+02  0.00000000000E+00 0.  1.
         -4    1    1    2    0  502  0.16016896135E+03 -0.71601969205E+02  0.12022809777E+03  0.21268693817E+03  0.00000000000E+00 0.  1.
<scales pt_clust_5="13000.00000" pt_clust_6="13000.00000" pt_clust_7="13000.00000" pt_clust_8="13000.00000" pt_clust_9="35.17119" pt_clust_10="168.47130"></scales>
<clustering>
<clus scale="   35.171">  2  9  1 -1</clus>
<clus scale="   78.525">  5  6 -1 -1</clus>
<clus scale="   93.832">  7  8 -1 -1</clus>
<clus scale="  108.310">  5  7 -1 -1</clus>
<clus scale="  168.471">  2 10  1 -1</clus>
<clus scale="   35.171">  2  5  1 -1</clus>
</clustering>
</event>
<event>
10    4  0.3043429E-005  0.1750549E+03  0.7546771E-02  0.1191041E+00
         21   -1    0    0  501  502  0.00000000000E+00  0.00000000000E+00  0.11614437366E+03  0.11614437366E+03  0.00000000000E+00 0.  1.
          2   -1    0    0  503    0 -0.00000000000E+00 -0.00000000000E+00 -0.55552189223E+03  0.55552189223E+03  0.00000000000E+00 0. -1.
         23    2    1    2    0    0 -0.25228079148E+02 -0.75949645348E+02 -0.72237576856E+02  0.14159492534E+03  0.91793522470E+02 0.  0.
         24    2    1    2    0    0  0.70470279883E+02  0.17005525834E+03 -0.18633155919E+03  0.27354183847E+03  0.78872277793E+02 0.  0.
        -11    1    4    4    0    0  0.11146374526E+02  0.12439908389E+03 -0.10695892777E+03  0.16443717939E+03  0.00000000000E+00 0.  1.
         12    1    4    4    0    0  0.59323905357E+02  0.45656174455E+02 -0.79372631422E+02  0.10910465907E+03  0.00000000000E+00 0. -1.
        -13    1    3    3    0    0  0.11834149475E+02 -0.81740474605E+02 -0.38426713087E+02  0.91094261955E+02  0.00000000000E+00 0. -1.
         13    1    3    3    0    0 -0.37062228623E+02  0.57908292570E+01 -0.33810863769E+02  0.50500663390E+02  0.00000000000E+00 0.  1.
         21    1    1    2  503  502  0.31587070180E+02  0.19321930153E+02 -0.11576040479E+02  0.38795421129E+02  0.00000000000E+00 0.  1.
          1    1    1    2  501    0 -0.76829270915E+02 -0.11342754315E+03 -0.16923234204E+03  0.21773408095E+03  0.00000000000E+00 0. -1.
<scales pt_clust_5="13000.00000" pt_clust_6="13000.00000" pt_clust_7="13000.00000" pt_clust_8="13000.00000" pt_clust_9="37.02810" pt_clust_10="156.27981"></scales>
<clustering>
<clus scale="   37.028">  1  9  2 -1</clus>
<clus scale="   78.872">  5  6 -1 -1</clus>
<clus scale="   91.794">  7  8 -1 -1</clus>
<clus scale="  116.000">  2  7  1 -1</clus>
<clus scale="  156.280">  1 10  2 -1</clus>
<clus scale="   37.028">  1  5  2 -1</clus>
</clustering>
</event>
<event>
10    4  0.3043429E-005  0.3638949E+03  0.7546771E-02  0.1091706E+00
         21   -1    0    0  503  502  0.00000000000E+00  0.00000000000E+00  0.74111224754E+03  0.74111224754E+03  0.00000000000E+00 0. -1.
          2   -1    0    0  502    0 -0.00000000000E+00 -0.00000000000E+00 -0.89934302746E+03  0.89934302746E+03  0.00000000000E+00 0. -1.
         23    2    1    2    0    0  0.14880884349E+02  0.98673175640E+02 -0.12030487284E+03  0.18104566151E+03  0.91358813551E+02 0.  0.
         24    2    1    2    0    0 -0.16613782390E+03 -0.42950554860E+03 -0.51000711904E+03  0.69168337707E+03  0.79005315236E+02 0.  0.
        -13    1    4    4    0    0 -0.62886056236E+02 -0.79041261132E+02 -0.12852134000E+03  0.16346226435E+03  0.00000000000E+00 0.  1.
         14    1    4    4    0    0 -0.10325176766E+03 -0.35046428747E+03 -0.38148577904E+03  0.52822111272E+03  0.00000000000E+00 0. -1.
        -11    1    3    3    0    0 -0.75376147612E+01  0.59497981712E+02 -0.12192864839E+03  0.13588017060E+03  0.00000000000E+00 0.  1.
         11    1    3    3    0    0  0.22418499110E+02  0.39175193928E+02  0.16237755590E+01  0.45165490905E+02  0.00000000000E+00 0. -1.
         21    1    1    2  503  501  0.51675296822E+02  0.64526766303E+02  0.47625879517E+03  0.48338026423E+03  0.00000000000E+00 0. -1.
          1    1    1    2  501    0  0.99581642724E+02  0.26630560666E+03 -0.41775832193E+01  0.28434597220E+03  0.00000000000E+00 0. -1.
<scales pt_clust_5="13000.00000" pt_clust_6="13000.00000" pt_clust_7="13000.00000" pt_clust_8="13000.00000" pt_clust_9="82.66825" pt_clust_10="355.21491"></scales>
<clustering>
<clus scale="   79.005">  5  6 -1 -1</clus>
<clus scale="   82.668">  1  9  2 -1</clus>
<clus scale="   91.359">  7  8 -1 -1</clus>
<clus scale="  141.617">  2  7  1 -1</clus>
<clus scale="  355.215">  1 10  2 -1</clus>
<clus scale="   82.668">  1  5  2 -1</clus>
</clustering>
</event>
<event>
10    4  0.3043429E-005  0.1001083E+04  0.7546771E-02  0.9307357E-01
          2   -1    0    0  503    0 -0.00000000000E+00  0.00000000000E+00  0.42913368966E+03  0.42913368966E+03  0.00000000000E+00 0. -1.
         21   -1    0    0  501  502  0.00000000000E+00 -0.00000000000E+00 -0.24867742712E+04  0.24867742712E+04  0.00000000000E+00 0. -1.
         24    2    1    2    0    0  0.27564246444E+03  0.39754810878E+03 -0.47004241141E+03  0.67861442929E+03  0.74527901680E+02 0.  0.
         23    2    1    2    0    0  0.15934174238E+03  0.40084519515E+03 -0.10759624874E+04  0.11639199197E+04  0.10463098948E+03 0.  0.
        -13    1    3    3    0    0  0.87253658561E+02  0.87506752962E+02 -0.87607864423E+02  0.15147861451E+03  0.00000000000E+00 0.  1.
         14    1    3    3    0    0  0.18838880587E+03  0.31004135582E+03 -0.38243454698E+03  0.52713581478E+03  0.00000000000E+00 0. -1.
        -11    1    4    4    0    0  0.12000552261E+02  0.15689569980E+03 -0.33777301518E+03  0.37262700339E+03  0.00000000000E+00 0.  1.
         11    1    4    4    0    0  0.14734119012E+03  0.24394949535E+03 -0.73818947221E+03  0.79129291635E+03  0.00000000000E+00 0. -1.
         21    1    1    2  503  502  0.24716033155E+02 -0.16220750888E+02 -0.43125949314E+02  0.52286160297E+02  0.00000000000E+00 0. -1.
          1    1    1    2  501    0 -0.45970023997E+03 -0.78217255304E+03 -0.46850973344E+03  0.10210874515E+04  0.00000000000E+00 0. -1.
<scales pt_clust_5="13000.00000" pt_clust_6="13000.00000" pt_clust_7="13000.00000" pt_clust_8="13000.00000" pt_clust_9="29.56341" pt_clust_10="907.74998"></scales>
<clustering>
<clus scale="   29.563">  2  9  1 -1</clus>
<clus scale="   74.528">  5  6 -1 -1</clus>
<clus scale="  104.631">  7  8 -1 -1</clus>
<clus scale="  374.325">  5  7 -1 -1</clus>
<clus scale="  907.750">  2 10  1 -1</clus>
<clus scale="   29.563">  2  5  1 -1</clus>
</clustering>
</event>
<event>
10    4  0.3043429E-005  0.1658758E+03  0.7546771E-02  0.1184427E+00
          2   -1    0    0  503    0 -0.00000000000E+00  0.00000000000E+00  0.41094833240E+03  0.41094833240E+03  0.00000000000E+00 0. -1.
         21   -1    0    0  501  502  0.00000000000E+00 -0.00000000000E+00 -0.47412861274E+03  0.47412861274E+03  0.00000000000E+00 0.  1.
         23    2    1    2    0    0 -0.97268473590E+02 -0.91281896040E+02  0.16411210102E+03  0.23186314851E+03  0.95048395238E+02 0.  0.
         24    2    1    2    0    0  0.82320130142E+02  0.11405406859E+03  0.10636512940E+03  0.19376657318E+03  0.80293273312E+02 0.  0.
        -13    1    4    4    0    0  0.55871922205E+02  0.15429832331E+02  0.24655530864E+02  0.62989257964E+02  0.00000000000E+00 0.  1.
         14    1    4    4    0    0  0.26448207937E+02  0.98624236262E+02  0.81709598540E+02  0.13077731521E+03  0.00000000000E+00 0. -1.
        -11    1    3    3    0    0 -0.12814249788E+02  0.20161995404E+02  0.21557179619E+02  0.32177990140E+02  0.00000000000E+00 0.  1.
         11    1    3    3    0    0 -0.84454223802E+02 -0.11144389144E+03  0.14255492141E+03  0.19968515837E+03  0.00000000000E+00 0. -1.
         21    1    1    2  503  502  0.52858598658E+02  0.17309064516E+02 -0.38204004095E+03  0.38606764699E+03  0.00000000000E+00 0.  1.
          1    1    1    2  501    0 -0.37910255210E+02 -0.40081237069E+02  0.48382530175E+02  0.73379576459E+02  0.00000000000E+00 0. -1.
<scales pt_clust_5="13000.00000" pt_clust_6="13000.00000" pt_clust_7="13000.00000" pt_clust_8="13000.00000" pt_clust_9="26.67726" pt_clust_10="55.16970"></scales>
<clustering>
<clus scale="   55.170">  2 10  1 -1</clus>
<clus scale="   26.677">  2  9  1 -1</clus>
<clus scale="   80.293">  5  6 -1 -1</clus>
<clus scale="   95.048">  7  8 -1 -1</clus>
<clus scale="  157.885">  2  5  1 -1</clus>
<clus scale="   55.170">  2  5  1 -1</clus>
</clustering>
</event>
<event>
10    4  0.3043429E-005  0.1384609E+03  0.7546771E-02  0.1233284E+00
          2   -1    0    0  503    0 -0.00000000000E+00  0.00000000000E+00  0.24544600931E+03  0.24544600931E+03  0.00000000000E+00 0. -1.
         21   -1    0    0  501  502  0.00000000000E+00 -0.00000000000E+00 -0.21004119024E+03  0.21004119024E+03  0.00000000000E+00 0.  1.
         24    2    1    2    0    0 -0.33762421257E+02 -0.74858353272E+02 -0.20101015037E+02  0.10779416031E+03  0.66871937667E+02 0.  0.
         23    2    1    2    0    0  0.11102245938E+03  0.42925830904E+02  0.86017471500E+02  0.17250322241E+03  0.90497198253E+02 0.  0.
        -13    1    3    3    0    0  0.68141989156E+01 -0.62107370014E+02 -0.18777171246E+02  0.65240638232E+02  0.00000000000E+00 0.  1.
         14    1    3    3    0    0 -0.40576620173E+02 -0.12750983258E+02 -0.13238437903E+01  0.42553522076E+02  0.00000000000E+00 0. -1.
        -13    1    4    4    0    0  0.71614254930E+02  0.70934503567E+02  0.52293329231E+02  0.11355570258E+03  0.00000000000E+00 0.  1.
         13    1    4    4    0    0  0.39408204449E+02 -0.28008672663E+02  0.33724142270E+02  0.58947519829E+02  0.00000000000E+00 0. -1.
         21    1    1    2  503  502  0.30173848864E+02  0.23954606311E+02 -0.52618810327E+02  0.65215209261E+02  0.00000000000E+00 0.  1.
          1    1    1    2  501    0 -0.10743388699E+03  0.79779160560E+01  0.22107172933E+02  0.10997460758E+03  0.00000000000E+00 0. -1.
<scales pt_clust_5="13000.00000" pt_clust_6="13000.00000" pt_clust_7="13000.00000" pt_clust_8="13000.00000" pt_clust_9="38.52641" pt_clust_10="104.79354"></scales>
<clustering>
<clus scale="   38.526">  2  9  1 -1</clus>
<clus scale="   66.872">  5  6 -1 -1</clus>
<clus scale="   90.497">  7  8 -1 -1</clus>
<clus scale="   95.402">  1  5  2 -1</clus>
<clus scale="  104.794">  2 10  1 -1</clus>
<clus scale="   38.526">  2  5  1 -1</clus>
</clustering>
</event>
<event>
10    4  0.3043429E-005  0.1270861E+03  0.7546771E-02  0.1235347E+00
          2   -1    0    0  502    0 -0.00000000000E+00  0.00000000000E+00  0.63061099546E+03  0.63061099546E+03  0.00000000000E+00 0. -1.
         21   -1    0    0  503  502  0.00000000000E+00 -0.00000000000E+00 -0.59284712739E+02  0.59284712739E+02  0.00000000000E+00 0. -1.
         23    2    1    2    0    0  0.65053930678E+02  0.80835215716E+02  0.28170356173E+03  0.31414345447E+03  0.92535762268E+02 0.  0.
         24    2    1    2    0    0 -0.13186501085E+02 -0.56085631846E+02  0.40323707146E+02  0.10651359685E+03  0.79997894009E+02 0.  0.
        -13    1    4    4    0    0 -0.21135307732E+02  0.11179683645E+02 -0.57547006539E+01  0.24592745657E+02  0.00000000000E+00 0.  1.
         14    1    4    4    0    0  0.79488066471E+01 -0.67265315490E+02  0.46078407800E+02  0.81920851195E+02  0.00000000000E+00 0. -1.
        -11    1    3    3    0    0  0.23365410721E+02  0.72828376808E+02  0.91482760103E+02  0.11924349157E+03  0.00000000000E+00 0.  1.
         11    1    3    3    0    0  0.41688519957E+02  0.80068389083E+01  0.19022080162E+03  0.19489996289E+03  0.00000000000E+00 0. -1.
         21    1    1    2  503  501  0.17578532462E+02  0.10264359633E+02  0.27607306031E+02  0.34300513530E+02  0.00000000000E+00 0.  1.
          1    1    1    2  501    0 -0.69445962055E+02 -0.35013943503E+02  0.22169170782E+03  0.23493814335E+03  0.00000000000E+00 0. -1.
<scales pt_clust_5="13000.00000" pt_clust_6="13000.00000" pt_clust_7="13000.00000" pt_clust_8="13000.00000" pt_clust_9="20.35588" pt_clust_10="75.36806"></scales>
<clustering>
<clus scale="   20.356">  2  9  1 -1</clus>
<clus scale="   75.368">  2 10  1 -1</clus>
<clus scale="   79.998">  5  6 -1 -1</clus>
<clus scale="   92.536">  7  8 -1 -1</clus>
<clus scale="  118.270">  2  5  1 -1</clus>
<clus scale="   20.356">  2  5  1 -1</clus>
</clustering>
</event>
<event>
10    4  0.3043429E-005  0.9619141E+02  0.7546771E-02  0.1294909E+00
         21   -1    0    0  501  502  0.00000000000E+00  0.00000000000E+00  0.13064373109E+03  0.13064373109E+03  0.00000000000E+00 0. -1.
          2   -1    0    0  503    0 -0.00000000000E+00 -0.00000000000E+00 -0.21107559017E+03  0.21107559017E+03  0.00000000000E+00 0. -1.
         24    2    1    2    0    0  0.28451284449E+02 -0.34149200676E+01 -0.12957433409E+03  0.15417128613E+03  0.78473818204E+02 0.  0.
         23    2    1    2    0    0 -0.53226082140E+02 -0.20549638225E+02 -0.12741563179E+02  0.10743299733E+03  0.90134333258E+02 0.  0.
        -11    1    3    3    0    0 -0.13344546391E+02  0.17655920754E+02 -0.90595800496E+02  0.93259892363E+02  0.00000000000E+00 0.  1.
         12    1    3    3    0    0  0.41795830840E+02 -0.21070840822E+02 -0.38978533598E+02  0.60911393762E+02  0.00000000000E+00 0. -1.
        -13    1    4    4    0    0  0.73770732778E+01  0.25128785292E+02 -0.17331144943E+02  0.31404548165E+02  0.00000000000E+00 0.  1.
         13    1    4    4    0    0 -0.60603155418E+02 -0.45678423518E+02  0.45895817638E+01  0.76028449165E+02  0.00000000000E+00 0. -1.
         21    1    1    2  503  502  0.25117810538E+02  0.38050449093E+01  0.51524331426E+02  0.57446840660E+02  0.00000000000E+00 0. -1.
          1    1    1    2  501    0 -0.34301284711E+00  0.20159513384E+02  0.10359706758E+02  0.22668197145E+02  0.00000000000E+00 0. -1.
<scales pt_clust_5="13000.00000" pt_clust_6="13000.00000" pt_clust_7="13000.00000" pt_clust_8="13000.00000" pt_clust_9="28.33811" pt_clust_10="20.16243"></scales>
<clustering>
<clus scale="   20.162">  1 10  2 -1</clus>
<clus scale="   28.338">  1  9  2 -1</clus>
<clus scale="   78.474">  5  6 -1 -1</clus>
<clus scale="   85.362">  2  5  1 -1</clus>
<clus scale="   90.134">  7  8 -1 -1</clus>
<clus scale="   20.162">  1  5  2 -1</clus>
</clustering>
</event>
<event>
10    4  0.3043429E-005  0.9608306E+02  0.7546771E-02  0.1298324E+00
          2   -1    0    0  502    0 -0.00000000000E+00  0.00000000000E+00  0.56689266301E+03  0.56689266301E+03  0.00000000000E+00 0. -1.
         21   -1    0    0  503  502  0.00000000000E+00 -0.00000000000E+00 -0.16018748642E+03  0.16018748642E+03  0.00000000000E+00 0. -1.
         24    2    1    2    0    0  0.21687113586E+01 -0.12389857168E+01  0.20070865330E+03  0.21619959523E+03  0.80324735123E+02 0.  0.
         23    2    1    2    0    0  0.46161142536E+02 -0.35256090503E+02 -0.27570605978E+02  0.11555959716E+03  0.96021035110E+02 0.  0.
        -13    1    3    3    0    0  0.39425997211E+02  0.10812182116E+02  0.11219375829E+03  0.11941001607E+03  0.00000000000E+00 0.  1.
         14    1    3    3    0    0 -0.37257285852E+02 -0.12051167833E+02  0.88514895008E+02  0.96789579157E+02  0.00000000000E+00 0. -1.
        -13    1    4    4    0    0 -0.21836009821E+02  0.10888596843E+01  0.15913701622E+02  0.27041502170E+02  0.00000000000E+00 0.  1.
         13    1    4    4    0    0  0.67997152357E+02 -0.36344950187E+02 -0.43484307601E+02  0.88518094988E+02  0.00000000000E+00 0. -1.
         21    1    1    2  503  501 -0.20116063417E+02 -0.32589778037E+02 -0.71580046238E+02  0.81181602962E+02  0.00000000000E+00 0. -1.
          1    1    1    2  501    0 -0.28213790477E+02  0.69084854257E+02  0.30514717551E+03  0.31413935408E+03  0.00000000000E+00 0. -1.
<scales pt_clust_5="13000.00000" pt_clust_6="13000.00000" pt_clust_7="13000.00000" pt_clust_8="13000.00000" pt_clust_9="38.29817" pt_clust_10="73.43217"></scales>
<clustering>
<clus scale="   38.298">  2  9  1 -1</clus>
<clus scale="   73.432">  2 10  1 -1</clus>
<clus scale="   80.325">  5  6 -1 -1</clus>
<clus scale="   80.399">  1  5  2 -1</clus>
<clus scale="   96.021">  7  8 -1 -1</clus>
<clus scale="   38.298">  2  5  1 -1</clus>
</clustering>
</event>
<event>
10    4  0.3043429E-005  0.2432377E+03  0.7546771E-02  0.1128250E+00
          2   -1    0    0  502    0 -0.00000000000E+00  0.00000000000E+00  0.95530095465E+03  0.95530095465E+03  0.00000000000E+00 0. -1.
         21   -1    0    0  503  502  0.00000000000E+00 -0.00000000000E+00 -0.14683843464E+03  0.14683843464E+03  0.00000000000E+00 0. -1.
         24    2    1    2    0    0 -0.16844508938E+03 -0.85301469826E+00  0.16427792562E+03  0.24882184096E+03  0.80935751798E+02 0.  0.
         23    2    1    2    0    0  0.15462980507E+03 -0.21745393719E+03  0.49441786767E+03  0.56929325480E+03  0.91919479328E+02 0.  0.
        -13    1    3    3    0    0 -0.12518964538E+03 -0.15024841416E+02  0.15910819921E+03  0.20301135985E+03  0.00000000000E+00 0.  1.
         14    1    3    3    0    0 -0.43255444004E+02  0.14171826718E+02  0.51697264104E+01  0.45810481112E+02  0.00000000000E+00 0. -1.
        -11    1    4    4    0    0  0.10339757685E+03 -0.18507305909E+03  0.31314789816E+03  0.37815962532E+03  0.00000000000E+00 0. -1.
         11    1    4    4    0    0  0.51232228221E+02 -0.32380878105E+02  0.18126996951E+03  0.19113362949E+03  0.00000000000E+00 0.  1.
         21    1    1    2  503  501  0.55519862860E+02  0.14422311678E+03  0.79844859056E+02  0.17394816499E+03  0.00000000000E+00 0. -1.
          1    1    1    2  501    0 -0.41704578543E+02  0.74083835106E+02  0.69921867661E+02  0.11007612853E+03  0.00000000000E+00 0. -1.
<scales pt_clust_5="13000.00000" pt_clust_6="13000.00000" pt_clust_7="13000.00000" pt_clust_8="13000.00000" pt_clust_9="75.60597" pt_clust_10="75.60597"></scales>
<clustering>
<clus scale="   75.606">  9 10 -1 -1</clus>
<clus scale="   80.936">  5  6 -1 -1</clus>
<clus scale="   91.919">  7  8 -1 -1</clus>
<clus scale="  186.883">  1  5  2 -1</clus>
<clus scale="  239.213">  1  7  2 -1</clus>
<clus scale="  243.238">  2  5  1 -1</clus>
</clustering>
</event>
<event>
10    4  0.3043429E-005  0.1014700E+03  0.7546771E-02  0.1287170E+00
         21   -1    0    0  501  502  0.00000000000E+00  0.00000000000E+00  0.31661448759E+03  0.31661448759E+03  0.00000000000E+00 0. -1.
          2   -1    0    0  503    0 -0.00000000000E+00 -0.00000000000E+00 -0.18795562578E+03  0.18795562578E+03  0.00000000000E+00 0. -1.
         24    2    1    2    0    0 -0.35536577088E+02  0.93963263100E+01 -0.10139921121E+03  0.13505738427E+03  0.81286885487E+02 0.  0.
         23    2    1    2    0    0 -0.21283111400E+02 -0.29235185058E+01 -0.13368414551E+02  0.10237432560E+03  0.99198136290E+02 0.  0.
        -13    1    3    3    0    0  0.24462113837E+02  0.15125294544E+02 -0.28823272880E+02  0.40717939633E+02  0.00000000000E+00 0.  1.
         14    1    3    3    0    0 -0.59998690925E+02 -0.57289682340E+01 -0.72575938331E+02  0.94339444636E+02  0.00000000000E+00 0. -1.
        -13    1    4    4    0    0 -0.11862412082E+02 -0.33739718259E+02  0.31142743038E+02  0.47423157344E+02  0.00000000000E+00 0.  1.
         13    1    4    4    0    0 -0.94206993182E+01  0.30816199753E+02 -0.44511157589E+02  0.54951168257E+02  0.00000000000E+00 0. -1.
         21    1    1    2  503  502 -0.52902422916E+01 -0.33684487575E+02  0.13511914313E+03  0.13935499348E+03  0.00000000000E+00 0.  1.
          1    1    1    2  501    0  0.62109930780E+02  0.27211679771E+02  0.10830734444E+03  0.12778341003E+03  0.00000000000E+00 0. -1.
<scales pt_clust_5="13000.00000" pt_clust_6="13000.00000" pt_clust_7="13000.00000" pt_clust_8="13000.00000" pt_clust_9="34.09738" pt_clust_10="58.84512"></scales>
<clustering>
<clus scale="   34.097">  1  9  2 -1</clus>
<clus scale="   58.845">  1 10  2 -1</clus>
<clus scale="   81.287">  5  6 -1 -1</clus>
<clus scale="   84.044">  2  5  1 -1</clus>
<clus scale="   99.198">  7  8 -1 -1</clus>
<clus scale="   34.097">  1  5  2 -1</clus>
</clustering>
</event>
<event>
10    4  0.3043429E-005  0.2059986E+03  0.7546771E-02  0.1146191E+00
         21   -1    0    0  501  502  0.00000000000E+00  0.00000000000E+00  0.60470982703E+02  0.60470982703E+02  0.00000000000E+00 0.  1.
          2   -1    0    0  503    0 -0.00000000000E+00 -0.00000000000E+00 -0.14288822803E+04  0.14288822803E+04  0.00000000000E+00 0. -1.
         24    2    1    2    0    0  0.17975043449E+03  0.38826637722E+02 -0.89139931016E+03  0.91324219163E+03  0.74838786167E+02 0.  0.
         23    2    1    2    0    0 -0.17629363017E+03 -0.61744131087E+02 -0.47862756869E+03  0.52187466378E+03  0.91526135208E+02 0.  0.
        -13    1    3    3    0    0  0.14029057948E+03  0.25657512829E+02 -0.80271621959E+03  0.81528711743E+03  0.00000000000E+00 0.  1.
         14    1    3    3    0    0  0.39459855003E+02  0.13169124893E+02 -0.88683090577E+02  0.97955074200E+02  0.00000000000E+00 0. -1.
        -13    1    4    4    0    0 -0.36880595735E+02  0.91094546444E+01 -0.35626013592E+02  0.52080450748E+02  0.00000000000E+00 0.  1.
         13    1    4    4    0    0 -0.13941303443E+03 -0.70853585732E+02 -0.44300155510E+03  0.46979421303E+03  0.00000000000E+00 0. -1.
         21    1    1    2  503  502  0.20966397310E+02  0.60269384860E+00 -0.13689788211E+01  0.21019685037E+02  0.00000000000E+00 0. -1.
          1    1    1    2  501    0 -0.24423201631E+02  0.22314799516E+02  0.29845601205E+01  0.33216722513E+02  0.00000000000E+00 0. -1.
<scales pt_clust_5="13000.00000" pt_clust_6="13000.00000" pt_clust_7="13000.00000" pt_clust_8="13000.00000" pt_clust_9="20.97506" pt_clust_10="28.18209"></scales>
<clustering>
<clus scale="   20.975">  1  9  2 -1</clus>
<clus scale="   28.182">  1 10  2 -1</clus>
<clus scale="   74.839">  5  6 -1 -1</clus>
<clus scale="   91.526">  7  8 -1 -1</clus>
<clus scale="  199.146">  2  5  1 -1</clus>
<clus scale="   20.975">  1  5  2 -1</clus>
</clustering>
</event>
<event>
10    4  0.3043429E-005  0.1313266E+03  0.7546771E-02  0.1228544E+00
         21   -1    0    0  501  502  0.00000000000E+00  0.00000000000E+00  0.18201130646E+03  0.18201130646E+03  0.00000000000E+00 0.  1.
          2   -1    0    0  503    0 -0.00000000000E+00 -0.00000000000E+00 -0.52870245435E+03  0.52870245435E+03  0.00000000000E+00 0. -1.
         24    2    1    2    0    0 -0.38325751868E+02  0.79308585824E+02 -0.28767286184E+03  0.31081742733E+03  0.78058200415E+02 0.  0.
         23    2    1    2    0    0 -0.51273395675E+02 -0.15339761480E+03 -0.11456153719E+03  0.21777044234E+03  0.90221008777E+02 0.  0.
        -13    1    3    3    0    0 -0.53084795494E+02  0.59654826249E+02 -0.26704864632E+03  0.27873226098E+03  0.00000000000E+00 0.  1.
         14    1    3    3    0    0  0.14759043626E+02  0.19653759575E+02 -0.20624215517E+02  0.32085166352E+02  0.00000000000E+00 0. -1.
        -11    1    4    4    0    0 -0.76968427574E+02 -0.10946788083E+03 -0.89942754907E+02  0.16123602245E+03  0.00000000000E+00 0.  1.
         11    1    4    4    0    0  0.25695031899E+02 -0.43929733976E+02 -0.24618782281E+02  0.56534419892E+02  0.00000000000E+00 0. -1.
         21    1    1    2  503  502 -0.59059225677E+01  0.69549336666E+02  0.50923681090E+02  0.86401455126E+02  0.00000000000E+00 0.  1.
          1    1    1    2  501    0  0.95505070111E+02  0.45396923137E+01  0.46195700451E+01  0.95724436016E+02  0.00000000000E+00 0. -1.
<scales pt_clust_5="13000.00000" pt_clust_6="13000.00000" pt_clust_7="13000.00000" pt_clust_8="13000.00000" pt_clust_9="69.79964" pt_clust_10="99.38082"></scales>
<clustering>
<clus scale="   69.800">  1  9  2 -1</clus>
<clus scale="   78.058">  5  6 -1 -1</clus>
<clus scale="   90.221">  7  8 -1 -1</clus>
<clus scale="   99.381">  1 10  2 -1</clus>
<clus scale="  123.288">  2  5  1 -1</clus>
<clus scale="   69.800">  1  5  2 -1</clus>
</clustering>
</event>
<event>
10    4  0.3043429E-005  0.1873952E+03  0.7546771E-02  0.1163337E+00
         21   -1    0    0  503  502  0.00000000000E+00  0.00000000000E+00  0.10953249678E+03  0.10953249678E+03  0.00000000000E+00 0. -1.
          2   -1    0    0  502    0 -0.00000000000E+00 -0.00000000000E+00 -0.86691238360E+03  0.86691238360E+03  0.00000000000E+00 0. -1.
         24    2    1    2    0    0  0.17089048894E+03  0.70722696922E+02 -0.57518710006E+03  0.60838751869E+03  0.71343631557E+02 0.  0.
         23    2    1    2    0    0 -0.94388781791E+02 -0.90261802479E+02 -0.21564983951E+03  0.26926480869E+03  0.94563464414E+02 0.  0.
        -13    1    3    3    0    0  0.60102263949E+02  0.44945140824E+02 -0.14318199163E+03  0.16165837604E+03  0.00000000000E+00 0.  1.
         14    1    3    3    0    0  0.11078822499E+03  0.25777556098E+02 -0.43200510843E+03  0.44672914266E+03  0.00000000000E+00 0. -1.
        -13    1    4    4    0    0 -0.99421675062E+02 -0.35095047760E+02 -0.15033560366E+03  0.18362223606E+03  0.00000000000E+00 0.  1.
         13    1    4    4    0    0  0.50328932704E+01 -0.55166754719E+02 -0.65314235852E+02  0.85642572625E+02  0.00000000000E+00 0. -1.
         21    1    1    2  503  501 -0.30751479870E+02  0.30250670551E+02  0.39693589282E+01  0.43318730283E+02  0.00000000000E+00 0. -1.
          1    1    1    2  501    0 -0.45750227274E+02 -0.10711564994E+02  0.29487693813E+02  0.55473822715E+02  0.00000000000E+00 0. -1.
<scales pt_clust_5="13000.00000" pt_clust_6="13000.00000" pt_clust_7="13000.00000" pt_clust_8="13000.00000" pt_clust_9="43.13649" pt_clust_10="61.10804"></scales>
<clustering>
<clus scale="   43.136">  1  9  2 -1</clus>
<clus scale="   61.108">  1 10  2 -1</clus>
<clus scale="   71.344">  5  6 -1 -1</clus>
<clus scale="   94.563">  7  8 -1 -1</clus>
<clus scale="  176.818">  2  5  1 -1</clus>
<clus scale="   43.136">  1  5  2 -1</clus>
</clustering>
</event>
<event>
10    4  0.3043429E-005  0.9841137E+02  0.7546771E-02  0.1284893E+00
          4   -1    0    0  503    0 -0.00000000000E+00  0.00000000000E+00  0.18502490585E+03  0.18502490585E+03  0.00000000000E+00 0. -1.
         21   -1    0    0  501  502  0.00000000000E+00 -0.00000000000E+00 -0.21547238716E+03  0.21547238716E+03  0.00000000000E+00 0. -1.
         24    2    1    2    0    0  0.19237860322E+02  0.55047296536E+02  0.65672476605E+02  0.12626104444E+03  0.90712055615E+02 0.  0.
         23    2    1    2    0    0  0.43323350762E+02  0.21668422340E+02 -0.31023158119E+02  0.10942666853E+03  0.93087733876E+02 0.  0.
        -11    1    3    3    0    0 -0.32717682372E+01  0.75559033596E+02  0.36070406478E+02  0.83791086930E+02  0.00000000000E+00 0.  1.
         12    1    3    3    0    0  0.22509628560E+02 -0.20511737060E+02  0.29602070127E+02  0.42469957510E+02  0.00000000000E+00 0. -1.
        -11    1    4    4    0    0 -0.24453369093E+02  0.12899698776E+02  0.10368701767E+02  0.29527605132E+02  0.00000000000E+00 0.  1.
         11    1    4    4    0    0  0.67776719855E+02  0.87687235643E+01 -0.41391859886E+02  0.79899063399E+02  0.00000000000E+00 0. -1.
         21    1    1    2  503  502  0.23953593945E+02 -0.22395251029E+01 -0.41907926507E+02  0.48322504485E+02  0.00000000000E+00 0. -1.
          3    1    1    2  501    0 -0.86514805030E+02 -0.74476193773E+02 -0.23188873289E+02  0.11648707556E+03  0.00000000000E+00 0. -1.
<scales pt_clust_5="13000.00000" pt_clust_6="13000.00000" pt_clust_7="13000.00000" pt_clust_8="13000.00000" pt_clust_9="24.05806" pt_clust_10="107.54732"></scales>
<clustering>
<clus scale="   24.058">  2  9  1 -1</clus>
<clus scale="   90.712">  5  6 -1 -1</clus>
<clus scale="   93.088">  7  8 -1 -1</clus>
<clus scale="  107.547">  2 10  1 -1</clus>
<clus scale="   96.167">  1  5  2 -1</clus>
<clus scale="   24.058">  2  5  1 -1</clus>
</clustering>
</event>
<event>
10    4  0.3043429E-005  0.1163136E+03  0.7546771E-02  0.1253470E+00
         21   -1    0    0  503  502  0.00000000000E+00  0.00000000000E+00  0.29219419063E+03  0.29219419063E+03  0.00000000000E+00 0. -1.
          2   -1    0    0  502    0 -0.00000000000E+00 -0.00000000000E+00 -0.10318698509E+03  0.10318698509E+03  0.00000000000E+00 0. -1.
         23    2    1    2    0    0  0.43388901712E+02  0.61387814644E+02 -0.32222121395E+02  0.12270352082E+03  0.91470368615E+02 0.  0.
         24    2    1    2    0    0 -0.19732431125E+02 -0.59247040937E+02  0.14112189602E+03  0.17352918133E+03  0.79356200384E+02 0.  0.
        -13    1    4    4    0    0 -0.43545332934E+02 -0.13684822106E+02  0.42772537387E+02  0.62553659613E+02  0.00000000000E+00 0.  1.
         14    1    4    4    0    0  0.23812901809E+02 -0.45562218831E+02  0.98349358630E+02  0.11097552172E+03  0.00000000000E+00 0. -1.
        -11    1    3    3    0    0 -0.14937286088E+02  0.34928693817E+02  0.17301425109E+02  0.41742969207E+02  0.00000000000E+00 0.  1.
         11    1    3    3    0    0  0.58326187800E+02  0.26459120827E+02 -0.49523546504E+02  0.80960551608E+02  0.00000000000E+00 0. -1.
         21    1    1    2  503  501  0.47973822980E+01 -0.21843259254E+02  0.42597256667E+02  0.48111008379E+02  0.00000000000E+00 0.  1.
          1    1    1    2  501    0 -0.28453852885E+02  0.19702485547E+02  0.37510174258E+02  0.51037465196E+02  0.00000000000E+00 0. -1.
<scales pt_clust_5="13000.00000" pt_clust_6="13000.00000" pt_clust_7="13000.00000" pt_clust_8="13000.00000" pt_clust_9="22.36387" pt_clust_10="31.78914"></scales>
<clustering>
<clus scale="   22.364">  1  9  2 -1</clus>
<clus scale="   31.789">  1 10  2 -1</clus>
<clus scale="   79.356">  5  6 -1 -1</clus>
<clus scale="   91.470">  7  8 -1 -1</clus>
<clus scale="  107.049">  1  5  2 -1</clus>
<clus scale="   22.364">  1  5  2 -1</clus>
</clustering>
</event>
<event>
10    4  0.3043429E-005  0.2260943E+03  0.7546771E-02  0.1155141E+00
         21   -1    0    0  501  502  0.00000000000E+00  0.00000000000E+00  0.86391440663E+03  0.86391440663E+03  0.00000000000E+00 0. -1.
          2   -1    0    0  503    0 -0.00000000000E+00 -0.00000000000E+00 -0.17553505237E+03  0.17553505237E+03  0.00000000000E+00 0. -1.
         24    2    1    2    0    0 -0.82685067774E+02  0.35891290620E+02  0.30479552234E+02  0.12479701230E+03  0.80748287904E+02 0.  0.
         23    2    1    2    0    0  0.15621274222E+03 -0.22407869412E+03  0.11737771652E+03  0.31942656413E+03  0.11679948434E+03 0.  0.
        -13    1    3    3    0    0 -0.92828380929E+02  0.30402287792E+02  0.61515401056E+01  0.97873637179E+02  0.00000000000E+00 0.  1.
         14    1    3    3    0    0  0.10143313155E+02  0.54890028286E+01  0.24328012128E+02  0.26923375121E+02  0.00000000000E+00 0. -1.
        -11    1    4    4    0    0  0.61300349730E+01 -0.43815414430E+02  0.65750312450E+02  0.79249425599E+02  0.00000000000E+00 0.  1.
         11    1    4    4    0    0  0.15008270725E+03 -0.18026327969E+03  0.51627404066E+02  0.24017713853E+03  0.00000000000E+00 0. -1.
         21    1    1    2  503  502 -0.10731815038E+03  0.98344798264E+02  0.39432272108E+03  0.42033236029E+03  0.00000000000E+00 0. -1.
          1    1    1    2  501    0  0.33790475930E+02  0.89842605237E+02  0.14619936443E+03  0.17489352229E+03  0.00000000000E+00 0. -1.
<scales pt_clust_5="13000.00000" pt_clust_6="13000.00000" pt_clust_7="13000.00000" pt_clust_8="13000.00000" pt_clust_9="193.58852" pt_clust_10="95.98693"></scales>
<clustering>
<clus scale="   80.748">  5  6 -1 -1</clus>
<clus scale="   95.987">  1 10  2 -1</clus>
<clus scale="  116.799">  7  8 -1 -1</clus>
<clus scale="  121.871">  2  5  1 -1</clus>
<clus scale="  193.589">  1  9  2 -1</clus>
<clus scale="   95.987">  1  5  2 -1</clus>
</clustering>
</event>
<event>
10    4  0.3043429E-005  0.1441654E+03  0.7546771E-02  0.1230844E+00
         21   -1    0    0  501  502  0.00000000000E+00  0.00000000000E+00  0.28089299126E+03  0.28089299126E+03  0.00000000000E+00 0.  1.
         -1   -1    0    0    0  501 -0.00000000000E+00 -0.00000000000E+00 -0.12049117369E+04  0.12049117369E+04  0.00000000000E+00 0.  1.
         24    2    1    2    0    0 -0.47070140858E+02  0.81614714914E+01 -0.30123095994E+03  0.31498494687E+03  0.78696999651E+02 0.  0.
         23    2    1    2    0    0 -0.32854022727E+02 -0.11170540367E+03 -0.78288251243E+03  0.79656679228E+03  0.89756015301E+02 0.  0.
        -13    1    3    3    0    0  0.17162706157E+02  0.20410951742E+02 -0.88592007556E+02  0.92518696686E+02  0.00000000000E+00 0.  1.
         14    1    3    3    0    0 -0.64232847015E+02 -0.12249480251E+02 -0.21263895238E+03  0.22246625019E+03  0.00000000000E+00 0. -1.
        -13    1    4    4    0    0 -0.47828157306E+02 -0.18285443810E+02 -0.22830851513E+03  0.23398005933E+03  0.00000000000E+00 0. -1.
         13    1    4    4    0    0  0.14974134578E+02 -0.93419959857E+02 -0.55457399730E+03  0.56258673295E+03  0.00000000000E+00 0.  1.
         21    1    1    2  503  502  0.38079995166E+02  0.21318866716E+02  0.24500831945E+03  0.24886473577E+03  0.00000000000E+00 0.  1.
         -2    1    1    2    0  503  0.41844168420E+02  0.82225065460E+02 -0.84913592714E+02  0.12538825323E+03  0.00000000000E+00 0.  1.
<scales pt_clust_5="13000.00000" pt_clust_6="13000.00000" pt_clust_7="13000.00000" pt_clust_8="13000.00000" pt_clust_9="43.64150" pt_clust_10="112.81630"></scales>
<clustering>
<clus scale="   43.641">  1  9  2 -1</clus>
<clus scale="   78.697">  5  6 -1 -1</clus>
<clus scale="   88.871">  2  5  1 -1</clus>
<clus scale="   89.756">  7  8 -1 -1</clus>
<clus scale="  112.816">  1 10  2 -1</clus>
<clus scale="   43.641">  1  5  2 -1</clus>
</clustering>
</event>
<event>
10    4  0.3043429E-005  0.3731321E+03  0.7546771E-02  0.1053502E+00
          2   -1    0    0  502    0 -0.00000000000E+00  0.00000000000E+00  0.37947263329E+04  0.37947263329E+04  0.00000000000E+00 0. -1.
         21   -1    0    0  503  502  0.00000000000E+00 -0.00000000000E+00 -0.44508274910E+02  0.44508274910E+02  0.00000000000E+00 0. -1.
         24    2    1    2    0    0  0.21099304556E+03  0.56328270258E+02  0.68566320779E+03  0.72437355688E+03  0.83018528572E+02 0.  0.
         23    2    1    2    0    0  0.98219492874E+02  0.81419037661E+02  0.49541662671E+03  0.51739168700E+03  0.77333015450E+02 0.  0.
        -11    1    3    3    0    0  0.14457074175E+03  0.72600629584E+02  0.53482387836E+03  0.55875587840E+03  0.00000000000E+00 0.  1.
         12    1    3    3    0    0  0.66422303808E+02 -0.16272359326E+02  0.15083932943E+03  0.16561767848E+03  0.00000000000E+00 0. -1.
        -13    1    4    4    0    0  0.54576577348E+02  0.77694704651E+01  0.28397952497E+03  0.28928072537E+03  0.00000000000E+00 0. -1.
         13    1    4    4    0    0  0.43642915527E+02  0.73649567196E+02  0.21143710174E+03  0.22811096163E+03  0.00000000000E+00 0.  1.
         21    1    1    2  503  501 -0.30189285644E+02  0.25400668130E+02  0.10400753828E+03  0.11123917893E+03  0.00000000000E+00 0.  1.
          1    1    1    2  501    0 -0.27902325279E+03 -0.16314797605E+03  0.24651306852E+04  0.24862301850E+04  0.00000000000E+00 0. -1.
<scales pt_clust_5="13000.00000" pt_clust_6="13000.00000" pt_clust_7="13000.00000" pt_clust_8="13000.00000" pt_clust_9="39.45360" pt_clust_10="326.77674"></scales>
<clustering>
<clus scale="   39.454">  2  9  1 -1</clus>
<clus scale="   77.333">  7  8 -1 -1</clus>
<clus scale="   83.019">  5  6 -1 -1</clus>
<clus scale="  100.962">  5  7 -1 -1</clus>
<clus scale="  326.777">  2 10  1 -1</clus>
<clus scale="   39.454">  2  5  1 -1</clus>
</clustering>
</event>
<event>
10    4  0.3043429E-005  0.9296676E+02  0.7546771E-02  0.1302130E+00
         21   -1    0    0  501  502  0.00000000000E+00  0.00000000000E+00  0.37537607969E+02  0.37537607969E+02  0.00000000000E+00 0.  1.
          2   -1    0    0  503    0 -0.00000000000E+00 -0.00000000000E+00 -0.89234992814E+03  0.89234992814E+03  0.00000000000E+00 0. -1.
         24    2    1    2    0    0 -0.35426375037E+01  0.23907741337E+02 -0.67612343633E+03  0.68119273657E+03  0.79350569148E+02 0.  0.
         23    2    1    2    0    0 -0.21839206496E+02 -0.21198903288E+02 -0.17212137492E+03  0.19658256545E+03  0.89958839985E+02 0.  0.
        -11    1    3    3    0    0  0.30724946766E+02  0.17485527680E+01 -0.13194714505E+03  0.13548848245E+03  0.00000000000E+00 0.  1.
         12    1    3    3    0    0 -0.34267584270E+02  0.22159188569E+02 -0.54417629129E+03  0.54570425412E+03  0.00000000000E+00 0. -1.
        -11    1    4    4    0    0  0.17008770568E+02  0.24063576806E+02 -0.92607271377E+02  0.97182615301E+02  0.00000000000E+00 0.  1.
         11    1    4    4    0    0 -0.38847977064E+02 -0.45262480094E+02 -0.79514103548E+02  0.99399950147E+02  0.00000000000E+00 0. -1.
         21    1    1    2  503  502  0.16161299578E+02  0.17107994005E+02  0.90866241969E+01  0.25227718926E+02  0.00000000000E+00 0.  1.
          1    1    1    2  501    0  0.92205444220E+01 -0.19816832054E+02 -0.15654133114E+02  0.26884515164E+02  0.00000000000E+00 0. -1.
<scales pt_clust_5="13000.00000" pt_clust_6="13000.00000" pt_clust_7="13000.00000" pt_clust_8="13000.00000" pt_clust_9="22.08219" pt_clust_10="21.85693"></scales>
<clustering>
<clus scale="   21.857">  1 10  2 -1</clus>
<clus scale="   22.082">  1  9  2 -1</clus>
<clus scale="   79.351">  5  6 -1 -1</clus>
<clus scale="   82.745">  2  5  1 -1</clus>
<clus scale="   89.959">  7  8 -1 -1</clus>
<clus scale="   21.857">  1  5  2 -1</clus>
</clustering>
</event>
<event>
10    4  0.3043429E-005  0.2480888E+03  0.7546771E-02  0.1159416E+00
          2   -1    0    0  502    0 -0.00000000000E+00  0.00000000000E+00  0.12617594736E+04  0.12617594736E+04  0.00000000000E+00 0. -1.
         21   -1    0    0  503  502  0.00000000000E+00 -0.00000000000E+00 -0.18588671289E+03  0.18588671289E+03  0.00000000000E+00 0. -1.
         24    2    1    2    0    0  0.24146315862E+02 -0.57249911088E+01  0.76192610487E+03  0.76649163299E+03  0.79763488310E+02 0.  0.
         23    2    1    2    0    0 -0.75890367585E+02 -0.22254835282E+03  0.35057953650E+03  0.43204425488E+03  0.92027764991E+02 0.  0.
        -11    1    3    3    0    0  0.20756991859E+02  0.24778041728E+02  0.13503671635E+03  0.13885142717E+03  0.00000000000E+00 0.  1.
         12    1    3    3    0    0  0.33893240031E+01 -0.30503032837E+02  0.62688938852E+03  0.62764020582E+03  0.00000000000E+00 0. -1.
        -13    1    4    4    0    0 -0.44344494757E+02 -0.17158471762E+03  0.31742920519E+03  0.36355061524E+03  0.00000000000E+00 0. -1.
         13    1    4    4    0    0 -0.31545872828E+02 -0.50963635201E+02  0.33150331314E+02  0.68493639644E+02  0.00000000000E+00 0.  1.
         21    1    1    2  503  501 -0.12062524862E+02  0.17741291301E+02 -0.18582156986E+02  0.28382291685E+02  0.00000000000E+00 0.  1.
          1    1    1    2  501    0  0.63806576585E+02  0.21053205263E+03 -0.18050723724E+02  0.22072800689E+03  0.00000000000E+00 0. -1.
<scales pt_clust_5="13000.00000" pt_clust_6="13000.00000" pt_clust_7="13000.00000" pt_clust_8="13000.00000" pt_clust_9="21.45362" pt_clust_10="230.38872"></scales>
<clustering>
<clus scale="   21.454">  2  9  1 -1</clus>
<clus scale="   79.763">  5  6 -1 -1</clus>
<clus scale="   83.469">  1  5  2 -1</clus>
<clus scale="   92.028">  7  8 -1 -1</clus>
<clus scale="  230.389">  2 10  1 -1</clus>
<clus scale="   21.454">  2  5  1 -1</clus>
</clustering>
</event>
<event>
10    4  0.3043429E-005  0.1080892E+03  0.7546771E-02  0.1269003E+00
         21   -1    0    0  503  502  0.00000000000E+00  0.00000000000E+00  0.22069149708E+03  0.22069149708E+03  0.00000000000E+00 0. -1.
          2   -1    0    0  502    0 -0.00000000000E+00 -0.00000000000E+00 -0.45404961472E+03  0.45404961472E+03  0.00000000000E+00 0. -1.
         24    2    1    2    0    0  0.50682998419E+02  0.43150695483E+02 -0.15171638762E+03  0.18416074401E+03  0.80414976914E+02 0.  0.
         23    2    1    2    0    0 -0.51376200206E+02  0.20917645406E+01 -0.94588223038E+02  0.14165792919E+03  0.92065995565E+02 0.  0.
        -13    1    3    3    0    0  0.63520633245E+02  0.56864721778E+02 -0.12980661180E+03  0.15530043110E+03  0.00000000000E+00 0.  1.
         14    1    3    3    0    0 -0.12837634826E+02 -0.13714026295E+02 -0.21909775821E+02  0.28860312917E+02  0.00000000000E+00 0. -1.
        -13    1    4    4    0    0 -0.74824396862E+02  0.17823998969E+02 -0.73775367844E+02  0.10657950181E+03  0.00000000000E+00 0.  1.
         13    1    4    4    0    0  0.23448196656E+02 -0.15732234428E+02 -0.20812855194E+02  0.35078427386E+02  0.00000000000E+00 0. -1.
         21    1    1    2  503  501 -0.27357483407E+02  0.48385294478E+01  0.17490233100E+03  0.17709508366E+03  0.00000000000E+00 0. -1.
          1    1    1    2  501    0  0.28050685194E+02 -0.50080989472E+02 -0.16195583799E+03  0.17182735494E+03  0.00000000000E+00 0. -1.
<scales pt_clust_5="13000.00000" pt_clust_6="13000.00000" pt_clust_7="13000.00000" pt_clust_8="13000.00000" pt_clust_9="27.78207" pt_clust_10="55.50984"></scales>
<clustering>
<clus scale="   27.782">  1  9  2 -1</clus>
<clus scale="   55.510">  1 10  2 -1</clus>
<clus scale="   80.415">  5  6 -1 -1</clus>
<clus scale="   92.066">  7  8 -1 -1</clus>
<clus scale="   98.355">  2  5  1 -1</clus>
<clus scale="   27.782">  1  5  2 -1</clus>
</clustering>
</event>
<event>
10    4  0.3043429E-005  0.1325410E+03  0.7546771E-02  0.1246876E+00
         21   -1    0    0  501  502  0.00000000000E+00  0.00000000000E+00  0.25809624824E+03  0.25809624824E+03  0.00000000000E+00 0.  1.
          2   -1    0    0  503    0 -0.00000000000E+00 -0.00000000000E+00 -0.33508413436E+03  0.33508413436E+03  0.00000000000E+00 0. -1.
         24    2    1    2    0    0  0.16870161636E+02 -0.94831371894E+01 -0.30485745841E+02  0.87980737356E+02  0.80229029669E+02 0.  0.
         23    2    1    2    0    0 -0.14488711168E+02  0.87514038306E+02  0.14650251112E+03  0.19460653470E+03  0.92412596170E+02 0.  0.
        -11    1    3    3    0    0  0.36744385024E+02 -0.12758889516E+02  0.12213591049E+02  0.40768994332E+02  0.00000000000E+00 0.  1.
         12    1    3    3    0    0 -0.19874223388E+02  0.32757523266E+01 -0.42699336889E+02  0.47211743024E+02  0.00000000000E+00 0. -1.
        -11    1    4    4    0    0  0.55805459983E+01  0.85396855378E+02  0.15133407440E+03  0.17385559374E+03  0.00000000000E+00 0.  1.
         11    1    4    4    0    0 -0.20069257166E+02  0.21171829279E+01 -0.48315632793E+01  0.20750940954E+02  0.00000000000E+00 0. -1.
         21    1    1    2  503  502 -0.57592933447E+02  0.60225209754E+02 -0.26963001384E+02  0.87584389685E+02  0.00000000000E+00 0.  1.
          1    1    1    2  501    0  0.55211482978E+02 -0.13825611087E+03 -0.16604165000E+03  0.22300872087E+03  0.00000000000E+00 0. -1.
<scales pt_clust_5="13000.00000" pt_clust_6="13000.00000" pt_clust_7="13000.00000" pt_clust_8="13000.00000" pt_clust_9="79.49559" pt_clust_10="95.01070"></scales>
<clustering>
<clus scale="   80.229">  5  6 -1 -1</clus>
<clus scale="   82.530">  2  5  1 -1</clus>
<clus scale="   79.496">  2  9  1 -1</clus>
<clus scale="   92.413">  7  8 -1 -1</clus>
<clus scale="   95.011">  1 10  2 -1</clus>
<clus scale="   95.011">  1  5  2 -1</clus>
</clustering>
</event>
<event>
10    4  0.3043429E-005  0.1887779E+03  0.7546771E-02  0.1160717E+00
         21   -1    0    0  501  502  0.00000000000E+00  0.00000000000E+00  0.11672267769E+04  0.11672267769E+04  0.00000000000E+00 0. -1.
         -1   -1    0    0    0  501 -0.00000000000E+00 -0.00000000000E+00 -0.89549699849E+02  0.89549699849E+02  0.00000000000E+00 0.  1.
         23    2    1    2    0    0 -0.56719852382E+02 -0.18221237534E+03  0.29622981745E+03  0.36431165167E+03  0.92479097176E+02 0.  0.
         24    2    1    2    0    0 -0.28728537584E+02  0.13341620807E+03  0.49426862799E+03  0.51925281253E+03  0.81833937089E+02 0.  0.
        -13    1    4    4    0    0 -0.11169468885E+02  0.35114180408E+02  0.41043564044E+02  0.55157382555E+02  0.00000000000E+00 0.  1.
         14    1    4    4    0    0 -0.17559068699E+02  0.98302027658E+02  0.45322506395E+03  0.46409542998E+03  0.00000000000E+00 0. -1.
        -11    1    3    3    0    0 -0.20736453205E+02 -0.17290870318E+03  0.23177417743E+03  0.28990807069E+03  0.00000000000E+00 0.  1.
         11    1    3    3    0    0 -0.35983399177E+02 -0.93036721540E+01  0.64455640027E+02  0.74403580984E+02  0.00000000000E+00 0. -1.
         21    1    1    2  503  502  0.29477169665E+02 -0.26272156922E+02  0.27611369976E+03  0.27892275805E+03  0.00000000000E+00 0. -1.
         -2    1    1    2    0  503  0.55971220301E+02  0.75068324194E+02  0.11064931859E+02  0.94289254511E+02  0.00000000000E+00 0.  1.
<scales pt_clust_5="13000.00000" pt_clust_6="13000.00000" pt_clust_7="13000.00000" pt_clust_8="13000.00000" pt_clust_9="39.48582" pt_clust_10="93.46302"></scales>
<clustering>
<clus scale="   39.486">  1  9  2 -1</clus>
<clus scale="   81.834">  5  6 -1 -1</clus>
<clus scale="   92.479">  7  8 -1 -1</clus>
<clus scale="   93.463">  1 10  2 -1</clus>
<clus scale="  183.797">  1  5  2 -1</clus>
<clus scale="   39.486">  1  5  2 -1</clus>
</clustering>
</event>
<event>
10    4  0.3043429E-005  0.1008258E+03  0.7546771E-02  0.1285184E+00
         21   -1    0    0  501  502  0.00000000000E+00  0.00000000000E+00  0.14905199672E+03  0.14905199672E+03  0.00000000000E+00 0. -1.
          2   -1    0    0  503    0 -0.00000000000E+00 -0.00000000000E+00 -0.26160606872E+03  0.26160606872E+03  0.00000000000E+00 0. -1.
         23    2    1    2    0    0  0.19476054906E+02  0.37370890723E+02 -0.17629902926E+03  0.20351603705E+03  0.92528533062E+02 0.  0.
         24    2    1    2    0    0 -0.60680561016E+02  0.47923268940E+01 -0.11235155838E+02  0.10067865051E+03  0.79403180409E+02 0.  0.
        -13    1    4    4    0    0 -0.23831108904E+02 -0.24520392757E+02  0.24079382234E+02  0.41820904598E+02  0.00000000000E+00 0.  1.
         14    1    4    4    0    0 -0.36849452112E+02  0.29312719651E+02 -0.35314538073E+02  0.58857745910E+02  0.00000000000E+00 0. -1.
        -13    1    3    3    0    0 -0.32599944667E+02 -0.67316461172E+01 -0.52809947515E+02  0.62425651845E+02  0.00000000000E+00 0.  1.
         13    1    3    3    0    0  0.52075999573E+02  0.44102536840E+02 -0.12348908174E+03  0.14109038521E+03  0.00000000000E+00 0. -1.
         21    1    1    2  503  502  0.23021900564E+02 -0.11804095252E+02  0.64594873131E+02  0.69583347182E+02  0.00000000000E+00 0. -1.
          1    1    1    2  501    0  0.18182605546E+02 -0.30359122365E+02  0.10385239968E+02  0.36880030699E+02  0.00000000000E+00 0. -1.
<scales pt_clust_5="13000.00000" pt_clust_6="13000.00000" pt_clust_7="13000.00000" pt_clust_8="13000.00000" pt_clust_9="25.87169" pt_clust_10="41.90438"></scales>
<clustering>
<clus scale="   25.872">  1  9  2 -1</clus>
<clus scale="   41.904">  1 10  2 -1</clus>
<clus scale="   79.403">  5  6 -1 -1</clus>
<clus scale="   88.934">  1  5  2 -1</clus>
<clus scale="   92.529">  7  8 -1 -1</clus>
<clus scale="   25.872">  1  5  2 -1</clus>
</clustering>
</event>
<event>
10    4  0.3043429E-005  0.1726353E+03  0.7546771E-02  0.1202067E+00
         21   -1    0    0  501  502  0.00000000000E+00  0.00000000000E+00  0.93042255677E+03  0.93042255677E+03  0.00000000000E+00 0. -1.
          2   -1    0    0  503    0 -0.00000000000E+00 -0.00000000000E+00 -0.60654685019E+03  0.60654685019E+03  0.00000000000E+00 0. -1.
         23    2    1    2    0    0 -0.18848696234E+02  0.17136545168E+02 -0.54581029499E+03  0.55403923465E+03  0.91660574311E+02 0.  0.
         24    2    1    2    0    0 -0.82034754899E+02 -0.14537415641E+03  0.17574335914E+03  0.25552843003E+03  0.80905524602E+02 0.  0.
        -11    1    4    4    0    0 -0.36219375403E+02 -0.42724703010E+02  0.11462417844E+03  0.12757721460E+03  0.00000000000E+00 0.  1.
         12    1    4    4    0    0 -0.45815379496E+02 -0.10264945340E+03  0.61119180696E+02  0.12795121543E+03  0.00000000000E+00 0. -1.
        -11    1    3    3    0    0  0.28635567650E+02 -0.19857007178E+02 -0.18838807113E+03  0.19158382450E+03  0.00000000000E+00 0.  1.
         11    1    3    3    0    0 -0.47484263884E+02  0.36993552346E+02 -0.35742222386E+03  0.36245541014E+03  0.00000000000E+00 0. -1.
         21    1    1    2  503  502  0.52388250727E+02  0.45221122283E+00  0.39786145378E+03  0.40129598766E+03  0.00000000000E+00 0. -1.
          1    1    1    2  501    0  0.48495200405E+02  0.12778540002E+03  0.29608118865E+03  0.32610575462E+03  0.00000000000E+00 0. -1.
<scales pt_clust_5="13000.00000" pt_clust_6="13000.00000" pt_clust_7="13000.00000" pt_clust_8="13000.00000" pt_clust_9="52.39020" pt_clust_10="152.50327"></scales>
<clustering>
<clus scale="   52.390">  1  9  2 -1</clus>
<clus scale="   80.906">  5  6 -1 -1</clus>
<clus scale="   91.661">  7  8 -1 -1</clus>
<clus scale="   95.056">  2  7  1 -1</clus>
<clus scale="  152.503">  1 10  2 -1</clus>
<clus scale="   52.390">  1  5  2 -1</clus>
</clustering>
</event>
<event>
10    4  0.3043429E-005  0.1560322E+03  0.7546771E-02  0.1214299E+00
         21   -1    0    0  501  502  0.00000000000E+00  0.00000000000E+00  0.29551782570E+03  0.29551782570E+03  0.00000000000E+00 0.  1.
          2   -1    0    0  503    0 -0.00000000000E+00 -0.00000000000E+00 -0.52656273589E+03  0.52656273589E+03  0.00000000000E+00 0. -1.
         24    2    1    2    0    0 -0.39102338203E+01 -0.59237206682E+02 -0.17299307353E+03  0.19935149762E+03  0.79310021637E+02 0.  0.
         23    2    1    2    0    0 -0.10276789630E+03  0.55030185421E+02  0.93002793316E+02  0.16869432132E+03  0.78858687927E+02 0.  0.
        -13    1    3    3    0    0 -0.34723355601E+02 -0.91938223504E+01 -0.95945367881E+02  0.10244877457E+03  0.00000000000E+00 0.  1.
         14    1    3    3    0    0  0.30813121780E+02 -0.50043384332E+02 -0.77047705646E+02  0.96902723050E+02  0.00000000000E+00 0. -1.
        -13    1    4    4    0    0 -0.48405029703E+02  0.43441513512E+02  0.92537647271E+02  0.11310803755E+03  0.00000000000E+00 0.  1.
         13    1    4    4    0    0 -0.54362866601E+02  0.11588671909E+02  0.46514604475E+00  0.55586283762E+02  0.00000000000E+00 0. -1.
         21    1    1    2  503  502  0.65077611538E+02  0.98839745011E+02  0.11719860012E+03  0.16655300234E+03  0.00000000000E+00 0.  1.
          1    1    1    2  501    0  0.41600518586E+02 -0.94632723750E+02 -0.26825323010E+03  0.28748174031E+03  0.00000000000E+00 0. -1.
<scales pt_clust_5="13000.00000" pt_clust_6="13000.00000" pt_clust_7="13000.00000" pt_clust_8="13000.00000" pt_clust_9="114.61711" pt_clust_10="134.63789"></scales>
<clustering>
<clus scale="   78.859">  7  8 -1 -1</clus>
<clus scale="   79.310">  5  6 -1 -1</clus>
<clus scale="   99.068">  2  5  1 -1</clus>
<clus scale="  114.617">  1  9  2 -1</clus>
<clus scale="  134.638">  1 10  2 -1</clus>
<clus scale="  114.617">  1  5  2 -1</clus>
</clustering>
</event>
<event>
10    4  0.3043429E-005  0.4557991E+03  0.7546771E-02  0.1083315E+00
         21   -1    0    0  501  502  0.00000000000E+00  0.00000000000E+00  0.79459962475E+03  0.79459962475E+03  0.00000000000E+00 0. -1.
          2   -1    0    0  503    0 -0.00000000000E+00 -0.00000000000E+00 -0.12838986899E+04  0.12838986899E+04  0.00000000000E+00 0. -1.
         24    2    1    2    0    0 -0.39828549563E+02  0.29970370987E+01 -0.33055858755E+03  0.34260645820E+03  0.80714991233E+02 0.  0.
         23    2    1    2    0    0 -0.19629781681E+03 -0.36304023873E+03 -0.24810493674E+03  0.49099829068E+03  0.95876034527E+02 0.  0.
        -11    1    3    3    0    0 -0.34795462014E+02  0.48218542740E+01 -0.45427019504E+02  0.57424633708E+02  0.00000000000E+00 0.  1.
         12    1    3    3    0    0 -0.50330875490E+01 -0.18248171753E+01 -0.28513156804E+03  0.28518182450E+03  0.00000000000E+00 0. -1.
        -11    1    4    4    0    0 -0.18648418346E+03 -0.26359248401E+03 -0.20265781919E+03  0.38121849376E+03  0.00000000000E+00 0. -1.
         11    1    4    4    0    0 -0.98136333514E+01 -0.99447754720E+02 -0.45447117550E+02  0.10977979692E+03  0.00000000000E+00 0.  1.
         21    1    1    2  503  502  0.14427433486E+03  0.57905999557E+03  0.49467114696E+03  0.77512908977E+03  0.00000000000E+00 0. -1.
          1    1    1    2  501    0  0.91852031515E+02 -0.21901679394E+03 -0.40530668785E+03  0.46976447603E+03  0.00000000000E+00 0. -1.
<scales pt_clust_5="13000.00000" pt_clust_6="13000.00000" pt_clust_7="13000.00000" pt_clust_8="13000.00000" pt_clust_9="445.60142" pt_clust_10="229.69509"></scales>
<clustering>
<clus scale="   80.715">  5  6 -1 -1</clus>
<clus scale="   90.057">  2  5  1 -1</clus>
<clus scale="   95.876">  7  8 -1 -1</clus>
<clus scale="  229.695">  1 10  2 -1</clus>
<clus scale="  445.601">  1  9  2 -1</clus>
<clus scale="  229.695">  1  5  2 -1</clus>
</clustering>
</event>
<event>
10    4  0.3043429E-005  0.9476794E+02  0.7546771E-02  0.1298336E+00
         21   -1    0    0  501  502  0.00000000000E+00  0.00000000000E+00  0.77710678464E+02  0.77710678464E+02  0.00000000000E+00 0. -1.
          2   -1    0    0  503    0 -0.00000000000E+00 -0.00000000000E+00 -0.63243299766E+03  0.63243299766E+03  0.00000000000E+00 0. -1.
         23    2    1    2    0    0  0.24134421846E+02 -0.26238354659E+01 -0.21154259330E+03  0.23246260965E+03  0.93269723244E+02 0.  0.
         24    2    1    2    0    0  0.52295973816E+02  0.33584994578E+02 -0.15913440886E+03  0.18953344758E+03  0.82075251630E+02 0.  0.
        -11    1    4    4    0    0  0.31124724908E+02  0.32885372431E+02 -0.21225494300E+02  0.50007177772E+02  0.00000000000E+00 0.  1.
         12    1    4    4    0    0  0.21171248909E+02  0.69962214699E+00 -0.13790891455E+03  0.13952626980E+03  0.00000000000E+00 0. -1.
        -13    1    3    3    0    0  0.42903789808E+02 -0.31296908240E+02 -0.76410035009E+02  0.93052270769E+02  0.00000000000E+00 0.  1.
         13    1    3    3    0    0 -0.18769367963E+02  0.28673072774E+02 -0.13513255829E+03  0.13941033888E+03  0.00000000000E+00 0. -1.
         21    1    1    2  503  502 -0.22355664322E+02 -0.13064653488E+02  0.45113390776E+02  0.52016141008E+02  0.00000000000E+00 0. -1.
          1    1    1    2  501    0 -0.54074731340E+02 -0.17896505624E+02 -0.22915870782E+03  0.23613147789E+03  0.00000000000E+00 0. -1.
<scales pt_clust_5="13000.00000" pt_clust_6="13000.00000" pt_clust_7="13000.00000" pt_clust_8="13000.00000" pt_clust_9="25.89326" pt_clust_10="59.99252"></scales>
<clustering>
<clus scale="   25.893">  1  9  2 -1</clus>
<clus scale="   59.993">  1 10  2 -1</clus>
<clus scale="   82.075">  5  6 -1 -1</clus>
<clus scale="   83.774">  1  5  2 -1</clus>
<clus scale="   93.270">  7  8 -1 -1</clus>
<clus scale="   25.893">  1  5  2 -1</clus>
</clustering>
</event>
<event>
10    4  0.3043429E-005  0.1030816E+03  0.7546771E-02  0.1275118E+00
         21   -1    0    0  503  502  0.00000000000E+00  0.00000000000E+00  0.10554915176E+03  0.10554915176E+03  0.00000000000E+00 0. -1.
          2   -1    0    0  502    0 -0.00000000000E+00 -0.00000000000E+00 -0.18119767974E+03  0.18119767974E+03  0.00000000000E+00 0. -1.
         23    2    1    2    0    0  0.28804681743E+02  0.42914765634E+02 -0.35095354114E+02  0.10482849979E+03  0.84178047542E+02 0.  0.
         24    2    1    2    0    0 -0.32695809794E+02 -0.52063693728E+02  0.58388378714E+01  0.10661771272E+03  0.86911451810E+02 0.  0.
        -11    1    4    4    0    0  0.26019783422E+02 -0.12841809210E+01  0.12126768859E+02  0.28735635941E+02  0.00000000000E+00 0.  1.
         12    1    4    4    0    0 -0.58715593216E+02 -0.50779512807E+02 -0.62879309872E+01  0.77882076781E+02  0.00000000000E+00 0. -1.
        -13    1    3    3    0    0  0.46181323691E+02  0.53038297363E+02 -0.75603405558E+01  0.70731424376E+02  0.00000000000E+00 0. -1.
         13    1    3    3    0    0 -0.17376641948E+02 -0.10123531729E+02 -0.27535013558E+02  0.34097075413E+02  0.00000000000E+00 0.  1.
         21    1    1    2  503  501 -0.22000196548E+02 -0.39155729273E+01 -0.22154725847E+01  0.22455482143E+02  0.00000000000E+00 0. -1.
          1    1    1    2  501    0  0.25891324599E+02  0.13064501022E+02 -0.44176539155E+02  0.52845136845E+02  0.00000000000E+00 0. -1.
<scales pt_clust_5="13000.00000" pt_clust_6="13000.00000" pt_clust_7="13000.00000" pt_clust_8="13000.00000" pt_clust_9="22.34592" pt_clust_10="28.03004"></scales>
<clustering>
<clus scale="   22.346">  1  9  2 -1</clus>
<clus scale="   28.030">  1 10  2 -1</clus>
<clus scale="   84.178">  7  8 -1 -1</clus>
<clus scale="   86.911">  5  6 -1 -1</clus>
<clus scale="  100.788">  2  7  1 -1</clus>
<clus scale="   22.346">  1  5  2 -1</clus>
</clustering>
</event>
<event>
10    4  0.3043429E-005  0.1157584E+03  0.7546771E-02  0.1253672E+00
         -1   -1    0    0    0  501 -0.00000000000E+00  0.00000000000E+00  0.46854768708E+03  0.46854768708E+03  0.00000000000E+00 0.  1.
         21   -1    0    0  503  502  0.00000000000E+00 -0.00000000000E+00 -0.73466251343E+02  0.73466251343E+02  0.00000000000E+00 0.  1.
         23    2    1    2    0    0  0.31351674421E+02 -0.85804711604E+02  0.14760217808E+03  0.19589504749E+03  0.90791467869E+02 0.  0.
         24    2    1    2    0    0 -0.23410907313E+02  0.44736337972E+02  0.58402682461E+02  0.11181349873E+03  0.80882474390E+02 0.  0.
        -11    1    4    4    0    0  0.29809858638E+02  0.22216233343E+02  0.27793065858E+02  0.46418134449E+02  0.00000000000E+00 0.  1.
         12    1    4    4    0    0 -0.53220765952E+02  0.22520104629E+02  0.30609616603E+02  0.65395364282E+02  0.00000000000E+00 0. -1.
        -13    1    3    3    0    0  0.18025838424E+02  0.17093462852E+02  0.32929775579E+02  0.41249090206E+02  0.00000000000E+00 0.  1.
         13    1    3    3    0    0  0.13325835997E+02 -0.10289817446E+03  0.11467240250E+03  0.15464595729E+03  0.00000000000E+00 0. -1.
         21    1    1    2  503  501 -0.11741391291E+02 -0.16895731116E+02 -0.12804159775E+02  0.24233706009E+02  0.00000000000E+00 0.  1.
         -2    1    1    2    0  502  0.38006241838E+01  0.57964104749E+02  0.20188073498E+03  0.21007168619E+03  0.00000000000E+00 0.  1.
<scales pt_clust_5="13000.00000" pt_clust_6="13000.00000" pt_clust_7="13000.00000" pt_clust_8="13000.00000" pt_clust_9="20.57489" pt_clust_10="56.78023"></scales>
<clustering>
<clus scale="   20.575">  2  9  1 -1</clus>
<clus scale="   56.780">  2 10  1 -1</clus>
<clus scale="   80.882">  5  6 -1 -1</clus>
<clus scale="   90.791">  7  8 -1 -1</clus>
<clus scale="  108.161">  2  5  1 -1</clus>
<clus scale="   20.575">  2  5  1 -1</clus>
</clustering>
</event>
<event>
10    4  0.3043429E-005  0.9702940E+02  0.7546771E-02  0.1290713E+00
          2   -1    0    0  502    0 -0.00000000000E+00  0.00000000000E+00  0.85866296460E+03  0.85866296460E+03  0.00000000000E+00 0. -1.
         21   -1    0    0  503  502  0.00000000000E+00 -0.00000000000E+00 -0.55892443524E+02  0.55892443524E+02  0.00000000000E+00 0.  1.
         23    2    1    2    0    0 -0.24188687553E+02 -0.32066764937E+02  0.23992577796E+03  0.25936714018E+03  0.89964239863E+02 0.  0.
         24    2    1    2    0    0 -0.78547296849E+01  0.37720104753E+02  0.10480185749E+03  0.13869338753E+03  0.82267389218E+02 0.  0.
        -11    1    4    4    0    0 -0.22384997907E+02  0.34121301612E+02  0.90781138399E+01  0.41806261563E+02  0.00000000000E+00 0.  1.
         12    1    4    4    0    0  0.14530268222E+02  0.35988031414E+01  0.95723743653E+02  0.96887125964E+02  0.00000000000E+00 0. -1.
        -11    1    3    3    0    0  0.16171290145E+01 -0.59794207537E+02  0.13007762194E+03  0.14317175032E+03  0.00000000000E+00 0.  1.
         11    1    3    3    0    0 -0.25805816567E+02  0.27727442600E+02  0.10984815602E+03  0.11619538985E+03  0.00000000000E+00 0. -1.
         21    1    1    2  503  501 -0.56405852957E+02  0.46918782940E+01  0.73353921989E+01  0.57074004139E+02  0.00000000000E+00 0.  1.
          1    1    1    2  501    0  0.88449270194E+02 -0.10345218110E+02  0.45070749343E+03  0.45942087629E+03  0.00000000000E+00 0. -1.
<scales pt_clust_5="13000.00000" pt_clust_6="13000.00000" pt_clust_7="13000.00000" pt_clust_8="13000.00000" pt_clust_9="56.60065" pt_clust_10="81.10850"></scales>
<clustering>
<clus scale="   56.601">  2  9  1 -1</clus>
<clus scale="   81.109">  2 10  1 -1</clus>
<clus scale="   82.267">  5  6 -1 -1</clus>
<clus scale="   89.939">  2  5  1 -1</clus>
<clus scale="   89.964">  7  8 -1 -1</clus>
<clus scale="   56.601">  2  5  1 -1</clus>
</clustering>
</event>
<event>
10    4  0.3043429E-005  0.1614017E+03  0.7546771E-02  0.1207327E+00
          2   -1    0    0  503    0 -0.00000000000E+00  0.00000000000E+00  0.13016222999E+04  0.13016222999E+04  0.00000000000E+00 0. -1.
         21   -1    0    0  501  502  0.00000000000E+00 -0.00000000000E+00 -0.23013705846E+03  0.23013705846E+03  0.00000000000E+00 0. -1.
         23    2    1    2    0    0  0.32929238539E+02 -0.39246999319E+02  0.12729352630E+03  0.16398611644E+03  0.89795004552E+02 0.  0.
         24    2    1    2    0    0 -0.45376857913E+02 -0.97656081343E+02  0.10145116037E+04  0.10235023675E+04  0.82021538654E+02 0.  0.
        -11    1    4    4    0    0 -0.24869547612E+02  0.20924417375E+01  0.89907386446E+02  0.93307078233E+02  0.00000000000E+00 0.  1.
         12    1    4    4    0    0 -0.20507310301E+02 -0.99748523080E+02  0.92460421727E+03  0.93019528929E+03  0.00000000000E+00 0. -1.
        -13    1    3    3    0    0 -0.24429180424E+02  0.94542349502E+01  0.47940946277E+02  0.54630593486E+02  0.00000000000E+00 0.  1.
         13    1    3    3    0    0  0.57358418963E+02 -0.48701234270E+02  0.79352580020E+02  0.10935552296E+03  0.00000000000E+00 0. -1.
         21    1    1    2  503  502 -0.13989239185E+02 -0.14773054189E+02 -0.16319905271E+03  0.16446237487E+03  0.00000000000E+00 0. -1.
          1    1    1    2  501    0  0.26436858559E+02  0.15167613485E+03  0.92879164185E+02  0.17980849956E+03  0.00000000000E+00 0. -1.
<scales pt_clust_5="13000.00000" pt_clust_6="13000.00000" pt_clust_7="13000.00000" pt_clust_8="13000.00000" pt_clust_9="20.34556" pt_clust_10="139.00715"></scales>
<clustering>
<clus scale="   20.346">  2  9  1 -1</clus>
<clus scale="   82.022">  5  6 -1 -1</clus>
<clus scale="   89.795">  7  8 -1 -1</clus>
<clus scale="  103.853">  1  7  2 -1</clus>
<clus scale="  139.007">  2 10  1 -1</clus>
<clus scale="   20.346">  2  5  1 -1</clus>
</clustering>
</event>
<event>
10    4  0.3043429E-005  0.1205978E+03  0.7546771E-02  0.1245008E+00
          2   -1    0    0  502    0 -0.00000000000E+00  0.00000000000E+00  0.69113346567E+03  0.69113346567E+03  0.00000000000E+00 0. -1.
         21   -1    0    0  503  502  0.00000000000E+00 -0.00000000000E+00 -0.39654410885E+03  0.39654410885E+03  0.00000000000E+00 0. -1.
         24    2    1    2    0    0  0.38528986300E+02 -0.67763168024E+02  0.26872779706E+03  0.29113701967E+03  0.80435101692E+02 0.  0.
         23    2    1    2    0    0  0.16831477375E+02  0.12297642654E+03 -0.38377564322E+02  0.15796564577E+03  0.89854369316E+02 0.  0.
        -13    1    3    3    0    0 -0.20990456750E+02 -0.33950456458E+02  0.13684094506E+03  0.14254359689E+03  0.00000000000E+00 0.  1.
         14    1    3    3    0    0  0.59519443050E+02 -0.33812711565E+02  0.13188685199E+03  0.14859342278E+03  0.00000000000E+00 0. -1.
        -13    1    4    4    0    0  0.52541475765E+02  0.62506634182E+02 -0.10174679206E+02  0.82287362877E+02  0.00000000000E+00 0.  1.
         13    1    4    4    0    0 -0.35709998390E+02  0.60469792357E+02 -0.28202885115E+02  0.75678282893E+02  0.00000000000E+00 0. -1.
         21    1    1    2  503  501 -0.45050866390E+02  0.48783592219E+02 -0.27536299348E+03  0.28325641672E+03  0.00000000000E+00 0. -1.
          1    1    1    2  501    0 -0.10309597284E+02 -0.10399685074E+03  0.33960211757E+03  0.35531849236E+03  0.00000000000E+00 0. -1.
<scales pt_clust_5="13000.00000" pt_clust_6="13000.00000" pt_clust_7="13000.00000" pt_clust_8="13000.00000" pt_clust_9="66.40346" pt_clust_10="101.60507"></scales>
<clustering>
<clus scale="   66.403">  2  9  1 -1</clus>
<clus scale="   80.435">  5  6 -1 -1</clus>
<clus scale="   89.854">  7  8 -1 -1</clus>
<clus scale="  101.605">  2 10  1 -1</clus>
<clus scale="  113.753">  1  5  2 -1</clus>
<clus scale="   66.403">  2  5  1 -1</clus>
</clustering>
</event>
<event>
10    4  0.3043429E-005  0.1286392E+03  0.7546771E-02  0.1232264E+00
          2   -1    0    0  502    0 -0.00000000000E+00  0.00000000000E+00  0.13907667049E+03  0.13907667049E+03  0.00000000000E+00 0. -1.
         21   -1    0    0  503  502  0.00000000000E+00 -0.00000000000E+00 -0.22318143274E+03  0.22318143274E+03  0.00000000000E+00 0.  1.
         24    2    1    2    0    0  0.97437037706E+02 -0.18961696479E+02 -0.28434475140E+02  0.13114069985E+03  0.80844551647E+02 0.  0.
         23    2    1    2    0    0 -0.81284788856E+02 -0.31014979403E+02 -0.74317645081E+02  0.14634653800E+03  0.91241717254E+02 0.  0.
        -13    1    3    3    0    0  0.71640597846E+02 -0.25358506627E+01  0.19491916359E+02  0.74288226535E+02  0.00000000000E+00 0.  1.
         14    1    3    3    0    0  0.25796439860E+02 -0.16425845816E+02 -0.47926391499E+02  0.56852473318E+02  0.00000000000E+00 0. -1.
        -11    1    4    4    0    0 -0.17931573636E+02  0.28237841748E+02 -0.21707813621E+01  0.33520580714E+02  0.00000000000E+00 0.  1.
         11    1    4    4    0    0 -0.63353215220E+02 -0.59252821151E+02 -0.72146863719E+02  0.11282595729E+03  0.00000000000E+00 0. -1.
         21    1    1    2  503  501  0.11251645552E+02  0.27561398053E+02 -0.17205424027E+02  0.34383961468E+02  0.00000000000E+00 0.  1.
          1    1    1    2  501    0 -0.27403894403E+02  0.22415277828E+02  0.35852782001E+02  0.50386903911E+02  0.00000000000E+00 0. -1.
<scales pt_clust_5="13000.00000" pt_clust_6="13000.00000" pt_clust_7="13000.00000" pt_clust_8="13000.00000" pt_clust_9="29.76962" pt_clust_10="35.74083"></scales>
<clustering>
<clus scale="   29.770">  2  9  1 -1</clus>
<clus scale="   35.741">  2 10  1 -1</clus>
<clus scale="   80.845">  5  6 -1 -1</clus>
<clus scale="   91.242">  7  8 -1 -1</clus>
<clus scale="  121.486">  1  5  2 -1</clus>
<clus scale="   29.770">  2  5  1 -1</clus>
</clustering>
</event>
<event>
10    4  0.3043429E-005  0.1392533E+03  0.7546771E-02  0.1221619E+00
          2   -1    0    0  502    0 -0.00000000000E+00  0.00000000000E+00  0.10578993112E+04  0.10578993112E+04  0.00000000000E+00 0. -1.
         21   -1    0    0  503  502  0.00000000000E+00 -0.00000000000E+00 -0.26477489203E+03  0.26477489203E+03  0.00000000000E+00 0.  1.
         24    2    1    2    0    0 -0.83544274191E+02 -0.12161465855E+02  0.57044052534E+03  0.58226953383E+03  0.80671370845E+02 0.  0.
         23    2    1    2    0    0  0.80697563967E+02  0.12006909889E+03  0.22742747691E+03  0.29031638795E+03  0.10785018555E+03 0.  0.
        -13    1    3    3    0    0 -0.61917748638E+02  0.87158508012E+01  0.17769543069E+03  0.18837579393E+03  0.00000000000E+00 0.  1.
         14    1    3    3    0    0 -0.21626525552E+02 -0.20877316657E+02  0.39274509465E+03  0.39389373990E+03  0.00000000000E+00 0. -1.
        -11    1    4    4    0    0  0.84702903810E+02  0.74057022233E+02  0.21472288896E+03  0.24241481700E+03  0.00000000000E+00 0.  1.
         11    1    4    4    0    0 -0.40053398433E+01  0.46012076655E+02  0.12704587950E+02  0.47901570959E+02  0.00000000000E+00 0. -1.
         21    1    1    2  503  501  0.66421786277E+02 -0.11054968352E+02 -0.20662826680E+03  0.21732304677E+03  0.00000000000E+00 0.  1.
          1    1    1    2  501    0 -0.63575076053E+02 -0.96852664681E+02  0.20188468369E+03  0.23276523465E+03  0.00000000000E+00 0. -1.
<scales pt_clust_5="13000.00000" pt_clust_6="13000.00000" pt_clust_7="13000.00000" pt_clust_8="13000.00000" pt_clust_9="67.33547" pt_clust_10="109.39118"></scales>
<clustering>
<clus scale="   67.335">  2  9  1 -1</clus>
<clus scale="   80.671">  5  6 -1 -1</clus>
<clus scale="  107.850">  7  8 -1 -1</clus>
<clus scale="  109.391">  2 10  1 -1</clus>
<clus scale="  119.447">  1  5  2 -1</clus>
<clus scale="   67.335">  2  5  1 -1</clus>
</clustering>
</event>
<event>
10    4  0.3043429E-005  0.2698185E+03  0.7546771E-02  0.1101726E+00
         21   -1    0    0  501  502  0.00000000000E+00  0.00000000000E+00  0.37664727075E+03  0.37664727075E+03  0.00000000000E+00 0.  1.
         -1   -1    0    0    0  501 -0.00000000000E+00 -0.00000000000E+00 -0.49708115464E+03  0.49708115464E+03  0.00000000000E+00 0.  1.
         23    2    1    2    0    0 -0.25304801838E+03  0.71462208982E+02 -0.22082505395E+03  0.35507988819E+03  0.90431607462E+02 0.  0.
         24    2    1    2    0    0  0.19942302829E+03 -0.15077553545E+03 -0.27878267299E+02  0.26491122224E+03  0.83053907652E+02 0.  0.
        -13    1    4    4    0    0  0.14068816191E+03 -0.12108294587E+03  0.15220343759E+02  0.18624150328E+03  0.00000000000E+00 0.  1.
         14    1    4    4    0    0  0.58734866382E+02 -0.29692589584E+02 -0.43098611058E+02  0.78669718954E+02  0.00000000000E+00 0. -1.
        -13    1    3    3    0    0 -0.13528626821E+03 -0.80653850489E+01 -0.11772487021E+03  0.17951760322E+03  0.00000000000E+00 0. -1.
         13    1    3    3    0    0 -0.11776175018E+03  0.79527594030E+02 -0.10310018374E+03  0.17556228497E+03  0.00000000000E+00 0.  1.
         21    1    1    2  503  502  0.34390225093E+02  0.19589331978E+02  0.17249194316E+03  0.17697429182E+03  0.00000000000E+00 0.  1.
         -2    1    1    2    0  503  0.19234764997E+02  0.59723994490E+02 -0.44222505807E+02  0.76763023144E+02  0.00000000000E+00 0.  1.
<scales pt_clust_5="13000.00000" pt_clust_6="13000.00000" pt_clust_7="13000.00000" pt_clust_8="13000.00000" pt_clust_9="39.57814" pt_clust_10="65.13265"></scales>
<clustering>
<clus scale="   39.578">  1  9  2 -1</clus>
<clus scale="   65.133">  1 10  2 -1</clus>
<clus scale="   83.054">  5  6 -1 -1</clus>
<clus scale="   90.432">  7  8 -1 -1</clus>
<clus scale="  267.436">  1  5  2 -1</clus>
<clus scale="   39.578">  1  5  2 -1</clus>
</clustering>
</event>
<event>
10    4  0.3043429E-005  0.1730301E+03  0.7546771E-02  0.1177233E+00
         21   -1    0    0  501  502  0.00000000000E+00  0.00000000000E+00  0.73201371171E+02  0.73201371171E+02  0.00000000000E+00 0. -1.
          4   -1    0    0  503    0 -0.00000000000E+00 -0.00000000000E+00 -0.11859137976E+04  0.11859137976E+04  0.00000000000E+00 0. -1.
         23    2    1    2    0    0 -0.11671715331E+03 -0.15945126284E+02 -0.39569456440E+03  0.42228027363E+03  0.88709076617E+02 0.  0.
         24    2    1    2    0    0  0.24101337285E+03  0.56786733641E+02 -0.34542162238E+03  0.43044532837E+03  0.68226860550E+02 0.  0.
        -11    1    4    4    0    0  0.75462314102E+02 -0.91385665464E+01 -0.13290193501E+03  0.15310453481E+03  0.00000000000E+00 0.  1.
         12    1    4    4    0    0  0.16555105875E+03  0.65925300187E+02 -0.21251968736E+03  0.27734079357E+03  0.00000000000E+00 0. -1.
        -13    1    3    3    0    0 -0.85109089305E+02 -0.51321440270E+02 -0.24882572741E+03  0.26793971325E+03  0.00000000000E+00 0. -1.
         13    1    3    3    0    0 -0.31608064005E+02  0.35376313985E+02 -0.14686883699E+03  0.15434056039E+03  0.00000000000E+00 0.  1.
         21    1    1    2  503  502 -0.47593040966E+02 -0.11190355267E+02 -0.35606678359E+02  0.60482701189E+02  0.00000000000E+00 0. -1.
          3    1    1    2  501    0 -0.76703178579E+02 -0.29651252089E+02 -0.33598956128E+03  0.34590686557E+03  0.00000000000E+00 0. -1.
<scales pt_clust_5="13000.00000" pt_clust_6="13000.00000" pt_clust_7="13000.00000" pt_clust_8="13000.00000" pt_clust_9="48.89092" pt_clust_10="86.18855"></scales>
<clustering>
<clus scale="   48.891">  1  9  2 -1</clus>
<clus scale="   68.227">  5  6 -1 -1</clus>
<clus scale="   86.189">  1 10  2 -1</clus>
<clus scale="   88.709">  7  8 -1 -1</clus>
<clus scale="  163.478">  1  5  2 -1</clus>
<clus scale="   48.891">  1  5  2 -1</clus>
</clustering>
</event>
<event>
10    4  0.3043429E-005  0.1807931E+03  0.7546771E-02  0.1168222E+00
         21   -1    0    0  503  502  0.00000000000E+00  0.00000000000E+00  0.41344224319E+03  0.41344224319E+03  0.00000000000E+00 0.  1.
         -3   -1    0    0    0  501 -0.00000000000E+00 -0.00000000000E+00 -0.26070090607E+03  0.26070090607E+03  0.00000000000E+00 0.  1.
         23    2    1    2    0    0  0.15060786618E+03  0.11364971712E+02 -0.11174026233E+03  0.20802000651E+03  0.89300307652E+02 0.  0.
         24    2    1    2    0    0 -0.18146193768E+03 -0.51639126547E+02  0.17510701220E+03  0.26926197035E+03  0.79022204060E+02 0.  0.
        -13    1    4    4    0    0 -0.16517978197E+03 -0.20360208650E+02  0.16011201001E+03  0.23094318396E+03  0.00000000000E+00 0.  1.
         14    1    4    4    0    0 -0.16282155716E+02 -0.31278917897E+02  0.14995002191E+02  0.38318786389E+02  0.00000000000E+00 0. -1.
        -13    1    3    3    0    0  0.96040692402E+02 -0.33545026966E+02 -0.84617647643E+02  0.13232244603E+03  0.00000000000E+00 0. -1.
         13    1    3    3    0    0  0.54567173776E+02  0.44909998677E+02 -0.27122614685E+02  0.75697560479E+02  0.00000000000E+00 0.  1.
         21    1    1    2  503  501 -0.11324310741E+02  0.67825627080E+02  0.11970932435E+03  0.13805389541E+03  0.00000000000E+00 0.  1.
         -4    1    1    2    0  502  0.42178382245E+02 -0.27551472244E+02 -0.30334737107E+02  0.58807276990E+02  0.00000000000E+00 0.  1.
<scales pt_clust_5="13000.00000" pt_clust_6="13000.00000" pt_clust_7="13000.00000" pt_clust_8="13000.00000" pt_clust_9="58.97536" pt_clust_10="50.37958"></scales>
<clustering>
<clus scale="   50.380">  1 10  2 -1</clus>
<clus scale="   58.975">  1  9  2 -1</clus>
<clus scale="   79.022">  5  6 -1 -1</clus>
<clus scale="   89.300">  7  8 -1 -1</clus>
<clus scale="  175.943">  1  5  2 -1</clus>
<clus scale="   50.380">  1  5  2 -1</clus>
</clustering>
</event>
<event>
10    4  0.3043429E-005  0.9612461E+02  0.7546771E-02  0.1292235E+00
         21   -1    0    0  501  502  0.00000000000E+00  0.00000000000E+00  0.14889523439E+03  0.14889523439E+03  0.00000000000E+00 0. -1.
          2   -1    0    0  503    0 -0.00000000000E+00 -0.00000000000E+00 -0.32796917103E+03  0.32796917103E+03  0.00000000000E+00 0. -1.
         23    2    1    2    0    0  0.26455129753E+02  0.49938957604E+01 -0.13447885634E+03  0.16323593804E+03  0.88524549033E+02 0.  0.
         24    2    1    2    0    0 -0.51081190784E+02  0.77961676080E+01 -0.11340992297E+03  0.14903676658E+03  0.81731749554E+02 0.  0.
        -13    1    4    4    0    0 -0.52187940335E+02  0.35125545063E+02 -0.10102830462E+03  0.11901303864E+03  0.00000000000E+00 0.  1.
         14    1    4    4    0    0  0.11067495509E+01 -0.27329377455E+02 -0.12381618346E+02  0.30023727941E+02  0.00000000000E+00 0. -1.
        -13    1    3    3    0    0  0.35196541015E+02  0.36478739083E+02 -0.44301296324E+02  0.67320871656E+02  0.00000000000E+00 0.  1.
         13    1    3    3    0    0 -0.87414112613E+01 -0.31484843323E+02 -0.90177560012E+02  0.95915066385E+02  0.00000000000E+00 0. -1.
         21    1    1    2  503  502  0.14113231767E+02 -0.35795850322E+02  0.10984626934E+03  0.11639041670E+03  0.00000000000E+00 0. -1.
          1    1    1    2  501    0  0.10512829264E+02  0.23005786954E+02 -0.41031426682E+02  0.48201284091E+02  0.00000000000E+00 0. -1.
<scales pt_clust_5="13000.00000" pt_clust_6="13000.00000" pt_clust_7="13000.00000" pt_clust_8="13000.00000" pt_clust_9="28.58487" pt_clust_10="25.29400"></scales>
<clustering>
<clus scale="   25.294">  1 10  2 -1</clus>
<clus scale="   28.585">  1  9  2 -1</clus>
<clus scale="   81.732">  5  6 -1 -1</clus>
<clus scale="   88.525">  7  8 -1 -1</clus>
<clus scale="   89.908">  1  5  2 -1</clus>
<clus scale="   25.294">  1  5  2 -1</clus>
</clustering>
</event>
<event>
10    4  0.3043429E-005  0.9196912E+02  0.7546771E-02  0.1300621E+00
         -1   -1    0    0    0  501 -0.00000000000E+00  0.00000000000E+00  0.53860385706E+03  0.53860385706E+03  0.00000000000E+00 0.  1.
         21   -1    0    0  503  502  0.00000000000E+00 -0.00000000000E+00 -0.19421016717E+03  0.19421016717E+03  0.00000000000E+00 0. -1.
         23    2    1    2    0    0  0.96336140780E+01  0.21978792047E+02  0.43870489595E+03  0.44827322864E+03  0.88943959675E+02 0.  0.
         24    2    1    2    0    0  0.44012682403E+01 -0.22701614056E+02  0.32073286444E+02  0.93476381742E+02  0.84701852384E+02 0.  0.
        -13    1    4    4    0    0  0.10411139893E+02 -0.24994191022E+02  0.59465289067E+02  0.65339283915E+02  0.00000000000E+00 0.  1.
         14    1    4    4    0    0 -0.60098716530E+01  0.22925769657E+01 -0.27392002623E+02  0.28137097827E+02  0.00000000000E+00 0. -1.
        -13    1    3    3    0    0 -0.34663808392E+02 -0.10737603788E+02  0.14676318345E+03  0.15118302737E+03  0.00000000000E+00 0. -1.
         13    1    3    3    0    0  0.44297422470E+02  0.32716395835E+02  0.29194171250E+03  0.29709020127E+03  0.00000000000E+00 0.  1.
         21    1    1    2  503  501 -0.52946869827E+02  0.34902567364E+01 -0.14002220901E+03  0.14973901273E+03  0.00000000000E+00 0. -1.
         -2    1    1    2    0  502  0.38911987509E+02 -0.27674347273E+01  0.13637716511E+02  0.41325401129E+02  0.00000000000E+00 0.  1.
<scales pt_clust_5="13000.00000" pt_clust_6="13000.00000" pt_clust_7="13000.00000" pt_clust_8="13000.00000" pt_clust_9="21.72751" pt_clust_10="39.01027"></scales>
<clustering>
<clus scale="   39.010">  2 10  1 -1</clus>
<clus scale="   21.728">  2  9  1 -1</clus>
<clus scale="   84.702">  5  6 -1 -1</clus>
<clus scale="   87.873">  2  5  1 -1</clus>
<clus scale="   88.944">  7  8 -1 -1</clus>
<clus scale="   39.010">  2  5  1 -1</clus>
</clustering>
</event>
<event>
10    4  0.3043429E-005  0.1212883E+03  0.7546771E-02  0.1242705E+00
         21   -1    0    0  501  502  0.00000000000E+00  0.00000000000E+00  0.30565800080E+03  0.30565800080E+03  0.00000000000E+00 0. -1.
          2   -1    0    0  503    0 -0.00000000000E+00 -0.00000000000E+00 -0.47179981641E+03  0.47179981641E+03  0.00000000000E+00 0. -1.
         24    2    1    2    0    0 -0.70503949307E+02 -0.89012262028E+02 -0.30176071353E+03  0.33277003398E+03  0.82355191857E+02 0.  0.
         23    2    1    2    0    0  0.54396190087E+02 -0.50275562316E+01 -0.83039279107E+02  0.13285703879E+03  0.88154688273E+02 0.  0.
        -11    1    3    3    0    0 -0.10080404904E+02 -0.73592470445E+02 -0.20085445457E+03  0.21414942958E+03  0.00000000000E+00 0.  1.
         12    1    3    3    0    0 -0.60423544403E+02 -0.15419791583E+02 -0.10090625896E+03  0.11862060440E+03  0.00000000000E+00 0. -1.
        -13    1    4    4    0    0  0.39406278071E+02  0.39974356695E+02 -0.48481855954E+02  0.74170710536E+02  0.00000000000E+00 0.  1.
         13    1    4    4    0    0  0.14989912016E+02 -0.45001912927E+02 -0.34557423153E+02  0.58686328257E+02  0.00000000000E+00 0. -1.
         21    1    1    2  503  502 -0.97628430248E+01  0.62492475044E+02  0.25157792158E+03  0.25940715713E+03  0.00000000000E+00 0. -1.
          1    1    1    2  501    0  0.25870602245E+02  0.31547343216E+02 -0.32919744558E+02  0.52423587308E+02  0.00000000000E+00 0. -1.
<scales pt_clust_5="13000.00000" pt_clust_6="13000.00000" pt_clust_7="13000.00000" pt_clust_8="13000.00000" pt_clust_9="90.60800" pt_clust_10="40.79859"></scales>
<clustering>
<clus scale="   40.799">  1 10  2 -1</clus>
<clus scale="   82.355">  5  6 -1 -1</clus>
<clus scale="   88.155">  7  8 -1 -1</clus>
<clus scale="   90.608">  1  9  2 -1</clus>
<clus scale="  117.141">  2  5  1 -1</clus>
<clus scale="   40.799">  1  5  2 -1</clus>
</clustering>
</event>
<event>
10    4  0.3043429E-005  0.1448840E+03  0.7546771E-02  0.1218703E+00
         21   -1    0    0  503  502  0.00000000000E+00  0.00000000000E+00  0.28363284992E+03  0.28363284992E+03  0.00000000000E+00 0. -1.
          2   -1    0    0  502    0 -0.00000000000E+00 -0.00000000000E+00 -0.66760669079E+03  0.66760669079E+03  0.00000000000E+00 0. -1.
         24    2    1    2    0    0  0.59472929929E+02  0.51722558664E+02 -0.57580823563E+02  0.12660236778E+03  0.80624784127E+02 0.  0.
         23    2    1    2    0    0 -0.11707139022E+03 -0.14566484847E+03 -0.54087364585E+03  0.57954451788E+03  0.91671091084E+02 0.  0.
        -13    1    3    3    0    0  0.38021312906E+01  0.46962267575E+02 -0.52432570385E+02  0.70491738632E+02  0.00000000000E+00 0.  1.
         14    1    3    3    0    0  0.55670798638E+02  0.47602910884E+01 -0.51482531781E+01  0.56110629145E+02  0.00000000000E+00 0. -1.
        -11    1    4    4    0    0 -0.30735732929E+02 -0.75862007269E+02 -0.12742935191E+03  0.15145286116E+03  0.00000000000E+00 0.  1.
         11    1    4    4    0    0 -0.86335657286E+02 -0.69802841199E+02 -0.41344429395E+03  0.42809165672E+03  0.00000000000E+00 0. -1.
         21    1    1    2  503  501  0.42224874832E+02  0.40486796346E+02  0.14312930434E+03  0.15462250319E+03  0.00000000000E+00 0.  1.
          1    1    1    2  501    0  0.15373585454E+02  0.53455493459E+02  0.71351324214E+02  0.90470151860E+02  0.00000000000E+00 0. -1.
<scales pt_clust_5="13000.00000" pt_clust_6="13000.00000" pt_clust_7="13000.00000" pt_clust_8="13000.00000" pt_clust_9="42.79062" pt_clust_10="120.47207"></scales>
<clustering>
<clus scale="   42.791">  9 10 -1 -1</clus>
<clus scale="   80.625">  5  6 -1 -1</clus>
<clus scale="   91.671">  7  8 -1 -1</clus>
<clus scale="  112.750">  2  5  1 -1</clus>
<clus scale="  120.472">  1  9  2 -1</clus>
<clus scale="  120.472">  1  5  2 -1</clus>
</clustering>
</event>
<event>
10    4  0.3043429E-005  0.1081475E+03  0.7546771E-02  0.1268393E+00
         21   -1    0    0  501  502  0.00000000000E+00  0.00000000000E+00  0.45793414985E+03  0.45793414985E+03  0.00000000000E+00 0. -1.
          2   -1    0    0  503    0 -0.00000000000E+00 -0.00000000000E+00 -0.13154340770E+03  0.13154340770E+03  0.00000000000E+00 0. -1.
         24    2    1    2    0    0 -0.36522496630E+02 -0.46818864706E+02 -0.56799353197E+02  0.11522755847E+03  0.80779482878E+02 0.  0.
         23    2    1    2    0    0 -0.43493031188E+02  0.83613636645E+02  0.18616341351E+03  0.22778892244E+03  0.91367897323E+02 0.  0.
        -11    1    3    3    0    0  0.14722934319E+02 -0.46663007739E+02 -0.25450345846E+02  0.55153614477E+02  0.00000000000E+00 0.  1.
         12    1    3    3    0    0 -0.51245430949E+02 -0.15585696733E+00 -0.31349007351E+02  0.60073943990E+02  0.00000000000E+00 0. -1.
        -11    1    4    4    0    0 -0.56302848752E+02  0.15387519417E+02  0.11141570070E+03  0.12577855498E+03  0.00000000000E+00 0. -1.
         11    1    4    4    0    0  0.12809817564E+02  0.68226117228E+02  0.74747712815E+02  0.10201036746E+03  0.00000000000E+00 0.  1.
         21    1    1    2  503  502  0.30987741321E+02 -0.43068120403E+02  0.18909947142E+03  0.19640191750E+03  0.00000000000E+00 0. -1.
          1    1    1    2  501    0  0.49027786497E+02  0.62733484638E+01  0.79272104186E+01  0.50059159150E+02  0.00000000000E+00 0. -1.
<scales pt_clust_5="13000.00000" pt_clust_6="13000.00000" pt_clust_7="13000.00000" pt_clust_8="13000.00000" pt_clust_9="66.56585" pt_clust_10="49.42753"></scales>
<clustering>
<clus scale="   49.428">  1 10  2 -1</clus>
<clus scale="   66.566">  1  9  2 -1</clus>
<clus scale="   80.779">  5  6 -1 -1</clus>
<clus scale="   91.368">  7  8 -1 -1</clus>
<clus scale="   99.364">  2  5  1 -1</clus>
<clus scale="   49.428">  1  5  2 -1</clus>
</clustering>
</event>
<event>
10    4  0.3043429E-005  0.3585721E+03  0.7546771E-02  0.1059151E+00
          2   -1    0    0  502    0 -0.00000000000E+00  0.00000000000E+00  0.31113684952E+04  0.31113684952E+04  0.00000000000E+00 0. -1.
         21   -1    0    0  503  502  0.00000000000E+00 -0.00000000000E+00 -0.62996648094E+02  0.62996648094E+02  0.00000000000E+00 0.  1.
         24    2    1    2    0    0 -0.10511315198E+02  0.70501574960E+02  0.26198253905E+03  0.28380085532E+03  0.82626357147E+02 0.  0.
         23    2    1    2    0    0  0.36831068179E+02  0.25788724514E+03  0.57201230715E+03  0.63507884659E+03  0.90910412284E+02 0.  0.
        -13    1    3    3    0    0  0.18217618021E+02 -0.11559376082E+02  0.64896885003E+02  0.68389373917E+02  0.00000000000E+00 0.  1.
         14    1    3    3    0    0 -0.28728933218E+02  0.82060951042E+02  0.19708565405E+03  0.21541148140E+03  0.00000000000E+00 0. -1.
        -13    1    4    4    0    0  0.12835227990E+02  0.29977404017E+02  0.16309410169E+03  0.16632219886E+03  0.00000000000E+00 0. -1.
         13    1    4    4    0    0  0.23995840188E+02  0.22790984112E+03  0.40891820546E+03  0.46875664772E+03  0.00000000000E+00 0.  1.
         21    1    1    2  503  501  0.16390208821E+02 -0.41539997528E+02  0.34577767942E+02  0.56478601042E+02  0.00000000000E+00 0.  1.
          1    1    1    2  501    0 -0.42709961802E+02 -0.28684882257E+03  0.21797992330E+04  0.21990068403E+04  0.00000000000E+00 0. -1.
<scales pt_clust_5="13000.00000" pt_clust_6="13000.00000" pt_clust_7="13000.00000" pt_clust_8="13000.00000" pt_clust_9="44.65658" pt_clust_10="297.17589"></scales>
<clustering>
<clus scale="   44.657">  2  9  1 -1</clus>
<clus scale="   82.626">  5  6 -1 -1</clus>
<clus scale="   90.910">  7  8 -1 -1</clus>
<clus scale="   93.059">  5  7 -1 -1</clus>
<clus scale="  297.176">  2 10  1 -1</clus>
<clus scale="   44.657">  2  5  1 -1</clus>
</clustering>
</event>
<event>
10    4  0.3043429E-005  0.1587563E+03  0.7546771E-02  0.1206182E+00
          2   -1    0    0  502    0 -0.00000000000E+00  0.00000000000E+00  0.78243781495E+03  0.78243781495E+03  0.00000000000E+00 0. -1.
         21   -1    0    0  503  502  0.00000000000E+00 -0.00000000000E+00 -0.42959866060E+03  0.42959866060E+03  0.00000000000E+00 0.  1.
         23    2    1    2    0    0  0.16092283348E+02 -0.32575393623E+02  0.55634555014E+02  0.11124866153E+03  0.89224117404E+02 0.  0.
         24    2    1    2    0    0  0.22877679823E+02 -0.75121714998E+02  0.46490435282E+03  0.47795529851E+03  0.78348897944E+02 0.  0.
        -11    1    4    4    0    0  0.24966171328E+02  0.81097970022E+01  0.14722945623E+03  0.14955129990E+03  0.00000000000E+00 0.  1.
         12    1    4    4    0    0 -0.20884915046E+01 -0.83231512000E+02  0.31767489658E+03  0.32840399861E+03  0.00000000000E+00 0. -1.
        -11    1    3    3    0    0 -0.18130321004E+02  0.21187376073E+02  0.20088656285E+01  0.27957986081E+02  0.00000000000E+00 0.  1.
         11    1    3    3    0    0  0.34222604352E+02 -0.53762769696E+02  0.53625689385E+02  0.83290675445E+02  0.00000000000E+00 0. -1.
         21    1    1    2  503  501  0.53623556487E+02 -0.74599713192E+02 -0.34202004977E+03  0.35414448670E+03  0.00000000000E+00 0.  1.
          1    1    1    2  501    0 -0.92593519659E+02  0.18229682181E+03  0.17432029629E+03  0.26868802881E+03  0.00000000000E+00 0. -1.
<scales pt_clust_5="13000.00000" pt_clust_6="13000.00000" pt_clust_7="13000.00000" pt_clust_8="13000.00000" pt_clust_9="91.87275" pt_clust_10="138.07612"></scales>
<clustering>
<clus scale="   78.349">  5  6 -1 -1</clus>
<clus scale="   89.224">  7  8 -1 -1</clus>
<clus scale="   91.873">  2  9  1 -1</clus>
<clus scale="  111.848">  1  7  2 -1</clus>
<clus scale="  138.076">  2 10  1 -1</clus>
<clus scale="   91.873">  2  5  1 -1</clus>
</clustering>
</event>
<event>
10    4  0.3043429E-005  0.2812761E+03  0.7546771E-02  0.1094994E+00
         -3   -1    0    0    0  501 -0.00000000000E+00  0.00000000000E+00  0.73560251418E+03  0.73560251418E+03  0.00000000000E+00 0.  1.
         21   -1    0    0  503  502  0.00000000000E+00 -0.00000000000E+00 -0.88652131466E+02  0.88652131466E+02  0.00000000000E+00 0.  1.
         24    2    1    2    0    0  0.89747806687E+02  0.73781721549E+02  0.17878195827E+03  0.22784862620E+03  0.80334280477E+02 0.  0.
         23    2    1    2    0    0  0.87218200003E+02 -0.27423925784E+02  0.21381581618E+03  0.25003006439E+03  0.91862635130E+02 0.  0.
        -13    1    3    3    0    0  0.69399660829E+02  0.12510835702E+02  0.59717834720E+02  0.92407000367E+02  0.00000000000E+00 0.  1.
         14    1    3    3    0    0  0.20348145858E+02  0.61270885847E+02  0.11906412355E+03  0.13544162584E+03  0.00000000000E+00 0. -1.
        -11    1    4    4    0    0  0.50331786871E+02 -0.94453406122E+01  0.20042789381E+03  0.20686672967E+03  0.00000000000E+00 0.  1.
         11    1    4    4    0    0  0.36886413132E+02 -0.17978585172E+02  0.13387922371E+02  0.43163334717E+02  0.00000000000E+00 0. -1.
         21    1    1    2  503  501  0.26632090280E+02 -0.21831525256E+01  0.31504030351E+02  0.41310268893E+02  0.00000000000E+00 0.  1.
         -4    1    1    2    0  502 -0.20359809697E+03 -0.44174643239E+02  0.22284857791E+03  0.30506568616E+03  0.00000000000E+00 0.  1.
<scales pt_clust_5="13000.00000" pt_clust_6="13000.00000" pt_clust_7="13000.00000" pt_clust_8="13000.00000" pt_clust_9="26.72142" pt_clust_10="195.82450"></scales>
<clustering>
<clus scale="   26.721">  2  9  1 -1</clus>
<clus scale="   80.334">  5  6 -1 -1</clus>
<clus scale="   91.863">  7  8 -1 -1</clus>
<clus scale="  130.153">  5  7 -1 -1</clus>
<clus scale="  195.825">  2 10  1 -1</clus>
<clus scale="   26.721">  2  5  1 -1</clus>
</clustering>
</event>
<event>
10    4  0.3043429E-005  0.2088759E+03  0.7546771E-02  0.1164395E+00
         21   -1    0    0  503  502  0.00000000000E+00  0.00000000000E+00  0.22011487955E+03  0.22011487955E+03  0.00000000000E+00 0. -1.
          2   -1    0    0  502    0 -0.00000000000E+00 -0.00000000000E+00 -0.16505404444E+04  0.16505404444E+04  0.00000000000E+00 0. -1.
         23    2    1    2    0    0 -0.57225857505E+02  0.64008190002E+02 -0.14748712424E+03  0.19374098165E+03  0.91712970715E+02 0.  0.
         24    2    1    2    0    0 -0.80317617189E+02 -0.20316819960E+03 -0.14128518017E+04  0.14319059330E+04  0.80474532458E+02 0.  0.
        -13    1    4    4    0    0  0.15009393965E+02 -0.39447667749E+02 -0.20656890767E+03  0.21083669987E+03  0.00000000000E+00 0.  1.
         14    1    4    4    0    0 -0.95327011154E+02 -0.16372053185E+03 -0.12062828940E+04  0.12210692331E+04  0.00000000000E+00 0. -1.
        -13    1    3    3    0    0 -0.44771376273E+01  0.50980515167E+02 -0.12475457823E+03  0.13484347399E+03  0.00000000000E+00 0.  1.
         13    1    3    3    0    0 -0.52748719877E+02  0.13027674835E+02 -0.22732546017E+02  0.58897507661E+02  0.00000000000E+00 0. -1.
         21    1    1    2  503  501  0.22155251584E+02  0.37714115973E+01  0.39536776732E+02  0.45477856508E+02  0.00000000000E+00 0. -1.
          1    1    1    2  501    0  0.11538822311E+03  0.13538859800E+03  0.90376584375E+02  0.19953055281E+03  0.00000000000E+00 0. -1.
<scales pt_clust_5="13000.00000" pt_clust_6="13000.00000" pt_clust_7="13000.00000" pt_clust_8="13000.00000" pt_clust_9="22.47396" pt_clust_10="192.75115"></scales>
<clustering>
<clus scale="   22.474">  1  9  2 -1</clus>
<clus scale="   80.475">  5  6 -1 -1</clus>
<clus scale="   91.713">  7  8 -1 -1</clus>
<clus scale="  124.597">  2  7  1 -1</clus>
<clus scale="  192.751">  1 10  2 -1</clus>
<clus scale="   22.474">  1  5  2 -1</clus>
</clustering>
</event>
<event>
10    4  0.3043429E-005  0.4489760E+03  0.7546771E-02  0.1028028E+00
         21   -1    0    0  501  502  0.00000000000E+00  0.00000000000E+00  0.74895109185E+02  0.74895109185E+02  0.00000000000E+00 0. -1.
          2   -1    0    0  503    0 -0.00000000000E+00 -0.00000000000E+00 -0.27421152382E+04  0.27421152382E+04  0.00000000000E+00 0. -1.
         24    2    1    2    0    0  0.89961267036E+02  0.56104904973E+02 -0.37373223987E+03  0.39644194125E+03  0.79054637670E+02 0.  0.
         23    2    1    2    0    0  0.19443401705E+03  0.22493579877E+03 -0.69578496644E+03  0.76313571544E+03  0.99290987033E+02 0.  0.
        -11    1    3    3    0    0  0.87167372806E+02  0.32596483894E+02 -0.35271219662E+03  0.36478291529E+03  0.00000000000E+00 0.  1.
         12    1    3    3    0    0  0.27938942300E+01  0.23508421078E+02 -0.21020043250E+02  0.31659025961E+02  0.00000000000E+00 0. -1.
        -13    1    4    4    0    0  0.98197374990E+02  0.18351144650E+03 -0.48387572312E+03  0.52673987022E+03  0.00000000000E+00 0. -1.
         13    1    4    4    0    0  0.96236642057E+02  0.41424352274E+02 -0.21190924332E+03  0.23639584523E+03  0.00000000000E+00 0.  1.
         21    1    1    2  503  502 -0.15949384865E+02  0.17783957215E+02 -0.26430479840E+02  0.35626145966E+02  0.00000000000E+00 0. -1.
          1    1    1    2  501    0 -0.26844589922E+03 -0.29882466096E+03 -0.15712724429E+04  0.16218065448E+04  0.00000000000E+00 0. -1.
<scales pt_clust_5="13000.00000" pt_clust_6="13000.00000" pt_clust_7="13000.00000" pt_clust_8="13000.00000" pt_clust_9="23.88832" pt_clust_10="400.86265"></scales>
<clustering>
<clus scale="   23.888">  1  9  2 -1</clus>
<clus scale="   79.055">  5  6 -1 -1</clus>
<clus scale="   99.291">  7  8 -1 -1</clus>
<clus scale="  106.653">  5  7 -1 -1</clus>
<clus scale="  400.863">  1 10  2 -1</clus>
<clus scale="   23.888">  1  5  2 -1</clus>
</clustering>
</event>
<event>
10    4  0.3043429E-005  0.2179673E+03  0.7546771E-02  0.1168998E+00
          2   -1    0    0  502    0 -0.00000000000E+00  0.00000000000E+00  0.63196947897E+03  0.63196947897E+03  0.00000000000E+00 0. -1.
         21   -1    0    0  503  502  0.00000000000E+00 -0.00000000000E+00 -0.16075425218E+03  0.16075425218E+03  0.00000000000E+00 0.  1.
         23    2    1    2    0    0  0.26590944725E+02 -0.23879781290E+02  0.26566342209E+02  0.10220810842E+03  0.91996764030E+02 0.  0.
         24    2    1    2    0    0  0.85422303566E+02 -0.19303680283E+03  0.10946816716E+03  0.25110519118E+03  0.80686803274E+02 0.  0.
        -13    1    4    4    0    0  0.83932812287E+02 -0.20087792665E+03  0.10305828594E+03  0.24086857141E+03  0.00000000000E+00 0.  1.
         14    1    4    4    0    0  0.14894912797E+01  0.78411238186E+01  0.64098812217E+01  0.10236619769E+02  0.00000000000E+00 0. -1.
        -13    1    3    3    0    0 -0.29080741687E+02 -0.25829550636E+02  0.25467630265E+02  0.46491455284E+02  0.00000000000E+00 0.  1.
         13    1    3    3    0    0  0.55671686412E+02  0.19497693455E+01  0.10987119443E+01  0.55716653133E+02  0.00000000000E+00 0. -1.
         21    1    1    2  503  501  0.29362526401E+02  0.55368211429E+02  0.39732766165E+02  0.74205724177E+02  0.00000000000E+00 0. -1.
          1    1    1    2  501    0 -0.14137577469E+03  0.16154837269E+03  0.29544795126E+03  0.36520470738E+03  0.00000000000E+00 0. -1.
<scales pt_clust_5="13000.00000" pt_clust_6="13000.00000" pt_clust_7="13000.00000" pt_clust_8="13000.00000" pt_clust_9="62.67214" pt_clust_10="202.48311"></scales>
<clustering>
<clus scale="   62.672">  2  9  1 -1</clus>
<clus scale="   80.687">  5  6 -1 -1</clus>
<clus scale="   91.997">  7  8 -1 -1</clus>
<clus scale="   98.631">  1  7  2 -1</clus>
<clus scale="  202.483">  2 10  1 -1</clus>
<clus scale="   62.672">  2  5  1 -1</clus>
</clustering>
</event>
<event>
10    4  0.3043429E-005  0.1484808E+03  0.7546771E-02  0.1208080E+00
         21   -1    0    0  501  502  0.00000000000E+00  0.00000000000E+00  0.35382858100E+03  0.35382858100E+03  0.00000000000E+00 0.  1.
          4   -1    0    0  503    0 -0.00000000000E+00 -0.00000000000E+00 -0.15130895993E+03  0.15130895993E+03  0.00000000000E+00 0. -1.
         23    2    1    2    0    0  0.10182629541E+03 -0.88343561345E+01  0.10782706461E+03  0.17380982605E+03  0.90202768716E+02 0.  0.
         24    2    1    2    0    0 -0.22196328617E+02  0.11935072585E+03  0.11991980166E+02  0.14527319414E+03  0.78887391784E+02 0.  0.
        -13    1    4    4    0    0  0.21693344857E+02  0.72100810474E+02 -0.12433566660E+02  0.76313312482E+02  0.00000000000E+00 0.  1.
         14    1    4    4    0    0 -0.43889673474E+02  0.47249915380E+02  0.24425546826E+02  0.68959881662E+02  0.00000000000E+00 0. -1.
        -13    1    3    3    0    0  0.10443380123E+03 -0.33403691146E+02  0.75516192970E+02  0.13313497220E+03  0.00000000000E+00 0. -1.
         13    1    3    3    0    0 -0.26075058246E+01  0.24569335011E+02  0.32310871641E+02  0.40674853850E+02  0.00000000000E+00 0.  1.
         21    1    1    2  503  502 -0.14972189033E+02  0.15460415246E+02  0.25419253629E+02  0.33306596030E+02  0.00000000000E+00 0.  1.
          3    1    1    2  501    0 -0.64657777756E+02 -0.12597678497E+03  0.57281322668E+02  0.15274792470E+03  0.00000000000E+00 0. -1.
<scales pt_clust_5="13000.00000" pt_clust_6="13000.00000" pt_clust_7="13000.00000" pt_clust_8="13000.00000" pt_clust_9="21.52187" pt_clust_10="125.79085"></scales>
<clustering>
<clus scale="   21.522">  1  9  2 -1</clus>
<clus scale="   78.887">  5  6 -1 -1</clus>
<clus scale="   90.203">  7  8 -1 -1</clus>
<clus scale="  131.258">  2  7  1 -1</clus>
<clus scale="  125.791">  1 10  2 -1</clus>
<clus scale="   21.522">  1  5  2 -1</clus>
</clustering>
</event>
<event>
10    4  0.3043429E-005  0.2448186E+03  0.7546771E-02  0.1117157E+00
          2   -1    0    0  503    0 -0.00000000000E+00  0.00000000000E+00  0.49690970562E+03  0.49690970562E+03  0.00000000000E+00 0. -1.
         21   -1    0    0  501  502  0.00000000000E+00 -0.00000000000E+00 -0.58462165909E+03  0.58462165909E+03  0.00000000000E+00 0. -1.
         23    2    1    2    0    0 -0.11352841540E+03 -0.14533618376E+03  0.69373699191E+02  0.21629097073E+03  0.89206314040E+02 0.  0.
         24    2    1    2    0    0  0.61697273288E+02  0.38436042947E+03 -0.46098673296E+02  0.40004636319E+03  0.79828013540E+02 0.  0.
        -13    1    4    4    0    0  0.44547462768E+02  0.94846118691E+02 -0.32479432124E+02  0.10970495058E+03  0.00000000000E+00 0.  1.
         14    1    4    4    0    0  0.17149810520E+02  0.28951431078E+03 -0.13619241172E+02  0.29034141261E+03  0.00000000000E+00 0. -1.
        -11    1    3    3    0    0 -0.80454849811E+02 -0.62872510715E+02  0.75863572739E+02  0.12720541313E+03  0.00000000000E+00 0.  1.
         11    1    3    3    0    0 -0.33073565591E+02 -0.82463673044E+02 -0.64898735481E+01  0.89085557592E+02  0.00000000000E+00 0. -1.
         21    1    1    2  503  502  0.13528575986E+02 -0.17279565504E+03 -0.25136052456E+03  0.30532519398E+03  0.00000000000E+00 0. -1.
          1    1    1    2  501    0  0.38302566129E+02 -0.66228590671E+02  0.14037354520E+03  0.15986883682E+03  0.00000000000E+00 0. -1.
<scales pt_clust_5="13000.00000" pt_clust_6="13000.00000" pt_clust_7="13000.00000" pt_clust_8="13000.00000" pt_clust_9="207.35786" pt_clust_10="76.50698"></scales>
<clustering>
<clus scale="   76.507">  2 10  1 -1</clus>
<clus scale="   79.828">  5  6 -1 -1</clus>
<clus scale="   89.206">  7  8 -1 -1</clus>
<clus scale="  207.358">  2  9  1 -1</clus>
<clus scale="  241.559">  2  5  1 -1</clus>
<clus scale="   76.507">  2  5  1 -1</clus>
</clustering>
</event>
<event>
10    4  0.3043429E-005  0.2509059E+03  0.7546771E-02  0.1153742E+00
         21   -1    0    0  501  502  0.00000000000E+00  0.00000000000E+00  0.76535367711E+02  0.76535367711E+02  0.00000000000E+00 0.  1.
          2   -1    0    0  503    0 -0.00000000000E+00 -0.00000000000E+00 -0.15368085746E+04  0.15368085746E+04  0.00000000000E+00 0. -1.
         24    2    1    2    0    0  0.14670231495E+02  0.47065346011E+02 -0.25196224560E+03  0.26884961779E+03  0.79779579403E+02 0.  0.
         23    2    1    2    0    0 -0.19309241404E+03 -0.15031211141E+03 -0.26761904304E+03  0.37435532211E+03  0.92970660950E+02 0.  0.
        -11    1    3    3    0    0  0.38918778425E+02 -0.75279375095E+00 -0.12804055322E+03  0.13382683319E+03  0.00000000000E+00 0.  1.
         12    1    3    3    0    0 -0.24248546930E+02  0.47818139762E+02 -0.12392169238E+03  0.13502278460E+03  0.00000000000E+00 0. -1.
        -11    1    4    4    0    0 -0.53805102643E+02 -0.43407243888E+02 -0.22229609831E+02  0.72617721292E+02  0.00000000000E+00 0.  1.
         11    1    4    4    0    0 -0.13928731140E+03 -0.10690486752E+03 -0.24538943321E+03  0.30173760082E+03  0.00000000000E+00 0. -1.
         21    1    1    2  503  502  0.21241970853E+02 -0.26074231144E+02 -0.13934810240E+03  0.14334915590E+03  0.00000000000E+00 0.  1.
          1    1    1    2  501    0  0.15718021169E+03  0.12932099654E+03 -0.80134381584E+03  0.82678984650E+03  0.00000000000E+00 0. -1.
<scales pt_clust_5="13000.00000" pt_clust_6="13000.00000" pt_clust_7="13000.00000" pt_clust_8="13000.00000" pt_clust_9="33.63163" pt_clust_10="233.04566"></scales>
<clustering>
<clus scale="   33.632">  2  9  1 -1</clus>
<clus scale="   79.780">  5  6 -1 -1</clus>
<clus scale="   92.157">  2  5  1 -1</clus>
<clus scale="   92.971">  7  8 -1 -1</clus>
<clus scale="  233.046">  1 10  2 -1</clus>
<clus scale="  233.046">  1  5  2 -1</clus>
</clustering>
</event>
<event>
10    4  0.3043429E-005  0.4940532E+03  0.7546771E-02  0.1072733E+00
         21   -1    0    0  501  502  0.00000000000E+00  0.00000000000E+00  0.17726117175E+03  0.17726117175E+03  0.00000000000E+00 0. -1.
          2   -1    0    0  503    0 -0.00000000000E+00 -0.00000000000E+00 -0.24726279129E+04  0.24726279129E+04  0.00000000000E+00 0. -1.
         23    2    1    2    0    0 -0.97975188080E+01  0.23308008428E+02 -0.77716391162E+02  0.12217021284E+03  0.90810070028E+02 0.  0.
         24    2    1    2    0    0  0.50341203666E+03 -0.67417727664E+02 -0.15236189090E+04  0.16080254161E+04  0.79764216979E+02 0.  0.
        -11    1    4    4    0    0  0.22664311700E+02 -0.21316859475E+02 -0.86312712868E+02  0.91749462807E+02  0.00000000000E+00 0.  1.
         12    1    4    4    0    0  0.48074772496E+03 -0.46100868189E+02 -0.14373061961E+04  0.15162759533E+04  0.00000000000E+00 0. -1.
        -11    1    3    3    0    0 -0.21341703787E+02 -0.10196477915E+02 -0.83033015555E+02  0.86336076784E+02  0.00000000000E+00 0.  1.
         11    1    3    3    0    0  0.11544184979E+02  0.33504486342E+02  0.53166243933E+01  0.35834136055E+02  0.00000000000E+00 0. -1.
         21    1    1    2  503  502 -0.31733515278E+02 -0.21647934342E+02  0.36440190787E+02  0.52948433005E+02  0.00000000000E+00 0.  1.
          1    1    1    2  501    0 -0.46188100257E+03  0.65757653577E+02 -0.73047163177E+03  0.86674502269E+03  0.00000000000E+00 0. -1.
<scales pt_clust_5="13000.00000" pt_clust_6="13000.00000" pt_clust_7="13000.00000" pt_clust_8="13000.00000" pt_clust_9="38.41418" pt_clust_10="487.57175"></scales>
<clustering>
<clus scale="   38.414">  1  9  2 -1</clus>
<clus scale="   79.764">  5  6 -1 -1</clus>
<clus scale="   90.810">  7  8 -1 -1</clus>
<clus scale="   94.140">  2  7  1 -1</clus>
<clus scale="  487.572">  1 10  2 -1</clus>
<clus scale="   38.414">  1  5  2 -1</clus>
</clustering>
</event>
<event>
10    4  0.3043429E-005  0.3688683E+03  0.7546771E-02  0.1055127E+00
          2   -1    0    0  502    0 -0.00000000000E+00  0.00000000000E+00  0.14345137731E+04  0.14345137731E+04  0.00000000000E+00 0. -1.
         21   -1    0    0  503  502  0.00000000000E+00 -0.00000000000E+00 -0.18508356700E+03  0.18508356700E+03  0.00000000000E+00 0. -1.
         24    2    1    2    0    0 -0.92049822336E+02 -0.14623401942E+03  0.42713650463E+03  0.46763895005E+03  0.79893903315E+02 0.  0.
         23    2    1    2    0    0 -0.20890904501E+02 -0.14065696206E+03  0.63881127882E+03  0.66072890650E+03  0.90895693304E+02 0.  0.
        -11    1    3    3    0    0 -0.46495845945E+02 -0.18433210868E+02  0.16582761385E+03  0.17320636382E+03  0.00000000000E+00 0.  1.
         12    1    3    3    0    0 -0.45553976391E+02 -0.12780080855E+03  0.26130889078E+03  0.29443258623E+03  0.00000000000E+00 0. -1.
        -13    1    4    4    0    0 -0.46654693500E+02 -0.44306890436E+02  0.32992265981E+03  0.33613795148E+03  0.00000000000E+00 0. -1.
         13    1    4    4    0    0  0.25763788999E+02 -0.96350071628E+02  0.30888861901E+03  0.32459095502E+03  0.00000000000E+00 0.  1.
         21    1    1    2  503  501 -0.23499656434E+02  0.14742701124E+02 -0.82455653309E+02  0.86997217493E+02  0.00000000000E+00 0. -1.
          1    1    1    2  501    0  0.13644038327E+03  0.27214828036E+03  0.26593807596E+03  0.40423226608E+03  0.00000000000E+00 0. -1.
<scales pt_clust_5="13000.00000" pt_clust_6="13000.00000" pt_clust_7="13000.00000" pt_clust_8="13000.00000" pt_clust_9="27.74132" pt_clust_10="306.84940"></scales>
<clustering>
<clus scale="   27.741">  2  9  1 -1</clus>
<clus scale="   79.894">  5  6 -1 -1</clus>
<clus scale="   90.896">  7  8 -1 -1</clus>
<clus scale="  136.508">  5  7 -1 -1</clus>
<clus scale="  306.849">  2 10  1 -1</clus>
<clus scale="   27.741">  2  5  1 -1</clus>
</clustering>
</event>
<event>
10    4  0.3043429E-005  0.1844307E+03  0.7546771E-02  0.1191696E+00
          2   -1    0    0  503    0 -0.00000000000E+00  0.00000000000E+00  0.13481988528E+04  0.13481988528E+04  0.00000000000E+00 0. -1.
         21   -1    0    0  501  502  0.00000000000E+00 -0.00000000000E+00 -0.46186236224E+02  0.46186236224E+02  0.00000000000E+00 0. -1.
         24    2    1    2    0    0  0.15808892995E+02 -0.47690700753E+02  0.43189033306E+03  0.44261992292E+03  0.82817946985E+02 0.  0.
         23    2    1    2    0    0  0.83637080343E+02 -0.85915027190E+02  0.35285245261E+03  0.39047952117E+03  0.11658837864E+03 0.  0.
        -13    1    3    3    0    0  0.79305958115E+00 -0.52821114705E+02  0.13014846839E+03  0.14046110824E+03  0.00000000000E+00 0.  1.
         14    1    3    3    0    0  0.15015833413E+02  0.51304139522E+01  0.30174186467E+03  0.30215881469E+03  0.00000000000E+00 0. -1.
        -11    1    4    4    0    0  0.68654574584E+02 -0.11363540226E+03  0.25221442148E+03  0.28502380543E+03  0.00000000000E+00 0. -1.
         11    1    4    4    0    0  0.14982505759E+02  0.27720375070E+02  0.10063803112E+03  0.10545571573E+03  0.00000000000E+00 0.  1.
         21    1    1    2  503  502 -0.11535049701E+02 -0.16503157297E+02  0.56674600904E+01  0.20917257857E+02  0.00000000000E+00 0. -1.
          1    1    1    2  501    0 -0.87910923636E+02  0.15010888524E+03  0.51160237078E+03  0.54036838704E+03  0.00000000000E+00 0. -1.
<scales pt_clust_5="13000.00000" pt_clust_6="13000.00000" pt_clust_7="13000.00000" pt_clust_8="13000.00000" pt_clust_9="20.13483" pt_clust_10="142.90506"></scales>
<clustering>
<clus scale="   20.135">  2  9  1 -1</clus>
<clus scale="   82.818">  5  6 -1 -1</clus>
<clus scale="   97.771">  1  5  2 -1</clus>
<clus scale="  116.588">  7  8 -1 -1</clus>
<clus scale="  142.905">  2 10  1 -1</clus>
<clus scale="   20.135">  2  5  1 -1</clus>
</clustering>
</event>
<event>
10    4  0.3043429E-005  0.2656632E+03  0.7546771E-02  0.1151033E+00
         -3   -1    0    0    0  501 -0.00000000000E+00  0.00000000000E+00  0.19432361463E+03  0.19432361463E+03  0.00000000000E+00 0.  1.
         21   -1    0    0  501  502  0.00000000000E+00 -0.00000000000E+00 -0.12404672647E+04  0.12404672647E+04  0.00000000000E+00 0. -1.
         24    2    1    2    0    0 -0.15267712672E+02 -0.40758424088E+01 -0.65236773364E+02  0.10537994704E+03  0.81236574883E+02 0.  0.
         23    2    1    2    0    0  0.33038153297E+02  0.20827536881E+03 -0.70877956541E+02  0.24059701489E+03  0.91613809123E+02 0.  0.
        -11    1    3    3    0    0 -0.45574097852E+02  0.13450437912E+02 -0.33632876751E+02  0.58215831812E+02  0.00000000000E+00 0.  1.
         12    1    3    3    0    0  0.30306385180E+02 -0.17526280321E+02 -0.31603896613E+02  0.47164115233E+02  0.00000000000E+00 0. -1.
        -13    1    4    4    0    0 -0.12157620559E+02  0.13907459643E+03 -0.14086116602E+02  0.14031382608E+03  0.00000000000E+00 0. -1.
         13    1    4    4    0    0  0.45195773856E+02  0.69200772386E+02 -0.56791839939E+02  0.10028318881E+03  0.00000000000E+00 0.  1.
         21    1    1    2  503  502  0.13546560299E+03  0.94305609563E+02 -0.63156067367E+03  0.65277359177E+03  0.00000000000E+00 0. -1.
         -4    1    1    2    0  503 -0.15323604362E+03 -0.29850513597E+03 -0.27846824647E+03  0.43604032561E+03  0.00000000000E+00 0.  1.
<scales pt_clust_5="13000.00000" pt_clust_6="13000.00000" pt_clust_7="13000.00000" pt_clust_8="13000.00000" pt_clust_9="164.15489" pt_clust_10="249.36689"></scales>
<clustering>
<clus scale="   81.237">  5  6 -1 -1</clus>
<clus scale="   82.759">  1  5  2 -1</clus>
<clus scale="   91.614">  7  8 -1 -1</clus>
<clus scale="  164.155">  2  9  1 -1</clus>
<clus scale="  249.367">  2 10  1 -1</clus>
<clus scale="  164.155">  2  5  1 -1</clus>
</clustering>
</event>
<event>
10    4  0.3043429E-005  0.1394448E+03  0.7546771E-02  0.1215437E+00
         21   -1    0    0  501  502  0.00000000000E+00  0.00000000000E+00  0.21061299351E+03  0.21061299351E+03  0.00000000000E+00 0. -1.
          4   -1    0    0  503    0 -0.00000000000E+00 -0.00000000000E+00 -0.23233795265E+03  0.23233795265E+03  0.00000000000E+00 0. -1.
         23    2    1    2    0    0  0.98445408677E+02 -0.55748015869E+02 -0.10365732990E+03  0.17528347196E+03  0.84735551778E+02 0.  0.
         24    2    1    2    0    0 -0.11272320087E+03  0.60839488232E+01  0.52099490341E+02  0.14679863962E+03  0.78050940112E+02 0.  0.
        -13    1    4    4    0    0 -0.92995345215E+02  0.10802522835E+02  0.72211236724E+02  0.11823405364E+03  0.00000000000E+00 0.  1.
         14    1    4    4    0    0 -0.19727855654E+02 -0.47185740120E+01 -0.20111746383E+02  0.28564585976E+02  0.00000000000E+00 0. -1.
        -13    1    3    3    0    0  0.68889089016E+02  0.22664133744E+01 -0.80970383210E+02  0.10633459537E+03  0.00000000000E+00 0.  1.
         13    1    3    3    0    0  0.29556319661E+02 -0.58014429244E+02 -0.22686946695E+02  0.68948876588E+02  0.00000000000E+00 0. -1.
         21    1    1    2  503  502 -0.57826798138E+01  0.51531118987E+02  0.63286235734E+02  0.81817132945E+02  0.00000000000E+00 0. -1.
          3    1    1    2  501    0  0.20060472006E+02 -0.18670519412E+01 -0.33453355307E+02  0.39051701645E+02  0.00000000000E+00 0. -1.
<scales pt_clust_5="13000.00000" pt_clust_6="13000.00000" pt_clust_7="13000.00000" pt_clust_8="13000.00000" pt_clust_9="50.89394" pt_clust_10="20.14718"></scales>
<clustering>
<clus scale="   20.147">  1 10  2 -1</clus>
<clus scale="   50.894">  1  9  2 -1</clus>
<clus scale="   78.051">  5  6 -1 -1</clus>
<clus scale="   84.736">  7  8 -1 -1</clus>
<clus scale="  135.487">  1  5  2 -1</clus>
<clus scale="   20.147">  1  5  2 -1</clus>
</clustering>
</event>
<event>
10    4  0.3043429E-005  0.1249243E+03  0.7546771E-02  0.1253635E+00
         21   -1    0    0  503  502  0.00000000000E+00  0.00000000000E+00  0.19436151827E+03  0.19436151827E+03  0.00000000000E+00 0. -1.
          2   -1    0    0  502    0 -0.00000000000E+00 -0.00000000000E+00 -0.31539745952E+03  0.31539745952E+03  0.00000000000E+00 0. -1.
         24    2    1    2    0    0  0.23300150311E+02  0.15697027976E+02 -0.48565334369E+02  0.98083912913E+02  0.80452275158E+02 0.  0.
         23    2    1    2    0    0 -0.56684333220E+02  0.78560583183E+02  0.33172479409E+02  0.13756561730E+03  0.91864067024E+02 0.  0.
        -13    1    3    3    0    0  0.24128036835E+02  0.43663338858E+02 -0.49243857684E+02  0.70097124344E+02  0.00000000000E+00 0.  1.
         14    1    3    3    0    0 -0.82788652309E+00 -0.27966310883E+02  0.67852331479E+00  0.27986788568E+02  0.00000000000E+00 0. -1.
        -11    1    4    4    0    0  0.20398255819E+01  0.74617009443E+02  0.19127820459E+02  0.77056683696E+02  0.00000000000E+00 0. -1.
         11    1    4    4    0    0 -0.58724158802E+02  0.39435737394E+01  0.14044658950E+02  0.60508933604E+02  0.00000000000E+00 0.  1.
         21    1    1    2  503  501  0.19408240596E+02 -0.76962023678E+01  0.72559391260E+02  0.75503487296E+02  0.00000000000E+00 0.  1.
          1    1    1    2  501    0  0.13975942313E+02 -0.86561408791E+02 -0.17820247755E+03  0.19860596029E+03  0.00000000000E+00 0. -1.
<scales pt_clust_5="13000.00000" pt_clust_6="13000.00000" pt_clust_7="13000.00000" pt_clust_8="13000.00000" pt_clust_9="20.87849" pt_clust_10="84.65861"></scales>
<clustering>
<clus scale="   20.878">  1  9  2 -1</clus>
<clus scale="   80.452">  5  6 -1 -1</clus>
<clus scale="   86.120">  2  5  1 -1</clus>
<clus scale="   84.659">  1 10  2 -1</clus>
<clus scale="   91.864">  7  8 -1 -1</clus>
<clus scale="   20.878">  1  5  2 -1</clus>
</clustering>
</event>
<event>
10    4  0.3043429E-005  0.1880744E+03  0.7546771E-02  0.1184255E+00
         21   -1    0    0  503  502  0.00000000000E+00  0.00000000000E+00  0.48946551138E+03  0.48946551138E+03  0.00000000000E+00 0. -1.
          2   -1    0    0  502    0 -0.00000000000E+00 -0.00000000000E+00 -0.93456096033E+03  0.93456096033E+03  0.00000000000E+00 0. -1.
         23    2    1    2    0    0 -0.20308303439E+02 -0.45631207165E+02  0.26312314564E+03  0.28254441859E+03  0.90016245479E+02 0.  0.
         24    2    1    2    0    0 -0.14197900897E+03  0.13062953786E+03 -0.75222862231E+03  0.78073625432E+03  0.80492753990E+02 0.  0.
        -13    1    4    4    0    0 -0.39002635194E+00  0.33654822749E+02 -0.76890467403E+02  0.83934159865E+02  0.00000000000E+00 0.  1.
         14    1    4    4    0    0 -0.14158898262E+03  0.96974715106E+02 -0.67533815490E+03  0.69680209445E+03  0.00000000000E+00 0. -1.
        -13    1    3    3    0    0  0.20880924672E+02  0.95023347909E+01  0.13662146776E+03  0.13853422983E+03  0.00000000000E+00 0.  1.
         13    1    3    3    0    0 -0.41189228110E+02 -0.55133541956E+02  0.12650167788E+03  0.14401018876E+03  0.00000000000E+00 0. -1.
         21    1    1    2  503  501  0.12290299490E+02 -0.17552180992E+02  0.15876508694E+03  0.16020450477E+03  0.00000000000E+00 0. -1.
          1    1    1    2  501    0  0.14999701292E+03 -0.67446149698E+02 -0.11475505922E+03  0.20054129403E+03  0.00000000000E+00 0. -1.
<scales pt_clust_5="13000.00000" pt_clust_6="13000.00000" pt_clust_7="13000.00000" pt_clust_8="13000.00000" pt_clust_9="21.42733" pt_clust_10="169.97908"></scales>
<clustering>
<clus scale="   21.427">  1  9  2 -1</clus>
<clus scale="   80.493">  5  6 -1 -1</clus>
<clus scale="   90.016">  7  8 -1 -1</clus>
<clus scale="  108.734">  2  7  1 -1</clus>
<clus scale="  169.979">  1 10  2 -1</clus>
<clus scale="   21.427">  1  5  2 -1</clus>
</clustering>
</event>
<event>
10    4  0.3043429E-005  0.2560007E+03  0.7546771E-02  0.1137614E+00
         21   -1    0    0  501  502  0.00000000000E+00  0.00000000000E+00  0.43907256354E+03  0.43907256354E+03  0.00000000000E+00 0. -1.
          4   -1    0    0  503    0 -0.00000000000E+00 -0.00000000000E+00 -0.64000316936E+03  0.64000316936E+03  0.00000000000E+00 0. -1.
         24    2    1    2    0    0  0.78952799761E+02 -0.55950652458E+02 -0.32073657416E+02  0.13149384584E+03  0.83053548349E+02 0.  0.
         23    2    1    2    0    0  0.77422547196E+02  0.20519428731E+03 -0.36335449770E+03  0.43394700123E+03  0.90468571989E+02 0.  0.
        -11    1    3    3    0    0  0.64976217280E+02 -0.16852252859E+01  0.35460271014E+01  0.65094724091E+02  0.00000000000E+00 0.  1.
         12    1    3    3    0    0  0.13976582481E+02 -0.54265427172E+02 -0.35619684517E+02  0.66399121749E+02  0.00000000000E+00 0. -1.
        -11    1    4    4    0    0  0.96195477893E+02  0.17957308309E+03 -0.33056934288E+03  0.38829905046E+03  0.00000000000E+00 0. -1.
         11    1    4    4    0    0 -0.18772930697E+02  0.25621204224E+02 -0.32785154820E+02  0.45647950769E+02  0.00000000000E+00 0.  1.
         21    1    1    2  503  502 -0.15221085702E+02  0.14176620976E+03  0.10789863548E+03  0.17880563531E+03  0.00000000000E+00 0. -1.
          3    1    1    2  501    0 -0.14115426126E+03 -0.29100984461E+03  0.86598913815E+02  0.33482925052E+03  0.00000000000E+00 0. -1.
<scales pt_clust_5="13000.00000" pt_clust_6="13000.00000" pt_clust_7="13000.00000" pt_clust_8="13000.00000" pt_clust_9="138.58904" pt_clust_10="239.48232"></scales>
<clustering>
<clus scale="   83.054">  5  6 -1 -1</clus>
<clus scale="   90.469">  7  8 -1 -1</clus>
<clus scale="  127.522">  2  5  1 -1</clus>
<clus scale="  138.589">  1  9  2 -1</clus>
<clus scale="  239.482">  1 10  2 -1</clus>
<clus scale="  138.589">  1  5  2 -1</clus>
</clustering>
</event>
<event>
10    4  0.3043429E-005  0.1475851E+03  0.7546771E-02  0.1205644E+00
          2   -1    0    0  503    0 -0.00000000000E+00  0.00000000000E+00  0.10696776320E+04  0.10696776320E+04  0.00000000000E+00 0. -1.
         21   -1    0    0  501  502  0.00000000000E+00 -0.00000000000E+00 -0.60983765397E+02  0.60983765397E+02  0.00000000000E+00 0. -1.
         23    2    1    2    0    0 -0.15484518937E+02 -0.13214518276E+03  0.56366709851E+03  0.58627166002E+03  0.91059001498E+02 0.  0.
         24    2    1    2    0    0  0.44308976807E+00  0.96656967318E+02  0.28206021766E+03  0.30861935545E+03  0.79656603708E+02 0.  0.
        -13    1    4    4    0    0 -0.82271958093E+00  0.54345535746E+02  0.24912627906E+03  0.25498630755E+03  0.00000000000E+00 0.  1.
         14    1    4    4    0    0  0.12658093490E+01  0.42311431572E+02  0.32933938600E+02  0.53633047896E+02  0.00000000000E+00 0. -1.
        -13    1    3    3    0    0  0.32255038343E+02 -0.16792433538E+02  0.13109600450E+03  0.13604607940E+03  0.00000000000E+00 0.  1.
         13    1    3    3    0    0 -0.47739557280E+02 -0.11535274922E+03  0.43257109400E+03  0.45022558063E+03  0.00000000000E+00 0. -1.
         21    1    1    2  503  502 -0.21852130793E+02 -0.23640030579E+02 -0.21409479733E+02  0.38661770374E+02  0.00000000000E+00 0. -1.
          1    1    1    2  501    0  0.36893559962E+02  0.59128246023E+02  0.18437603016E+03  0.19710861154E+03  0.00000000000E+00 0. -1.
<scales pt_clust_5="13000.00000" pt_clust_6="13000.00000" pt_clust_7="13000.00000" pt_clust_8="13000.00000" pt_clust_9="32.19265" pt_clust_10="63.20109"></scales>
<clustering>
<clus scale="   32.193">  2  9  1 -1</clus>
<clus scale="   63.201">  2 10  1 -1</clus>
<clus scale="   79.657">  5  6 -1 -1</clus>
<clus scale="   91.059">  7  8 -1 -1</clus>
<clus scale="  140.836">  2  5  1 -1</clus>
<clus scale="   32.193">  2  5  1 -1</clus>
</clustering>
</event>
<event>
10    4  0.3043429E-005  0.2147086E+03  0.7546771E-02  0.1138942E+00
          2   -1    0    0  502    0 -0.00000000000E+00  0.00000000000E+00  0.11523158044E+04  0.11523158044E+04  0.00000000000E+00 0. -1.
         21   -1    0    0  503  502  0.00000000000E+00 -0.00000000000E+00 -0.54493271818E+02  0.54493271818E+02  0.00000000000E+00 0.  1.
         24    2    1    2    0    0 -0.68765826824E+02 -0.16810825568E+03  0.47377709532E+03  0.51313202822E+03  0.76489331088E+02 0.  0.
         23    2    1    2    0    0  0.88242304080E+02  0.18953631022E+03  0.59547981868E+03  0.63752932274E+03  0.90203690511E+02 0.  0.
        -11    1    3    3    0    0 -0.44849624084E+02 -0.24462697635E+02  0.10972115795E+03  0.12103158620E+03  0.00000000000E+00 0.  1.
         12    1    3    3    0    0 -0.23916202740E+02 -0.14364555805E+03  0.36405593737E+03  0.39210044202E+03  0.00000000000E+00 0. -1.
        -11    1    4    4    0    0  0.48992761752E+02  0.33698608512E+02  0.24256892473E+03  0.24975101634E+03  0.00000000000E+00 0.  1.
         11    1    4    4    0    0  0.39249542328E+02  0.15583770171E+03  0.35291089395E+03  0.38777830640E+03  0.00000000000E+00 0. -1.
         21    1    1    2  503  501  0.56409592933E+01 -0.19558832029E+02  0.35768588658E+01  0.20667903895E+02  0.00000000000E+00 0.  1.
          1    1    1    2  501    0 -0.25117436550E+02 -0.18692225096E+01  0.24988759729E+02  0.35479821370E+02  0.00000000000E+00 0. -1.
<scales pt_clust_5="13000.00000" pt_clust_6="13000.00000" pt_clust_7="13000.00000" pt_clust_8="13000.00000" pt_clust_9="20.35604" pt_clust_10="24.81485"></scales>
<clustering>
<clus scale="   20.356">  2  9  1 -1</clus>
<clus scale="   24.815">  2 10  1 -1</clus>
<clus scale="   76.489">  5  6 -1 -1</clus>
<clus scale="   90.204">  7  8 -1 -1</clus>
<clus scale="  209.317">  1  5  2 -1</clus>
<clus scale="   20.356">  2  5  1 -1</clus>
</clustering>
</event>
<event>
10    4  0.4253913E-005  0.1810540E+03  0.7546771E-02  0.1192715E+00
          2   -1    0    0  503    0 -0.00000000000E+00  0.00000000000E+00  0.38890915682E+03  0.38890915682E+03  0.00000000000E+00 0. -1.
         21   -1    0    0  501  502  0.00000000000E+00 -0.00000000000E+00 -0.13621829246E+04  0.13621829246E+04  0.00000000000E+00 0. -1.
         24    2    1    2    0    0  0.64570618807E+02  0.57496640252E+00  0.57843789917E+02  0.11710157926E+03  0.78722172437E+02 0.  0.
         23    2    1    2    0    0 -0.16754954504E+03 -0.27008701386E+02 -0.85743524513E+02  0.21084811339E+03  0.91118905447E+02 0.  0.
        -11    1    3    3    0    0  0.52990878568E+02  0.24445911094E+02  0.57496507374E+01  0.58640380833E+02  0.00000000000E+00 0.  1.
         12    1    3    3    0    0  0.11579740239E+02 -0.23870944692E+02  0.52094139179E+02  0.58461198425E+02  0.00000000000E+00 0. -1.
        -13    1    4    4    0    0 -0.53944272092E+02 -0.19230007691E+02  0.14569781587E+02  0.59093622522E+02  0.00000000000E+00 0.  1.
         13    1    4    4    0    0 -0.11360527295E+03 -0.77786936953E+01 -0.10031330610E+03  0.15175449086E+03  0.00000000000E+00 0. -1.
         21    1    1    2  503  502  0.15917142578E+03 -0.13014201241E+02 -0.11738036870E+04  0.11846180852E+04  0.00000000000E+00 0. -1.
          1    1    1    2  501    0 -0.56192499549E+02  0.39447936224E+02  0.22842965378E+03  0.23852430359E+03  0.00000000000E+00 0. -1.
<scales pt_clust_5="13000.00000" pt_clust_6="13000.00000" pt_clust_7="13000.00000" pt_clust_8="13000.00000" pt_clust_9="156.45416" pt_clust_10="68.65669"></scales>
<clustering>
<clus scale="   68.657">  2 10  1 -1</clus>
<clus scale="   78.722">  5  6 -1 -1</clus>
<clus scale="   91.119">  7  8 -1 -1</clus>
<clus scale="  101.053">  1  5  2 -1</clus>
<clus scale="  156.454">  2  9  1 -1</clus>
<clus scale="   68.657">  2  5  1 -1</clus>
</clustering>
</event>
<event>
10    4  0.3043429E-005  0.1293701E+03  0.7546771E-02  0.1246097E+00
         21   -1    0    0  501  502  0.00000000000E+00  0.00000000000E+00  0.10876811864E+03  0.10876811864E+03  0.00000000000E+00 0.  1.
          2   -1    0    0  503    0 -0.00000000000E+00 -0.00000000000E+00 -0.93254873998E+03  0.93254873998E+03  0.00000000000E+00 0. -1.
         24    2    1    2    0    0  0.25004932445E+02  0.27655457221E+02 -0.21632578528E+02  0.91913461280E+02  0.81179091827E+02 0.  0.
         23    2    1    2    0    0 -0.90407890445E+01  0.83137813693E+02 -0.11160433570E+02  0.12407176379E+03  0.90970409250E+02 0.  0.
        -13    1    3    3    0    0 -0.13071516606E+02 -0.22605475225E+02 -0.38212980270E+01  0.26390800957E+02  0.00000000000E+00 0.  1.
         14    1    3    3    0    0  0.38076449051E+02  0.50260932446E+02 -0.17811280501E+02  0.65522660323E+02  0.00000000000E+00 0. -1.
        -11    1    4    4    0    0  0.29815757215E+02  0.70330155974E+02  0.11582780014E+02  0.77262351831E+02  0.00000000000E+00 0.  1.
         11    1    4    4    0    0 -0.38856546259E+02  0.12807657720E+02 -0.22743213584E+02  0.46809411955E+02  0.00000000000E+00 0. -1.
         21    1    1    2  503  502 -0.31329630026E+02  0.57301137152E+02 -0.18104277981E+03  0.19246156541E+03  0.00000000000E+00 0. -1.
          1    1    1    2  501    0  0.15365486625E+02 -0.16809440807E+03 -0.60994482943E+03  0.63287006814E+03  0.00000000000E+00 0. -1.
<scales pt_clust_5="13000.00000" pt_clust_6="13000.00000" pt_clust_7="13000.00000" pt_clust_8="13000.00000" pt_clust_9="65.30671" pt_clust_10="91.98372"></scales>
<clustering>
<clus scale="   65.307">  2  9  1 -1</clus>
<clus scale="   81.179">  5  6 -1 -1</clus>
<clus scale="   90.149">  2  5  1 -1</clus>
<clus scale="   90.970">  7  8 -1 -1</clus>
<clus scale="   91.984">  1 10  2 -1</clus>
<clus scale="   91.984">  1  5  2 -1</clus>
</clustering>
</event>
<event>
10    4  0.3043429E-005  0.1418384E+03  0.7546771E-02  0.1226657E+00
         21   -1    0    0  503  502  0.00000000000E+00  0.00000000000E+00  0.12114414712E+03  0.12114414712E+03  0.00000000000E+00 0.  1.
          2   -1    0    0  502    0 -0.00000000000E+00 -0.00000000000E+00 -0.87928245476E+03  0.87928245476E+03  0.00000000000E+00 0. -1.
         24    2    1    2    0    0  0.75106211748E+02  0.97862927757E+01 -0.16934974225E+02  0.11155436976E+03  0.80130328160E+02 0.  0.
         23    2    1    2    0    0  0.30918021700E+02 -0.82552401701E+02 -0.65764062635E+03  0.66971720627E+03  0.90879699909E+02 0.  0.
        -13    1    3    3    0    0  0.64153451223E+02  0.79944916175E+01  0.24137635638E+02  0.69008714335E+02  0.00000000000E+00 0.  1.
         14    1    3    3    0    0  0.10952760525E+02  0.17918011582E+01 -0.41072609863E+02  0.42545655424E+02  0.00000000000E+00 0. -1.
        -13    1    4    4    0    0  0.52851923321E+02 -0.14799789050E+02 -0.25680956303E+03  0.26260904633E+03  0.00000000000E+00 0.  1.
         13    1    4    4    0    0 -0.21933901621E+02 -0.67752612651E+02 -0.40083106332E+03  0.40710815993E+03  0.00000000000E+00 0. -1.
         21    1    1    2  503  501 -0.20654583785E+02 -0.39414688273E+00  0.44307623982E+02  0.48886938195E+02  0.00000000000E+00 0. -1.
          1    1    1    2  501    0 -0.85369649662E+02  0.73160255808E+02 -0.12787033104E+03  0.17026808766E+03  0.00000000000E+00 0. -1.
<scales pt_clust_5="13000.00000" pt_clust_6="13000.00000" pt_clust_7="13000.00000" pt_clust_8="13000.00000" pt_clust_9="20.65834" pt_clust_10="108.89908"></scales>
<clustering>
<clus scale="   20.658">  1  9  2 -1</clus>
<clus scale="   80.130">  5  6 -1 -1</clus>
<clus scale="   90.880">  7  8 -1 -1</clus>
<clus scale="  101.762">  2  5  1 -1</clus>
<clus scale="  108.899">  1 10  2 -1</clus>
<clus scale="   20.658">  1  5  2 -1</clus>
</clustering>
</event>
<event>
10    4  0.3043429E-005  0.4133679E+03  0.7546771E-02  0.1088950E+00
          2   -1    0    0  502    0 -0.00000000000E+00  0.00000000000E+00  0.81996628311E+03  0.81996628311E+03  0.00000000000E+00 0. -1.
         21   -1    0    0  503  502  0.00000000000E+00 -0.00000000000E+00 -0.32569400574E+03  0.32569400574E+03  0.00000000000E+00 0. -1.
         24    2    1    2    0    0 -0.17559897801E+02 -0.60734245123E+02  0.11334286426E+03  0.15281360052E+03  0.80674612384E+02 0.  0.
         23    2    1    2    0    0 -0.28409266264E+03 -0.21669107350E+03  0.14975295204E+03  0.39812562416E+03  0.91730058695E+02 0.  0.
        -11    1    3    3    0    0 -0.38073961843E+02 -0.17007494006E+02  0.89953048332E+02  0.99148536686E+02  0.00000000000E+00 0.  1.
         12    1    3    3    0    0  0.20514064042E+02 -0.43726751117E+02  0.23389815924E+02  0.53665063829E+02  0.00000000000E+00 0. -1.
        -13    1    4    4    0    0 -0.34561191906E+02  0.79365114071E-01  0.32400021795E+02  0.47373449284E+02  0.00000000000E+00 0.  1.
         13    1    4    4    0    0 -0.24953147073E+03 -0.21677043861E+03  0.11735293025E+03  0.35075217488E+03  0.00000000000E+00 0. -1.
         21    1    1    2  503  501 -0.42759512662E+02 -0.19473384741E+02 -0.43040538164E+02  0.63718730071E+02  0.00000000000E+00 0.  1.
          1    1    1    2  501    0  0.34441207310E+03  0.29689870336E+03  0.27421699923E+03  0.53100233410E+03  0.00000000000E+00 0. -1.
<scales pt_clust_5="13000.00000" pt_clust_6="13000.00000" pt_clust_7="13000.00000" pt_clust_8="13000.00000" pt_clust_9="46.98498" pt_clust_10="403.06172"></scales>
<clustering>
<clus scale="   46.985">  2  9  1 -1</clus>
<clus scale="   80.675">  5  6 -1 -1</clus>
<clus scale="   91.730">  7  8 -1 -1</clus>
<clus scale="  103.910">  1  5  2 -1</clus>
<clus scale="  403.062">  2 10  1 -1</clus>
<clus scale="   46.985">  2  5  1 -1</clus>
</clustering>
</event>
<event>
10    4  0.3043429E-005  0.8341157E+02  0.7546771E-02  0.1323759E+00
         -1   -1    0    0    0  501 -0.00000000000E+00  0.00000000000E+00  0.37903519097E+03  0.37903519097E+03  0.00000000000E+00 0.  1.
         21   -1    0    0  503  502  0.00000000000E+00 -0.00000000000E+00 -0.45677832145E+02  0.45677832145E+02  0.00000000000E+00 0.  1.
         23    2    1    2    0    0  0.12163725338E+02  0.53215052304E+01  0.21709807902E+03  0.23003456459E+03  0.74886917144E+02 0.  0.
         24    2    1    2    0    0 -0.13313087888E+02 -0.49882513106E+02  0.86127274894E+02  0.12900178240E+03  0.80981781642E+02 0.  0.
        -13    1    4    4    0    0  0.23567046836E+02 -0.43315945257E+02  0.75297234821E+02  0.90007501808E+02  0.00000000000E+00 0.  1.
         14    1    4    4    0    0 -0.36880134724E+02 -0.65665678491E+01  0.10830040073E+02  0.38994280588E+02  0.00000000000E+00 0. -1.
        -13    1    3    3    0    0 -0.27415487248E+02  0.19415408157E+02  0.84229241826E+02  0.90681487601E+02  0.00000000000E+00 0.  1.
         13    1    3    3    0    0  0.39579212586E+02 -0.14093902927E+02  0.13286883720E+03  0.13935307699E+03  0.00000000000E+00 0. -1.
         21    1    1    2  503  501 -0.56259472074E+01  0.19831099569E+02 -0.59101699742E+01  0.21444204374E+02  0.00000000000E+00 0.  1.
         -2    1    1    2    0  502  0.67753097575E+01  0.24729908307E+02  0.36042174880E+02  0.44232471752E+02  0.00000000000E+00 0.  1.
<scales pt_clust_5="13000.00000" pt_clust_6="13000.00000" pt_clust_7="13000.00000" pt_clust_8="13000.00000" pt_clust_9="20.61368" pt_clust_10="27.93199"></scales>
<clustering>
<clus scale="   20.614">  2  9  1 -1</clus>
<clus scale="   27.932">  2 10  1 -1</clus>
<clus scale="   74.887">  7  8 -1 -1</clus>
<clus scale="   77.508">  1  7  2 -1</clus>
<clus scale="   80.982">  5  6 -1 -1</clus>
<clus scale="   20.614">  2  5  1 -1</clus>
</clustering>
</event>
<event>
10    4  0.3043429E-005  0.1855764E+03  0.7546771E-02  0.1179420E+00
          2   -1    0    0  503    0 -0.00000000000E+00  0.00000000000E+00  0.19905001746E+04  0.19905001746E+04  0.00000000000E+00 0. -1.
         21   -1    0    0  501  502  0.00000000000E+00 -0.00000000000E+00 -0.77735864752E+02  0.77735864752E+02  0.00000000000E+00 0. -1.
         24    2    1    2    0    0 -0.14184115866E+02 -0.96536738458E+02  0.24654737553E+03  0.27694027279E+03  0.79936070070E+02 0.  0.
         23    2    1    2    0    0  0.28469610492E+02 -0.87404970323E+02  0.50967824935E+03  0.52556837748E+03  0.89443020921E+02 0.  0.
        -11    1    3    3    0    0  0.86667428237E+01 -0.95609218891E+02  0.15289232089E+03  0.18053336799E+03  0.00000000000E+00 0.  1.
         12    1    3    3    0    0 -0.22850858689E+02 -0.92751956755E+00  0.93655054632E+02  0.96406904802E+02  0.00000000000E+00 0. -1.
        -11    1    4    4    0    0  0.56531813830E+02 -0.31647022060E+02  0.22595513102E+03  0.23505978222E+03  0.00000000000E+00 0.  1.
         11    1    4    4    0    0 -0.28062203338E+02 -0.55757948263E+02  0.28372311832E+03  0.29050859526E+03  0.00000000000E+00 0. -1.
         21    1    1    2  503  502 -0.10378401499E+03 -0.12193127279E+03  0.19257260906E+03  0.25044473804E+03  0.00000000000E+00 0. -1.
          1    1    1    2  501    0  0.89498520359E+02  0.30587298157E+03  0.96396607597E+03  0.10152826511E+04  0.00000000000E+00 0. -1.
<scales pt_clust_5="13000.00000" pt_clust_6="13000.00000" pt_clust_7="13000.00000" pt_clust_8="13000.00000" pt_clust_9="185.57642" pt_clust_10="13000.00000"></scales>
<clustering>
<clus scale="   79.936">  5  6 -1 -1</clus>
<clus scale="   89.443">  7  8 -1 -1</clus>
<clus scale="  126.136">  1  5  2 -1</clus>
<clus scale="  148.710">  1  7  2 -1</clus>
<clus scale="  185.576">  2  9  1 -1</clus>
<clus scale="  185.576">  2  5  1 -1</clus>
</clustering>
</event>
<event>
10    4  0.3043429E-005  0.1154877E+03  0.7546771E-02  0.1256985E+00
          2   -1    0    0  502    0 -0.00000000000E+00  0.00000000000E+00  0.92208684659E+02  0.92208684659E+02  0.00000000000E+00 0. -1.
         21   -1    0    0  503  502  0.00000000000E+00 -0.00000000000E+00 -0.48668505079E+03  0.48668505079E+03  0.00000000000E+00 0. -1.
         24    2    1    2    0    0  0.39856631978E+02  0.37731677879E+02 -0.88154497981E+02  0.13118906787E+03  0.80169354413E+02 0.  0.
         23    2    1    2    0    0 -0.32665642258E+02  0.44017869849E+02 -0.19622732572E+03  0.22293308944E+03  0.90495204046E+02 0.  0.
        -11    1    3    3    0    0  0.26363942701E+02  0.36288456141E+02 -0.29938803204E+01  0.44954119313E+02  0.00000000000E+00 0.  1.
         12    1    3    3    0    0  0.13492689277E+02  0.14432217375E+01 -0.85160617660E+02  0.86234948560E+02  0.00000000000E+00 0. -1.
        -11    1    4    4    0    0 -0.30202688114E+02  0.70589810797E+02 -0.12302377273E+03  0.14501714524E+03  0.00000000000E+00 0. -1.
         11    1    4    4    0    0 -0.24629541445E+01 -0.26571940948E+02 -0.73203552993E+02  0.77915944194E+02  0.00000000000E+00 0.  1.
         21    1    1    2  503  501  0.12516107835E+02  0.27023888096E+02 -0.11027649801E+03  0.11422718370E+03  0.00000000000E+00 0. -1.
          1    1    1    2  501    0 -0.19707097555E+02 -0.10877343582E+03  0.18195557622E+00  0.11054439444E+03  0.00000000000E+00 0. -1.
<scales pt_clust_5="13000.00000" pt_clust_6="13000.00000" pt_clust_7="13000.00000" pt_clust_8="13000.00000" pt_clust_9="29.78160" pt_clust_10="71.74986"></scales>
<clustering>
<clus scale="   29.782">  2  9  1 -1</clus>
<clus scale="   80.169">  5  6 -1 -1</clus>
<clus scale="   90.495">  7  8 -1 -1</clus>
<clus scale="  102.005">  1  5  2 -1</clus>
<clus scale="   71.750">  2 10  1 -1</clus>
<clus scale="   29.782">  2  5  1 -1</clus>
</clustering>
</event>
<event>
10    4  0.3043429E-005  0.2588958E+03  0.7546771E-02  0.1135256E+00
         21   -1    0    0  501  502  0.00000000000E+00  0.00000000000E+00  0.30755117918E+03  0.30755117918E+03  0.00000000000E+00 0. -1.
          2   -1    0    0  503    0 -0.00000000000E+00 -0.00000000000E+00 -0.13129857374E+04  0.13129857374E+04  0.00000000000E+00 0. -1.
         24    2    1    2    0    0  0.58169810438E+02  0.94619393793E+02 -0.94105938252E+03  0.95007097165E+03  0.68596889291E+02 0.  0.
         23    2    1    2    0    0  0.18520560360E+03 -0.11426625504E+03  0.94269848363E+02  0.25431622771E+03  0.91826176674E+02 0.  0.
        -11    1    3    3    0    0 -0.30309705506E+01  0.21550740695E+02 -0.59158947643E+02  0.63034929152E+02  0.00000000000E+00 0.  1.
         12    1    3    3    0    0  0.61200780989E+02  0.73068653097E+02 -0.88190043488E+03  0.88703604250E+03  0.00000000000E+00 0. -1.
        -13    1    4    4    0    0  0.18319973171E+02 -0.37480284373E+02  0.50439734573E+02  0.65456550150E+02  0.00000000000E+00 0.  1.
         13    1    4    4    0    0  0.16688563043E+03 -0.76785970667E+02  0.43830113790E+02  0.18885967756E+03  0.00000000000E+00 0. -1.
         21    1    1    2  503  502  0.27073898023E+02 -0.16090801655E+02  0.59190243533E+02  0.67047705267E+02  0.00000000000E+00 0.  1.
          1    1    1    2  501    0 -0.27044931206E+03  0.35737662902E+02 -0.21783526762E+03  0.34910201197E+03  0.00000000000E+00 0. -1.
<scales pt_clust_5="13000.00000" pt_clust_6="13000.00000" pt_clust_7="13000.00000" pt_clust_8="13000.00000" pt_clust_9="31.49460" pt_clust_10="242.06415"></scales>
<clustering>
<clus scale="   31.495">  1  9  2 -1</clus>
<clus scale="   68.597">  5  6 -1 -1</clus>
<clus scale="   91.826">  7  8 -1 -1</clus>
<clus scale="  130.554">  2  5  1 -1</clus>
<clus scale="  242.064">  1 10  2 -1</clus>
<clus scale="   31.495">  1  5  2 -1</clus>
</clustering>
</event>
<event>
10    4  0.3043429E-005  0.2411027E+03  0.7546771E-02  0.1119552E+00
          2   -1    0    0  502    0 -0.00000000000E+00  0.00000000000E+00  0.14275488924E+04  0.14275488924E+04  0.00000000000E+00 0. -1.
         21   -1    0    0  503  502  0.00000000000E+00 -0.00000000000E+00 -0.13165082287E+03  0.13165082287E+03  0.00000000000E+00 0. -1.
         23    2    1    2    0    0  0.97956618377E+01 -0.15127440012E+03  0.26094966152E+03  0.31548319759E+03  0.91951198967E+02 0.  0.
         24    2    1    2    0    0  0.17102211329E+02  0.29892596717E+03  0.80525128767E+03  0.86320367205E+03  0.83914978845E+02 0.  0.
        -13    1    4    4    0    0 -0.21455196282E+02  0.19946368175E+02  0.72696780095E+02  0.78377323807E+02  0.00000000000E+00 0.  1.
         14    1    4    4    0    0  0.38557407611E+02  0.27897959899E+03  0.73255450757E+03  0.78482634825E+03  0.00000000000E+00 0. -1.
        -11    1    3    3    0    0 -0.14584632060E+02 -0.83131890183E+02  0.21180399497E+03  0.22800121698E+03  0.00000000000E+00 0.  1.
         11    1    3    3    0    0  0.24380293898E+02 -0.68142509933E+02  0.49145666543E+02  0.87481980604E+02  0.00000000000E+00 0. -1.
         21    1    1    2  503  501  0.23866247715E+02 -0.23565702577E+02 -0.55799638009E+02  0.65104068382E+02  0.00000000000E+00 0. -1.
          1    1    1    2  501    0 -0.50764120882E+02 -0.12408586448E+03  0.28549675838E+03  0.31540877727E+03  0.00000000000E+00 0. -1.
<scales pt_clust_5="13000.00000" pt_clust_6="13000.00000" pt_clust_7="13000.00000" pt_clust_8="13000.00000" pt_clust_9="33.54013" pt_clust_10="136.90675"></scales>
<clustering>
<clus scale="   33.540">  2  9  1 -1</clus>
<clus scale="   83.915">  5  6 -1 -1</clus>
<clus scale="   91.951">  7  8 -1 -1</clus>
<clus scale="  136.907">  2 10  1 -1</clus>
<clus scale="  238.154">  2  5  1 -1</clus>
<clus scale="   33.540">  2  5  1 -1</clus>
</clustering>
</event>
<event>
10    4  0.3043429E-005  0.9480055E+02  0.7546771E-02  0.1298462E+00
         21   -1    0    0  501  502  0.00000000000E+00  0.00000000000E+00  0.82115926212E+02  0.82115926212E+02  0.00000000000E+00 0. -1.
          2   -1    0    0  503    0 -0.00000000000E+00 -0.00000000000E+00 -0.79568776393E+03  0.79568776393E+03  0.00000000000E+00 0. -1.
         24    2    1    2    0    0  0.39646171035E+02  0.28894149900E+02 -0.30984409082E+03  0.32366019503E+03  0.79660971963E+02 0.  0.
         23    2    1    2    0    0  0.70117147872E+02  0.94639273493E+01 -0.11840050269E+03  0.16548896786E+03  0.91443638927E+02 0.  0.
        -11    1    3    3    0    0  0.16829388964E+02  0.14212179004E+02 -0.12997782176E+02  0.25576487375E+02  0.00000000000E+00 0.  1.
         12    1    3    3    0    0  0.22816782071E+02  0.14681970896E+02 -0.29684630865E+03  0.29808370766E+03  0.00000000000E+00 0. -1.
        -11    1    4    4    0    0  0.18368747012E+02  0.47209746857E+02 -0.42102164815E+02  0.65869289864E+02  0.00000000000E+00 0.  1.
         11    1    4    4    0    0  0.51748400860E+02 -0.37745819508E+02 -0.76298337872E+02  0.99619677995E+02  0.00000000000E+00 0. -1.
         21    1    1    2  503  502 -0.46388762699E+02 -0.21148671136E+02  0.34886848316E+02  0.61776012990E+02  0.00000000000E+00 0. -1.
          1    1    1    2  501    0 -0.63374556208E+02 -0.17209406113E+02 -0.32021409253E+03  0.32687851426E+03  0.00000000000E+00 0. -1.
<scales pt_clust_5="13000.00000" pt_clust_6="13000.00000" pt_clust_7="13000.00000" pt_clust_8="13000.00000" pt_clust_9="50.98219" pt_clust_10="70.63646"></scales>
<clustering>
<clus scale="   50.982">  1  9  2 -1</clus>
<clus scale="   70.636">  1 10  2 -1</clus>
<clus scale="   79.661">  5  6 -1 -1</clus>
<clus scale="   83.493">  2  5  1 -1</clus>
<clus scale="   91.444">  7  8 -1 -1</clus>
<clus scale="   50.982">  1  5  2 -1</clus>
</clustering>
</event>
<event>
10    4  0.4192057E-005  0.2372975E+03  0.7546771E-02  0.1137357E+00
         21   -1    0    0  503  502  0.00000000000E+00  0.00000000000E+00  0.17145599925E+03  0.17145599925E+03  0.00000000000E+00 0. -1.
          2   -1    0    0  502    0 -0.00000000000E+00 -0.00000000000E+00 -0.92661820186E+03  0.92661820186E+03  0.00000000000E+00 0. -1.
         24    2    1    2    0    0 -0.86171082436E+02  0.91560636820E+02 -0.43941718781E+03  0.46781692231E+03  0.99781772876E+02 0.  0.
         23    2    1    2    0    0 -0.11218513119E+03 -0.22681603861E+03 -0.84591655845E+02  0.28198296970E+03  0.91255837785E+02 0.  0.
        -13    1    3    3    0    0  0.12210731301E+02  0.32867524881E+02 -0.44696371410E+02  0.56807937544E+02  0.00000000000E+00 0.  1.
         14    1    3    3    0    0 -0.98381813738E+02  0.58693111939E+02 -0.39472081640E+03  0.41100898477E+03  0.00000000000E+00 0. -1.
        -13    1    4    4    0    0 -0.53005476106E+02 -0.85444755677E+02 -0.80274764907E+02  0.12866399905E+03  0.00000000000E+00 0.  1.
         13    1    4    4    0    0 -0.59179655088E+02 -0.14137128293E+03 -0.43168909383E+01  0.15331897065E+03  0.00000000000E+00 0. -1.
         21    1    1    2  503  501  0.17627794406E+02  0.27369361415E+02  0.38625175795E+01  0.32783229279E+02  0.00000000000E+00 0.  1.
          1    1    1    2  501    0  0.18072841922E+03  0.10788604037E+03 -0.23501587653E+03  0.31549107982E+03  0.00000000000E+00 0. -1.
<scales pt_clust_5="13000.00000" pt_clust_6="13000.00000" pt_clust_7="13000.00000" pt_clust_8="13000.00000" pt_clust_9="32.55489" pt_clust_10="219.04919"></scales>
<clustering>
<clus scale="   32.555">  1  9  2 -1</clus>
<clus scale="   91.256">  7  8 -1 -1</clus>
<clus scale="   99.782">  5  6 -1 -1</clus>
<clus scale="  161.113">  2  5  1 -1</clus>
<clus scale="  219.049">  1 10  2 -1</clus>
<clus scale="   32.555">  1  5  2 -1</clus>
</clustering>
</event>
<event>
10    4  0.3043429E-005  0.1047452E+03  0.7546771E-02  0.1275343E+00
          2   -1    0    0  503    0 -0.00000000000E+00  0.00000000000E+00  0.99781635155E+03  0.99781635155E+03  0.00000000000E+00 0. -1.
         21   -1    0    0  501  502  0.00000000000E+00 -0.00000000000E+00 -0.11564478322E+03  0.11564478322E+03  0.00000000000E+00 0.  1.
         24    2    1    2    0    0  0.29642907641E+01 -0.48785081714E+02  0.29232158067E+03  0.30715141729E+03  0.80630734834E+02 0.  0.
         23    2    1    2    0    0  0.62675653878E+01  0.56876492599E+02  0.17694400635E+03  0.20714210873E+03  0.91238446064E+02 0.  0.
        -11    1    3    3    0    0 -0.32621221028E+02 -0.29968170066E+02  0.83877904174E+02  0.94856407728E+02  0.00000000000E+00 0.  1.
         12    1    3    3    0    0  0.35585511792E+02 -0.18816911648E+02  0.20844367650E+03  0.21229500956E+03  0.00000000000E+00 0. -1.
        -13    1    4    4    0    0  0.10123638328E+02  0.77607276168E+02  0.97926102931E+02  0.12535908026E+03  0.00000000000E+00 0.  1.
         13    1    4    4    0    0 -0.38560729406E+01 -0.20730783569E+02  0.79017903421E+02  0.81783028478E+02  0.00000000000E+00 0. -1.
         21    1    1    2  503  502 -0.88669909109E+01  0.56732240338E+02 -0.81960451384E+02  0.10007340412E+03  0.00000000000E+00 0.  1.
          1    1    1    2  501    0 -0.36486524108E+00 -0.64823651224E+02  0.49486643269E+03  0.49909420462E+03  0.00000000000E+00 0. -1.
<scales pt_clust_5="13000.00000" pt_clust_6="13000.00000" pt_clust_7="13000.00000" pt_clust_8="13000.00000" pt_clust_9="57.42099" pt_clust_10="59.96475"></scales>
<clustering>
<clus scale="   57.421">  2  9  1 -1</clus>
<clus scale="   59.965">  2 10  1 -1</clus>
<clus scale="   80.631">  5  6 -1 -1</clus>
<clus scale="   91.238">  7  8 -1 -1</clus>
<clus scale="   95.647">  1  5  2 -1</clus>
<clus scale="   57.421">  2  5  1 -1</clus>
</clustering>
</event>
<event>
10    4  0.3043429E-005  0.2289971E+03  0.7546771E-02  0.1154069E+00
          2   -1    0    0  503    0 -0.00000000000E+00  0.00000000000E+00  0.25809001187E+04  0.25809001187E+04  0.00000000000E+00 0. -1.
         21   -1    0    0  501  502  0.00000000000E+00 -0.00000000000E+00 -0.87419100377E+02  0.87419100377E+02  0.00000000000E+00 0. -1.
         23    2    1    2    0    0 -0.37014070261E+02  0.72606616271E+02  0.26061726064E+03  0.28811918945E+03  0.91921426563E+02 0.  0.
         24    2    1    2    0    0 -0.18105766452E+03  0.17042683944E+02  0.18727224468E+04  0.18832509147E+04  0.80450692723E+02 0.  0.
        -13    1    4    4    0    0 -0.39469806626E+02  0.89373816524E+01  0.17513631206E+03  0.17975113415E+03  0.00000000000E+00 0.  1.
         14    1    4    4    0    0 -0.14158785790E+03  0.81053022921E+01  0.16975861347E+04  0.17034997805E+04  0.00000000000E+00 0. -1.
        -13    1    3    3    0    0 -0.53129479212E+02  0.57495886722E+02  0.25286646608E+03  0.26470732558E+03  0.00000000000E+00 0. -1.
         13    1    3    3    0    0  0.16115408952E+02  0.15110729549E+02  0.77507945596E+01  0.23411863862E+02  0.00000000000E+00 0.  1.
         21    1    1    2  503  502  0.24959533698E+02 -0.27358532763E+01 -0.38259133142E+02  0.45762697520E+02  0.00000000000E+00 0. -1.
          1    1    1    2  501    0  0.19311220109E+03 -0.86913446939E+02  0.39840044403E+03  0.45118641743E+03  0.00000000000E+00 0. -1.
<scales pt_clust_5="13000.00000" pt_clust_6="13000.00000" pt_clust_7="13000.00000" pt_clust_8="13000.00000" pt_clust_9="25.10903" pt_clust_10="214.40000"></scales>
<clustering>
<clus scale="   25.109">  2  9  1 -1</clus>
<clus scale="   80.451">  5  6 -1 -1</clus>
<clus scale="   91.921">  7  8 -1 -1</clus>
<clus scale="  120.288">  1  7  2 -1</clus>
<clus scale="  214.400">  2 10  1 -1</clus>
<clus scale="   25.109">  2  5  1 -1</clus>
</clustering>
</event>
<event>
10    4  0.3043429E-005  0.1379396E+03  0.7546771E-02  0.1230046E+00
          2   -1    0    0  503    0 -0.00000000000E+00  0.00000000000E+00  0.83253600496E+03  0.83253600496E+03  0.00000000000E+00 0. -1.
         21   -1    0    0  501  502  0.00000000000E+00 -0.00000000000E+00 -0.15858088487E+03  0.15858088487E+03  0.00000000000E+00 0. -1.
         23    2    1    2    0    0  0.72795920715E+01 -0.20264969058E+02  0.10893835840E+03  0.14995933322E+03  0.10077983061E+03 0.  0.
         24    2    1    2    0    0  0.87737233109E+02  0.49994722352E+02  0.62884875159E+03  0.64262639340E+03  0.85560708177E+02 0.  0.
        -11    1    4    4    0    0 -0.14033171007E+02  0.22357764780E+02  0.14974837974E+03  0.15205714968E+03  0.00000000000E+00 0.  1.
         12    1    4    4    0    0  0.10177040412E+03  0.27636957572E+02  0.47910037184E+03  0.49056924371E+03  0.00000000000E+00 0. -1.
        -13    1    3    3    0    0 -0.50892680749E+01 -0.57434451699E+02  0.88891691309E+02  0.10595446982E+03  0.00000000000E+00 0.  1.
         13    1    3    3    0    0  0.12368860146E+02  0.37169482642E+02  0.20046667093E+02  0.44004863398E+02  0.00000000000E+00 0. -1.
         21    1    1    2  503  502  0.39834048997E+02  0.19006568030E+02 -0.91756468008E+01  0.45079857831E+02  0.00000000000E+00 0. -1.
          1    1    1    2  501    0 -0.13485087418E+03 -0.48736321324E+02 -0.54656343096E+02  0.15345130538E+03  0.00000000000E+00 0. -1.
<scales pt_clust_5="13000.00000" pt_clust_6="13000.00000" pt_clust_7="13000.00000" pt_clust_8="13000.00000" pt_clust_9="44.13617" pt_clust_10="108.19744"></scales>
<clustering>
<clus scale="   44.136">  2  9  1 -1</clus>
<clus scale="   85.561">  5  6 -1 -1</clus>
<clus scale="  100.780">  7  8 -1 -1</clus>
<clus scale="  103.140">  1  7  2 -1</clus>
<clus scale="  108.197">  2 10  1 -1</clus>
<clus scale="   44.136">  2  5  1 -1</clus>
</clustering>
</event>
<event>
10    4  0.3043429E-005  0.2009042E+03  0.7546771E-02  0.1150158E+00
         21   -1    0    0  501  502  0.00000000000E+00  0.00000000000E+00  0.10214938778E+03  0.10214938778E+03  0.00000000000E+00 0.  1.
          2   -1    0    0  503    0 -0.00000000000E+00 -0.00000000000E+00 -0.78722414468E+03  0.78722414468E+03  0.00000000000E+00 0. -1.
         23    2    1    2    0    0  0.10400087391E+03  0.15339219458E+03 -0.44165035181E+03  0.48750702443E+03  0.90899496615E+02 0.  0.
         24    2    1    2    0    0 -0.26712679484E+02 -0.17668104967E+03 -0.15940949938E+03  0.25180863132E+03  0.77887340167E+02 0.  0.
        -11    1    4    4    0    0 -0.15106055541E+02 -0.11969855193E+03 -0.55649459662E+02  0.13286383484E+03  0.00000000000E+00 0.  1.
         12    1    4    4    0    0 -0.11606623944E+02 -0.56982497743E+02 -0.10376003972E+03  0.11894479648E+03  0.00000000000E+00 0. -1.
        -11    1    3    3    0    0  0.10045748934E+02  0.35322429972E+02 -0.19449708664E+03  0.19793359452E+03  0.00000000000E+00 0.  1.
         11    1    3    3    0    0  0.93955124975E+02  0.11806976460E+03 -0.24715326518E+03  0.28957342991E+03  0.00000000000E+00 0. -1.
         21    1    1    2  503  502 -0.52972110133E+02 -0.19977890115E+02 -0.51134990521E+01  0.56844598846E+02  0.00000000000E+00 0. -1.
          1    1    1    2  501    0 -0.24316084292E+02  0.43266745209E+02 -0.78901406663E+02  0.93213277861E+02  0.00000000000E+00 0. -1.
<scales pt_clust_5="13000.00000" pt_clust_6="13000.00000" pt_clust_7="13000.00000" pt_clust_8="13000.00000" pt_clust_9="60.15417" pt_clust_10="49.63150"></scales>
<clustering>
<clus scale="   49.631">  1 10  2 -1</clus>
<clus scale="   60.154">  1  9  2 -1</clus>
<clus scale="   77.887">  5  6 -1 -1</clus>
<clus scale="   90.899">  7  8 -1 -1</clus>
<clus scale="  195.362">  1  5  2 -1</clus>
<clus scale="   49.631">  1  5  2 -1</clus>
</clustering>
</event>
<event>
10    4  0.3043429E-005  0.1233508E+03  0.7546771E-02  0.1240229E+00
         21   -1    0    0  501  502  0.00000000000E+00  0.00000000000E+00  0.42222088751E+03  0.42222088751E+03  0.00000000000E+00 0. -1.
          2   -1    0    0  503    0 -0.00000000000E+00 -0.00000000000E+00 -0.27126439149E+03  0.27126439149E+03  0.00000000000E+00 0. -1.
         24    2    1    2    0    0  0.17215127020E+02  0.78588839475E+02 -0.52808280300E+02  0.12548063264E+03  0.80523961715E+02 0.  0.
         23    2    1    2    0    0  0.48960148122E+02 -0.12758543383E+03  0.23929971733E+03  0.28970409916E+03  0.89381045662E+02 0.  0.
        -13    1    3    3    0    0  0.22393506528E+02  0.94270468057E+02 -0.41171801909E+02  0.10527823875E+03  0.00000000000E+00 0.  1.
         14    1    3    3    0    0 -0.51783795077E+01 -0.15681628582E+02 -0.11636478391E+02  0.20202393884E+02  0.00000000000E+00 0. -1.
        -11    1    4    4    0    0  0.48366582014E+02 -0.17113857672E+02  0.58359416061E+02  0.77704773490E+02  0.00000000000E+00 0.  1.
         11    1    4    4    0    0  0.59356610807E+00 -0.11047157615E+03  0.18094030127E+03  0.21199932567E+03  0.00000000000E+00 0. -1.
         21    1    1    2  503  502  0.24402746715E+02  0.26039248365E+02  0.10423372053E+03  0.11017352222E+03  0.00000000000E+00 0. -1.
          1    1    1    2  501    0 -0.90578021858E+02  0.22957345986E+02 -0.13976866155E+03  0.16812702498E+03  0.00000000000E+00 0. -1.
<scales pt_clust_5="13000.00000" pt_clust_6="13000.00000" pt_clust_7="13000.00000" pt_clust_8="13000.00000" pt_clust_9="35.68664" pt_clust_10="92.67600"></scales>
<clustering>
<clus scale="   35.687">  1  9  2 -1</clus>
<clus scale="   80.524">  5  6 -1 -1</clus>
<clus scale="   89.381">  7  8 -1 -1</clus>
<clus scale="   92.676">  1 10  2 -1</clus>
<clus scale="  117.092">  2  5  1 -1</clus>
<clus scale="   35.687">  1  5  2 -1</clus>
</clustering>
</event>
<event>
10    4  0.3043429E-005  0.1781502E+03  0.7546771E-02  0.1171560E+00
          2   -1    0    0  503    0 -0.00000000000E+00  0.00000000000E+00  0.96624123303E+03  0.96624123303E+03  0.00000000000E+00 0. -1.
         21   -1    0    0  501  502  0.00000000000E+00 -0.00000000000E+00 -0.75807410588E+02  0.75807410588E+02  0.00000000000E+00 0.  1.
         24    2    1    2    0    0  0.15397999237E+03 -0.45232673091E+02  0.60772099270E+03  0.63373401424E+03  0.80858908420E+02 0.  0.
         23    2    1    2    0    0 -0.12555788010E+03 -0.48349622789E+02  0.97216494420E+02  0.19184182384E+03  0.96175731391E+02 0.  0.
        -13    1    3    3    0    0  0.12248822362E+02 -0.28423786149E+02  0.57470757302E+02  0.65275058124E+02  0.00000000000E+00 0.  1.
         14    1    3    3    0    0  0.14173117001E+03 -0.16808886943E+02  0.55025023540E+03  0.56845895612E+03  0.00000000000E+00 0. -1.
        -13    1    4    4    0    0 -0.69553422999E+02 -0.31852191783E+01 -0.15562583347E+01  0.69643709063E+02  0.00000000000E+00 0.  1.
         13    1    4    4    0    0 -0.56004457100E+02 -0.45164403611E+02  0.98772752755E+02  0.12219811478E+03  0.00000000000E+00 0. -1.
         21    1    1    2  503  502  0.14460216420E+02  0.20929018841E+02  0.28185679553E+02  0.37967805051E+02  0.00000000000E+00 0.  1.
          1    1    1    2  501    0 -0.42882328696E+02  0.72653277039E+02  0.15731065576E+03  0.17850500048E+03  0.00000000000E+00 0. -1.
<scales pt_clust_5="13000.00000" pt_clust_6="13000.00000" pt_clust_7="13000.00000" pt_clust_8="13000.00000" pt_clust_9="25.43859" pt_clust_10="86.02889"></scales>
<clustering>
<clus scale="   25.439">  2  9  1 -1</clus>
<clus scale="   80.859">  5  6 -1 -1</clus>
<clus scale="   86.029">  2 10  1 -1</clus>
<clus scale="   96.176">  7  8 -1 -1</clus>
<clus scale="  170.370">  1  5  2 -1</clus>
<clus scale="   25.439">  2  5  1 -1</clus>
</clustering>
</event>
<event>
10    4  0.3043429E-005  0.2302686E+03  0.7546771E-02  0.1126451E+00
         -1   -1    0    0    0  501 -0.00000000000E+00  0.00000000000E+00  0.58622715422E+03  0.58622715422E+03  0.00000000000E+00 0.  1.
         21   -1    0    0  503  502  0.00000000000E+00 -0.00000000000E+00 -0.71167985786E+02  0.71167985786E+02  0.00000000000E+00 0.  1.
         24    2    1    2    0    0 -0.94168057679E+02 -0.21716923292E+02  0.15170734046E+03  0.19724766187E+03  0.80946124783E+02 0.  0.
         23    2    1    2    0    0 -0.51585634297E+02  0.22988817005E+02  0.10588063640E+03  0.15101734895E+03  0.91684061582E+02 0.  0.
        -11    1    3    3    0    0 -0.84411985771E+02 -0.41516119770E+02  0.14724532352E+03  0.17472880942E+03  0.00000000000E+00 0.  1.
         12    1    3    3    0    0 -0.97560719081E+01  0.19799196477E+02  0.44620169370E+01  0.22518852443E+02  0.00000000000E+00 0. -1.
        -13    1    4    4    0    0 -0.47690930835E+02  0.50981015413E+02  0.42777100638E+02  0.81874105525E+02  0.00000000000E+00 0.  1.
         13    1    4    4    0    0 -0.38947034619E+01 -0.27992198408E+02  0.63103535757E+02  0.69143243429E+02  0.00000000000E+00 0. -1.
         21    1    1    2  503  501  0.10418644345E+02  0.19078077167E+02  0.55494895545E+01  0.22434750114E+02  0.00000000000E+00 0.  1.
         -2    1    1    2    0  502  0.13533504763E+03 -0.20349970879E+02  0.25192170203E+03  0.28669537908E+03  0.00000000000E+00 0.  1.
<scales pt_clust_5="13000.00000" pt_clust_6="13000.00000" pt_clust_7="13000.00000" pt_clust_8="13000.00000" pt_clust_9="21.73755" pt_clust_10="139.04125"></scales>
<clustering>
<clus scale="   21.738">  2  9  1 -1</clus>
<clus scale="   80.946">  5  6 -1 -1</clus>
<clus scale="   91.684">  7  8 -1 -1</clus>
<clus scale="  101.197">  5  7 -1 -1</clus>
<clus scale="  139.041">  2 10  1 -1</clus>
<clus scale="   21.738">  2  5  1 -1</clus>
</clustering>
</event>
<event>
10    4  0.3043429E-005  0.1999543E+03  0.7546771E-02  0.1150497E+00
          2   -1    0    0  503    0 -0.00000000000E+00  0.00000000000E+00  0.95344194130E+03  0.95344194130E+03  0.00000000000E+00 0. -1.
         21   -1    0    0  501  502  0.00000000000E+00 -0.00000000000E+00 -0.23834250058E+03  0.23834250058E+03  0.00000000000E+00 0. -1.
         24    2    1    2    0    0 -0.16028802707E+03 -0.48248515032E+01  0.30717818549E+03  0.35613779640E+03  0.82220201730E+02 0.  0.
         23    2    1    2    0    0  0.22082881710E+03  0.14860686615E+03  0.16436237050E+03  0.32552046773E+03  0.89995660723E+02 0.  0.
        -13    1    3    3    0    0 -0.53905520965E+02  0.26836470303E+02  0.16579185332E+03  0.17638860495E+03  0.00000000000E+00 0.  1.
         14    1    3    3    0    0 -0.10638250610E+03 -0.31661321806E+02  0.14138633216E+03  0.17974919145E+03  0.00000000000E+00 0. -1.
        -13    1    4    4    0    0  0.19467623779E+03  0.85601210017E+02  0.12078346116E+03  0.24457115366E+03  0.00000000000E+00 0. -1.
         13    1    4    4    0    0  0.26152579317E+02  0.63005656130E+02  0.43578909340E+02  0.80949314071E+02  0.00000000000E+00 0.  1.
         21    1    1    2  503  502  0.52307985164E+01 -0.88055185444E+02 -0.11296666833E+03  0.14332670753E+03  0.00000000000E+00 0. -1.
          1    1    1    2  501    0 -0.65771588553E+02 -0.55726829200E+02  0.35652555308E+03  0.36679947021E+03  0.00000000000E+00 0. -1.
<scales pt_clust_5="13000.00000" pt_clust_6="13000.00000" pt_clust_7="13000.00000" pt_clust_8="13000.00000" pt_clust_9="122.63661" pt_clust_10="86.20550"></scales>
<clustering>
<clus scale="   82.220">  5  6 -1 -1</clus>
<clus scale="   86.206">  2 10  1 -1</clus>
<clus scale="   89.996">  7  8 -1 -1</clus>
<clus scale="  122.637">  2  9  1 -1</clus>
<clus scale="  196.577">  1  5  2 -1</clus>
<clus scale="   86.206">  2  5  1 -1</clus>
</clustering>
</event>
<event>
10    4  0.3043429E-005  0.1143641E+03  0.7546771E-02  0.1255700E+00
         21   -1    0    0  501  502  0.00000000000E+00  0.00000000000E+00  0.44235505113E+03  0.44235505113E+03  0.00000000000E+00 0. -1.
          2   -1    0    0  503    0 -0.00000000000E+00 -0.00000000000E+00 -0.17455835370E+03  0.17455835370E+03  0.00000000000E+00 0. -1.
         23    2    1    2    0    0  0.36444493118E+02 -0.38794580117E+02 -0.26223302767E+01  0.10519932181E+03  0.90701709840E+02 0.  0.
         24    2    1    2    0    0  0.73313469601E+02  0.96857548793E+02 -0.48948824303E+02  0.15462496716E+03  0.82198804648E+02 0.  0.
        -11    1    4    4    0    0  0.75457243492E+02  0.47009670703E+02 -0.65403783804E+01  0.89143038339E+02  0.00000000000E+00 0.  1.
         12    1    4    4    0    0 -0.21437738906E+01  0.49847878090E+02 -0.42408445923E+02  0.65481928821E+02  0.00000000000E+00 0. -1.
        -13    1    3    3    0    0  0.13459142993E+02 -0.41673865105E+02  0.38297874871E+02  0.58177201570E+02  0.00000000000E+00 0.  1.
         13    1    3    3    0    0  0.22985350125E+02  0.28792849878E+01 -0.40920205148E+02  0.47022120239E+02  0.00000000000E+00 0. -1.
         21    1    1    2  503  502 -0.41247252364E+02 -0.38086821483E+02  0.25460067183E+03  0.26071717223E+03  0.00000000000E+00 0. -1.
          1    1    1    2  501    0 -0.68510710355E+02 -0.19976147192E+02  0.64767180174E+02  0.96371943623E+02  0.00000000000E+00 0. -1.
<scales pt_clust_5="13000.00000" pt_clust_6="13000.00000" pt_clust_7="13000.00000" pt_clust_8="13000.00000" pt_clust_9="56.14216" pt_clust_10="93.92445"></scales>
<clustering>
<clus scale="   56.142">  1  9  2 -1</clus>
<clus scale="   82.199">  5  6 -1 -1</clus>
<clus scale="   90.702">  7  8 -1 -1</clus>
<clus scale="   93.924">  1 10  2 -1</clus>
<clus scale="  107.745">  1  5  2 -1</clus>
<clus scale="   56.142">  1  5  2 -1</clus>
</clustering>
</event>
<event>
10    4  0.3043429E-005  0.1536017E+03  0.7546771E-02  0.1215653E+00
          2   -1    0    0  503    0 -0.00000000000E+00  0.00000000000E+00  0.79246749332E+03  0.79246749332E+03  0.00000000000E+00 0. -1.
         21   -1    0    0  501  502  0.00000000000E+00 -0.00000000000E+00 -0.92103524810E+02  0.92103524810E+02  0.00000000000E+00 0.  1.
         23    2    1    2    0    0 -0.20782888513E+02 -0.39938136635E+02 -0.24643444639E+01  0.10591030150E+03  0.95832853229E+02 0.  0.
         24    2    1    2    0    0  0.89021244371E+02  0.10105667217E+03  0.21765880801E+03  0.26925214944E+03  0.83571109438E+02 0.  0.
        -11    1    4    4    0    0  0.36592856496E+01  0.30006604263E+02  0.68778653186E+01  0.31001479033E+02  0.00000000000E+00 0.  1.
         12    1    4    4    0    0  0.85361958721E+02  0.71050067911E+02  0.21078094269E+03  0.23825067041E+03  0.00000000000E+00 0. -1.
        -11    1    3    3    0    0  0.15845975500E+02 -0.32576410853E+02 -0.39296302018E+02  0.53446392169E+02  0.00000000000E+00 0.  1.
         11    1    3    3    0    0 -0.36628864013E+02 -0.73617257829E+01  0.36831957554E+02  0.52463909334E+02  0.00000000000E+00 0. -1.
         21    1    1    2  503  502 -0.39675568797E+00  0.26103694910E+02  0.24958906430E+02  0.36117963857E+02  0.00000000000E+00 0. -1.
          1    1    1    2  501    0 -0.67841600170E+02 -0.87222230449E+02  0.46021059853E+03  0.47329060333E+03  0.00000000000E+00 0. -1.
<scales pt_clust_5="13000.00000" pt_clust_6="13000.00000" pt_clust_7="13000.00000" pt_clust_8="13000.00000" pt_clust_9="26.10671" pt_clust_10="128.87738"></scales>
<clustering>
<clus scale="   26.107">  2  9  1 -1</clus>
<clus scale="   83.571">  5  6 -1 -1</clus>
<clus scale="   95.833">  7  8 -1 -1</clus>
<clus scale="  100.910">  1  7  2 -1</clus>
<clus scale="  128.877">  2 10  1 -1</clus>
<clus scale="   26.107">  2  5  1 -1</clus>
</clustering>
</event>
<event>
10    4  0.3043429E-005  0.1313042E+03  0.7546771E-02  0.1227279E+00
          2   -1    0    0  503    0 -0.00000000000E+00  0.00000000000E+00  0.61843206856E+03  0.61843206856E+03  0.00000000000E+00 0. -1.
         21   -1    0    0  501  502  0.00000000000E+00 -0.00000000000E+00 -0.15584890782E+03  0.15584890782E+03  0.00000000000E+00 0. -1.
         23    2    1    2    0    0 -0.11738913547E+03 -0.74361524000E+00  0.37035513885E+03  0.39828071475E+03  0.87657496997E+02 0.  0.
         24    2    1    2    0    0  0.46479608533E+02 -0.16393892537E+02  0.25135395893E+02  0.97665225079E+02  0.80483503535E+02 0.  0.
        -13    1    4    4    0    0 -0.21296662575E+02 -0.15627562578E+02  0.43642806862E+01  0.26773410221E+02  0.00000000000E+00 0.  1.
         14    1    4    4    0    0  0.67776271108E+02 -0.76632995874E+00  0.20771115207E+02  0.70891814858E+02  0.00000000000E+00 0. -1.
        -13    1    3    3    0    0 -0.29325704359E+01 -0.20611455977E+02  0.18878492539E+02  0.28103906622E+02  0.00000000000E+00 0.  1.
         13    1    3    3    0    0 -0.11445656504E+03  0.19867840737E+02  0.35147664631E+03  0.37017680813E+03  0.00000000000E+00 0. -1.
         21    1    1    2  503  502  0.86007817605E+00  0.22895418589E+02 -0.97081409396E+02  0.99748383331E+02  0.00000000000E+00 0. -1.
          1    1    1    2  501    0  0.70049448764E+02 -0.57579108129E+01  0.16417403539E+03  0.17858665321E+03  0.00000000000E+00 0. -1.
<scales pt_clust_5="13000.00000" pt_clust_6="13000.00000" pt_clust_7="13000.00000" pt_clust_8="13000.00000" pt_clust_9="22.91157" pt_clust_10="70.21670"></scales>
<clustering>
<clus scale="   22.912">  2  9  1 -1</clus>
<clus scale="   70.217">  2 10  1 -1</clus>
<clus scale="   80.484">  5  6 -1 -1</clus>
<clus scale="   87.657">  7  8 -1 -1</clus>
<clus scale="  126.628">  2  5  1 -1</clus>
<clus scale="   22.912">  2  5  1 -1</clus>
</clustering>
</event>
<event>
10    4  0.3043429E-005  0.2720614E+03  0.7546771E-02  0.1127841E+00
         -1   -1    0    0    0  501 -0.00000000000E+00  0.00000000000E+00  0.81881932092E+03  0.81881932092E+03  0.00000000000E+00 0.  1.
         21   -1    0    0  501  502  0.00000000000E+00 -0.00000000000E+00 -0.21556399545E+03  0.21556399545E+03  0.00000000000E+00 0.  1.
         24    2    1    2    0    0  0.11726154620E+03  0.38224070801E+02  0.48063799906E+02  0.15359346279E+03  0.77906823479E+02 0.  0.
         23    2    1    2    0    0  0.16314911886E+03  0.91288390657E+02  0.45597713841E+03  0.50118487183E+03  0.91213594096E+02 0.  0.
        -11    1    3    3    0    0  0.12560155472E+03  0.43540563838E+02  0.35479222074E+02  0.13758745018E+03  0.00000000000E+00 0.  1.
         12    1    3    3    0    0 -0.83400085247E+01 -0.53164930378E+01  0.12584577832E+02  0.16006012608E+02  0.00000000000E+00 0. -1.
        -11    1    4    4    0    0  0.10497425384E+03  0.65654213922E+01  0.22437455553E+03  0.24780363172E+03  0.00000000000E+00 0. -1.
         11    1    4    4    0    0  0.58174865018E+02  0.84722969265E+02  0.23160258288E+03  0.25338124011E+03  0.00000000000E+00 0.  1.
         21    1    1    2  503  502 -0.72499687120E+02  0.52944680527E+02  0.25941748985E+02  0.93446873511E+02  0.00000000000E+00 0. -1.
         -2    1    1    2    0  503 -0.20791097794E+03 -0.18245714198E+03  0.73272638166E+02  0.28615810824E+03  0.00000000000E+00 0.  1.
<scales pt_clust_5="13000.00000" pt_clust_6="13000.00000" pt_clust_7="13000.00000" pt_clust_8="13000.00000" pt_clust_9="89.77385" pt_clust_10="256.31521"></scales>
<clustering>
<clus scale="   77.907">  5  6 -1 -1</clus>
<clus scale="   89.774">  2  9  1 -1</clus>
<clus scale="   91.214">  7  8 -1 -1</clus>
<clus scale="  134.907">  1  5  2 -1</clus>
<clus scale="  256.315">  2 10  1 -1</clus>
<clus scale="   89.774">  2  5  1 -1</clus>
</clustering>
</event>
<event>
10    4  0.3043429E-005  0.1390700E+03  0.7546771E-02  0.1239683E+00
         21   -1    0    0  501  502  0.00000000000E+00  0.00000000000E+00  0.12840036819E+03  0.12840036819E+03  0.00000000000E+00 0. -1.
          2   -1    0    0  503    0 -0.00000000000E+00 -0.00000000000E+00 -0.79919944660E+03  0.79919944660E+03  0.00000000000E+00 0. -1.
         24    2    1    2    0    0 -0.83755894216E+01 -0.18453525217E+02 -0.16392807736E+02  0.84227728191E+02  0.80093089337E+02 0.  0.
         23    2    1    2    0    0 -0.54388934999E+02  0.83741551566E+02 -0.17450533752E+02  0.13606505390E+03  0.90765489350E+02 0.  0.
        -11    1    3    3    0    0 -0.34126454464E+02 -0.16395991711E+02  0.17419922670E+02  0.41676097998E+02  0.00000000000E+00 0.  1.
         12    1    3    3    0    0  0.25750865043E+02 -0.20575335059E+01 -0.33812730406E+02  0.42551630193E+02  0.00000000000E+00 0. -1.
        -11    1    4    4    0    0 -0.58211610737E+02  0.77684103347E+01 -0.10726210645E+02  0.59699174354E+02  0.00000000000E+00 0. -1.
         11    1    4    4    0    0  0.38226757378E+01  0.75973141231E+02 -0.67243231063E+01  0.76365879551E+02  0.00000000000E+00 0.  1.
         21    1    1    2  503  502  0.99588261524E+02  0.36919191757E+02 -0.63701823653E+02  0.12384979164E+03  0.00000000000E+00 0. -1.
          1    1    1    2  501    0 -0.36823737103E+02 -0.10220721811E+03 -0.57325391328E+03  0.58345724105E+03  0.00000000000E+00 0. -1.
<scales pt_clust_5="13000.00000" pt_clust_6="13000.00000" pt_clust_7="13000.00000" pt_clust_8="13000.00000" pt_clust_9="104.44028" pt_clust_10="105.36645"></scales>
<clustering>
<clus scale="   80.093">  5  6 -1 -1</clus>
<clus scale="   82.617">  2  5  1 -1</clus>
<clus scale="   90.765">  7  8 -1 -1</clus>
<clus scale="  104.440">  1  9  2 -1</clus>
<clus scale="  105.366">  1 10  2 -1</clus>
<clus scale="  104.440">  1  5  2 -1</clus>
</clustering>
</event>
<event>
10    4  0.3043429E-005  0.1045683E+03  0.7546771E-02  0.1276115E+00
         21   -1    0    0  503  502  0.00000000000E+00  0.00000000000E+00  0.37539482242E+02  0.37539482242E+02  0.00000000000E+00 0.  1.
          2   -1    0    0  502    0 -0.00000000000E+00 -0.00000000000E+00 -0.14940528244E+04  0.14940528244E+04  0.00000000000E+00 0. -1.
         24    2    1    2    0    0  0.27796823956E+01  0.66424107725E+02 -0.48602495943E+03  0.49713502779E+03  0.80641713410E+02 0.  0.
         23    2    1    2    0    0 -0.62255957529E+02 -0.47242254549E+01 -0.34693492960E+03  0.36431739622E+03  0.92006506622E+02 0.  0.
        -13    1    3    3    0    0  0.24811070428E+02  0.67957714231E+02 -0.25520840451E+03  0.26526433962E+03  0.00000000000E+00 0.  1.
         14    1    3    3    0    0 -0.22031388032E+02 -0.15336065053E+01 -0.23081655492E+03  0.23187068817E+03  0.00000000000E+00 0. -1.
        -11    1    4    4    0    0 -0.59309369305E+02 -0.24622632183E+02 -0.33463164547E+03  0.34073774879E+03  0.00000000000E+00 0.  1.
         11    1    4    4    0    0 -0.29465882240E+01  0.19898406728E+02 -0.12303284126E+02  0.23579647426E+02  0.00000000000E+00 0. -1.
         21    1    1    2  503  501 -0.44175226721E+02 -0.69904479000E+02 -0.74419709230E+02  0.11124917960E+03  0.00000000000E+00 0.  1.
          1    1    1    2  501    0  0.10365150185E+03  0.82045967297E+01 -0.54913374387E+03  0.55889070300E+03  0.00000000000E+00 0. -1.
<scales pt_clust_5="13000.00000" pt_clust_6="13000.00000" pt_clust_7="13000.00000" pt_clust_8="13000.00000" pt_clust_9="82.69273" pt_clust_10="92.88327"></scales>
<clustering>
<clus scale="   80.642">  5  6 -1 -1</clus>
<clus scale="   82.693">  1  9  2 -1</clus>
<clus scale="   92.007">  7  8 -1 -1</clus>
<clus scale="   92.883">  1 10  2 -1</clus>
<clus scale="   94.723">  2  5  1 -1</clus>
<clus scale="   82.693">  1  5  2 -1</clus>
</clustering>
</event>
<event>
10    4  0.3043429E-005  0.1324201E+03  0.7546771E-02  0.1226596E+00
          2   -1    0    0  503    0 -0.00000000000E+00  0.00000000000E+00  0.56658132772E+03  0.56658132772E+03  0.00000000000E+00 0. -1.
         21   -1    0    0  501  502  0.00000000000E+00 -0.00000000000E+00 -0.30899163616E+03  0.30899163616E+03  0.00000000000E+00 0.  1.
         23    2    1    2    0    0 -0.22296039915E+02 -0.90919112395E+02  0.73920185644E+02  0.14965585998E+03  0.90384092550E+02 0.  0.
         24    2    1    2    0    0  0.16800779729E+03  0.51664488194E+02 -0.12275758992E+03  0.22864450327E+03  0.79454664426E+02 0.  0.
        -11    1    4    4    0    0  0.24782164288E+02  0.28879786212E+02  0.88558009809E+00  0.38065495800E+02  0.00000000000E+00 0.  1.
         12    1    4    4    0    0  0.14322563301E+03  0.22784701982E+02 -0.12364317002E+03  0.19057900747E+03  0.00000000000E+00 0. -1.
        -11    1    3    3    0    0 -0.28419876309E+02 -0.40979190314E+00  0.47181028450E+02  0.55080910889E+02  0.00000000000E+00 0.  1.
         11    1    3    3    0    0  0.61238363942E+01 -0.90509320491E+02  0.26739157194E+02  0.94574949090E+02  0.00000000000E+00 0. -1.
         21    1    1    2  503  502 -0.91002961466E+02  0.81040558666E+02 -0.51858980526E+02  0.13243286981E+03  0.00000000000E+00 0.  1.
          1    1    1    2  501    0 -0.54708795913E+02 -0.41785934466E+02  0.35828607637E+03  0.36483973082E+03  0.00000000000E+00 0. -1.
<scales pt_clust_5="13000.00000" pt_clust_6="13000.00000" pt_clust_7="13000.00000" pt_clust_8="13000.00000" pt_clust_9="127.43443" pt_clust_10="68.84128"></scales>
<clustering>
<clus scale="   68.841">  2 10  1 -1</clus>
<clus scale="   79.455">  5  6 -1 -1</clus>
<clus scale="   90.384">  7  8 -1 -1</clus>
<clus scale="  127.434">  2  9  1 -1</clus>
<clus scale="  125.215">  2  5  1 -1</clus>
<clus scale="   68.841">  2  5  1 -1</clus>
</clustering>
</event>
<event>
10    4  0.3043429E-005  0.9412041E+02  0.7546771E-02  0.1299805E+00
          2   -1    0    0  503    0 -0.00000000000E+00  0.00000000000E+00  0.78700896358E+03  0.78700896358E+03  0.00000000000E+00 0. -1.
         21   -1    0    0  501  502  0.00000000000E+00 -0.00000000000E+00 -0.43451102698E+02  0.43451102698E+02  0.00000000000E+00 0. -1.
         24    2    1    2    0    0  0.29929067865E+02  0.19222580446E+01  0.56897508110E+03  0.57532064731E+03  0.79760642758E+02 0.  0.
         23    2    1    2    0    0  0.27376637693E+02 -0.44467590246E+02  0.10579137294E+03  0.14903841174E+03  0.91070229551E+02 0.  0.
        -13    1    3    3    0    0  0.71565717445E+01 -0.32764463621E+02  0.12533553718E+03  0.12974483988E+03  0.00000000000E+00 0.  1.
         14    1    3    3    0    0  0.22772496120E+02  0.34686721666E+02  0.44363954392E+03  0.44557580743E+03  0.00000000000E+00 0. -1.
        -11    1    4    4    0    0 -0.19711262030E+02  0.14911769674E+02  0.47077654733E+02  0.53171423724E+02  0.00000000000E+00 0.  1.
         11    1    4    4    0    0  0.47087899722E+02 -0.59379359920E+02  0.58713718207E+02  0.95866988012E+02  0.00000000000E+00 0. -1.
         21    1    1    2  503  502 -0.44841459159E+02  0.25893949324E+02  0.24743098710E+02  0.57388796858E+02  0.00000000000E+00 0.  1.
          1    1    1    2  501    0 -0.12464246398E+02  0.16651382877E+02  0.44048308132E+02  0.48712210371E+02  0.00000000000E+00 0. -1.
<scales pt_clust_5="13000.00000" pt_clust_6="13000.00000" pt_clust_7="13000.00000" pt_clust_8="13000.00000" pt_clust_9="59.45994" pt_clust_10="20.79967"></scales>
<clustering>
<clus scale="   20.800">  2 10  1 -1</clus>
<clus scale="   59.460">  2  9  1 -1</clus>
<clus scale="   79.761">  5  6 -1 -1</clus>
<clus scale="   83.226">  1  5  2 -1</clus>
<clus scale="   91.070">  7  8 -1 -1</clus>
<clus scale="   20.800">  2  5  1 -1</clus>
</clustering>
</event>
<event>
10    4  0.3043429E-005  0.2615333E+03  0.7546771E-02  0.1139392E+00
         21   -1    0    0  503  502  0.00000000000E+00  0.00000000000E+00  0.26145070550E+03  0.26145070550E+03  0.00000000000E+00 0. -1.
          2   -1    0    0  502    0 -0.00000000000E+00 -0.00000000000E+00 -0.29897471495E+04  0.29897471495E+04  0.00000000000E+00 0. -1.
         24    2    1    2    0    0 -0.82467813612E+02 -0.21511667550E+02 -0.59540517939E+03  0.60632708432E+03  0.76560521281E+02 0.  0.
         23    2    1    2    0    0 -0.11389737540E+03  0.19018538480E+03 -0.63038821050E+03  0.67431189401E+03  0.90355640381E+02 0.  0.
        -13    1    3    3    0    0 -0.64470172089E+02 -0.26391335678E+02 -0.22696421915E+03  0.23741453717E+03  0.00000000000E+00 0.  1.
         14    1    3    3    0    0 -0.17997641523E+02  0.48796681277E+01 -0.36844096024E+03  0.36891254715E+03  0.00000000000E+00 0. -1.
        -13    1    4    4    0    0 -0.71601127778E+02  0.88765125035E+02 -0.43949136972E+03  0.45404695020E+03  0.00000000000E+00 0. -1.
         13    1    4    4    0    0 -0.42296247620E+02  0.10142025977E+03 -0.19089684078E+03  0.22026494381E+03  0.00000000000E+00 0.  1.
         21    1    1    2  503  501  0.23937637397E+03  0.11610217144E+03  0.14162638482E+03  0.30139475029E+03  0.00000000000E+00 0. -1.
          1    1    1    2  501    0 -0.43011184960E+02 -0.28477588869E+03 -0.16441294389E+04  0.16691641263E+04  0.00000000000E+00 0. -1.
<scales pt_clust_5="13000.00000" pt_clust_6="13000.00000" pt_clust_7="13000.00000" pt_clust_8="13000.00000" pt_clust_9="261.53326" pt_clust_10="13000.00000"></scales>
<clustering>
<clus scale="   76.561">  5  6 -1 -1</clus>
<clus scale="   90.356">  7  8 -1 -1</clus>
<clus scale="  114.565">  2  5  1 -1</clus>
<clus scale="  246.464">  2  7  1 -1</clus>
<clus scale="  261.533">  1  9  2 -1</clus>
<clus scale="  261.533">  1  5  2 -1</clus>
</clustering>
</event>
<event>
10    4  0.3043429E-005  0.1312007E+03  0.7546771E-02  0.1233022E+00
         21   -1    0    0  501  502  0.00000000000E+00  0.00000000000E+00  0.17519075692E+03  0.17519075692E+03  0.00000000000E+00 0. -1.
          2   -1    0    0  503    0 -0.00000000000E+00 -0.00000000000E+00 -0.59990277677E+03  0.59990277677E+03  0.00000000000E+00 0. -1.
         24    2    1    2    0    0 -0.91182227691E+02  0.64070085824E+02 -0.42810273226E+03  0.44938070209E+03  0.79068903462E+02 0.  0.
         23    2    1    2    0    0  0.10581169663E+02 -0.20464253004E+02 -0.11765690765E+03  0.15852368700E+03  0.10371048461E+03 0.  0.
        -13    1    3    3    0    0 -0.22703079948E+02 -0.18556934619E+02 -0.93363761451E+02  0.97860010289E+02  0.00000000000E+00 0.  1.
         14    1    3    3    0    0 -0.68479147743E+02  0.82627020443E+02 -0.33473897081E+03  0.35152069180E+03  0.00000000000E+00 0. -1.
        -11    1    4    4    0    0  0.12581479403E+02  0.19512628661E+02 -0.11617197888E+03  0.11846925753E+03  0.00000000000E+00 0.  1.
         11    1    4    4    0    0 -0.20003097399E+01 -0.39976881665E+02 -0.14849287705E+01  0.40054429470E+02  0.00000000000E+00 0. -1.
         21    1    1    2  503  502  0.21447712530E+02  0.53746168016E+01  0.73750514178E+02  0.76993695976E+02  0.00000000000E+00 0. -1.
          1    1    1    2  501    0  0.59153345498E+02 -0.48980449622E+02  0.47297105884E+02  0.90195448631E+02  0.00000000000E+00 0. -1.
<scales pt_clust_5="13000.00000" pt_clust_6="13000.00000" pt_clust_7="13000.00000" pt_clust_8="13000.00000" pt_clust_9="22.11088" pt_clust_10="86.68927"></scales>
<clustering>
<clus scale="   22.111">  1  9  2 -1</clus>
<clus scale="   79.069">  5  6 -1 -1</clus>
<clus scale="   86.689">  1 10  2 -1</clus>
<clus scale="  103.710">  7  8 -1 -1</clus>
<clus scale="  112.737">  2  5  1 -1</clus>
<clus scale="   22.111">  1  5  2 -1</clus>
</clustering>
</event>
<event>
10    4  0.3043429E-005  0.1065192E+03  0.7546771E-02  0.1271624E+00
          2   -1    0    0  503    0 -0.00000000000E+00  0.00000000000E+00  0.33015059938E+03  0.33015059938E+03  0.00000000000E+00 0. -1.
         21   -1    0    0  501  502  0.00000000000E+00 -0.00000000000E+00 -0.14932380522E+03  0.14932380522E+03  0.00000000000E+00 0. -1.
         24    2    1    2    0    0  0.43951512758E+02  0.48388298385E+02  0.23885153977E+03  0.26051849755E+03  0.80911473995E+02 0.  0.
         23    2    1    2    0    0  0.19454490967E+01 -0.13092557118E+02 -0.18303468188E+01  0.92346765540E+02  0.91374915114E+02 0.  0.
        -11    1    3    3    0    0 -0.19143876558E+02  0.30505369098E+02  0.11306915647E+03  0.11866633768E+03  0.00000000000E+00 0.  1.
         12    1    3    3    0    0  0.63095389316E+02  0.17882929286E+02  0.12578238330E+03  0.14185215987E+03  0.00000000000E+00 0. -1.
        -11    1    4    4    0    0  0.10657195619E+02  0.29828260366E+02 -0.27184801914E+02  0.41741039638E+02  0.00000000000E+00 0. -1.
         11    1    4    4    0    0 -0.87117465227E+01 -0.42920817483E+02  0.25354455096E+02  0.50605725902E+02  0.00000000000E+00 0.  1.
         21    1    1    2  503  502  0.27080399810E+02  0.58821422755E+01 -0.24606121536E+02  0.37059531414E+02  0.00000000000E+00 0.  1.
          1    1    1    2  501    0 -0.72977361664E+02 -0.41177883543E+02 -0.31588277251E+02  0.89549610095E+02  0.00000000000E+00 0. -1.
<scales pt_clust_5="13000.00000" pt_clust_6="13000.00000" pt_clust_7="13000.00000" pt_clust_8="13000.00000" pt_clust_9="27.71187" pt_clust_10="70.38427"></scales>
<clustering>
<clus scale="   27.712">  2  9  1 -1</clus>
<clus scale="   70.384">  2 10  1 -1</clus>
<clus scale="   80.911">  5  6 -1 -1</clus>
<clus scale="   91.375">  7  8 -1 -1</clus>
<clus scale="   97.692">  1  5  2 -1</clus>
<clus scale="   27.712">  2  5  1 -1</clus>
</clustering>
</event>
<event>
10    4  0.3043429E-005  0.1769099E+03  0.7546771E-02  0.1172108E+00
         21   -1    0    0  501  502  0.00000000000E+00  0.00000000000E+00  0.73492790845E+02  0.73492790845E+02  0.00000000000E+00 0. -1.
          2   -1    0    0  503    0 -0.00000000000E+00 -0.00000000000E+00 -0.13369284624E+04  0.13369284624E+04  0.00000000000E+00 0. -1.
         24    2    1    2    0    0 -0.76642793443E+01 -0.16673354335E+03 -0.66871430496E+03  0.69384879790E+03  0.79928199235E+02 0.  0.
         23    2    1    2    0    0  0.15186705587E+03  0.91318608258E+02 -0.37653670335E+03  0.42584811624E+03  0.90355067734E+02 0.  0.
        -11    1    3    3    0    0 -0.15439358970E+02 -0.47329255124E+02 -0.89598292123E+02  0.10250017633E+03  0.00000000000E+00 0.  1.
         12    1    3    3    0    0  0.77750796258E+01 -0.11940428822E+03 -0.57911601284E+03  0.59134862157E+03  0.00000000000E+00 0. -1.
        -11    1    4    4    0    0  0.11417529059E+03  0.21763612162E+02 -0.26223399959E+03  0.28683849521E+03  0.00000000000E+00 0. -1.
         11    1    4    4    0    0  0.37691765276E+02  0.69554996096E+02 -0.11430270377E+03  0.13900962103E+03  0.00000000000E+00 0.  1.
         21    1    1    2  503  502 -0.70382372870E+02  0.87559225879E+02 -0.97590578274E+02  0.14880933242E+03  0.00000000000E+00 0. -1.
          1    1    1    2  501    0 -0.73820403652E+02 -0.12144290791E+02 -0.12059408501E+03  0.14191500672E+03  0.00000000000E+00 0. -1.
<scales pt_clust_5="13000.00000" pt_clust_6="13000.00000" pt_clust_7="13000.00000" pt_clust_8="13000.00000" pt_clust_9="130.07151" pt_clust_10="74.81267"></scales>
<clustering>
<clus scale="   74.813">  1 10  2 -1</clus>
<clus scale="   79.928">  5  6 -1 -1</clus>
<clus scale="   90.355">  7  8 -1 -1</clus>
<clus scale="  130.072">  1  9  2 -1</clus>
<clus scale="  171.819">  2  5  1 -1</clus>
<clus scale="   74.813">  1  5  2 -1</clus>
</clustering>
</event>
<event>
10    4  0.3043429E-005  0.1344451E+03  0.7546771E-02  0.1238536E+00
         21   -1    0    0  501  502  0.00000000000E+00  0.00000000000E+00  0.34386222263E+03  0.34386222263E+03  0.00000000000E+00 0.  1.
          2   -1    0    0  503    0 -0.00000000000E+00 -0.00000000000E+00 -0.16931155007E+04  0.16931155007E+04  0.00000000000E+00 0. -1.
         24    2    1    2    0    0  0.30356959414E+02  0.36820074063E+02 -0.13414637364E+04  0.13445864755E+04  0.78170142950E+02 0.  0.
         23    2    1    2    0    0 -0.84030472374E+02 -0.55864165115E+02 -0.31789376781E+03  0.35589885157E+03  0.12419991832E+03 0.  0.
        -11    1    3    3    0    0  0.91823331919E+01  0.23696443084E+02 -0.11105730707E+03  0.11392788119E+03  0.00000000000E+00 0.  1.
         12    1    3    3    0    0  0.21174626222E+02  0.13123630979E+02 -0.12304064293E+04  0.12306585943E+04  0.00000000000E+00 0. -1.
        -13    1    4    4    0    0  0.15903218615E+02 -0.55583569594E+02 -0.88856219253E+02  0.10600883582E+03  0.00000000000E+00 0.  1.
         13    1    4    4    0    0 -0.99933690989E+02 -0.28059552130E+00 -0.22903754855E+03  0.24989001576E+03  0.00000000000E+00 0. -1.
         21    1    1    2  503  502  0.22724810569E+02 -0.24269109337E+02  0.26395155454E+03  0.26603727150E+03  0.00000000000E+00 0.  1.
          1    1    1    2  501    0  0.30948702391E+02  0.43313200389E+02  0.46152671581E+02  0.70455124737E+02  0.00000000000E+00 0. -1.
<scales pt_clust_5="13000.00000" pt_clust_6="13000.00000" pt_clust_7="13000.00000" pt_clust_8="13000.00000" pt_clust_9="33.24766" pt_clust_10="54.07065"></scales>
<clustering>
<clus scale="   33.248">  1  9  2 -1</clus>
<clus scale="   54.071">  1 10  2 -1</clus>
<clus scale="   78.170">  5  6 -1 -1</clus>
<clus scale="   93.597">  2  5  1 -1</clus>
<clus scale="  124.200">  7  8 -1 -1</clus>
<clus scale="   33.248">  1  5  2 -1</clus>
</clustering>
</event>
<event>
10    4  0.3043429E-005  0.1396157E+03  0.7546771E-02  0.1232288E+00
         21   -1    0    0  503  502  0.00000000000E+00  0.00000000000E+00  0.33750783971E+03  0.33750783971E+03  0.00000000000E+00 0. -1.
          2   -1    0    0  502    0 -0.00000000000E+00 -0.00000000000E+00 -0.93272907413E+03  0.93272907413E+03  0.00000000000E+00 0. -1.
         23    2    1    2    0    0  0.20331338222E+01 -0.18197408298E+02 -0.79289132461E+02  0.12372942530E+03  0.93203674048E+02 0.  0.
         24    2    1    2    0    0  0.52662942318E+02 -0.81697807844E+02 -0.80007709887E+03  0.80988185175E+03  0.79607363722E+02 0.  0.
        -13    1    4    4    0    0  0.10731717600E+02 -0.23195352553E+02 -0.48104741875E+02  0.54472564962E+02  0.00000000000E+00 0.  1.
         14    1    4    4    0    0  0.41931224718E+02 -0.58502455291E+02 -0.75197235700E+03  0.75540928679E+03  0.00000000000E+00 0. -1.
        -13    1    3    3    0    0 -0.19509193647E+02  0.33538016846E+02 -0.29105728349E+02  0.48503099215E+02  0.00000000000E+00 0.  1.
         13    1    3    3    0    0  0.21542327469E+02 -0.51735425144E+02 -0.50183404111E+02  0.75226326082E+02  0.00000000000E+00 0. -1.
         21    1    1    2  503  501  0.29834080857E+02  0.67001697178E+01  0.14848437928E+03  0.15160005127E+03  0.00000000000E+00 0. -1.
          1    1    1    2  501    0 -0.84530156997E+02  0.93195046425E+02  0.13566061764E+03  0.18502558553E+03  0.00000000000E+00 0. -1.
<scales pt_clust_5="13000.00000" pt_clust_6="13000.00000" pt_clust_7="13000.00000" pt_clust_8="13000.00000" pt_clust_9="30.57719" pt_clust_10="114.69614"></scales>
<clustering>
<clus scale="   30.577">  1  9  2 -1</clus>
<clus scale="   79.607">  5  6 -1 -1</clus>
<clus scale="   93.204">  7  8 -1 -1</clus>
<clus scale="   94.978">  2  7  1 -1</clus>
<clus scale="  114.696">  1 10  2 -1</clus>
<clus scale="   30.577">  1  5  2 -1</clus>
</clustering>
</event>
<event>
10    4  0.3043429E-005  0.1079566E+03  0.7546771E-02  0.1272490E+00
          2   -1    0    0  503    0 -0.00000000000E+00  0.00000000000E+00  0.82979471148E+03  0.82979471148E+03  0.00000000000E+00 0. -1.
         21   -1    0    0  501  502  0.00000000000E+00 -0.00000000000E+00 -0.22909380424E+02  0.22909380424E+02  0.00000000000E+00 0.  1.
         23    2    1    2    0    0  0.49413711487E+02  0.55880956095E+01  0.43461439055E+03  0.44733307964E+03  0.93510822747E+02 0.  0.
         24    2    1    2    0    0 -0.61525743169E+02 -0.78650283663E+01  0.18200974391E+03  0.20635275385E+03  0.74877475913E+02 0.  0.
        -13    1    4    4    0    0 -0.12034816234E+02 -0.36465033638E+02  0.55058305227E+02  0.67126391639E+02  0.00000000000E+00 0.  1.
         14    1    4    4    0    0 -0.49490926934E+02  0.28600005272E+02  0.12695143868E+03  0.13922636221E+03  0.00000000000E+00 0. -1.
        -11    1    3    3    0    0 -0.19888053696E+01  0.42546932455E+02  0.17213789457E+03  0.17732921800E+03  0.00000000000E+00 0.  1.
         11    1    3    3    0    0  0.51402516857E+02 -0.36958836846E+02  0.26247649598E+03  0.27000386165E+03  0.00000000000E+00 0. -1.
         21    1    1    2  503  502  0.47070620253E+01 -0.19744784402E+02  0.25334049660E+02  0.32462701923E+02  0.00000000000E+00 0.  1.
          1    1    1    2  501    0  0.74049696562E+01  0.22021717159E+02  0.16492714693E+03  0.16655555649E+03  0.00000000000E+00 0. -1.
<scales pt_clust_5="13000.00000" pt_clust_6="13000.00000" pt_clust_7="13000.00000" pt_clust_8="13000.00000" pt_clust_9="20.29810" pt_clust_10="22.51339"></scales>
<clustering>
<clus scale="   20.298">  2  9  1 -1</clus>
<clus scale="   22.513">  2 10  1 -1</clus>
<clus scale="   74.877">  5  6 -1 -1</clus>
<clus scale="   92.287">  2  5  1 -1</clus>
<clus scale="   93.511">  7  8 -1 -1</clus>
<clus scale="   20.298">  2  5  1 -1</clus>
</clustering>
</event>
<event>
10    4  0.3043429E-005  0.9698325E+02  0.7546771E-02  0.1292011E+00
         21   -1    0    0  503  502  0.00000000000E+00  0.00000000000E+00  0.40889693992E+02  0.40889693992E+02  0.00000000000E+00 0.  1.
          2   -1    0    0  502    0 -0.00000000000E+00 -0.00000000000E+00 -0.50038604151E+03  0.50038604151E+03  0.00000000000E+00 0. -1.
         24    2    1    2    0    0 -0.13975012899E+02  0.46822669323E+02 -0.26887454305E+03  0.28520243960E+03  0.81604217438E+02 0.  0.
         23    2    1    2    0    0  0.12923146873E+02 -0.18025447520E-01 -0.13558441779E+03  0.16397307179E+03  0.91307315556E+02 0.  0.
        -13    1    3    3    0    0 -0.29783570980E+02  0.52018003760E+01 -0.31398021629E+02  0.43588480012E+02  0.00000000000E+00 0.  1.
         14    1    3    3    0    0  0.15808558081E+02  0.41620868947E+02 -0.23747652142E+03  0.24161395959E+03  0.00000000000E+00 0. -1.
        -11    1    4    4    0    0  0.25280342212E+02  0.34552798254E+02 -0.11307534290E+03  0.12090915905E+03  0.00000000000E+00 0. -1.
         11    1    4    4    0    0 -0.12357195339E+02 -0.34570823701E+02 -0.22509074887E+02  0.43063912738E+02  0.00000000000E+00 0.  1.
         21    1    1    2  503  501  0.25340493760E+02 -0.86024724521E+01 -0.10964883763E+02  0.28920093918E+02  0.00000000000E+00 0. -1.
          1    1    1    2  501    0 -0.24288627734E+02 -0.38202171423E+02 -0.44072502914E+02  0.63180130198E+02  0.00000000000E+00 0. -1.
<scales pt_clust_5="13000.00000" pt_clust_6="13000.00000" pt_clust_7="13000.00000" pt_clust_8="13000.00000" pt_clust_9="26.76085" pt_clust_10="44.06557"></scales>
<clustering>
<clus scale="   26.761">  1  9  2 -1</clus>
<clus scale="   44.066">  1 10  2 -1</clus>
<clus scale="   81.604">  5  6 -1 -1</clus>
<clus scale="   87.909">  2  5  1 -1</clus>
<clus scale="   91.307">  7  8 -1 -1</clus>
<clus scale="   26.761">  1  5  2 -1</clus>
</clustering>
</event>
<event>
10    4  0.3043429E-005  0.1563515E+03  0.7546771E-02  0.1194639E+00
         21   -1    0    0  501  502  0.00000000000E+00  0.00000000000E+00  0.36460227564E+03  0.36460227564E+03  0.00000000000E+00 0. -1.
          2   -1    0    0  503    0 -0.00000000000E+00 -0.00000000000E+00 -0.15918460512E+03  0.15918460512E+03  0.00000000000E+00 0. -1.
         23    2    1    2    0    0  0.12940715126E+02 -0.13168577736E+03 -0.70846900799E+02  0.17573138500E+03  0.91398196119E+02 0.  0.
         24    2    1    2    0    0 -0.16939231655E+02  0.10180434089E+03  0.21004912306E+03  0.24760292766E+03  0.80842527747E+02 0.  0.
        -11    1    4    4    0    0  0.17020755369E+02  0.38988864820E+02  0.14463738956E+03  0.15076409437E+03  0.00000000000E+00 0.  1.
         12    1    4    4    0    0 -0.33959987024E+02  0.62815476069E+02  0.65411733507E+02  0.96838833289E+02  0.00000000000E+00 0. -1.
        -11    1    3    3    0    0  0.14351867171E+02 -0.29120579451E+02  0.20485444625E+02  0.38387988751E+02  0.00000000000E+00 0. -1.
         11    1    3    3    0    0 -0.14111520453E+01 -0.10256519791E+03 -0.91332345424E+02  0.13734339625E+03  0.00000000000E+00 0.  1.
         21    1    1    2  503  502  0.10491242814E+02 -0.21254190318E+02  0.16857198670E+02  0.29085596587E+02  0.00000000000E+00 0. -1.
          1    1    1    2  501    0 -0.64927262843E+01  0.51135626788E+02  0.49358249579E+02  0.71366971515E+02  0.00000000000E+00 0. -1.
<scales pt_clust_5="13000.00000" pt_clust_6="13000.00000" pt_clust_7="13000.00000" pt_clust_8="13000.00000" pt_clust_9="23.70246" pt_clust_10="47.60680"></scales>
<clustering>
<clus scale="   23.702">  1  9  2 -1</clus>
<clus scale="   47.607">  1 10  2 -1</clus>
<clus scale="   80.843">  5  6 -1 -1</clus>
<clus scale="   91.398">  7  8 -1 -1</clus>
<clus scale="  150.425">  1  5  2 -1</clus>
<clus scale="   23.702">  1  5  2 -1</clus>
</clustering>
</event>
<event>
10    4  0.3043429E-005  0.1694826E+03  0.7546771E-02  0.1196144E+00
          4   -1    0    0  502    0 -0.00000000000E+00  0.00000000000E+00  0.59419933782E+03  0.59419933782E+03  0.00000000000E+00 0. -1.
         21   -1    0    0  503  502  0.00000000000E+00 -0.00000000000E+00 -0.13077283156E+03  0.13077283156E+03  0.00000000000E+00 0. -1.
         23    2    1    2    0    0  0.25744877530E+02  0.70086962983E+02  0.13531150762E+03  0.17975561408E+03  0.91803570732E+02 0.  0.
         24    2    1    2    0    0 -0.13412743717E+03  0.52953602127E+02  0.31215454849E+03  0.35298553362E+03  0.79775130343E+02 0.  0.
        -11    1    4    4    0    0 -0.60999218510E+01  0.32595769761E+02  0.43590851188E+02  0.54770937186E+02  0.00000000000E+00 0.  1.
         12    1    4    4    0    0 -0.12802751532E+03  0.20357832366E+02  0.26856369730E+03  0.29821459643E+03  0.00000000000E+00 0. -1.
        -11    1    3    3    0    0  0.25703905896E+01  0.60890937444E+02  0.23696600173E+02  0.65389923003E+02  0.00000000000E+00 0. -1.
         11    1    3    3    0    0  0.23174486941E+02  0.91960255392E+01  0.11161490745E+03  0.11436569108E+03  0.00000000000E+00 0.  1.
         21    1    1    2  503  501 -0.39241136692E+01 -0.29549579183E+02 -0.26684180595E+02  0.40007771645E+02  0.00000000000E+00 0. -1.
          3    1    1    2  501    0  0.11230667331E+03 -0.93490985927E+02  0.42644630733E+02  0.15222325003E+03  0.00000000000E+00 0. -1.
<scales pt_clust_5="13000.00000" pt_clust_6="13000.00000" pt_clust_7="13000.00000" pt_clust_8="13000.00000" pt_clust_9="29.80900" pt_clust_10="149.53355"></scales>
<clustering>
<clus scale="   29.809">  2  9  1 -1</clus>
<clus scale="   79.775">  5  6 -1 -1</clus>
<clus scale="   91.804">  7  8 -1 -1</clus>
<clus scale="  114.273">  1  7  2 -1</clus>
<clus scale="  149.534">  2 10  1 -1</clus>
<clus scale="   29.809">  2  5  1 -1</clus>
</clustering>
</event>
<event>
10    4  0.3043429E-005  0.2882898E+03  0.7546771E-02  0.1120141E+00
          2   -1    0    0  503    0 -0.00000000000E+00  0.00000000000E+00  0.19238826491E+04  0.19238826491E+04  0.00000000000E+00 0. -1.
         21   -1    0    0  501  502  0.00000000000E+00 -0.00000000000E+00 -0.72424176414E+02  0.72424176414E+02  0.00000000000E+00 0. -1.
         24    2    1    2    0    0  0.10726951057E+03  0.23205998244E+02  0.49508023238E+03  0.51337702446E+03  0.80039156023E+02 0.  0.
         23    2    1    2    0    0 -0.64974560127E+02 -0.27653592297E+03  0.65402434219E+03  0.71896754616E+03  0.92047173178E+02 0.  0.
        -13    1    3    3    0    0  0.49073549421E+02 -0.27789551992E+02  0.25391581666E+03  0.26010327642E+03  0.00000000000E+00 0.  1.
         14    1    3    3    0    0  0.58195961145E+02  0.50995550236E+02  0.24116441573E+03  0.25327374805E+03  0.00000000000E+00 0. -1.
        -13    1    4    4    0    0 -0.22087554902E+02 -0.98631815324E+02  0.34818937196E+03  0.36256300669E+03  0.00000000000E+00 0.  1.
         13    1    4    4    0    0 -0.42887005225E+02 -0.17790410765E+03  0.30583497024E+03  0.35640453947E+03  0.00000000000E+00 0. -1.
         21    1    1    2  503  502  0.17016242984E+02 -0.16333625665E+02  0.41267480798E+02  0.47532565932E+02  0.00000000000E+00 0. -1.
          1    1    1    2  501    0 -0.59311193424E+02  0.26966355039E+03  0.66108641731E+03  0.71642968896E+03  0.00000000000E+00 0. -1.
<scales pt_clust_5="13000.00000" pt_clust_6="13000.00000" pt_clust_7="13000.00000" pt_clust_8="13000.00000" pt_clust_9="23.58686" pt_clust_10="273.20012"></scales>
<clustering>
<clus scale="   23.587">  2  9  1 -1</clus>
<clus scale="   80.039">  5  6 -1 -1</clus>
<clus scale="   92.047">  7  8 -1 -1</clus>
<clus scale="  137.270">  1  5  2 -1</clus>
<clus scale="  273.200">  2 10  1 -1</clus>
<clus scale="   23.587">  2  5  1 -1</clus>
</clustering>
</event>
<event>
10    4  0.3043429E-005  0.1613901E+03  0.7546771E-02  0.1208328E+00
         21   -1    0    0  501  502  0.00000000000E+00  0.00000000000E+00  0.15032969031E+03  0.15032969031E+03  0.00000000000E+00 0. -1.
          4   -1    0    0  503    0 -0.00000000000E+00 -0.00000000000E+00 -0.62239920387E+03  0.62239920387E+03  0.00000000000E+00 0. -1.
         24    2    1    2    0    0  0.53250116293E+02  0.30057676576E+02 -0.23925903919E+03  0.26011452485E+03  0.81704586155E+02 0.  0.
         23    2    1    2    0    0  0.56877942029E+02 -0.98271892122E+02 -0.22914417671E+03  0.27127597205E+03  0.90504885061E+02 0.  0.
        -11    1    3    3    0    0 -0.16807422326E+02  0.27152493520E+02 -0.74309523036E+02  0.80880483205E+02  0.00000000000E+00 0.  1.
         12    1    3    3    0    0  0.70057538619E+02  0.29051830561E+01 -0.16494951615E+03  0.17923404165E+03  0.00000000000E+00 0. -1.
        -11    1    4    4    0    0  0.14399599056E+02 -0.98119601776E+02 -0.18566443812E+03  0.21049011447E+03  0.00000000000E+00 0. -1.
         11    1    4    4    0    0  0.42478342973E+02 -0.15229034627E+00 -0.43479738588E+02  0.60785857581E+02  0.00000000000E+00 0.  1.
         21    1    1    2  503  502  0.18141023783E+02 -0.52733528225E+02 -0.29611090097E+02  0.63140624005E+02  0.00000000000E+00 0. -1.
          3    1    1    2  501    0 -0.12826908211E+03  0.12094774377E+03  0.25944792438E+02  0.17819777328E+03  0.00000000000E+00 0. -1.
<scales pt_clust_5="13000.00000" pt_clust_6="13000.00000" pt_clust_7="13000.00000" pt_clust_8="13000.00000" pt_clust_9="55.76667" pt_clust_10="133.62492"></scales>
<clustering>
<clus scale="   55.767">  1  9  2 -1</clus>
<clus scale="   81.705">  5  6 -1 -1</clus>
<clus scale="   90.505">  7  8 -1 -1</clus>
<clus scale="  101.671">  2  5  1 -1</clus>
<clus scale="  133.625">  1 10  2 -1</clus>
<clus scale="   55.767">  1  5  2 -1</clus>
</clustering>
</event>
<event>
10    4  0.3043429E-005  0.1825383E+03  0.7546771E-02  0.1196409E+00
         21   -1    0    0  503  502  0.00000000000E+00  0.00000000000E+00  0.89844920302E+03  0.89844920302E+03  0.00000000000E+00 0. -1.
          2   -1    0    0  502    0 -0.00000000000E+00 -0.00000000000E+00 -0.42755350095E+03  0.42755350095E+03  0.00000000000E+00 0. -1.
         24    2    1    2    0    0 -0.30801689241E+02 -0.39613264696E+02  0.15097769139E+03  0.17782742679E+03  0.79437872719E+02 0.  0.
         23    2    1    2    0    0 -0.16021567861E+03 -0.25038974941E+02  0.47815308376E+03  0.51280799112E+03  0.89697549033E+02 0.  0.
        -13    1    3    3    0    0 -0.26703641318E+01 -0.55535369722E+02  0.12336208473E+03  0.13531264569E+03  0.00000000000E+00 0.  1.
         14    1    3    3    0    0 -0.28131325109E+02  0.15922105026E+02  0.27615606655E+02  0.42514781098E+02  0.00000000000E+00 0. -1.
        -13    1    4    4    0    0 -0.72973434358E+02  0.22083928308E+02  0.29321947581E+03  0.30296944236E+03  0.00000000000E+00 0.  1.
         13    1    4    4    0    0 -0.87242244248E+02 -0.47122903248E+02  0.18493360795E+03  0.20983854875E+03  0.00000000000E+00 0. -1.
         21    1    1    2  503  501  0.35723908380E+01  0.29139762215E+02  0.21457732948E+03  0.21657635616E+03  0.00000000000E+00 0. -1.
          1    1    1    2  501    0  0.18744497701E+03  0.35512477422E+02 -0.37281240257E+03  0.41879092990E+03  0.00000000000E+00 0. -1.
<scales pt_clust_5="13000.00000" pt_clust_6="13000.00000" pt_clust_7="13000.00000" pt_clust_8="13000.00000" pt_clust_9="29.35792" pt_clust_10="158.97988"></scales>
<clustering>
<clus scale="   29.358">  1  9  2 -1</clus>
<clus scale="   79.438">  5  6 -1 -1</clus>
<clus scale="   89.698">  7  8 -1 -1</clus>
<clus scale="   90.937">  2  5  1 -1</clus>
<clus scale="  158.980">  1 10  2 -1</clus>
<clus scale="   29.358">  1  5  2 -1</clus>
</clustering>
</event>
<event>
10    4  0.3043429E-005  0.1354735E+03  0.7546771E-02  0.1234351E+00
          2   -1    0    0  503    0 -0.00000000000E+00  0.00000000000E+00  0.59368013388E+03  0.59368013388E+03  0.00000000000E+00 0. -1.
         21   -1    0    0  501  502  0.00000000000E+00 -0.00000000000E+00 -0.48288757473E+03  0.48288757473E+03  0.00000000000E+00 0. -1.
         23    2    1    2    0    0 -0.29608066102E+02 -0.24463920054E+02  0.18247030550E+03  0.20790680140E+03  0.91949468285E+02 0.  0.
         24    2    1    2    0    0  0.60183651741E+02 -0.35087130266E+02  0.44298314923E+02  0.11501789793E+03  0.80084939236E+02 0.  0.
        -11    1    4    4    0    0  0.43012679515E+02 -0.32756442296E+02  0.67231765581E+02  0.86273897641E+02  0.00000000000E+00 0.  1.
         12    1    4    4    0    0  0.17170972226E+02 -0.23306879701E+01 -0.22933450659E+02  0.28744000291E+02  0.00000000000E+00 0. -1.
        -13    1    3    3    0    0 -0.72707785830E+01 -0.55192779144E+02  0.14138207201E+03  0.15194735067E+03  0.00000000000E+00 0. -1.
         13    1    3    3    0    0 -0.22337287519E+02  0.30728859090E+02  0.41088233487E+02  0.55959450728E+02  0.00000000000E+00 0.  1.
         21    1    1    2  503  502 -0.53885557620E+01 -0.13334604609E+03 -0.39305458116E+03  0.41509289118E+03  0.00000000000E+00 0. -1.
          1    1    1    2  501    0 -0.25187029878E+02  0.19289709641E+03  0.27707851989E+03  0.33855011810E+03  0.00000000000E+00 0. -1.
<scales pt_clust_5="13000.00000" pt_clust_6="13000.00000" pt_clust_7="13000.00000" pt_clust_8="13000.00000" pt_clust_9="135.47345" pt_clust_10="13000.00000"></scales>
<clustering>
<clus scale="   80.085">  5  6 -1 -1</clus>
<clus scale="   91.949">  7  8 -1 -1</clus>
<clus scale="   99.649">  1  7  2 -1</clus>
<clus scale="  104.673">  1  5  2 -1</clus>
<clus scale="  135.473">  2  9  1 -1</clus>
<clus scale="  135.473">  2  5  1 -1</clus>
</clustering>
</event>
<event>
10    4  0.3043429E-005  0.1187961E+03  0.7546771E-02  0.1261539E+00
          2   -1    0    0  503    0 -0.00000000000E+00  0.00000000000E+00  0.33026899745E+03  0.33026899745E+03  0.00000000000E+00 0. -1.
         21   -1    0    0  501  502  0.00000000000E+00 -0.00000000000E+00 -0.11764268130E+03  0.11764268130E+03  0.00000000000E+00 0.  1.
         24    2    1    2    0    0  0.26582839536E+02 -0.18959173764E+02  0.66892070518E+02  0.10950004419E+03  0.80309482334E+02 0.  0.
         23    2    1    2    0    0  0.52075219838E+02 -0.21031884007E+00  0.23791603366E+02  0.10872229407E+03  0.92426317040E+02 0.  0.
        -13    1    3    3    0    0  0.59881678602E+01 -0.49349926916E+02  0.34179154365E+02  0.60328169491E+02  0.00000000000E+00 0.  1.
         14    1    3    3    0    0  0.20594671676E+02  0.30390753153E+02  0.32712916153E+02  0.49171874703E+02  0.00000000000E+00 0. -1.
        -11    1    4    4    0    0 -0.15557601144E+01  0.35601778834E+02  0.26133282645E+02  0.44191124760E+02  0.00000000000E+00 0. -1.
         11    1    4    4    0    0  0.53630979952E+02 -0.35812097675E+02 -0.23416792795E+01  0.64531169309E+02  0.00000000000E+00 0.  1.
         21    1    1    2  503  502 -0.89448087768E+02 -0.35667917904E+02  0.82726353269E+00  0.96300805489E+02  0.00000000000E+00 0.  1.
          1    1    1    2  501    0  0.10790028394E+02  0.54837410508E+02  0.12111537873E+03  0.13338853500E+03  0.00000000000E+00 0. -1.
<scales pt_clust_5="13000.00000" pt_clust_6="13000.00000" pt_clust_7="13000.00000" pt_clust_8="13000.00000" pt_clust_9="74.63163" pt_clust_10="55.88890"></scales>
<clustering>
<clus scale="   55.889">  2 10  1 -1</clus>
<clus scale="   80.309">  5  6 -1 -1</clus>
<clus scale="   85.686">  1  5  2 -1</clus>
<clus scale="   74.632">  2  9  1 -1</clus>
<clus scale="   92.426">  7  8 -1 -1</clus>
<clus scale="   55.889">  2  5  1 -1</clus>
</clustering>
</event>
<event>
10    4  0.3043429E-005  0.2266547E+03  0.7546771E-02  0.1144838E+00
          2   -1    0    0  502    0 -0.00000000000E+00  0.00000000000E+00  0.20187096325E+04  0.20187096325E+04  0.00000000000E+00 0. -1.
         21   -1    0    0  503  502  0.00000000000E+00 -0.00000000000E+00 -0.69257963339E+02  0.69257963339E+02  0.00000000000E+00 0. -1.
         24    2    1    2    0    0 -0.13619248289E+03  0.95956190250E+01  0.73698114204E+03  0.75381221346E+03  0.80319245201E+02 0.  0.
         23    2    1    2    0    0  0.14511109205E+03 -0.22965038344E+03  0.81701708715E+03  0.86617676078E+03  0.94597740810E+02 0.  0.
        -11    1    3    3    0    0 -0.12059768121E+03 -0.32396557900E+00  0.43915146881E+03  0.45540961587E+03  0.00000000000E+00 0.  1.
         12    1    3    3    0    0 -0.15594801683E+02  0.99195846040E+01  0.29782967323E+03  0.29840259760E+03  0.00000000000E+00 0. -1.
        -13    1    4    4    0    0  0.83993166974E+02 -0.90596640119E+02  0.24567329530E+03  0.27498722029E+03  0.00000000000E+00 0.  1.
         13    1    4    4    0    0  0.61117925078E+02 -0.13905374332E+03  0.57134379185E+03  0.59118954048E+03  0.00000000000E+00 0. -1.
         21    1    1    2  503  501  0.35434855618E+02  0.59861071841E+02  0.53466630659E+02  0.87736295276E+02  0.00000000000E+00 0.  1.
          1    1    1    2  501    0 -0.44353464778E+02  0.16019369257E+03  0.34198680931E+03  0.38024232631E+03  0.00000000000E+00 0. -1.
<scales pt_clust_5="13000.00000" pt_clust_6="13000.00000" pt_clust_7="13000.00000" pt_clust_8="13000.00000" pt_clust_9="69.56276" pt_clust_10="205.96998"></scales>
<clustering>
<clus scale="   69.563">  2  9  1 -1</clus>
<clus scale="   80.319">  5  6 -1 -1</clus>
<clus scale="   94.598">  7  8 -1 -1</clus>
<clus scale="  154.418">  1  5  2 -1</clus>
<clus scale="  205.970">  2 10  1 -1</clus>
<clus scale="   69.563">  2  5  1 -1</clus>
</clustering>
</event>
<event>
10    4  0.3043429E-005  0.3807262E+03  0.7546771E-02  0.1102717E+00
          2   -1    0    0  503    0 -0.00000000000E+00  0.00000000000E+00  0.19384862852E+04  0.19384862852E+04  0.00000000000E+00 0. -1.
         21   -1    0    0  501  502  0.00000000000E+00 -0.00000000000E+00 -0.14925651605E+03  0.14925651605E+03  0.00000000000E+00 0. -1.
         24    2    1    2    0    0  0.63171572132E+01  0.45876830474E+02  0.37671479426E+03  0.38797322612E+03  0.80402723325E+02 0.  0.
         23    2    1    2    0    0  0.44578253413E+02  0.27411631750E+01  0.15501217461E+03  0.18610551767E+03  0.92799540821E+02 0.  0.
        -13    1    3    3    0    0 -0.36435191335E+02  0.27662359120E+02  0.16545354605E+03  0.17166130950E+03  0.00000000000E+00 0.  1.
         14    1    3    3    0    0  0.42752348548E+02  0.18214471354E+02  0.21126124821E+03  0.21631191662E+03  0.00000000000E+00 0. -1.
        -11    1    4    4    0    0  0.37323539078E+02 -0.39152376394E+02  0.11771265279E+03  0.12954622254E+03  0.00000000000E+00 0. -1.
         11    1    4    4    0    0  0.72547143351E+01  0.41893539569E+02  0.37299521814E+02  0.56559295127E+02  0.00000000000E+00 0.  1.
         21    1    1    2  503  502 -0.37979197748E+03  0.94006583009E+02  0.30548567969E+03  0.49638763512E+03  0.00000000000E+00 0. -1.
          1    1    1    2  501    0  0.32889656685E+03 -0.14262457666E+03  0.95201712063E+03  0.10172764224E+04  0.00000000000E+00 0. -1.
<scales pt_clust_5="13000.00000" pt_clust_6="13000.00000" pt_clust_7="13000.00000" pt_clust_8="13000.00000" pt_clust_9="380.72618" pt_clust_10="13000.00000"></scales>
<clustering>
<clus scale="   80.403">  5  6 -1 -1</clus>
<clus scale="   92.786">  1  5  2 -1</clus>
<clus scale="   92.800">  7  8 -1 -1</clus>
<clus scale="  103.545">  1  7  2 -1</clus>
<clus scale="  380.726">  2  9  1 -1</clus>
<clus scale="  380.726">  2  5  1 -1</clus>
</clustering>
</event>
<event>
10    4  0.3043429E-005  0.1355580E+03  0.7546771E-02  0.1244267E+00
         21   -1    0    0  503  502  0.00000000000E+00  0.00000000000E+00  0.31563128016E+03  0.31563128016E+03  0.00000000000E+00 0.  1.
          2   -1    0    0  502    0 -0.00000000000E+00 -0.00000000000E+00 -0.39555376131E+03  0.39555376131E+03  0.00000000000E+00 0. -1.
         24    2    1    2    0    0  0.15795521769E+01  0.78361332736E+01  0.54956424685E+02  0.98132859289E+02  0.80907042266E+02 0.  0.
         23    2    1    2    0    0  0.37350417336E+01 -0.37510411542E+02 -0.25740810702E+03  0.27529649841E+03  0.90045804822E+02 0.  0.
        -11    1    3    3    0    0 -0.35185217836E+02 -0.13710536838E+02  0.33226062186E+02  0.50298604185E+02  0.00000000000E+00 0.  1.
         12    1    3    3    0    0  0.36764770013E+02  0.21546670111E+02  0.21730362499E+02  0.47834255104E+02  0.00000000000E+00 0. -1.
        -11    1    4    4    0    0  0.14520237509E+01  0.27724123101E+02 -0.43093848158E+02  0.51262219262E+02  0.00000000000E+00 0. -1.
         11    1    4    4    0    0  0.22830179827E+01 -0.65234534642E+02 -0.21431425886E+03  0.22403427914E+03  0.00000000000E+00 0.  1.
         21    1    1    2  503  501 -0.10954952595E+03  0.89031969221E+02  0.15876787944E+03  0.21245006406E+03  0.00000000000E+00 0.  1.
          1    1    1    2  501    0  0.10423493204E+03 -0.59357690953E+02 -0.36238678255E+02  0.12530561972E+03  0.00000000000E+00 0. -1.
<scales pt_clust_5="13000.00000" pt_clust_6="13000.00000" pt_clust_7="13000.00000" pt_clust_8="13000.00000" pt_clust_9="13000.00000" pt_clust_10="135.55800"></scales>
<clustering>
<clus scale="   80.907">  5  6 -1 -1</clus>
<clus scale="   81.301">  2  5  1 -1</clus>
<clus scale="   90.046">  7  8 -1 -1</clus>
<clus scale="   95.663">  2  7  1 -1</clus>
<clus scale="  135.558">  2 10  1 -1</clus>
<clus scale="  135.558">  1  5  2 -1</clus>
</clustering>
</event>
<event>
10    4  0.3043429E-005  0.2335646E+03  0.7546771E-02  0.1135004E+00
          2   -1    0    0  502    0 -0.00000000000E+00  0.00000000000E+00  0.15846108366E+04  0.15846108366E+04  0.00000000000E+00 0. -1.
         21   -1    0    0  503  502  0.00000000000E+00 -0.00000000000E+00 -0.87925375352E+02  0.87925375352E+02  0.00000000000E+00 0. -1.
         24    2    1    2    0    0 -0.39729954734E+02  0.15264462199E+03  0.18629355390E+03  0.25828254181E+03  0.84414058389E+02 0.  0.
         23    2    1    2    0    0  0.16528353033E+03 -0.27730548549E+03  0.95933145412E+03  0.10162162241E+04  0.90341560384E+02 0.  0.
        -11    1    3    3    0    0 -0.61783212939E+02  0.11543471079E+03  0.16326783279E+03  0.20928144466E+03  0.00000000000E+00 0.  1.
         12    1    3    3    0    0  0.22053258205E+02  0.37209911204E+02  0.23025721110E+02  0.49001097150E+02  0.00000000000E+00 0. -1.
        -13    1    4    4    0    0  0.10729864633E+03 -0.24625524707E+03  0.74059363794E+03  0.78780301013E+03  0.00000000000E+00 0. -1.
         13    1    4    4    0    0  0.57984884002E+02 -0.31050238426E+02  0.21873781618E+03  0.22841321395E+03  0.00000000000E+00 0.  1.
         21    1    1    2  503  501 -0.30681660017E+02 -0.30407634135E+00  0.55916419538E+02  0.63781679954E+02  0.00000000000E+00 0.  1.
          1    1    1    2  501    0 -0.94871915577E+02  0.12496493984E+03  0.29514403371E+03  0.33425576613E+03  0.00000000000E+00 0. -1.
<scales pt_clust_5="13000.00000" pt_clust_6="13000.00000" pt_clust_7="13000.00000" pt_clust_8="13000.00000" pt_clust_9="27.56842" pt_clust_10="224.22564"></scales>
<clustering>
<clus scale="   27.568">  9 10 -1 -1</clus>
<clus scale="   84.414">  5  6 -1 -1</clus>
<clus scale="   90.342">  7  8 -1 -1</clus>
<clus scale="  178.898">  1  5  2 -1</clus>
<clus scale="  224.226">  2  9  1 -1</clus>
<clus scale="  224.226">  2  5  1 -1</clus>
</clustering>
</event>
<event>
10    4  0.3043429E-005  0.9158912E+02  0.7546771E-02  0.1311919E+00
         -1   -1    0    0    0  501 -0.00000000000E+00  0.00000000000E+00  0.83567577870E+02  0.83567577870E+02  0.00000000000E+00 0.  1.
         21   -1    0    0  503  502  0.00000000000E+00 -0.00000000000E+00 -0.37075220950E+03  0.37075220950E+03  0.00000000000E+00 0.  1.
         23    2    1    2    0    0  0.83992523844E+01  0.15198599600E+02  0.14683400173E+02  0.92307565761E+02  0.89462503797E+02 0.  0.
         24    2    1    2    0    0 -0.58747575541E+02  0.26842760567E+02 -0.14253337391E+03  0.17129737626E+03  0.69679387262E+02 0.  0.
        -13    1    4    4    0    0 -0.74187323519E+02  0.27586175806E+02 -0.12468548815E+03  0.14768624520E+03  0.00000000000E+00 0.  1.
         14    1    4    4    0    0  0.15439747978E+02 -0.74341523829E+00 -0.17847885753E+02  0.23611131055E+02  0.00000000000E+00 0. -1.
        -13    1    3    3    0    0  0.11955412151E+02 -0.18046806579E+02 -0.29692338171E+02  0.36745803209E+02  0.00000000000E+00 0.  1.
         13    1    3    3    0    0 -0.35561597662E+01  0.33245406178E+02  0.44375738344E+02  0.55561762552E+02  0.00000000000E+00 0. -1.
         21    1    1    2  503  501  0.39769484743E+02 -0.38986878483E+01 -0.14197775198E+03  0.14749404645E+03  0.00000000000E+00 0.  1.
         -2    1    1    2    0  502  0.10578838414E+02 -0.38142672319E+02 -0.17356905919E+02  0.43220798892E+02  0.00000000000E+00 0.  1.
<scales pt_clust_5="13000.00000" pt_clust_6="13000.00000" pt_clust_7="13000.00000" pt_clust_8="13000.00000" pt_clust_9="48.62203" pt_clust_10="39.58253"></scales>
<clustering>
<clus scale="   39.583">  2 10  1 -1</clus>
<clus scale="   48.622">  2  9  1 -1</clus>
<clus scale="   69.679">  5  6 -1 -1</clus>
<clus scale="   72.390">  2  5  1 -1</clus>
<clus scale="   89.463">  7  8 -1 -1</clus>
<clus scale="   39.583">  2  5  1 -1</clus>
</clustering>
</event>
<event>
10    4  0.3043429E-005  0.1241359E+03  0.7546771E-02  0.1238884E+00
          2   -1    0    0  502    0 -0.00000000000E+00  0.00000000000E+00  0.28558348169E+03  0.28558348169E+03  0.00000000000E+00 0. -1.
         21   -1    0    0  503  502  0.00000000000E+00 -0.00000000000E+00 -0.18232436758E+03  0.18232436758E+03  0.00000000000E+00 0.  1.
         23    2    1    2    0    0  0.75913926173E+02  0.16655203953E+02  0.14224946810E+03  0.18560526517E+03  0.90410636976E+02 0.  0.
         24    2    1    2    0    0 -0.10464154180E+03 -0.17242661839E+02  0.11095226543E+02  0.13444218674E+03  0.81880619592E+02 0.  0.
        -11    1    4    4    0    0 -0.93021397905E+02  0.12921725644E+02 -0.12050963805E+02  0.94684619609E+02  0.00000000000E+00 0.  1.
         12    1    4    4    0    0 -0.11620143898E+02 -0.30164387483E+02  0.23146190348E+02  0.39757567130E+02  0.00000000000E+00 0. -1.
        -11    1    3    3    0    0  0.13993099567E+01 -0.30741191606E+02  0.40778805267E+02  0.51087081427E+02  0.00000000000E+00 0.  1.
         11    1    3    3    0    0  0.74514616217E+02  0.47396395559E+02  0.10147066283E+03  0.13451818374E+03  0.00000000000E+00 0. -1.
         21    1    1    2  503  501  0.10335869668E+00  0.31926829069E+02 -0.86331382114E+02  0.92045861586E+02  0.00000000000E+00 0.  1.
          1    1    1    2  501    0  0.28624256933E+02 -0.31339371183E+02  0.36245801581E+02  0.55814535771E+02  0.00000000000E+00 0. -1.
<scales pt_clust_5="13000.00000" pt_clust_6="13000.00000" pt_clust_7="13000.00000" pt_clust_8="13000.00000" pt_clust_9="31.92700" pt_clust_10="40.03934"></scales>
<clustering>
<clus scale="   31.927">  2  9  1 -1</clus>
<clus scale="   40.039">  2 10  1 -1</clus>
<clus scale="   81.881">  5  6 -1 -1</clus>
<clus scale="   90.411">  7  8 -1 -1</clus>
<clus scale="  118.068">  2  5  1 -1</clus>
<clus scale="   31.927">  2  5  1 -1</clus>
</clustering>
</event>
<event>
10    4  0.3043429E-005  0.1940069E+03  0.7546771E-02  0.1155987E+00
         21   -1    0    0  503  502  0.00000000000E+00  0.00000000000E+00  0.12692344564E+03  0.12692344564E+03  0.00000000000E+00 0.  1.
          2   -1    0    0  502    0 -0.00000000000E+00 -0.00000000000E+00 -0.11398696651E+04  0.11398696651E+04  0.00000000000E+00 0. -1.
         24    2    1    2    0    0 -0.87412703142E+02 -0.14873273633E+03 -0.88802839649E+03  0.90836883102E+03  0.82323099312E+02 0.  0.
         23    2    1    2    0    0  0.13685181547E+03  0.94776641873E+02 -0.37147252009E+02  0.19428272697E+03  0.93031330346E+02 0.  0.
        -11    1    3    3    0    0 -0.68843839966E+02 -0.71477513643E+02 -0.32655839347E+03  0.34130469321E+03  0.00000000000E+00 0.  1.
         12    1    3    3    0    0 -0.18568863176E+02 -0.77255222691E+02 -0.56147000301E+03  0.56706413782E+03  0.00000000000E+00 0. -1.
        -11    1    4    4    0    0  0.61361313347E+02  0.55756477825E+01 -0.46294391045E+02  0.77067952264E+02  0.00000000000E+00 0. -1.
         11    1    4    4    0    0  0.75490502120E+02  0.89200994091E+02  0.91471390358E+01  0.11721477471E+03  0.00000000000E+00 0.  1.
         21    1    1    2  503  501 -0.19681405164E+02  0.78595527529E+01  0.28534841467E+02  0.35543880714E+02  0.00000000000E+00 0.  1.
          1    1    1    2  501    0 -0.29757707161E+02  0.46096541709E+02 -0.11630541247E+03  0.12859767207E+03  0.00000000000E+00 0. -1.
<scales pt_clust_5="13000.00000" pt_clust_6="13000.00000" pt_clust_7="13000.00000" pt_clust_8="13000.00000" pt_clust_9="21.19269" pt_clust_10="55.99205"></scales>
<clustering>
<clus scale="   21.193">  1  9  2 -1</clus>
<clus scale="   55.992">  1 10  2 -1</clus>
<clus scale="   82.323">  5  6 -1 -1</clus>
<clus scale="   93.031">  7  8 -1 -1</clus>
<clus scale="  189.106">  2  5  1 -1</clus>
<clus scale="   21.193">  1  5  2 -1</clus>
</clustering>
</event>
<event>
10    4  0.3043429E-005  0.1065244E+03  0.7546771E-02  0.1271217E+00
         21   -1    0    0  503  502  0.00000000000E+00  0.00000000000E+00  0.49373530649E+03  0.49373530649E+03  0.00000000000E+00 0. -1.
          2   -1    0    0  502    0 -0.00000000000E+00 -0.00000000000E+00 -0.13079782365E+03  0.13079782365E+03  0.00000000000E+00 0. -1.
         24    2    1    2    0    0  0.48588163016E+02  0.36673917384E+01 -0.33969322765E+02  0.10067371221E+03  0.81283590561E+02 0.  0.
         23    2    1    2    0    0 -0.91224040330E+02  0.82431900149E+01  0.14781277722E+03  0.19621729420E+03  0.90900130471E+02 0.  0.
        -13    1    3    3    0    0 -0.20724158491E+02 -0.10390532038E+02 -0.14405219954E+02  0.27294033471E+02  0.00000000000E+00 0.  1.
         14    1    3    3    0    0  0.69312321508E+02  0.14057923777E+02 -0.19564102811E+02  0.73379678744E+02  0.00000000000E+00 0. -1.
        -13    1    4    4    0    0  0.58886040704E+01  0.28678898115E+02  0.41453376028E+02  0.50749751124E+02  0.00000000000E+00 0.  1.
         13    1    4    4    0    0 -0.97112644400E+02 -0.20435708100E+02  0.10635940119E+03  0.14546754308E+03  0.00000000000E+00 0. -1.
         21    1    1    2  503  501 -0.12922563929E+02 -0.62870135369E+02  0.24375474237E+03  0.25206352574E+03  0.00000000000E+00 0. -1.
          1    1    1    2  501    0  0.55558441243E+02  0.50959553616E+02  0.53392860178E+01  0.75578597984E+02  0.00000000000E+00 0. -1.
<scales pt_clust_5="13000.00000" pt_clust_6="13000.00000" pt_clust_7="13000.00000" pt_clust_8="13000.00000" pt_clust_9="64.18447" pt_clust_10="67.11399"></scales>
<clustering>
<clus scale="   64.184">  1  9  2 -1</clus>
<clus scale="   67.114">  1 10  2 -1</clus>
<clus scale="   81.284">  5  6 -1 -1</clus>
<clus scale="   90.900">  7  8 -1 -1</clus>
<clus scale="   98.446">  2  5  1 -1</clus>
<clus scale="   64.184">  1  5  2 -1</clus>
</clustering>
</event>
<event>
10    4  0.3043429E-005  0.1017411E+03  0.7546771E-02  0.1280970E+00
         21   -1    0    0  501  502  0.00000000000E+00  0.00000000000E+00  0.17890370946E+03  0.17890370946E+03  0.00000000000E+00 0. -1.
          2   -1    0    0  503    0 -0.00000000000E+00 -0.00000000000E+00 -0.65638221455E+03  0.65638221455E+03  0.00000000000E+00 0. -1.
         23    2    1    2    0    0  0.11902703200E+02  0.35741825457E+02 -0.41444893252E+03  0.42571949343E+03  0.89721886912E+02 0.  0.
         24    2    1    2    0    0  0.48125963421E+02 -0.10059112295E+03 -0.17076326599E+03  0.21927531520E+03  0.80541222213E+02 0.  0.
        -11    1    4    4    0    0 -0.19696224319E+02 -0.19619532192E+02 -0.16535796564E+02  0.32346558764E+02  0.00000000000E+00 0.  1.
         12    1    4    4    0    0  0.67822187739E+02 -0.80971590763E+02 -0.15422746942E+03  0.18692875644E+03  0.00000000000E+00 0. -1.
        -11    1    3    3    0    0 -0.54737746704E+01 -0.26796662680E+02 -0.68947628440E+02  0.74174111436E+02  0.00000000000E+00 0.  1.
         11    1    3    3    0    0  0.17376477871E+02  0.62538488137E+02 -0.34550130408E+03  0.35154538200E+03  0.00000000000E+00 0. -1.
         21    1    1    2  503  502  0.79030536443E+01 -0.21152340713E+02  0.71313936111E+02  0.74803457528E+02  0.00000000000E+00 0. -1.
          1    1    1    2  501    0 -0.67931720265E+02  0.86001638211E+02  0.36419757307E+02  0.11548765785E+03  0.00000000000E+00 0. -1.
<scales pt_clust_5="13000.00000" pt_clust_6="13000.00000" pt_clust_7="13000.00000" pt_clust_8="13000.00000" pt_clust_9="22.58052" pt_clust_10="94.29873"></scales>
<clustering>
<clus scale="   22.581">  1  9  2 -1</clus>
<clus scale="   80.541">  5  6 -1 -1</clus>
<clus scale="   89.722">  7  8 -1 -1</clus>
<clus scale="   94.299">  1 10  2 -1</clus>
<clus scale="   93.745">  1  5  2 -1</clus>
<clus scale="   22.581">  1  5  2 -1</clus>
</clustering>
</event>
<event>
10    4  0.3043429E-005  0.1065915E+03  0.7546771E-02  0.1271335E+00
         21   -1    0    0  503  502  0.00000000000E+00  0.00000000000E+00  0.41503363946E+03  0.41503363946E+03  0.00000000000E+00 0. -1.
         -1   -1    0    0    0  501 -0.00000000000E+00 -0.00000000000E+00 -0.23561979262E+03  0.23561979262E+03  0.00000000000E+00 0.  1.
         23    2    1    2    0    0  0.67273123677E+01  0.51209758565E+02 -0.18419785286E+03  0.21198220070E+03  0.91323098458E+02 0.  0.
         24    2    1    2    0    0 -0.12441352402E+02 -0.11911316793E+03  0.25150946081E+03  0.29015387657E+03  0.81175915068E+02 0.  0.
        -13    1    4    4    0    0  0.24524302631E+01 -0.35583404510E+02  0.16564032697E+03  0.16943704143E+03  0.00000000000E+00 0.  1.
         14    1    4    4    0    0 -0.14893782665E+02 -0.83529763417E+02  0.85869133840E+02  0.12071683513E+03  0.00000000000E+00 0. -1.
        -11    1    3    3    0    0  0.55159576534E+01  0.77305557239E+02 -0.15109833467E+03  0.16981543425E+03  0.00000000000E+00 0.  1.
         11    1    3    3    0    0  0.12113547144E+01 -0.26095798674E+02 -0.33099518191E+02  0.42166766454E+02  0.00000000000E+00 0. -1.
         21    1    1    2  503  501  0.19430426684E+02 -0.64812033296E+01  0.14782035247E+02  0.25259771254E+02  0.00000000000E+00 0.  1.
         -2    1    1    2    0  502 -0.13716386650E+02  0.74384612692E+02  0.97320203646E+02  0.12325758356E+03  0.00000000000E+00 0.  1.
<scales pt_clust_5="13000.00000" pt_clust_6="13000.00000" pt_clust_7="13000.00000" pt_clust_8="13000.00000" pt_clust_9="20.48286" pt_clust_10="73.04713"></scales>
<clustering>
<clus scale="   20.483">  1  9  2 -1</clus>
<clus scale="   73.047">  1 10  2 -1</clus>
<clus scale="   81.176">  5  6 -1 -1</clus>
<clus scale="   91.323">  7  8 -1 -1</clus>
<clus scale="   98.038">  1  5  2 -1</clus>
<clus scale="   20.483">  1  5  2 -1</clus>
</clustering>
</event>
<event>
10    4  0.3043429E-005  0.1009584E+03  0.7546771E-02  0.1282256E+00
         21   -1    0    0  501  502  0.00000000000E+00  0.00000000000E+00  0.15271154500E+03  0.15271154500E+03  0.00000000000E+00 0. -1.
         -3   -1    0    0    0  501 -0.00000000000E+00 -0.00000000000E+00 -0.18114856776E+03  0.18114856776E+03  0.00000000000E+00 0.  1.
         23    2    1    2    0    0  0.12213641051E+02 -0.64929065583E+02 -0.29470366795E+01  0.11067677780E+03  0.88745183153E+02 0.  0.
         24    2    1    2    0    0 -0.55257966160E+01  0.25699706073E+02  0.38443260884E+02  0.92833661548E+02  0.80306880705E+02 0.  0.
        -13    1    4    4    0    0 -0.25477755717E+02 -0.21408934828E+02  0.13424744268E+02  0.35884290233E+02  0.00000000000E+00 0.  1.
         14    1    4    4    0    0  0.19951959101E+02  0.47108640901E+02  0.25018516616E+02  0.56949371315E+02  0.00000000000E+00 0. -1.
        -13    1    3    3    0    0  0.38482257894E+01 -0.86686999120E+02  0.22180788344E+01  0.86800717347E+02  0.00000000000E+00 0.  1.
         13    1    3    3    0    0  0.83654152619E+01  0.21757933537E+02 -0.51651155140E+01  0.23876060449E+02  0.00000000000E+00 0. -1.
         21    1    1    2  503  502 -0.18904402255E+02 -0.69762257306E+01  0.23347201627E+02  0.30840492439E+02  0.00000000000E+00 0. -1.
         -4    1    1    2    0  503  0.12216557820E+02  0.46205585241E+02 -0.87280448587E+02  0.99509180974E+02  0.00000000000E+00 0.  1.
<scales pt_clust_5="13000.00000" pt_clust_6="13000.00000" pt_clust_7="13000.00000" pt_clust_8="13000.00000" pt_clust_9="20.15054" pt_clust_10="47.23667"></scales>
<clustering>
<clus scale="   20.151">  1  9  2 -1</clus>
<clus scale="   47.237">  1 10  2 -1</clus>
<clus scale="   80.307">  5  6 -1 -1</clus>
<clus scale="   88.745">  7  8 -1 -1</clus>
<clus scale="   93.627">  1  5  2 -1</clus>
<clus scale="   20.151">  1  5  2 -1</clus>
</clustering>
</event>
<event>
10    4  0.3043429E-005  0.9362165E+02  0.7546771E-02  0.1301989E+00
          2   -1    0    0  503    0 -0.00000000000E+00  0.00000000000E+00  0.30063246164E+03  0.30063246164E+03  0.00000000000E+00 0. -1.
         21   -1    0    0  501  502  0.00000000000E+00 -0.00000000000E+00 -0.73901139692E+02  0.73901139692E+02  0.00000000000E+00 0. -1.
         23    2    1    2    0    0 -0.12096716927E+02 -0.74515880879E+01  0.12070093855E+03  0.15299298058E+03  0.92931581363E+02 0.  0.
         24    2    1    2    0    0 -0.28328848459E+02 -0.33451289128E+02  0.75849486920E+02  0.11893005988E+03  0.80434458269E+02 0.  0.
        -13    1    4    4    0    0  0.10343563960E+02 -0.46641179344E+02  0.55669453580E+02  0.73358550885E+02  0.00000000000E+00 0.  1.
         14    1    4    4    0    0 -0.38672412419E+02  0.13189890216E+02  0.20180033340E+02  0.45571508992E+02  0.00000000000E+00 0. -1.
        -13    1    3    3    0    0  0.81231565183E+01 -0.38696194442E+02  0.17411875826E+02  0.43203640539E+02  0.00000000000E+00 0. -1.
         13    1    3    3    0    0 -0.20219873446E+02  0.31244606354E+02  0.10328906272E+03  0.10978934004E+03  0.00000000000E+00 0.  1.
         21    1    1    2  503  502 -0.12096575588E+02 -0.16251724573E+02  0.88689758309E+01  0.22115705389E+02  0.00000000000E+00 0. -1.
          1    1    1    2  501    0  0.52522140974E+02  0.57154601789E+02  0.21311920650E+02  0.80494855487E+02  0.00000000000E+00 0. -1.
<scales pt_clust_5="13000.00000" pt_clust_6="13000.00000" pt_clust_7="13000.00000" pt_clust_8="13000.00000" pt_clust_9="20.25946" pt_clust_10="68.76506"></scales>
<clustering>
<clus scale="   20.259">  2  9  1 -1</clus>
<clus scale="   68.765">  2 10  1 -1</clus>
<clus scale="   80.434">  5  6 -1 -1</clus>
<clus scale="   81.231">  2  5  1 -1</clus>
<clus scale="   92.932">  7  8 -1 -1</clus>
<clus scale="   20.259">  2  5  1 -1</clus>
</clustering>
</event>
<event>
10    4  0.3043429E-005  0.1098702E+03  0.7546771E-02  0.1264793E+00
          4   -1    0    0  502    0 -0.00000000000E+00  0.00000000000E+00  0.32939270291E+02  0.32939270291E+02  0.00000000000E+00 0. -1.
         21   -1    0    0  503  502  0.00000000000E+00 -0.00000000000E+00 -0.13111003253E+04  0.13111003253E+04  0.00000000000E+00 0. -1.
         23    2    1    2    0    0 -0.55533817431E+02 -0.19019069456E+02 -0.18640167235E+03  0.21571685900E+03  0.91337012859E+02 0.  0.
         24    2    1    2    0    0  0.38394299401E+02  0.86255021522E+02 -0.88737203922E+03  0.89607121598E+03  0.81243074529E+02 0.  0.
        -13    1    4    4    0    0  0.44517702516E+02  0.24574111362E+02 -0.21876010797E+03  0.22459229200E+03  0.00000000000E+00 0.  1.
         14    1    4    4    0    0 -0.61234031147E+01  0.61680910160E+02 -0.66861193124E+03  0.67147892398E+03  0.00000000000E+00 0. -1.
        -13    1    3    3    0    0  0.24790379554E+01  0.21190060035E+02 -0.62507746367E+01  0.22231429487E+02  0.00000000000E+00 0.  1.
         13    1    3    3    0    0 -0.58012855386E+02 -0.40209129491E+02 -0.18015089772E+03  0.19348542951E+03  0.00000000000E+00 0. -1.
         21    1    1    2  503  501  0.20556248499E+02 -0.29346098034E+02 -0.18703762634E+03  0.19043851104E+03  0.00000000000E+00 0. -1.
          3    1    1    2  501    0 -0.34167304701E+01 -0.37889854032E+02 -0.17349717097E+02  0.41813009567E+02  0.00000000000E+00 0. -1.
<scales pt_clust_5="13000.00000" pt_clust_6="13000.00000" pt_clust_7="13000.00000" pt_clust_8="13000.00000" pt_clust_9="35.82950" pt_clust_10="38.77007"></scales>
<clustering>
<clus scale="   35.829">  2  9  1 -1</clus>
<clus scale="   38.770">  2 10  1 -1</clus>
<clus scale="   81.243">  5  6 -1 -1</clus>
<clus scale="   91.337">  7  8 -1 -1</clus>
<clus scale="  101.634">  2  5  1 -1</clus>
<clus scale="   35.829">  2  5  1 -1</clus>
</clustering>
</event>
<event>
10    4  0.3043429E-005  0.1707407E+03  0.7546771E-02  0.1189489E+00
         21   -1    0    0  501  502  0.00000000000E+00  0.00000000000E+00  0.95647249448E+03  0.95647249448E+03  0.00000000000E+00 0. -1.
          4   -1    0    0  503    0 -0.00000000000E+00 -0.00000000000E+00 -0.70582988636E+03  0.70582988636E+03  0.00000000000E+00 0. -1.
         23    2    1    2    0    0  0.60754450851E+02  0.67033492515E+02 -0.37764824314E+03  0.39931934436E+03  0.93022313517E+02 0.  0.
         24    2    1    2    0    0 -0.91505637728E+01  0.10857854868E+03 -0.18696616917E+03  0.22906842596E+03  0.75119646601E+02 0.  0.
        -11    1    4    4    0    0  0.10694191164E+02  0.65084379472E+02 -0.16247571037E+03  0.17535306851E+03  0.00000000000E+00 0.  1.
         12    1    4    4    0    0 -0.19844754937E+02  0.43494169205E+02 -0.24490458804E+02  0.53715357448E+02  0.00000000000E+00 0. -1.
        -11    1    3    3    0    0  0.46287043300E+02  0.51178754008E+02 -0.37023641664E+03  0.37661221361E+03  0.00000000000E+00 0. -1.
         11    1    3    3    0    0  0.14467407551E+02  0.15854738508E+02 -0.74118265050E+01  0.22707130742E+02  0.00000000000E+00 0.  1.
         21    1    1    2  503  502 -0.62447622570E+02 -0.10093794916E+03  0.90722290140E+03  0.91495440759E+03  0.00000000000E+00 0. -1.
          3    1    1    2  501    0  0.10843735491E+02 -0.74674092028E+02 -0.91965880973E+02  0.11896020294E+03  0.00000000000E+00 0. -1.
<scales pt_clust_5="13000.00000" pt_clust_6="13000.00000" pt_clust_7="13000.00000" pt_clust_8="13000.00000" pt_clust_9="153.32785" pt_clust_10="75.45735"></scales>
<clustering>
<clus scale="   75.120">  5  6 -1 -1</clus>
<clus scale="   75.457">  1 10  2 -1</clus>
<clus scale="   93.022">  7  8 -1 -1</clus>
<clus scale="  129.378">  2  7  1 -1</clus>
<clus scale="  153.328">  1  9  2 -1</clus>
<clus scale="   75.457">  1  5  2 -1</clus>
</clustering>
</event>
<event>
10    4  0.3043429E-005  0.4697303E+03  0.7546771E-02  0.1048200E+00
         21   -1    0    0  501  502  0.00000000000E+00  0.00000000000E+00  0.24291165016E+03  0.24291165016E+03  0.00000000000E+00 0. -1.
          2   -1    0    0  503    0 -0.00000000000E+00 -0.00000000000E+00 -0.28358300204E+04  0.28358300204E+04  0.00000000000E+00 0. -1.
         24    2    1    2    0    0  0.16879844955E+03  0.10093314694E+03 -0.48775683486E+03  0.53199311244E+03  0.80184318966E+02 0.  0.
         23    2    1    2    0    0 -0.46224632151E+03  0.19899564960E+03 -0.33429551705E+03  0.61065009951E+03  0.88708066167E+02 0.  0.
        -13    1    3    3    0    0  0.34337570987E+02  0.89245429835E+01 -0.18310791463E+03  0.18651333638E+03  0.00000000000E+00 0.  1.
         14    1    3    3    0    0  0.13446087856E+03  0.92008603955E+02 -0.30464892023E+03  0.34547977606E+03  0.00000000000E+00 0. -1.
        -11    1    4    4    0    0 -0.37882639500E+03  0.16154650144E+03 -0.22910063535E+03  0.47126830023E+03  0.00000000000E+00 0. -1.
         11    1    4    4    0    0 -0.83419926504E+02  0.37449148155E+02 -0.10519488170E+03  0.13938179928E+03  0.00000000000E+00 0.  1.
         21    1    1    2  503  502  0.41330391152E+02  0.19786088904E+02  0.51422778092E+02  0.68876648101E+02  0.00000000000E+00 0. -1.
          1    1    1    2  501    0  0.25211748080E+03 -0.31971488544E+03 -0.18222887964E+04  0.18672218105E+04  0.00000000000E+00 0. -1.
<scales pt_clust_5="13000.00000" pt_clust_6="13000.00000" pt_clust_7="13000.00000" pt_clust_8="13000.00000" pt_clust_9="45.82238" pt_clust_10="461.27826"></scales>
<clustering>
<clus scale="   45.822">  1  9  2 -1</clus>
<clus scale="   80.184">  5  6 -1 -1</clus>
<clus scale="   88.708">  7  8 -1 -1</clus>
<clus scale="  217.515">  2  5  1 -1</clus>
<clus scale="  461.278">  1 10  2 -1</clus>
<clus scale="   45.822">  1  5  2 -1</clus>
</clustering>
</event>
<event>
10    4  0.3043429E-005  0.9339440E+02  0.7546771E-02  0.1303083E+00
          2   -1    0    0  502    0 -0.00000000000E+00  0.00000000000E+00  0.40823271954E+03  0.40823271954E+03  0.00000000000E+00 0. -1.
         21   -1    0    0  503  502  0.00000000000E+00 -0.00000000000E+00 -0.11789793846E+03  0.11789793846E+03  0.00000000000E+00 0.  1.
         23    2    1    2    0    0 -0.92790802813E+01  0.11804844868E+02  0.32053149823E+03  0.33390070257E+03  0.92324331162E+02 0.  0.
         24    2    1    2    0    0  0.37497258359E+02  0.40970785652E+02  0.25845655269E+02  0.99928532219E+02  0.78949756136E+02 0.  0.
        -11    1    4    4    0    0 -0.19589605681E+02  0.21447593898E+02 -0.88057131631E+01  0.30352800844E+02  0.00000000000E+00 0.  1.
         12    1    4    4    0    0  0.57086864041E+02  0.19523191754E+02  0.34651368432E+02  0.69575731376E+02  0.00000000000E+00 0. -1.
        -11    1    3    3    0    0  0.59354174656E+01  0.50941635526E+02  0.16374775275E+03  0.17159139239E+03  0.00000000000E+00 0.  1.
         11    1    3    3    0    0 -0.15214497747E+02 -0.39136790658E+02  0.15678374548E+03  0.16230931018E+03  0.00000000000E+00 0. -1.
         21    1    1    2  503  501  0.69788796961E+01 -0.19784419838E+02 -0.32346965128E+02  0.38554561120E+02  0.00000000000E+00 0. -1.
          1    1    1    2  501    0 -0.35197057774E+02 -0.32991210682E+02 -0.23695407294E+02  0.53746862095E+02  0.00000000000E+00 0. -1.
<scales pt_clust_5="13000.00000" pt_clust_6="13000.00000" pt_clust_7="13000.00000" pt_clust_8="13000.00000" pt_clust_9="20.97923" pt_clust_10="52.97826"></scales>
<clustering>
<clus scale="   20.979">  2  9  1 -1</clus>
<clus scale="   52.978">  2 10  1 -1</clus>
<clus scale="   78.950">  5  6 -1 -1</clus>
<clus scale="   80.198">  2  5  1 -1</clus>
<clus scale="   92.324">  7  8 -1 -1</clus>
<clus scale="   20.979">  2  5  1 -1</clus>
</clustering>
</event>
<event>
10    4  0.3043429E-005  0.1131558E+03  0.7546771E-02  0.1262713E+00
         21   -1    0    0  501  502  0.00000000000E+00  0.00000000000E+00  0.76042335300E+02  0.76042335300E+02  0.00000000000E+00 0.  1.
          2   -1    0    0  503    0 -0.00000000000E+00 -0.00000000000E+00 -0.58403585871E+03  0.58403585871E+03  0.00000000000E+00 0. -1.
         23    2    1    2    0    0  0.82356921191E+02  0.34505104492E+02 -0.31527808881E+03  0.34080949629E+03  0.93688712101E+02 0.  0.
         24    2    1    2    0    0  0.19772133797E+02 -0.70643066930E+02 -0.13457533914E+03  0.16986366675E+03  0.73224061600E+02 0.  0.
        -13    1    4    4    0    0  0.36297901255E+02 -0.76880347583E+02 -0.11940341580E+03  0.14657865187E+03  0.00000000000E+00 0.  1.
         14    1    4    4    0    0 -0.16525767459E+02  0.62372806534E+01 -0.15171923340E+02  0.23285014878E+02  0.00000000000E+00 0. -1.
        -13    1    3    3    0    0  0.27466588938E+02  0.46762695974E+02 -0.66786253118E+02  0.86032359308E+02  0.00000000000E+00 0. -1.
         13    1    3    3    0    0  0.54890332252E+02 -0.12257591482E+02 -0.24849183570E+03  0.25477713699E+03  0.00000000000E+00 0.  1.
         21    1    1    2  503  502 -0.19160538886E+02  0.69819178977E+01  0.22302815313E+02  0.30220671714E+02  0.00000000000E+00 0.  1.
          1    1    1    2  501    0 -0.82968516101E+02  0.29156044540E+02 -0.80442910776E+02  0.11918435926E+03  0.00000000000E+00 0. -1.
<scales pt_clust_5="13000.00000" pt_clust_6="13000.00000" pt_clust_7="13000.00000" pt_clust_8="13000.00000" pt_clust_9="20.39297" pt_clust_10="95.87718"></scales>
<clustering>
<clus scale="   20.393">  1  9  2 -1</clus>
<clus scale="   73.224">  5  6 -1 -1</clus>
<clus scale="   93.689">  7  8 -1 -1</clus>
<clus scale="   95.877">  1 10  2 -1</clus>
<clus scale="   96.894">  1  5  2 -1</clus>
<clus scale="   20.393">  1  5  2 -1</clus>
</clustering>
</event>
<event>
10    4  0.3043429E-005  0.1073626E+03  0.7546771E-02  0.1270591E+00
          2   -1    0    0  503    0 -0.00000000000E+00  0.00000000000E+00  0.38173341236E+03  0.38173341236E+03  0.00000000000E+00 0. -1.
         21   -1    0    0  501  502  0.00000000000E+00 -0.00000000000E+00 -0.23528713364E+03  0.23528713364E+03  0.00000000000E+00 0. -1.
         24    2    1    2    0    0 -0.43727412689E+02 -0.31636735734E+02  0.27645689023E+03  0.29312543538E+03  0.81124219841E+02 0.  0.
         23    2    1    2    0    0  0.76668497409E+02 -0.23202960920E+02 -0.68128192596E+02  0.14033115457E+03  0.92924412427E+02 0.  0.
        -11    1    3    3    0    0 -0.29546062557E+02 -0.52555007885E+02  0.11641955987E+03  0.13110496782E+03  0.00000000000E+00 0.  1.
         12    1    3    3    0    0 -0.14181350132E+02  0.20918272151E+02  0.16003733035E+03  0.16202046756E+03  0.00000000000E+00 0. -1.
        -11    1    4    4    0    0 -0.11833419241E+02 -0.19727124158E+02  0.71527689638E+01  0.24090482401E+02  0.00000000000E+00 0.  1.
         11    1    4    4    0    0  0.88501916650E+02 -0.34758367623E+01 -0.75280961560E+02  0.11624067216E+03  0.00000000000E+00 0. -1.
         21    1    1    2  503  502 -0.31645216653E+02  0.19107580836E+02 -0.11429073444E+03  0.12012032035E+03  0.00000000000E+00 0. -1.
          1    1    1    2  501    0 -0.12958680676E+01  0.35732115818E+02  0.52408315534E+02  0.63443635709E+02  0.00000000000E+00 0. -1.
<scales pt_clust_5="13000.00000" pt_clust_6="13000.00000" pt_clust_7="13000.00000" pt_clust_8="13000.00000" pt_clust_9="49.37167" pt_clust_10="35.75562"></scales>
<clustering>
<clus scale="   35.756">  2 10  1 -1</clus>
<clus scale="   49.372">  2  9  1 -1</clus>
<clus scale="   81.124">  5  6 -1 -1</clus>
<clus scale="   92.924">  7  8 -1 -1</clus>
<clus scale="   97.329">  1  5  2 -1</clus>
<clus scale="   35.756">  2  5  1 -1</clus>
</clustering>
</event>
<event>
10    4  0.5055264E-005  0.3364109E+03  0.7546771E-02  0.1097648E+00
         21   -1    0    0  503  502  0.00000000000E+00  0.00000000000E+00  0.10674078161E+03  0.10674078161E+03  0.00000000000E+00 0. -1.
          2   -1    0    0  502    0 -0.00000000000E+00 -0.00000000000E+00 -0.17389550524E+04  0.17389550524E+04  0.00000000000E+00 0. -1.
         24    2    1    2    0    0  0.20136460791E+02  0.12848872371E+03 -0.34271887236E+03  0.37521916232E+03  0.80114699836E+02 0.  0.
         23    2    1    2    0    0  0.32297471527E+03 -0.74168524293E+02 -0.71888861829E+03  0.79678556787E+03  0.90844696906E+02 0.  0.
        -13    1    3    3    0    0 -0.20765007789E+02  0.39032616342E+02 -0.51700432164E+02  0.68026945933E+02  0.00000000000E+00 0.  1.
         14    1    3    3    0    0  0.40901468580E+02  0.89456107368E+02 -0.29101844020E+03  0.30719221639E+03  0.00000000000E+00 0. -1.
        -13    1    4    4    0    0  0.40835122875E+02  0.19764547706E+02 -0.77179460153E+02  0.89525491765E+02  0.00000000000E+00 0.  1.
         13    1    4    4    0    0  0.28213959240E+03 -0.93933072000E+02 -0.64170915813E+03  0.70726007610E+03  0.00000000000E+00 0. -1.
         21    1    1    2  503  501 -0.20484775959E+02  0.76082267062E+01 -0.10252712260E+02  0.24137714647E+02  0.00000000000E+00 0. -1.
          1    1    1    2  501    0 -0.32262640010E+03 -0.61928426123E+02 -0.56035406789E+03  0.64955338919E+03  0.00000000000E+00 0. -1.
<scales pt_clust_5="13000.00000" pt_clust_6="13000.00000" pt_clust_7="13000.00000" pt_clust_8="13000.00000" pt_clust_9="21.85203" pt_clust_10="323.91284"></scales>
<clustering>
<clus scale="   21.852">  1  9  2 -1</clus>
<clus scale="   80.115">  5  6 -1 -1</clus>
<clus scale="   90.845">  7  8 -1 -1</clus>
<clus scale="  153.395">  2  5  1 -1</clus>
<clus scale="  323.913">  1 10  2 -1</clus>
<clus scale="   21.852">  1  5  2 -1</clus>
</clustering>
</event>
<event>
10    4  0.3043429E-005  0.1570017E+03  0.7546771E-02  0.1199966E+00
         21   -1    0    0  503  502  0.00000000000E+00  0.00000000000E+00  0.68833177139E+03  0.68833177139E+03  0.00000000000E+00 0. -1.
         -3   -1    0    0    0  501 -0.00000000000E+00 -0.00000000000E+00 -0.11580970120E+03  0.11580970120E+03  0.00000000000E+00 0.  1.
         24    2    1    2    0    0 -0.34253673342E+02  0.11618237160E+03  0.14843266309E+03  0.20696240800E+03  0.78291284601E+02 0.  0.
         23    2    1    2    0    0  0.13255094169E+03  0.45866179534E+02  0.92309211522E+02  0.19269276885E+03  0.94530704361E+02 0.  0.
        -11    1    3    3    0    0 -0.18304443364E+01  0.40903182762E+02  0.43200780939E+01  0.41171397368E+02  0.00000000000E+00 0.  1.
         12    1    3    3    0    0 -0.32423229006E+02  0.75279188839E+02  0.14411258500E+03  0.16579101063E+03  0.00000000000E+00 0. -1.
        -11    1    4    4    0    0  0.10111976237E+03 -0.69402057795E+01  0.82015905228E+02  0.13038397720E+03  0.00000000000E+00 0. -1.
         11    1    4    4    0    0  0.31431179320E+02  0.52806385313E+02  0.10293306294E+02  0.62308791657E+02  0.00000000000E+00 0.  1.
         21    1    1    2  503  501 -0.32692277009E+02 -0.51871402958E+02  0.23760576383E+03  0.24538933641E+03  0.00000000000E+00 0. -1.
         -4    1    1    2    0  502 -0.65604991343E+02 -0.11017714818E+03  0.94174431750E+02  0.15909695932E+03  0.00000000000E+00 0.  1.
<scales pt_clust_5="13000.00000" pt_clust_6="13000.00000" pt_clust_7="13000.00000" pt_clust_8="13000.00000" pt_clust_9="61.31417" pt_clust_10="125.35342"></scales>
<clustering>
<clus scale="   61.314">  1  9  2 -1</clus>
<clus scale="   78.291">  5  6 -1 -1</clus>
<clus scale="   94.531">  7  8 -1 -1</clus>
<clus scale="  132.262">  2  5  1 -1</clus>
<clus scale="  125.353">  1 10  2 -1</clus>
<clus scale="   61.314">  1  5  2 -1</clus>
</clustering>
</event>
<event>
10    4  0.3043429E-005  0.9528829E+02  0.7546771E-02  0.1301386E+00
         21   -1    0    0  501  502  0.00000000000E+00  0.00000000000E+00  0.23320473786E+03  0.23320473786E+03  0.00000000000E+00 0.  1.
          2   -1    0    0  503    0 -0.00000000000E+00 -0.00000000000E+00 -0.43625357382E+03  0.43625357382E+03  0.00000000000E+00 0. -1.
         23    2    1    2    0    0  0.49455521687E+01 -0.90353439775E+01 -0.23722144765E+03  0.25454401508E+03  0.91719924005E+02 0.  0.
         24    2    1    2    0    0 -0.10108429223E+03  0.11180063997E+02 -0.77656549783E+02  0.14756309675E+03  0.73493535975E+02 0.  0.
        -13    1    4    4    0    0 -0.13833414753E+02  0.26145673681E+02 -0.43655537566E+02  0.52732964795E+02  0.00000000000E+00 0.  1.
         14    1    4    4    0    0 -0.87250877478E+02 -0.14965609684E+02 -0.34001012217E+02  0.94830131950E+02  0.00000000000E+00 0. -1.
        -13    1    3    3    0    0 -0.26273337972E+02  0.17529135036E+02 -0.18732458771E+03  0.18996857641E+03  0.00000000000E+00 0. -1.
         13    1    3    3    0    0  0.31218890141E+02 -0.26564479013E+02 -0.49896859937E+02  0.64575438662E+02  0.00000000000E+00 0.  1.
         21    1    1    2  503  502  0.38790372223E+02  0.24014421415E+02  0.17336144389E+03  0.17926398311E+03  0.00000000000E+00 0.  1.
          1    1    1    2  501    0  0.57348367839E+02 -0.26159141434E+02 -0.61532282416E+02  0.88087216744E+02  0.00000000000E+00 0. -1.
<scales pt_clust_5="13000.00000" pt_clust_6="13000.00000" pt_clust_7="13000.00000" pt_clust_8="13000.00000" pt_clust_9="45.62220" pt_clust_10="69.50987"></scales>
<clustering>
<clus scale="   45.622">  1  9  2 -1</clus>
<clus scale="   69.510">  1 10  2 -1</clus>
<clus scale="   73.494">  5  6 -1 -1</clus>
<clus scale="   77.901">  1  5  2 -1</clus>
<clus scale="   91.720">  7  8 -1 -1</clus>
<clus scale="   45.622">  1  5  2 -1</clus>
</clustering>
</event>
<event>
10    4  0.3043429E-005  0.9338329E+02  0.7546771E-02  0.1302792E+00
          4   -1    0    0  503    0 -0.00000000000E+00  0.00000000000E+00  0.38621801265E+03  0.38621801265E+03  0.00000000000E+00 0. -1.
         21   -1    0    0  501  502  0.00000000000E+00 -0.00000000000E+00 -0.83581215712E+02  0.83581215712E+02  0.00000000000E+00 0. -1.
         24    2    1    2    0    0  0.35533556379E+01  0.11465074010E+02  0.17944425832E+03  0.19607718466E+03  0.78114955306E+02 0.  0.
         23    2    1    2    0    0 -0.50327658144E+02 -0.52815787301E+02  0.21542542786E+02  0.11875788599E+03  0.91197443897E+02 0.  0.
        -13    1    3    3    0    0 -0.34090318569E+02  0.20992205420E+02  0.84737829767E+02  0.93719380611E+02  0.00000000000E+00 0.  1.
         14    1    3    3    0    0  0.37643674207E+02 -0.95271314103E+01  0.94706428553E+02  0.10235780405E+03  0.00000000000E+00 0. -1.
        -13    1    4    4    0    0 -0.34208710836E+02  0.28270697268E+01 -0.26606847692E+02  0.43429857983E+02  0.00000000000E+00 0. -1.
         13    1    4    4    0    0 -0.16118947308E+02 -0.55642857028E+02  0.48149390478E+02  0.75328028010E+02  0.00000000000E+00 0.  1.
         21    1    1    2  503  502 -0.30140008582E+02  0.17468919464E+01  0.30969343578E+02  0.43250109716E+02  0.00000000000E+00 0. -1.
          3    1    1    2  501    0  0.76914311088E+02  0.39603821345E+02  0.70680652250E+02  0.11171404799E+03  0.00000000000E+00 0. -1.
<scales pt_clust_5="13000.00000" pt_clust_6="13000.00000" pt_clust_7="13000.00000" pt_clust_8="13000.00000" pt_clust_9="30.19059" pt_clust_10="79.82144"></scales>
<clustering>
<clus scale="   30.191">  1  9  2 -1</clus>
<clus scale="   78.115">  5  6 -1 -1</clus>
<clus scale="   79.821">  2 10  1 -1</clus>
<clus scale="   80.656">  1  5  2 -1</clus>
<clus scale="   91.197">  7  8 -1 -1</clus>
<clus scale="   79.821">  2  5  1 -1</clus>
</clustering>
</event>
<event>
10    4  0.3043429E-005  0.1172228E+03  0.7546771E-02  0.1251386E+00
         -1   -1    0    0    0  501 -0.00000000000E+00  0.00000000000E+00  0.33793571952E+03  0.33793571952E+03  0.00000000000E+00 0.  1.
         21   -1    0    0  503  502  0.00000000000E+00 -0.00000000000E+00 -0.89731157882E+02  0.89731157882E+02  0.00000000000E+00 0.  1.
         24    2    1    2    0    0  0.67182540523E+02 -0.57779352951E+02  0.15786632424E+03  0.19796461589E+03  0.80101594458E+02 0.  0.
         23    2    1    2    0    0 -0.68195827837E+02 -0.10595626707E+02  0.82479050482E+02  0.14085985300E+03  0.90971238204E+02 0.  0.
        -13    1    3    3    0    0  0.65437347865E+02 -0.59013955295E+02  0.16687201776E+03  0.18870867422E+03  0.00000000000E+00 0.  1.
         14    1    3    3    0    0  0.17451926579E+01  0.12346023434E+01 -0.90056935180E+01  0.92559416647E+01  0.00000000000E+00 0. -1.
        -11    1    4    4    0    0 -0.38517939038E+02 -0.43064828517E+02  0.77388454698E+02  0.96577347259E+02  0.00000000000E+00 0.  1.
         11    1    4    4    0    0 -0.29677888799E+02  0.32469201810E+02  0.50905957841E+01  0.44282505746E+02  0.00000000000E+00 0. -1.
         21    1    1    2  503  501  0.28716150447E+01  0.23590721825E+02 -0.24058426523E+02  0.33816803751E+02  0.00000000000E+00 0.  1.
         -2    1    1    2    0  502 -0.18583277311E+01  0.44784257833E+02  0.31917613434E+02  0.55025604757E+02  0.00000000000E+00 0.  1.
<scales pt_clust_5="13000.00000" pt_clust_6="13000.00000" pt_clust_7="13000.00000" pt_clust_8="13000.00000" pt_clust_9="23.76485" pt_clust_10="49.28523"></scales>
<clustering>
<clus scale="   23.765">  2  9  1 -1</clus>
<clus scale="   49.285">  2 10  1 -1</clus>
<clus scale="   80.102">  5  6 -1 -1</clus>
<clus scale="   90.971">  7  8 -1 -1</clus>
<clus scale="  109.003">  1  5  2 -1</clus>
<clus scale="   23.765">  2  5  1 -1</clus>
</clustering>
</event>
<event>
10    4  0.3043429E-005  0.1314490E+03  0.7546771E-02  0.1229571E+00
         21   -1    0    0  501  502  0.00000000000E+00  0.00000000000E+00  0.26288370154E+03  0.26288370154E+03  0.00000000000E+00 0.  1.
          2   -1    0    0  503    0 -0.00000000000E+00 -0.00000000000E+00 -0.47189214906E+03  0.47189214906E+03  0.00000000000E+00 0. -1.
         24    2    1    2    0    0  0.21609128904E+02 -0.87734879784E+02 -0.40890927077E+03  0.42661471951E+03  0.81418447483E+02 0.  0.
         23    2    1    2    0    0 -0.28925909319E+02  0.61565323072E+02  0.81907809026E+02  0.14407336325E+03  0.97063111343E+02 0.  0.
        -13    1    3    3    0    0 -0.21411855226E+02 -0.72731501419E+02 -0.24202609114E+03  0.25362367326E+03  0.00000000000E+00 0.  1.
         14    1    3    3    0    0  0.43020984130E+02 -0.15003378364E+02 -0.16688317963E+03  0.17299104625E+03  0.00000000000E+00 0. -1.
        -11    1    4    4    0    0 -0.91316064727E+01  0.32349684531E+02  0.99224775484E+02  0.10476375516E+03  0.00000000000E+00 0.  1.
         11    1    4    4    0    0 -0.19794302846E+02  0.29215638541E+02 -0.17316966458E+02  0.39309608085E+02  0.00000000000E+00 0. -1.
         21    1    1    2  503  502  0.27761630312E+02  0.21699579397E+02  0.13348020080E+03  0.13805268512E+03  0.00000000000E+00 0.  1.
          1    1    1    2  501    0 -0.20444849897E+02  0.44699773141E+01 -0.15487186568E+02  0.26035082721E+02  0.00000000000E+00 0. -1.
<scales pt_clust_5="13000.00000" pt_clust_6="13000.00000" pt_clust_7="13000.00000" pt_clust_8="13000.00000" pt_clust_9="29.44841" pt_clust_10="20.92781"></scales>
<clustering>
<clus scale="   20.928">  1 10  2 -1</clus>
<clus scale="   29.448">  1  9  2 -1</clus>
<clus scale="   81.418">  5  6 -1 -1</clus>
<clus scale="   97.063">  7  8 -1 -1</clus>
<clus scale="  120.360">  2  5  1 -1</clus>
<clus scale="   20.928">  1  5  2 -1</clus>
</clustering>
</event>
<event>
10    4  0.3043429E-005  0.3710265E+03  0.7546771E-02  0.1054301E+00
         21   -1    0    0  501  502  0.00000000000E+00  0.00000000000E+00  0.24198061393E+03  0.24198061393E+03  0.00000000000E+00 0. -1.
          2   -1    0    0  503    0 -0.00000000000E+00 -0.00000000000E+00 -0.11751144160E+04  0.11751144160E+04  0.00000000000E+00 0. -1.
         24    2    1    2    0    0  0.77432723092E+02 -0.47343393206E+02 -0.45228296037E+03  0.46764558531E+03  0.76780816188E+02 0.  0.
         23    2    1    2    0    0  0.15541363337E+03 -0.64207748917E+02 -0.45244626344E+03  0.49095777745E+03  0.89754584733E+02 0.  0.
        -11    1    3    3    0    0  0.14375317429E+02 -0.49532300721E+02 -0.14362899624E+03  0.15260860764E+03  0.00000000000E+00 0.  1.
         12    1    3    3    0    0  0.63057405663E+02  0.21889075156E+01 -0.30865396413E+03  0.31503697767E+03  0.00000000000E+00 0. -1.
        -11    1    4    4    0    0  0.28516315409E+02  0.22482759740E+02 -0.10288613620E+03  0.10910642397E+03  0.00000000000E+00 0.  1.
         11    1    4    4    0    0  0.12689731797E+03 -0.86690508657E+02 -0.34956012724E+03  0.38185135348E+03  0.00000000000E+00 0. -1.
         21    1    1    2  503  502  0.49654905707E+02 -0.63040357284E+02 -0.90160372787E+02  0.12070041064E+03  0.00000000000E+00 0. -1.
          1    1    1    2  501    0 -0.28250126217E+03  0.17459149941E+03  0.61755794562E+02  0.33779125648E+03  0.00000000000E+00 0. -1.
<scales pt_clust_5="13000.00000" pt_clust_6="13000.00000" pt_clust_7="13000.00000" pt_clust_8="13000.00000" pt_clust_9="80.24772" pt_clust_10="322.39151"></scales>
<clustering>
<clus scale="   76.781">  5  6 -1 -1</clus>
<clus scale="   80.248">  2  9  1 -1</clus>
<clus scale="   89.755">  7  8 -1 -1</clus>
<clus scale="  108.463">  5  7 -1 -1</clus>
<clus scale="  322.392">  1 10  2 -1</clus>
<clus scale="  322.392">  1  5  2 -1</clus>
</clustering>
</event>
<event>
10    4  0.3043429E-005  0.9960613E+02  0.7546771E-02  0.1286495E+00
         -1   -1    0    0    0  501 -0.00000000000E+00  0.00000000000E+00  0.31985515309E+03  0.31985515309E+03  0.00000000000E+00 0.  1.
         21   -1    0    0  501  502  0.00000000000E+00 -0.00000000000E+00 -0.65771779506E+02  0.65771779506E+02  0.00000000000E+00 0. -1.
         24    2    1    2    0    0 -0.16372408775E+02 -0.16369879350E+02  0.10343860598E+03  0.13297712728E+03  0.80295345148E+02 0.  0.
         23    2    1    2    0    0  0.62319701460E+02  0.19421899334E+02  0.14745226803E+03  0.18513221090E+03  0.90943987181E+02 0.  0.
        -13    1    3    3    0    0 -0.32832703202E+02 -0.13341140704E+02  0.10956529965E+03  0.11515436302E+03  0.00000000000E+00 0.  1.
         14    1    3    3    0    0  0.16460294427E+02 -0.30287386460E+01 -0.61266936702E+01  0.17822764257E+02  0.00000000000E+00 0. -1.
        -13    1    4    4    0    0  0.43931950641E+02  0.36645799760E+02  0.14928431692E+03  0.15987100489E+03  0.00000000000E+00 0. -1.
         13    1    4    4    0    0  0.18387750819E+02 -0.17223900426E+02 -0.18320488921E+01  0.25261206013E+02  0.00000000000E+00 0.  1.
         21    1    1    2  503  502 -0.18669533877E+02  0.18458850560E+02 -0.12876915167E+02  0.29242017772E+02  0.00000000000E+00 0.  1.
         -2    1    1    2    0  503 -0.27277758808E+02 -0.21510870544E+02  0.16069414742E+02  0.38275576642E+02  0.00000000000E+00 0.  1.
<scales pt_clust_5="13000.00000" pt_clust_6="13000.00000" pt_clust_7="13000.00000" pt_clust_8="13000.00000" pt_clust_9="26.25416" pt_clust_10="36.12506"></scales>
<clustering>
<clus scale="   26.254">  2  9  1 -1</clus>
<clus scale="   36.125">  2 10  1 -1</clus>
<clus scale="   80.295">  5  6 -1 -1</clus>
<clus scale="   89.988">  1  5  2 -1</clus>
<clus scale="   90.944">  7  8 -1 -1</clus>
<clus scale="   26.254">  2  5  1 -1</clus>
</clustering>
</event>
<event>
10    4  0.3043429E-005  0.1671085E+03  0.7546771E-02  0.1183786E+00
         21   -1    0    0  501  502  0.00000000000E+00  0.00000000000E+00  0.19800099268E+03  0.19800099268E+03  0.00000000000E+00 0. -1.
          2   -1    0    0  503    0 -0.00000000000E+00 -0.00000000000E+00 -0.95076000545E+03  0.95076000545E+03  0.00000000000E+00 0. -1.
         24    2    1    2    0    0  0.86469090710E+02  0.11270491541E+03 -0.69794093357E+03  0.71570014989E+03  0.70184444034E+02 0.  0.
         23    2    1    2    0    0 -0.10781246470E+03 -0.68543077362E+02  0.13554678918E+02  0.15754075135E+03  0.91179372752E+02 0.  0.
        -11    1    3    3    0    0  0.60515878682E+02  0.10072622126E+03 -0.41488861971E+03  0.43120819796E+03  0.00000000000E+00 0.  1.
         12    1    3    3    0    0  0.25953212029E+02  0.11978694149E+02 -0.28305231387E+03  0.28449195193E+03  0.00000000000E+00 0. -1.
        -13    1    4    4    0    0 -0.53554282777E+02 -0.38077121698E+02  0.52520557751E+02  0.84120968772E+02  0.00000000000E+00 0. -1.
         13    1    4    4    0    0 -0.54258181922E+02 -0.30465955664E+02 -0.38965878834E+02  0.73419782575E+02  0.00000000000E+00 0.  1.
         21    1    1    2  503  502  0.13615618868E+03  0.16322912432E+02 -0.35101022123E+02  0.14155220570E+03  0.00000000000E+00 0. -1.
          1    1    1    2  501    0 -0.11481281469E+03 -0.60484750478E+02 -0.33271735987E+02  0.13396789120E+03  0.00000000000E+00 0. -1.
<scales pt_clust_5="13000.00000" pt_clust_6="13000.00000" pt_clust_7="13000.00000" pt_clust_8="13000.00000" pt_clust_9="94.92706" pt_clust_10="129.77052"></scales>
<clustering>
<clus scale="   70.184">  5  6 -1 -1</clus>
<clus scale="   91.179">  7  8 -1 -1</clus>
<clus scale="  129.771">  1 10  2 -1</clus>
<clus scale="   94.927">  1  9  2 -1</clus>
<clus scale="  156.644">  2  5  1 -1</clus>
<clus scale="  129.771">  1  5  2 -1</clus>
</clustering>
</event>
<event>
10    4  0.3043429E-005  0.1137450E+03  0.7546771E-02  0.1261035E+00
         21   -1    0    0  501  502  0.00000000000E+00  0.00000000000E+00  0.32203583484E+03  0.32203583484E+03  0.00000000000E+00 0.  1.
         -3   -1    0    0    0  501 -0.00000000000E+00 -0.00000000000E+00 -0.29749561793E+03  0.29749561793E+03  0.00000000000E+00 0.  1.
         23    2    1    2    0    0  0.53557313912E+02  0.55013415399E+02 -0.24846223784E+03  0.27568475905E+03  0.91508147154E+02 0.  0.
         24    2    1    2    0    0  0.11783795716E+02 -0.44902475749E+02  0.31378079176E+02  0.91074366969E+02  0.71797397559E+02 0.  0.
        -13    1    4    4    0    0  0.41102009379E+02 -0.20960270577E+02  0.25658009683E+02  0.52792438649E+02  0.00000000000E+00 0.  1.
         14    1    4    4    0    0 -0.29318213663E+02 -0.23942205172E+02  0.57200694930E+01  0.38281928320E+02  0.00000000000E+00 0. -1.
        -11    1    3    3    0    0 -0.19346266764E+02 -0.57533093912E+01 -0.20564470320E+02  0.28814511035E+02  0.00000000000E+00 0. -1.
         11    1    3    3    0    0  0.72903580675E+02  0.60766724791E+02 -0.22789776752E+03  0.24687024802E+03  0.00000000000E+00 0.  1.
         21    1    1    2  503  502 -0.27480773052E+02 -0.13483949065E+02  0.15767370284E+03  0.16061757792E+03  0.00000000000E+00 0.  1.
         -4    1    1    2    0  503 -0.37860336575E+02  0.33730094137E+01  0.83950672733E+02  0.92154748822E+02  0.00000000000E+00 0.  1.
<scales pt_clust_5="13000.00000" pt_clust_6="13000.00000" pt_clust_7="13000.00000" pt_clust_8="13000.00000" pt_clust_9="30.29726" pt_clust_10="74.23955"></scales>
<clustering>
<clus scale="   30.297">  9 10 -1 -1</clus>
<clus scale="   71.797">  5  6 -1 -1</clus>
<clus scale="   74.240">  1  9  2 -1</clus>
<clus scale="   91.508">  7  8 -1 -1</clus>
<clus scale="   98.585">  1  5  2 -1</clus>
<clus scale="   74.240">  1  5  2 -1</clus>
</clustering>
</event>
<event>
10    4  0.3043429E-005  0.1351942E+03  0.7546771E-02  0.1222091E+00
         21   -1    0    0  503  502  0.00000000000E+00  0.00000000000E+00  0.23292771541E+03  0.23292771541E+03  0.00000000000E+00 0. -1.
          2   -1    0    0  502    0 -0.00000000000E+00 -0.00000000000E+00 -0.68145768964E+03  0.68145768964E+03  0.00000000000E+00 0. -1.
         24    2    1    2    0    0 -0.89694552519E+02  0.52281672940E+02 -0.53945161670E+03  0.55498863518E+03  0.78904070542E+02 0.  0.
         23    2    1    2    0    0  0.67802539580E+02 -0.68644949627E+02 -0.43665576470E+02  0.13789026403E+03  0.88304749953E+02 0.  0.
        -13    1    3    3    0    0 -0.54862007742E+02  0.63345354593E+02 -0.45951106818E+03  0.46708981537E+03  0.00000000000E+00 0.  1.
         14    1    3    3    0    0 -0.34832544777E+02 -0.11063681653E+02 -0.79940548517E+02  0.87898819814E+02  0.00000000000E+00 0. -1.
        -11    1    4    4    0    0  0.38889984617E+02 -0.86524121037E+02 -0.21377984938E+02  0.97241311512E+02  0.00000000000E+00 0.  1.
         11    1    4    4    0    0  0.28912554963E+02  0.17879171410E+02 -0.22287591532E+02  0.40648952522E+02  0.00000000000E+00 0. -1.
         21    1    1    2  503  501 -0.24792573536E+02  0.24747001991E+01  0.16315067464E+03  0.16504223241E+03  0.00000000000E+00 0. -1.
          1    1    1    2  501    0  0.46684586475E+02  0.13888576488E+02 -0.28563455704E+02  0.56464273421E+02  0.00000000000E+00 0. -1.
<scales pt_clust_5="13000.00000" pt_clust_6="13000.00000" pt_clust_7="13000.00000" pt_clust_8="13000.00000" pt_clust_9="24.91577" pt_clust_10="44.07505"></scales>
<clustering>
<clus scale="   24.916">  1  9  2 -1</clus>
<clus scale="   44.075">  1 10  2 -1</clus>
<clus scale="   78.904">  5  6 -1 -1</clus>
<clus scale="   88.305">  7  8 -1 -1</clus>
<clus scale="  129.250">  2  5  1 -1</clus>
<clus scale="   24.916">  1  5  2 -1</clus>
</clustering>
</event>
<event>
10    4  0.3043429E-005  0.1792967E+03  0.7546771E-02  0.1169731E+00
         21   -1    0    0  501  502  0.00000000000E+00  0.00000000000E+00  0.15115701797E+03  0.15115701797E+03  0.00000000000E+00 0. -1.
          2   -1    0    0  503    0 -0.00000000000E+00 -0.00000000000E+00 -0.53269032896E+03  0.53269032896E+03  0.00000000000E+00 0. -1.
         24    2    1    2    0    0  0.12850138207E+03  0.31967713508E+02 -0.17499235831E+03  0.23388091607E+03  0.80891393437E+02 0.  0.
         23    2    1    2    0    0 -0.20190018040E+03 -0.31483385986E+02 -0.12170381675E+03  0.25474278927E+03  0.91253401237E+02 0.  0.
        -13    1    3    3    0    0  0.74961683674E+02 -0.12281770148E+02 -0.13169681270E+03  0.15203337256E+03  0.00000000000E+00 0.  1.
         14    1    3    3    0    0  0.53539698397E+02  0.44249483656E+02 -0.43295545614E+02  0.81847543508E+02  0.00000000000E+00 0. -1.
        -13    1    4    4    0    0 -0.16749940004E+03 -0.59580502183E+02 -0.10903935738E+03  0.20855566813E+03  0.00000000000E+00 0. -1.
         13    1    4    4    0    0 -0.34400780358E+02  0.28097116198E+02 -0.12664459375E+02  0.46187121139E+02  0.00000000000E+00 0.  1.
         21    1    1    2  503  502  0.67581711638E+02 -0.52780655625E+02  0.10438788650E+02  0.86383179292E+02  0.00000000000E+00 0. -1.
          1    1    1    2  501    0  0.58170866890E+01  0.52296328102E+02 -0.95275924575E+02  0.10884046230E+03  0.00000000000E+00 0. -1.
<scales pt_clust_5="13000.00000" pt_clust_6="13000.00000" pt_clust_7="13000.00000" pt_clust_8="13000.00000" pt_clust_9="77.95474" pt_clust_10="52.61889"></scales>
<clustering>
<clus scale="   52.619">  1 10  2 -1</clus>
<clus scale="   77.955">  1  9  2 -1</clus>
<clus scale="   80.891">  5  6 -1 -1</clus>
<clus scale="   91.253">  7  8 -1 -1</clus>
<clus scale="  174.251">  2  5  1 -1</clus>
<clus scale="   52.619">  1  5  2 -1</clus>
</clustering>
</event>
<event>
10    4  0.3043429E-005  0.1530148E+03  0.7546771E-02  0.1200408E+00
          2   -1    0    0  503    0 -0.00000000000E+00  0.00000000000E+00  0.12619716180E+04  0.12619716180E+04  0.00000000000E+00 0. -1.
         21   -1    0    0  501  502  0.00000000000E+00 -0.00000000000E+00 -0.44334021233E+02  0.44334021233E+02  0.00000000000E+00 0.  1.
         24    2    1    2    0    0  0.41951832563E+02  0.12822457598E+03  0.94607754283E+03  0.95887851725E+03  0.78637113700E+02 0.  0.
         23    2    1    2    0    0 -0.48113129706E+02 -0.49013691436E+02  0.15430321937E+03  0.19519194504E+03  0.97842714103E+02 0.  0.
        -11    1    3    3    0    0  0.25275547089E+02  0.46942115349E+02  0.16485022469E+03  0.17325706928E+03  0.00000000000E+00 0.  1.
         12    1    3    3    0    0  0.16676285474E+02  0.81282460632E+02  0.78122731814E+03  0.78562144797E+03  0.00000000000E+00 0. -1.
        -13    1    4    4    0    0 -0.98449761330E+01 -0.52916672084E+02  0.14631963834E+03  0.15590553006E+03  0.00000000000E+00 0. -1.
         13    1    4    4    0    0 -0.38268153574E+02  0.39029806481E+01  0.79835810273E+01  0.39286414979E+02  0.00000000000E+00 0.  1.
         21    1    1    2  503  502 -0.15261996385E+02 -0.43314261388E+02  0.28295551750E+02  0.53941561176E+02  0.00000000000E+00 0. -1.
          1    1    1    2  501    0  0.21423293529E+02 -0.35896623157E+02  0.88961282795E+02  0.98293615745E+02  0.00000000000E+00 0. -1.
<scales pt_clust_5="13000.00000" pt_clust_6="13000.00000" pt_clust_7="13000.00000" pt_clust_8="13000.00000" pt_clust_9="55.54734" pt_clust_10="41.80341"></scales>
<clustering>
<clus scale="   41.803">  2 10  1 -1</clus>
<clus scale="   55.547">  2  9  1 -1</clus>
<clus scale="   78.637">  5  6 -1 -1</clus>
<clus scale="   97.843">  7  8 -1 -1</clus>
<clus scale="  141.507">  1  5  2 -1</clus>
<clus scale="   41.803">  2  5  1 -1</clus>
</clustering>
</event>
<event>
10    4  0.3043429E-005  0.1041765E+03  0.7546771E-02  0.1276764E+00
          2   -1    0    0  502    0 -0.00000000000E+00  0.00000000000E+00  0.40289178150E+03  0.40289178150E+03  0.00000000000E+00 0. -1.
         21   -1    0    0  503  502  0.00000000000E+00 -0.00000000000E+00 -0.10981157859E+03  0.10981157859E+03  0.00000000000E+00 0. -1.
         23    2    1    2    0    0 -0.14531042712E+02  0.25786186896E+01  0.11026745169E+03  0.14395563098E+03  0.91359248649E+02 0.  0.
         24    2    1    2    0    0  0.51763944514E+02 -0.86507807401E+02  0.17124365930E+03  0.21431988151E+03  0.80283958956E+02 0.  0.
        -13    1    4    4    0    0 -0.21283597139E+02 -0.28034439019E+02  0.50776381240E+02  0.61783186791E+02  0.00000000000E+00 0.  1.
         14    1    4    4    0    0  0.73047541653E+02 -0.58473368383E+02  0.12046727806E+03  0.15253669472E+03  0.00000000000E+00 0. -1.
        -13    1    3    3    0    0 -0.56387584465E+01  0.45250165933E+02  0.75489920532E+02  0.88193544071E+02  0.00000000000E+00 0.  1.
         13    1    3    3    0    0 -0.88922842654E+01 -0.42671547244E+02  0.34777531154E+02  0.55762086912E+02  0.00000000000E+00 0. -1.
         21    1    1    2  503  501 -0.28404280397E+02  0.10588481732E+02 -0.49860904536E+02  0.58352625403E+02  0.00000000000E+00 0.  1.
          1    1    1    2  501    0 -0.88286214050E+01  0.73340706980E+02  0.61429996447E+02  0.96075222195E+02  0.00000000000E+00 0. -1.
<scales pt_clust_5="13000.00000" pt_clust_6="13000.00000" pt_clust_7="13000.00000" pt_clust_8="13000.00000" pt_clust_9="30.31368" pt_clust_10="78.64230"></scales>
<clustering>
<clus scale="   30.314">  2  9  1 -1</clus>
<clus scale="   78.642">  2 10  1 -1</clus>
<clus scale="   80.284">  5  6 -1 -1</clus>
<clus scale="   91.359">  7  8 -1 -1</clus>
<clus scale="   94.614">  2  5  1 -1</clus>
<clus scale="   30.314">  2  5  1 -1</clus>
</clustering>
</event>
<event>
10    4  0.3043429E-005  0.1173056E+03  0.7546771E-02  0.1250247E+00
         21   -1    0    0  501  502  0.00000000000E+00  0.00000000000E+00  0.24920552035E+03  0.24920552035E+03  0.00000000000E+00 0.  1.
          2   -1    0    0  503    0 -0.00000000000E+00 -0.00000000000E+00 -0.17517984474E+03  0.17517984474E+03  0.00000000000E+00 0. -1.
         24    2    1    2    0    0 -0.52440576154E+02  0.53524886125E+02 -0.96449894924E+02  0.14746715670E+03  0.82638082091E+02 0.  0.
         23    2    1    2    0    0  0.82373775830E+02 -0.17225170167E+02  0.11537362127E+03  0.16911896546E+03  0.90598049428E+02 0.  0.
        -13    1    3    3    0    0 -0.50404789295E+02 -0.35621139614E+01 -0.64763820175E+02  0.82144286736E+02  0.00000000000E+00 0.  1.
         14    1    3    3    0    0 -0.20357868588E+01  0.57087000086E+02 -0.31686074748E+02  0.65322869961E+02  0.00000000000E+00 0. -1.
        -13    1    4    4    0    0  0.17215828812E+02  0.15632623630E+02 -0.89857428646E+01  0.24930047293E+02  0.00000000000E+00 0. -1.
         13    1    4    4    0    0  0.65157947018E+02 -0.32857793797E+02  0.12435936414E+03  0.14418891816E+03  0.00000000000E+00 0.  1.
         21    1    1    2  503  502  0.21754311115E+02 -0.12748097077E+02  0.42810772654E+02  0.49684265985E+02  0.00000000000E+00 0.  1.
          1    1    1    2  501    0 -0.51687510792E+02 -0.23551618881E+02  0.12291176606E+02  0.58114976952E+02  0.00000000000E+00 0. -1.
<scales pt_clust_5="13000.00000" pt_clust_6="13000.00000" pt_clust_7="13000.00000" pt_clust_8="13000.00000" pt_clust_9="25.21436" pt_clust_10="54.40123"></scales>
<clustering>
<clus scale="   25.214">  1  9  2 -1</clus>
<clus scale="   54.401">  1 10  2 -1</clus>
<clus scale="   82.638">  5  6 -1 -1</clus>
<clus scale="   90.598">  7  8 -1 -1</clus>
<clus scale="  111.273">  2  5  1 -1</clus>
<clus scale="   25.214">  1  5  2 -1</clus>
</clustering>
</event>
<event>
10    4  0.3043429E-005  0.1877561E+03  0.7546771E-02  0.1161794E+00
          2   -1    0    0  503    0 -0.00000000000E+00  0.00000000000E+00  0.15281170709E+04  0.15281170709E+04  0.00000000000E+00 0. -1.
         21   -1    0    0  501  502  0.00000000000E+00 -0.00000000000E+00 -0.56154286206E+02  0.56154286206E+02  0.00000000000E+00 0. -1.
         24    2    1    2    0    0  0.88062699845E+02  0.11396330144E+03  0.43607723862E+03  0.46628727029E+03  0.80732813781E+02 0.  0.
         23    2    1    2    0    0 -0.79987337083E+02 -0.18097465148E+03  0.46133994129E+03  0.51044839804E+03  0.92591722387E+02 0.  0.
        -13    1    3    3    0    0 -0.75595964508E+00  0.50056329679E+02  0.19862339462E+03  0.20483520329E+03  0.00000000000E+00 0.  1.
         14    1    3    3    0    0  0.88818659490E+02  0.63906971759E+02  0.23745384399E+03  0.26145206700E+03  0.00000000000E+00 0. -1.
        -13    1    4    4    0    0 -0.89693402878E+02 -0.14561557194E+03  0.30314758348E+03  0.34806214773E+03  0.00000000000E+00 0. -1.
         13    1    4    4    0    0  0.97060657953E+01 -0.35359079541E+02  0.15819235781E+03  0.16238625031E+03  0.00000000000E+00 0.  1.
         21    1    1    2  503  502  0.11844098661E+02 -0.26078754230E+02  0.37859637012E+01  0.28891479997E+02  0.00000000000E+00 0.  1.
          1    1    1    2  501    0 -0.19919461423E+02  0.93090104276E+02  0.57075964105E+03  0.57864420874E+03  0.00000000000E+00 0. -1.
<scales pt_clust_5="13000.00000" pt_clust_6="13000.00000" pt_clust_7="13000.00000" pt_clust_8="13000.00000" pt_clust_9="28.64235" pt_clust_10="92.66932"></scales>
<clustering>
<clus scale="   28.642">  2  9  1 -1</clus>
<clus scale="   80.733">  5  6 -1 -1</clus>
<clus scale="   92.592">  7  8 -1 -1</clus>
<clus scale="   92.669">  2 10  1 -1</clus>
<clus scale="  182.200">  1  5  2 -1</clus>
<clus scale="   28.642">  2  5  1 -1</clus>
</clustering>
</event>
<event>
10    4  0.3043429E-005  0.4529854E+03  0.7546771E-02  0.1058417E+00
         21   -1    0    0  501  502  0.00000000000E+00  0.00000000000E+00  0.85467304413E+03  0.85467304413E+03  0.00000000000E+00 0. -1.
          2   -1    0    0  503    0 -0.00000000000E+00 -0.00000000000E+00 -0.10582105584E+04  0.10582105584E+04  0.00000000000E+00 0. -1.
         24    2    1    2    0    0  0.46402901817E+03 -0.31424196913E+02 -0.83276860697E+03  0.95772544328E+03  0.86162997203E+02 0.  0.
         23    2    1    2    0    0 -0.11794520541E+03 -0.11903041541E+03  0.16350437430E+03  0.25126709743E+03  0.91225887591E+02 0.  0.
        -13    1    3    3    0    0  0.71019654661E+02  0.26330752465E+02 -0.13746908645E+03  0.15695492858E+03  0.00000000000E+00 0.  1.
         14    1    3    3    0    0  0.39300936351E+03 -0.57754949379E+02 -0.69529952051E+03  0.80077051470E+03  0.00000000000E+00 0. -1.
        -11    1    4    4    0    0 -0.82049931841E+02 -0.85262219728E+02  0.51792875722E+02  0.12916787295E+03  0.00000000000E+00 0.  1.
         11    1    4    4    0    0 -0.35895273564E+02 -0.33768195678E+02  0.11171149857E+03  0.12209922448E+03  0.00000000000E+00 0. -1.
         21    1    1    2  503  502 -0.33806197726E+03 -0.30913633749E+02  0.24802838659E+03  0.42042791746E+03  0.00000000000E+00 0. -1.
          1    1    1    2  501    0 -0.80218355043E+01  0.18136824607E+03  0.21769833182E+03  0.28346314435E+03  0.00000000000E+00 0. -1.
<scales pt_clust_5="13000.00000" pt_clust_6="13000.00000" pt_clust_7="13000.00000" pt_clust_8="13000.00000" pt_clust_9="444.71530" pt_clust_10="181.54556"></scales>
<clustering>
<clus scale="   86.163">  5  6 -1 -1</clus>
<clus scale="   91.226">  7  8 -1 -1</clus>
<clus scale="  181.546">  1 10  2 -1</clus>
<clus scale="  181.546">  1  7  2 -1</clus>
<clus scale="  444.715">  1  9  2 -1</clus>
<clus scale="  181.546">  1  5  2 -1</clus>
</clustering>
</event>
<event>
10    4  0.3043429E-005  0.2070119E+03  0.7546771E-02  0.1155446E+00
         21   -1    0    0  501  502  0.00000000000E+00  0.00000000000E+00  0.78167458898E+03  0.78167458898E+03  0.00000000000E+00 0.  1.
         -1   -1    0    0    0  501 -0.00000000000E+00 -0.00000000000E+00 -0.22995259425E+03  0.22995259425E+03  0.00000000000E+00 0.  1.
         24    2    1    2    0    0  0.50222071869E+02 -0.11225009250E+03  0.96505452092E+02  0.17628844177E+03  0.81498298449E+02 0.  0.
         23    2    1    2    0    0  0.15342157630E+03 -0.53757126147E+02  0.32304430374E+03  0.37416200366E+03  0.95976945751E+02 0.  0.
        -11    1    3    3    0    0  0.50313473861E+02 -0.27903636476E+02  0.16065467689E+02  0.59734059235E+02  0.00000000000E+00 0.  1.
         12    1    3    3    0    0 -0.91401991980E-01 -0.84346456024E+02  0.80439984403E+02  0.11655438254E+03  0.00000000000E+00 0. -1.
        -11    1    4    4    0    0  0.14920134375E+03 -0.15290690647E+02  0.25165875356E+03  0.29296241131E+03  0.00000000000E+00 0.  1.
         11    1    4    4    0    0  0.42202325513E+01 -0.38466435500E+02  0.71385550176E+02  0.81199592344E+02  0.00000000000E+00 0. -1.
         21    1    1    2  503  502 -0.39246439060E+02 -0.73515527101E+02  0.14841420539E+03  0.17021043465E+03  0.00000000000E+00 0.  1.
         -2    1    1    2    0  503 -0.16439720911E+03  0.23952274575E+03 -0.16241966493E+02  0.29096630315E+03  0.00000000000E+00 0.  1.
<scales pt_clust_5="13000.00000" pt_clust_6="13000.00000" pt_clust_7="13000.00000" pt_clust_8="13000.00000" pt_clust_9="83.33556" pt_clust_10="183.41865"></scales>
<clustering>
<clus scale="   81.498">  5  6 -1 -1</clus>
<clus scale="   83.336">  1  9  2 -1</clus>
<clus scale="   95.977">  7  8 -1 -1</clus>
<clus scale="  157.642">  2  5  1 -1</clus>
<clus scale="  183.419">  1 10  2 -1</clus>
<clus scale="   83.336">  1  5  2 -1</clus>
</clustering>
</event>
<event>
10    4  0.3043429E-005  0.1145916E+03  0.7546771E-02  0.1255617E+00
         21   -1    0    0  501  502  0.00000000000E+00  0.00000000000E+00  0.21595130054E+03  0.21595130054E+03  0.00000000000E+00 0. -1.
          2   -1    0    0  503    0 -0.00000000000E+00 -0.00000000000E+00 -0.26345862902E+03  0.26345862902E+03  0.00000000000E+00 0. -1.
         23    2    1    2    0    0  0.16543535152E+02 -0.68930724778E+02 -0.14705018836E+03  0.18644567305E+03  0.90072735756E+02 0.  0.
         24    2    1    2    0    0 -0.11660132318E+02  0.69697147316E+02  0.10600477482E+03  0.15073673781E+03  0.80566126943E+02 0.  0.
        -13    1    4    4    0    0  0.15926712297E+02  0.16437943114E+02 -0.60189626527E+01  0.23666306214E+02  0.00000000000E+00 0.  1.
         14    1    4    4    0    0 -0.27586844614E+02  0.53259204202E+02  0.11202373747E+03  0.12707043159E+03  0.00000000000E+00 0. -1.
        -11    1    3    3    0    0  0.43353260708E+02 -0.51392866004E+02 -0.13743008088E+03  0.15299594446E+03  0.00000000000E+00 0. -1.
         11    1    3    3    0    0 -0.26809725556E+02 -0.17537858774E+02 -0.96201074858E+01  0.33449728591E+02  0.00000000000E+00 0.  1.
         21    1    1    2  503  502 -0.34591620841E+02  0.20274876694E+02  0.56629111999E+02  0.69386649891E+02  0.00000000000E+00 0. -1.
          1    1    1    2  501    0  0.29708218007E+02 -0.21041299231E+02 -0.63091026938E+02  0.72840868820E+02  0.00000000000E+00 0. -1.
<scales pt_clust_5="13000.00000" pt_clust_6="13000.00000" pt_clust_7="13000.00000" pt_clust_8="13000.00000" pt_clust_9="29.28357" pt_clust_10="36.40489"></scales>
<clustering>
<clus scale="   36.405">  1 10  2 -1</clus>
<clus scale="   29.284">  1  9  2 -1</clus>
<clus scale="   80.566">  5  6 -1 -1</clus>
<clus scale="   90.073">  7  8 -1 -1</clus>
<clus scale="  107.280">  1  5  2 -1</clus>
<clus scale="   36.405">  1  5  2 -1</clus>
</clustering>
</event>
<event>
10    4  0.3043429E-005  0.1864905E+03  0.7546771E-02  0.1162925E+00
          2   -1    0    0  503    0 -0.00000000000E+00  0.00000000000E+00  0.87516032923E+03  0.87516032923E+03  0.00000000000E+00 0. -1.
         21   -1    0    0  501  502  0.00000000000E+00 -0.00000000000E+00 -0.86055285841E+02  0.86055285841E+02  0.00000000000E+00 0. -1.
         24    2    1    2    0    0  0.11620596844E+03 -0.13960580985E+03  0.45126168830E+03  0.49313970388E+03  0.80969420005E+02 0.  0.
         23    2    1    2    0    0 -0.96265453740E+02  0.79881078207E+02  0.10613354997E+03  0.18826048441E+03  0.92356133105E+02 0.  0.
        -13    1    3    3    0    0  0.10384760167E+03 -0.63430012865E+02  0.27880901420E+03  0.30420742480E+03  0.00000000000E+00 0.  1.
         14    1    3    3    0    0  0.12358366766E+02 -0.76175796985E+02  0.17245267410E+03  0.18893227908E+03  0.00000000000E+00 0. -1.
        -11    1    4    4    0    0 -0.22869488340E+02  0.75367885916E+02  0.35838125133E+02  0.86531514129E+02  0.00000000000E+00 0. -1.
         11    1    4    4    0    0 -0.73395965400E+02  0.45131922915E+01  0.70295424840E+02  0.10172897028E+03  0.00000000000E+00 0.  1.
         21    1    1    2  503  502 -0.39637273114E+02  0.28854059655E+02  0.40112350737E+01  0.49191057981E+02  0.00000000000E+00 0.  1.
          1    1    1    2  501    0  0.19696758414E+02  0.30870671987E+02  0.22769857005E+03  0.23062436880E+03  0.00000000000E+00 0. -1.
<scales pt_clust_5="13000.00000" pt_clust_6="13000.00000" pt_clust_7="13000.00000" pt_clust_8="13000.00000" pt_clust_9="50.57724" pt_clust_10="36.61915"></scales>
<clustering>
<clus scale="   36.619">  2 10  1 -1</clus>
<clus scale="   50.577">  2  9  1 -1</clus>
<clus scale="   80.969">  5  6 -1 -1</clus>
<clus scale="   92.356">  7  8 -1 -1</clus>
<clus scale="  181.122">  1  5  2 -1</clus>
<clus scale="   36.619">  2  5  1 -1</clus>
</clustering>
</event>
<event>
10    4  0.3043429E-005  0.9623912E+02  0.7546771E-02  0.1292157E+00
          2   -1    0    0  503    0 -0.00000000000E+00  0.00000000000E+00  0.66683999970E+03  0.66683999970E+03  0.00000000000E+00 0. -1.
         21   -1    0    0  501  502  0.00000000000E+00 -0.00000000000E+00 -0.12516084580E+03  0.12516084580E+03  0.00000000000E+00 0. -1.
         24    2    1    2    0    0 -0.28639271166E+02 -0.14028958338E+02  0.33124298558E+03  0.34258188505E+03  0.81384353179E+02 0.  0.
         23    2    1    2    0    0  0.29521797096E+02  0.38933954166E+02  0.30245290348E+03  0.31890594053E+03  0.88520341107E+02 0.  0.
        -13    1    3    3    0    0 -0.42432628297E+02 -0.28117509254E+02  0.30766025102E+03  0.31184283273E+03  0.00000000000E+00 0.  1.
         14    1    3    3    0    0  0.13793357132E+02  0.14088550916E+02  0.23582734567E+02  0.30739052320E+02  0.00000000000E+00 0. -1.
        -13    1    4    4    0    0 -0.13323073222E+02  0.53995775344E+02  0.16017452203E+03  0.16955508115E+03  0.00000000000E+00 0. -1.
         13    1    4    4    0    0  0.42844870319E+02 -0.15061821179E+02  0.14227838145E+03  0.14935085938E+03  0.00000000000E+00 0.  1.
         21    1    1    2  503  502  0.14961105349E+02  0.17183344401E+02 -0.81094116651E+02  0.84233946562E+02  0.00000000000E+00 0. -1.
          1    1    1    2  501    0 -0.15843631280E+02 -0.42088340229E+02 -0.10922618513E+02  0.46279073354E+02  0.00000000000E+00 0. -1.
<scales pt_clust_5="13000.00000" pt_clust_6="13000.00000" pt_clust_7="13000.00000" pt_clust_8="13000.00000" pt_clust_9="22.78381" pt_clust_10="31.06519"></scales>
<clustering>
<clus scale="   22.784">  2  9  1 -1</clus>
<clus scale="   31.065">  2 10  1 -1</clus>
<clus scale="   81.384">  5  6 -1 -1</clus>
<clus scale="   88.520">  7  8 -1 -1</clus>
<clus scale="   89.719">  1  5  2 -1</clus>
<clus scale="   22.784">  2  5  1 -1</clus>
</clustering>
</event>
<event>
10    4  0.3043429E-005  0.2378269E+03  0.7546771E-02  0.1121874E+00
         21   -1    0    0  503  502  0.00000000000E+00  0.00000000000E+00  0.15285322988E+03  0.15285322988E+03  0.00000000000E+00 0. -1.
          2   -1    0    0  502    0 -0.00000000000E+00 -0.00000000000E+00 -0.25757749511E+04  0.25757749511E+04  0.00000000000E+00 0. -1.
         24    2    1    2    0    0 -0.22700560434E+03  0.28578184538E+02 -0.92678888180E+03  0.95800254667E+03  0.80517022916E+02 0.  0.
         23    2    1    2    0    0  0.16876153452E+03  0.23694025239E+03 -0.11487388657E+04  0.11884620531E+04  0.90663837144E+02 0.  0.
        -11    1    3    3    0    0 -0.22734403357E+02 -0.18212230092E+02 -0.67281085402E+02  0.73316320651E+02  0.00000000000E+00 0.  1.
         12    1    3    3    0    0 -0.20427120098E+03  0.46790414629E+02 -0.85950779640E+03  0.88468622602E+03  0.00000000000E+00 0. -1.
        -13    1    4    4    0    0  0.64750402306E+02  0.41553851373E+02 -0.41468734448E+03  0.42176407011E+03  0.00000000000E+00 0.  1.
         13    1    4    4    0    0  0.10401113222E+03  0.19538640101E+03 -0.73405152125E+03  0.76669798302E+03  0.00000000000E+00 0. -1.
         21    1    1    2  503  501  0.83387061710E+00 -0.99670848068E+02  0.75013374403E+02  0.12474766384E+03  0.00000000000E+00 0. -1.
          1    1    1    2  501    0  0.57410199201E+02 -0.16584758886E+03 -0.42240734810E+03  0.45741591733E+03  0.00000000000E+00 0. -1.
<scales pt_clust_5="13000.00000" pt_clust_6="13000.00000" pt_clust_7="13000.00000" pt_clust_8="13000.00000" pt_clust_9="99.67434" pt_clust_10="206.98368"></scales>
<clustering>
<clus scale="   80.517">  5  6 -1 -1</clus>
<clus scale="   90.664">  7  8 -1 -1</clus>
<clus scale="   99.674">  1  9  2 -1</clus>
<clus scale="  206.984">  1 10  2 -1</clus>
<clus scale="  234.147">  2  5  1 -1</clus>
<clus scale="   99.674">  1  5  2 -1</clus>
</clustering>
</event>
<event>
10    4  0.3043429E-005  0.2109649E+03  0.7546771E-02  0.1163557E+00
         -3   -1    0    0    0  501 -0.00000000000E+00  0.00000000000E+00  0.30181981870E+03  0.30181981870E+03  0.00000000000E+00 0.  1.
         21   -1    0    0  501  502  0.00000000000E+00 -0.00000000000E+00 -0.34488584117E+03  0.34488584117E+03  0.00000000000E+00 0.  1.
         24    2    1    2    0    0  0.82493667825E+02  0.20422504690E+02 -0.48718327014E+02  0.12649625101E+03  0.80034631284E+02 0.  0.
         23    2    1    2    0    0 -0.59121413919E+02  0.19297607472E+03  0.57200211875E+02  0.22846955802E+03  0.90506174959E+02 0.  0.
        -11    1    3    3    0    0  0.67050728128E+02  0.34099869508E+02 -0.65623677457E+02  0.99825188635E+02  0.00000000000E+00 0.  1.
         12    1    3    3    0    0  0.15442939697E+02 -0.13677364819E+02  0.16905350443E+02  0.26671062380E+02  0.00000000000E+00 0. -1.
        -11    1    4    4    0    0 -0.98527391986E+01  0.35468174182E+02 -0.24601135677E+02  0.44275091486E+02  0.00000000000E+00 0. -1.
         11    1    4    4    0    0 -0.49268674720E+02  0.15750790054E+03  0.81801347553E+02  0.18419446653E+03  0.00000000000E+00 0.  1.
         21    1    1    2  503  502  0.30863154719E+02 -0.25353834045E+02 -0.84323230033E+02  0.93304653385E+02  0.00000000000E+00 0.  1.
         -4    1    1    2    0  503 -0.54235408626E+02 -0.18804474536E+03  0.32775322708E+02  0.19843519745E+03  0.00000000000E+00 0.  1.
<scales pt_clust_5="13000.00000" pt_clust_6="13000.00000" pt_clust_7="13000.00000" pt_clust_8="13000.00000" pt_clust_9="39.94185" pt_clust_10="190.56462"></scales>
<clustering>
<clus scale="   39.942">  2  9  1 -1</clus>
<clus scale="   80.035">  5  6 -1 -1</clus>
<clus scale="   90.506">  7  8 -1 -1</clus>
<clus scale="  123.298">  1  5  2 -1</clus>
<clus scale="  190.565">  2 10  1 -1</clus>
<clus scale="   39.942">  2  5  1 -1</clus>
</clustering>
</event>
<event>
10    4  0.3043429E-005  0.1096388E+03  0.7546771E-02  0.1264312E+00
         21   -1    0    0  501  502  0.00000000000E+00  0.00000000000E+00  0.78014006105E+02  0.78014006105E+02  0.00000000000E+00 0. -1.
          2   -1    0    0  503    0 -0.00000000000E+00 -0.00000000000E+00 -0.61754669262E+03  0.61754669262E+03  0.00000000000E+00 0. -1.
         24    2    1    2    0    0  0.38339729057E+02  0.65564195759E+02 -0.40694052938E+03  0.42321158469E+03  0.87970747258E+02 0.  0.
         23    2    1    2    0    0  0.29673197149E+02  0.49110957236E+01 -0.66657226740E+02  0.12020021255E+03  0.95395428251E+02 0.  0.
        -11    1    3    3    0    0  0.59366331702E+02  0.66623193337E+02 -0.26269380515E+03  0.27743656301E+03  0.00000000000E+00 0.  1.
         12    1    3    3    0    0 -0.21026602645E+02 -0.10589975778E+01 -0.14424672423E+03  0.14577502168E+03  0.00000000000E+00 0. -1.
        -13    1    4    4    0    0  0.38588329082E+02  0.30428897263E+02 -0.95133341153E+00  0.49151622203E+02  0.00000000000E+00 0. -1.
         13    1    4    4    0    0 -0.89151319331E+01 -0.25517801539E+02 -0.65705893328E+02  0.71048590351E+02  0.00000000000E+00 0.  1.
         21    1    1    2  503  502 -0.43707668490E+02  0.41232419866E+01  0.76730318056E+01  0.44567216947E+02  0.00000000000E+00 0.  1.
          1    1    1    2  501    0 -0.24305257716E+02 -0.74598533470E+02 -0.73607962206E+02  0.10758168454E+03  0.00000000000E+00 0. -1.
<scales pt_clust_5="13000.00000" pt_clust_6="13000.00000" pt_clust_7="13000.00000" pt_clust_8="13000.00000" pt_clust_9="43.90172" pt_clust_10="82.80286"></scales>
<clustering>
<clus scale="   43.902">  1  9  2 -1</clus>
<clus scale="   82.803">  1 10  2 -1</clus>
<clus scale="   87.971">  5  6 -1 -1</clus>
<clus scale="   95.395">  7  8 -1 -1</clus>
<clus scale="  103.244">  2  5  1 -1</clus>
<clus scale="   43.902">  1  5  2 -1</clus>
</clustering>
</event>
<event>
10    4  0.3043429E-005  0.1197013E+03  0.7546771E-02  0.1263933E+00
          2   -1    0    0  503    0 -0.00000000000E+00  0.00000000000E+00  0.18554455040E+04  0.18554455040E+04  0.00000000000E+00 0. -1.
         21   -1    0    0  501  502  0.00000000000E+00 -0.00000000000E+00 -0.21546944993E+02  0.21546944993E+02  0.00000000000E+00 0. -1.
         24    2    1    2    0    0 -0.10329921242E+02 -0.12794634249E+02  0.51716866590E+03  0.52293469864E+03  0.75676020700E+02 0.  0.
         23    2    1    2    0    0 -0.79808969299E+02  0.21588448974E+02  0.59473062953E+03  0.60727696450E+03  0.90803398592E+02 0.  0.
        -13    1    3    3    0    0  0.24840422743E+02  0.15319283542E+02  0.13473180763E+03  0.13785640006E+03  0.00000000000E+00 0.  1.
         14    1    3    3    0    0 -0.35170343985E+02 -0.28113917791E+02  0.38243685828E+03  0.38507829858E+03  0.00000000000E+00 0. -1.
        -11    1    4    4    0    0 -0.26543376070E+02 -0.35424554576E+02  0.24265787747E+03  0.24666231042E+03  0.00000000000E+00 0.  1.
         11    1    4    4    0    0 -0.53265593228E+02  0.57013003549E+02  0.35207275206E+03  0.36061465408E+03  0.00000000000E+00 0. -1.
         21    1    1    2  503  502  0.13248735982E+02 -0.49523781444E+02  0.59274407661E+02  0.78368292933E+02  0.00000000000E+00 0. -1.
          1    1    1    2  501    0  0.76890154558E+02  0.40729966719E+02  0.66272485591E+03  0.66841249292E+03  0.00000000000E+00 0. -1.
<scales pt_clust_5="13000.00000" pt_clust_6="13000.00000" pt_clust_7="13000.00000" pt_clust_8="13000.00000" pt_clust_9="51.26533" pt_clust_10="77.99450"></scales>
<clustering>
<clus scale="   51.265">  2  9  1 -1</clus>
<clus scale="   75.676">  5  6 -1 -1</clus>
<clus scale="   79.923">  1  5  2 -1</clus>
<clus scale="   77.995">  2 10  1 -1</clus>
<clus scale="   90.803">  7  8 -1 -1</clus>
<clus scale="   51.265">  2  5  1 -1</clus>
</clustering>
</event>
<event>
10    4  0.3043429E-005  0.1706439E+03  0.7546771E-02  0.1196193E+00
         -1   -1    0    0    0  501 -0.00000000000E+00  0.00000000000E+00  0.59267184422E+03  0.59267184422E+03  0.00000000000E+00 0.  1.
         21   -1    0    0  503  502  0.00000000000E+00 -0.00000000000E+00 -0.10197171820E+03  0.10197171820E+03  0.00000000000E+00 0. -1.
         24    2    1    2    0    0 -0.22810691776E+02 -0.71588215472E+02  0.13403610328E+03  0.17478281430E+03  0.83295587760E+02 0.  0.
         23    2    1    2    0    0  0.15200986134E+03 -0.43100312984E+02  0.17561960325E+03  0.25167295742E+03  0.86789386023E+02 0.  0.
        -13    1    3    3    0    0  0.31478079313E+02 -0.32000799634E+02  0.57287812956E+02  0.72779215218E+02  0.00000000000E+00 0.  1.
         14    1    3    3    0    0 -0.54288771090E+02 -0.39587415838E+02  0.76748290319E+02  0.10200359908E+03  0.00000000000E+00 0. -1.
        -11    1    4    4    0    0  0.20111815036E+02 -0.81419243271E+01  0.85349002750E+02  0.88063774086E+02  0.00000000000E+00 0.  1.
         11    1    4    4    0    0  0.13189804630E+03 -0.34958388656E+02  0.90270600499E+02  0.16360918333E+03  0.00000000000E+00 0. -1.
         21    1    1    2  503  501 -0.22048574142E+02  0.10232117591E+02 -0.93346392683E+01  0.26037882831E+02  0.00000000000E+00 0.  1.
         -2    1    1    2    0  502 -0.10715059542E+03  0.10445641086E+03  0.19037905876E+03  0.24214990788E+03  0.00000000000E+00 0.  1.
<scales pt_clust_5="13000.00000" pt_clust_6="13000.00000" pt_clust_7="13000.00000" pt_clust_8="13000.00000" pt_clust_9="24.30712" pt_clust_10="146.92502"></scales>
<clustering>
<clus scale="   24.307">  2  9  1 -1</clus>
<clus scale="   83.296">  5  6 -1 -1</clus>
<clus scale="   86.789">  7  8 -1 -1</clus>
<clus scale="  111.834">  1  5  2 -1</clus>
<clus scale="  146.925">  2 10  1 -1</clus>
<clus scale="   24.307">  2  5  1 -1</clus>
</clustering>
</event>
<event>
10    4  0.3043429E-005  0.1085802E+03  0.7546771E-02  0.1267600E+00
         21   -1    0    0  501  502  0.00000000000E+00  0.00000000000E+00  0.67622729070E+02  0.67622729070E+02  0.00000000000E+00 0. -1.
          2   -1    0    0  503    0 -0.00000000000E+00 -0.00000000000E+00 -0.78579517371E+03  0.78579517371E+03  0.00000000000E+00 0. -1.
         23    2    1    2    0    0 -0.72849477027E+01 -0.51235056878E+02 -0.29538684936E+03  0.31344941236E+03  0.91208781456E+02 0.  0.
         24    2    1    2    0    0  0.29994095881E+02  0.93411396342E+02 -0.35496011264E+02  0.13173895843E+03  0.80435387729E+02 0.  0.
        -13    1    4    4    0    0 -0.18403826515E+02  0.54334401631E+02 -0.39109732107E+02  0.69429814752E+02  0.00000000000E+00 0.  1.
         14    1    4    4    0    0  0.48397922396E+02  0.39076994711E+02  0.36137208434E+01  0.62309143681E+02  0.00000000000E+00 0. -1.
        -13    1    3    3    0    0 -0.25339155230E+02 -0.71753053715E+02 -0.23835402441E+03  0.25020634376E+03  0.00000000000E+00 0.  1.
         13    1    3    3    0    0  0.18054207528E+02  0.20517996837E+02 -0.57032824955E+02  0.63243068600E+02  0.00000000000E+00 0. -1.
         21    1    1    2  503  502  0.21936129436E+02 -0.97415688517E+01 -0.85323166340E+01  0.25473365806E+02  0.00000000000E+00 0.  1.
          1    1    1    2  501    0 -0.44645277614E+02 -0.32434770612E+02 -0.37875726738E+03  0.38275616618E+03  0.00000000000E+00 0. -1.
<scales pt_clust_5="13000.00000" pt_clust_6="13000.00000" pt_clust_7="13000.00000" pt_clust_8="13000.00000" pt_clust_9="24.00192" pt_clust_10="54.78165"></scales>
<clustering>
<clus scale="   24.002">  1  9  2 -1</clus>
<clus scale="   54.782">  1 10  2 -1</clus>
<clus scale="   80.435">  5  6 -1 -1</clus>
<clus scale="   91.209">  7  8 -1 -1</clus>
<clus scale="   99.702">  1  5  2 -1</clus>
<clus scale="   24.002">  1  5  2 -1</clus>
</clustering>
</event>
<event>
10    4  0.3043429E-005  0.2845251E+03  0.7546771E-02  0.1137060E+00
          2   -1    0    0  502    0 -0.00000000000E+00  0.00000000000E+00  0.14081542412E+04  0.14081542412E+04  0.00000000000E+00 0. -1.
         21   -1    0    0  503  502  0.00000000000E+00 -0.00000000000E+00 -0.17528144166E+03  0.17528144166E+03  0.00000000000E+00 0. -1.
         24    2    1    2    0    0  0.26190275170E+02  0.44880732853E+02 -0.65337535072E+02  0.11459310086E+03  0.78500793505E+02 0.  0.
         23    2    1    2    0    0  0.17044655404E+03  0.14148670212E+03  0.11116881031E+04  0.11390461030E+04  0.11182607746E+03 0.  0.
        -11    1    3    3    0    0  0.43304521567E+02  0.31567897091E+01 -0.12616688484E+02  0.45215348475E+02  0.00000000000E+00 0.  1.
         12    1    3    3    0    0 -0.17114246397E+02  0.41723943144E+02 -0.52720846588E+02  0.69377752386E+02  0.00000000000E+00 0. -1.
        -11    1    4    4    0    0  0.14941025986E+03  0.16072736077E+03  0.99743280018E+03  0.10212878640E+04  0.00000000000E+00 0. -1.
         11    1    4    4    0    0  0.21036294173E+02 -0.19240658650E+02  0.11425530291E+03  0.11775823903E+03  0.00000000000E+00 0.  1.
         21    1    1    2  503  501 -0.79809911567E+02 -0.92018857013E+02  0.82203678884E+02  0.14695079739E+03  0.00000000000E+00 0. -1.
          1    1    1    2  501    0 -0.11682691764E+03 -0.94348577958E+02  0.10431855260E+03  0.18284568156E+03  0.00000000000E+00 0. -1.
<scales pt_clust_5="13000.00000" pt_clust_6="13000.00000" pt_clust_7="13000.00000" pt_clust_8="13000.00000" pt_clust_9="21.62112" pt_clust_10="262.72760"></scales>
<clustering>
<clus scale="   21.621">  9 10 -1 -1</clus>
<clus scale="   78.501">  5  6 -1 -1</clus>
<clus scale="   94.141">  1  5  2 -1</clus>
<clus scale="  111.826">  7  8 -1 -1</clus>
<clus scale="  262.728">  2  9  1 -1</clus>
<clus scale="  262.728">  2  5  1 -1</clus>
</clustering>
</event>
<event>
10    4  0.3043429E-005  0.1230697E+03  0.7546771E-02  0.1240634E+00
          2   -1    0    0  503    0 -0.00000000000E+00  0.00000000000E+00  0.42272491842E+03  0.42272491842E+03  0.00000000000E+00 0. -1.
         21   -1    0    0  501  502  0.00000000000E+00 -0.00000000000E+00 -0.32810914674E+03  0.32810914674E+03  0.00000000000E+00 0.  1.
         24    2    1    2    0    0  0.79350864043E+02 -0.55831450925E+02  0.26649616429E+03  0.29528686145E+03  0.82221739408E+02 0.  0.
         23    2    1    2    0    0 -0.34159110805E+02  0.12057539561E+02 -0.21084285450E+01  0.97725257091E+02  0.90738918284E+02 0.  0.
        -11    1    3    3    0    0  0.71570049418E+02 -0.14159077894E+02  0.10193787047E+03  0.12535581716E+03  0.00000000000E+00 0.  1.
         12    1    3    3    0    0  0.77808146246E+01 -0.41672373032E+02  0.16455829382E+03  0.16993104429E+03  0.00000000000E+00 0. -1.
        -11    1    4    4    0    0  0.27693736174E+02  0.20738058138E+02 -0.61309911939E+01  0.35136862860E+02  0.00000000000E+00 0. -1.
         11    1    4    4    0    0 -0.61852846979E+02 -0.86805185764E+01  0.40225626489E+01  0.62588394231E+02  0.00000000000E+00 0.  1.
         21    1    1    2  503  502 -0.25582611129E+02  0.35809874308E+02 -0.26073809418E+03  0.26442611604E+03  0.00000000000E+00 0.  1.
          1    1    1    2  501    0 -0.19609142110E+02  0.79640370558E+01  0.90966130110E+02  0.93395830569E+02  0.00000000000E+00 0. -1.
<scales pt_clust_5="13000.00000" pt_clust_6="13000.00000" pt_clust_7="13000.00000" pt_clust_8="13000.00000" pt_clust_9="59.07563" pt_clust_10="21.16471"></scales>
<clustering>
<clus scale="   21.165">  2 10  1 -1</clus>
<clus scale="   59.076">  2  9  1 -1</clus>
<clus scale="   82.222">  5  6 -1 -1</clus>
<clus scale="   90.739">  7  8 -1 -1</clus>
<clus scale="  116.932">  1  5  2 -1</clus>
<clus scale="   21.165">  2  5  1 -1</clus>
</clustering>
</event>
<event>
10    4  0.3043429E-005  0.3229233E+03  0.7546771E-02  0.1074728E+00
         21   -1    0    0  501  502  0.00000000000E+00  0.00000000000E+00  0.16808970858E+03  0.16808970858E+03  0.00000000000E+00 0.  1.
          2   -1    0    0  503    0 -0.00000000000E+00 -0.00000000000E+00 -0.14048095681E+04  0.14048095681E+04  0.00000000000E+00 0. -1.
         23    2    1    2    0    0 -0.67453786228E+02 -0.30533201843E+03 -0.37824632036E+03  0.49772036088E+03  0.82931441674E+02 0.  0.
         24    2    1    2    0    0  0.17475688779E+03  0.24861649935E+03 -0.18801309931E+03  0.37002041768E+03  0.96000262559E+02 0.  0.
        -11    1    4    4    0    0  0.11889645882E+03  0.18474359702E+03 -0.82629936600E+02  0.23472168835E+03  0.00000000000E+00 0.  1.
         12    1    4    4    0    0  0.55860428968E+02  0.63872902334E+02 -0.10538316271E+03  0.13529872933E+03  0.00000000000E+00 0. -1.
        -13    1    3    3    0    0 -0.23200799346E+02 -0.25258894693E+03 -0.28074835489E+03  0.37836370330E+03  0.00000000000E+00 0. -1.
         13    1    3    3    0    0 -0.44252986882E+02 -0.52743071504E+02 -0.97497965467E+02  0.11935665759E+03  0.00000000000E+00 0.  1.
         21    1    1    2  503  502 -0.59751220301E+02 -0.41869086208E+02 -0.97165977862E+02  0.12150907769E+03  0.00000000000E+00 0.  1.
          1    1    1    2  501    0 -0.47551881263E+02  0.98584605288E+02 -0.57329446197E+03  0.58364942041E+03  0.00000000000E+00 0. -1.
<scales pt_clust_5="13000.00000" pt_clust_6="13000.00000" pt_clust_7="13000.00000" pt_clust_8="13000.00000" pt_clust_9="72.96046" pt_clust_10="109.05374"></scales>
<clustering>
<clus scale="   72.960">  2  9  1 -1</clus>
<clus scale="   82.931">  7  8 -1 -1</clus>
<clus scale="   96.000">  5  6 -1 -1</clus>
<clus scale="  109.054">  1 10  2 -1</clus>
<clus scale="  319.282">  2  7  1 -1</clus>
<clus scale="  109.054">  1  5  2 -1</clus>
</clustering>
</event>
<event>
10    4  0.7387130E-005  0.9520056E+03  0.7546771E-02  0.9893885E-01
         21   -1    0    0  503  502  0.00000000000E+00  0.00000000000E+00  0.13939119877E+04  0.13939119877E+04  0.00000000000E+00 0. -1.
          2   -1    0    0  502    0 -0.00000000000E+00 -0.00000000000E+00 -0.13475181510E+04  0.13475181510E+04  0.00000000000E+00 0. -1.
         23    2    1    2    0    0  0.58068127157E+02 -0.11217722581E+03 -0.31688073771E+03  0.35311283491E+03  0.91212032464E+02 0.  0.
         24    2    1    2    0    0 -0.72767424660E+03 -0.55804466037E+03  0.56760989783E+03  0.10818126349E+04  0.84934850260E+02 0.  0.
        -11    1    4    4    0    0 -0.32285597043E+03 -0.28600512576E+03  0.23185377711E+03  0.48968467769E+03  0.00000000000E+00 0.  1.
         12    1    4    4    0    0 -0.40481827617E+03 -0.27203953461E+03  0.33575612073E+03  0.59212795722E+03  0.00000000000E+00 0. -1.
        -13    1    3    3    0    0  0.34996136963E+02  0.24491590791E+01 -0.44271201459E+02  0.56485991725E+02  0.00000000000E+00 0.  1.
         13    1    3    3    0    0  0.23071990194E+02 -0.11462638489E+03 -0.27260953625E+03  0.29662684319E+03  0.00000000000E+00 0. -1.
         21    1    1    2  503  501 -0.27652927328E+02 -0.20689188375E+02  0.23038162068E+03  0.23295582854E+03  0.00000000000E+00 0. -1.
          1    1    1    2  501    0  0.69725904678E+03  0.69091107455E+03 -0.43471694406E+03  0.10735488404E+04  0.00000000000E+00 0. -1.
<scales pt_clust_5="13000.00000" pt_clust_6="13000.00000" pt_clust_7="13000.00000" pt_clust_8="13000.00000" pt_clust_9="34.53588" pt_clust_10="948.20970"></scales>
<clustering>
<clus scale="   34.536">  1  9  2 -1</clus>
<clus scale="   84.935">  5  6 -1 -1</clus>
<clus scale="   91.212">  7  8 -1 -1</clus>
<clus scale="  155.878">  2  7  1 -1</clus>
<clus scale="  948.210">  1 10  2 -1</clus>
<clus scale="   34.536">  1  5  2 -1</clus>
</clustering>
</event>
<event>
10    4  0.3043429E-005  0.1146719E+03  0.7546771E-02  0.1260230E+00
          2   -1    0    0  503    0 -0.00000000000E+00  0.00000000000E+00  0.51178509405E+03  0.51178509405E+03  0.00000000000E+00 0. -1.
         21   -1    0    0  501  502  0.00000000000E+00 -0.00000000000E+00 -0.31757431664E+03  0.31757431664E+03  0.00000000000E+00 0. -1.
         24    2    1    2    0    0  0.59344928318E+02 -0.42771664219E+01  0.44350700508E+03  0.45467419316E+03  0.80560807429E+02 0.  0.
         23    2    1    2    0    0 -0.20083922088E+02 -0.65384326319E+01  0.65036208337E+01  0.10282878307E+03  0.10042582594E+03 0.  0.
        -13    1    3    3    0    0 -0.93343808682E+01  0.23577604232E+02  0.13762719693E+03  0.13994384382E+03  0.00000000000E+00 0.  1.
         14    1    3    3    0    0  0.68679309187E+02 -0.27854770654E+02  0.30587980815E+03  0.31473034934E+03  0.00000000000E+00 0. -1.
        -13    1    4    4    0    0 -0.41196192143E+02  0.26408765953E+02 -0.22757504311E+02  0.53967148977E+02  0.00000000000E+00 0.  1.
         13    1    4    4    0    0  0.21112270055E+02 -0.32947198584E+02  0.29261125144E+02  0.48861634092E+02  0.00000000000E+00 0. -1.
         21    1    1    2  503  502 -0.16188787224E+02 -0.22944933629E+02 -0.25426450113E+02  0.37882069325E+02  0.00000000000E+00 0.  1.
          1    1    1    2  501    0 -0.23072219006E+02  0.33760532682E+02 -0.23037339839E+03  0.23397436514E+03  0.00000000000E+00 0. -1.
<scales pt_clust_5="13000.00000" pt_clust_6="13000.00000" pt_clust_7="13000.00000" pt_clust_8="13000.00000" pt_clust_9="28.08108" pt_clust_10="39.25065"></scales>
<clustering>
<clus scale="   28.081">  2  9  1 -1</clus>
<clus scale="   39.251">  2 10  1 -1</clus>
<clus scale="   80.561">  5  6 -1 -1</clus>
<clus scale="   97.746">  1  5  2 -1</clus>
<clus scale="  100.426">  7  8 -1 -1</clus>
<clus scale="   28.081">  2  5  1 -1</clus>
</clustering>
</event>
<event>
10    4  0.3043429E-005  0.1723764E+03  0.7546771E-02  0.1201779E+00
          2   -1    0    0  503    0 -0.00000000000E+00  0.00000000000E+00  0.53500946396E+03  0.53500946396E+03  0.00000000000E+00 0. -1.
         21   -1    0    0  501  502  0.00000000000E+00 -0.00000000000E+00 -0.26200128211E+03  0.26200128211E+03  0.00000000000E+00 0.  1.
         24    2    1    2    0    0  0.23366300891E+02 -0.45734206741E+02 -0.14946807511E+03  0.17764562048E+03  0.81115099187E+02 0.  0.
         23    2    1    2    0    0  0.10523543887E+03  0.94923556983E+02  0.34021029254E+02  0.17236975359E+03  0.92026747510E+02 0.  0.
        -11    1    3    3    0    0  0.29004070442E+01 -0.61582171991E+02 -0.13397392594E+03  0.14747809702E+03  0.00000000000E+00 0.  1.
         12    1    3    3    0    0  0.20465893847E+02  0.15847965250E+02 -0.15494149170E+02  0.30167523465E+02  0.00000000000E+00 0. -1.
        -13    1    4    4    0    0  0.24427410121E+02 -0.13629489227E+02 -0.10542226544E+02  0.29893141058E+02  0.00000000000E+00 0.  1.
         13    1    4    4    0    0  0.80808028748E+02  0.10855304621E+03  0.44563255798E+02  0.14247661253E+03  0.00000000000E+00 0. -1.
         21    1    1    2  503  502  0.30840650394E+02  0.10448250179E+02  0.13582281428E+02  0.35281581843E+02  0.00000000000E+00 0.  1.
          1    1    1    2  501    0 -0.15944239015E+03 -0.59637600421E+02  0.37487294627E+03  0.41171379016E+03  0.00000000000E+00 0. -1.
<scales pt_clust_5="13000.00000" pt_clust_6="13000.00000" pt_clust_7="13000.00000" pt_clust_8="13000.00000" pt_clust_9="32.56243" pt_clust_10="145.75569"></scales>
<clustering>
<clus scale="   32.562">  1  9  2 -1</clus>
<clus scale="   81.115">  5  6 -1 -1</clus>
<clus scale="   92.027">  7  8 -1 -1</clus>
<clus scale="   96.081">  1  5  2 -1</clus>
<clus scale="  145.756">  2 10  1 -1</clus>
<clus scale="  145.756">  2  5  1 -1</clus>
</clustering>
</event>
<event>
10    4  0.3043429E-005  0.1892376E+03  0.7546771E-02  0.1192937E+00
         21   -1    0    0  503  502  0.00000000000E+00  0.00000000000E+00  0.16987555135E+03  0.16987555135E+03  0.00000000000E+00 0.  1.
         -1   -1    0    0    0  501 -0.00000000000E+00 -0.00000000000E+00 -0.10425869739E+04  0.10425869739E+04  0.00000000000E+00 0.  1.
         24    2    1    2    0    0 -0.42761975969E+02  0.20955597337E+02 -0.26077951808E+02  0.95106624446E+02  0.78086405952E+02 0.  0.
         23    2    1    2    0    0  0.81497633740E+02 -0.12196250971E+03 -0.23235552332E+02  0.17477518329E+03  0.92139870414E+02 0.  0.
        -13    1    3    3    0    0 -0.54511104067E+02  0.39828067740E+02 -0.11398601511E+02  0.68466514173E+02  0.00000000000E+00 0.  1.
         14    1    3    3    0    0  0.11749128099E+02 -0.18872470404E+02 -0.14679350297E+02  0.26640110273E+02  0.00000000000E+00 0. -1.
        -13    1    4    4    0    0  0.93649094741E+02 -0.97225676295E+02  0.53091046829E+01  0.13509689733E+03  0.00000000000E+00 0.  1.
         13    1    4    4    0    0 -0.12151461000E+02 -0.24736833417E+02 -0.28544657015E+02  0.39678285952E+02  0.00000000000E+00 0. -1.
         21    1    1    2  503  501  0.12013109212E+02 -0.33247681032E+02  0.47904470538E+02  0.59536219098E+02  0.00000000000E+00 0.  1.
         -2    1    1    2    0  502 -0.50748766984E+02  0.13425459341E+03 -0.87130238898E+03  0.88304449845E+03  0.00000000000E+00 0.  1.
<scales pt_clust_5="13000.00000" pt_clust_6="13000.00000" pt_clust_7="13000.00000" pt_clust_8="13000.00000" pt_clust_9="35.35142" pt_clust_10="165.29108"></scales>
<clustering>
<clus scale="   35.351">  1  9  2 -1</clus>
<clus scale="   78.086">  5  6 -1 -1</clus>
<clus scale="   88.069">  2  5  1 -1</clus>
<clus scale="   92.140">  7  8 -1 -1</clus>
<clus scale="  165.291">  1 10  2 -1</clus>
<clus scale="   35.351">  1  5  2 -1</clus>
</clustering>
</event>
<event>
10    4  0.3043429E-005  0.1014223E+03  0.7546771E-02  0.1282785E+00
         21   -1    0    0  503  502  0.00000000000E+00  0.00000000000E+00  0.15288272637E+03  0.15288272637E+03  0.00000000000E+00 0.  1.
          2   -1    0    0  502    0 -0.00000000000E+00 -0.00000000000E+00 -0.46163174003E+03  0.46163174003E+03  0.00000000000E+00 0. -1.
         24    2    1    2    0    0 -0.50794339773E+02  0.12350573180E+01 -0.11483251102E+03  0.14942263856E+03  0.80987832472E+02 0.  0.
         23    2    1    2    0    0 -0.12035984296E+02  0.31352341144E+02  0.89062995555E+02  0.13246316454E+03  0.92121868032E+02 0.  0.
        -11    1    3    3    0    0 -0.30485228503E+01  0.34845016642E+02 -0.28100271117E+02  0.44867515121E+02  0.00000000000E+00 0.  1.
         12    1    3    3    0    0 -0.47745816923E+02 -0.33609959324E+02 -0.86732239904E+02  0.10455512344E+03  0.00000000000E+00 0. -1.
        -11    1    4    4    0    0  0.20452051921E+02  0.50206898525E+02  0.28631571506E+02  0.61308938778E+02  0.00000000000E+00 0. -1.
         11    1    4    4    0    0 -0.32488036217E+02 -0.18854557381E+02  0.60431424049E+02  0.71154225762E+02  0.00000000000E+00 0.  1.
         21    1    1    2  503  501 -0.89197492896E+01 -0.50214540925E+02 -0.12873851805E+02  0.52600362242E+02  0.00000000000E+00 0. -1.
          1    1    1    2  501    0  0.71750073359E+02  0.17627142463E+02 -0.27010564639E+03  0.28002830105E+03  0.00000000000E+00 0. -1.
<scales pt_clust_5="13000.00000" pt_clust_6="13000.00000" pt_clust_7="13000.00000" pt_clust_8="13000.00000" pt_clust_9="51.00061" pt_clust_10="73.13443"></scales>
<clustering>
<clus scale="   51.001">  1  9  2 -1</clus>
<clus scale="   73.134">  1 10  2 -1</clus>
<clus scale="   80.988">  5  6 -1 -1</clus>
<clus scale="   91.428">  2  5  1 -1</clus>
<clus scale="   92.122">  7  8 -1 -1</clus>
<clus scale="   51.001">  1  5  2 -1</clus>
</clustering>
</event>
<event>
10    4  0.3043429E-005  0.1994442E+03  0.7546771E-02  0.1173140E+00
         21   -1    0    0  503  502  0.00000000000E+00  0.00000000000E+00  0.14821023187E+03  0.14821023187E+03  0.00000000000E+00 0. -1.
          2   -1    0    0  502    0 -0.00000000000E+00 -0.00000000000E+00 -0.82158407467E+03  0.82158407467E+03  0.00000000000E+00 0. -1.
         24    2    1    2    0    0  0.75035615186E+02 -0.34630377031E+02 -0.36300221661E+03  0.38055240897E+03  0.78866470395E+02 0.  0.
         23    2    1    2    0    0 -0.26013278998E+03 -0.25461489718E+02 -0.16249392938E+03  0.32136602639E+03  0.92490485745E+02 0.  0.
        -13    1    3    3    0    0  0.87405331563E+02 -0.13029497736E+02 -0.30208900589E+03  0.31474946748E+03  0.00000000000E+00 0.  1.
         14    1    3    3    0    0 -0.12369716377E+02 -0.21600879295E+02 -0.60913210718E+02  0.65802941496E+02  0.00000000000E+00 0. -1.
        -13    1    4    4    0    0 -0.46604666982E+02 -0.41745402833E+02 -0.45325316239E+02  0.77259678580E+02  0.00000000000E+00 0.  1.
         13    1    4    4    0    0 -0.21352812300E+03  0.16283913115E+02 -0.11716861314E+03  0.24410634781E+03  0.00000000000E+00 0. -1.
         21    1    1    2  503  501  0.66189753048E+02  0.28394510606E+02  0.43193061026E+01  0.72152533194E+02  0.00000000000E+00 0. -1.
          1    1    1    2  501    0  0.11890742174E+03  0.31697356143E+02 -0.15219700292E+03  0.19572333798E+03  0.00000000000E+00 0. -1.
<scales pt_clust_5="13000.00000" pt_clust_6="13000.00000" pt_clust_7="13000.00000" pt_clust_8="13000.00000" pt_clust_9="72.02313" pt_clust_10="176.70183"></scales>
<clustering>
<clus scale="   72.023">  1  9  2 -1</clus>
<clus scale="   78.866">  5  6 -1 -1</clus>
<clus scale="   92.490">  7  8 -1 -1</clus>
<clus scale="  117.125">  2  5  1 -1</clus>
<clus scale="  176.702">  1 10  2 -1</clus>
<clus scale="   72.023">  1  5  2 -1</clus>
</clustering>
</event>
<event>
10    4  0.3043429E-005  0.3400772E+03  0.7546771E-02  0.1067092E+00
         21   -1    0    0  503  502  0.00000000000E+00  0.00000000000E+00  0.30234051226E+03  0.30234051226E+03  0.00000000000E+00 0. -1.
         -1   -1    0    0    0  501 -0.00000000000E+00 -0.00000000000E+00 -0.12601128789E+04  0.12601128789E+04  0.00000000000E+00 0.  1.
         23    2    1    2    0    0 -0.30478034919E+03 -0.14531837973E+03 -0.10756296735E+04  0.11309884295E+04  0.90261511896E+02 0.  0.
         24    2    1    2    0    0  0.25818222267E+03  0.94046427853E+02  0.20694663130E+02  0.28635037028E+03  0.77881158051E+02 0.  0.
        -13    1    4    4    0    0  0.71989537797E+02 -0.37391940631E+01  0.24116980173E+02  0.76013839905E+02  0.00000000000E+00 0.  1.
         14    1    4    4    0    0  0.18619268488E+03  0.97785621916E+02 -0.34223170425E+01  0.21033653037E+03  0.00000000000E+00 0. -1.
        -11    1    3    3    0    0 -0.16227006881E+03 -0.81159361278E+02 -0.72044726136E+03  0.74294190457E+03  0.00000000000E+00 0.  1.
         11    1    3    3    0    0 -0.14251028038E+03 -0.64159018454E+02 -0.35518241212E+03  0.38804652497E+03  0.00000000000E+00 0. -1.
         21    1    1    2  503  501 -0.18767768259E+02  0.36088871197E+02  0.36243224217E+02  0.54481254128E+02  0.00000000000E+00 0.  1.
         -2    1    1    2    0  502  0.65365894781E+02  0.15183080681E+02  0.60919419503E+02  0.90633337201E+02  0.00000000000E+00 0.  1.
<scales pt_clust_5="13000.00000" pt_clust_6="13000.00000" pt_clust_7="13000.00000" pt_clust_8="13000.00000" pt_clust_9="40.67721" pt_clust_10="65.16715"></scales>
<clustering>
<clus scale="   40.677">  1  9  2 -1</clus>
<clus scale="   65.167">  1 10  2 -1</clus>
<clus scale="   77.881">  5  6 -1 -1</clus>
<clus scale="   90.262">  7  8 -1 -1</clus>
<clus scale="  337.003">  1  5  2 -1</clus>
<clus scale="   40.677">  1  5  2 -1</clus>
</clustering>
</event>
<event>
10    4  0.3043429E-005  0.2184165E+03  0.7546771E-02  0.1171629E+00
          2   -1    0    0  502    0 -0.00000000000E+00  0.00000000000E+00  0.95137749662E+03  0.95137749662E+03  0.00000000000E+00 0. -1.
         21   -1    0    0  503  502  0.00000000000E+00 -0.00000000000E+00 -0.13539713105E+03  0.13539713105E+03  0.00000000000E+00 0.  1.
         24    2    1    2    0    0  0.19503234832E+02  0.38402597260E+02  0.31656025930E+03  0.32975717832E+03  0.81696164186E+02 0.  0.
         23    2    1    2    0    0 -0.24097208582E+03  0.78305048475E+02  0.16901346645E+03  0.31760456119E+03  0.90043759849E+02 0.  0.
        -13    1    3    3    0    0  0.36767593304E+02  0.56236910074E+02  0.21800034071E+03  0.22811969341E+03  0.00000000000E+00 0.  1.
         14    1    3    3    0    0 -0.17264358473E+02 -0.17834312814E+02  0.98559918592E+02  0.10163748491E+03  0.00000000000E+00 0. -1.
        -11    1    4    4    0    0 -0.18158215190E+03  0.71885279352E+02  0.81432118587E+02  0.21159102347E+03  0.00000000000E+00 0.  1.
         11    1    4    4    0    0 -0.59389933915E+02  0.64197691226E+01  0.87581347859E+02  0.10601353771E+03  0.00000000000E+00 0. -1.
         21    1    1    2  503  501  0.62233059582E+02 -0.38062448000E+02  0.10756038734E+02  0.73738700978E+02  0.00000000000E+00 0.  1.
          1    1    1    2  501    0  0.15923579140E+03 -0.78645197735E+02  0.31965060109E+03  0.36567418718E+03  0.00000000000E+00 0. -1.
<scales pt_clust_5="13000.00000" pt_clust_6="13000.00000" pt_clust_7="13000.00000" pt_clust_8="13000.00000" pt_clust_9="72.95001" pt_clust_10="198.99224"></scales>
<clustering>
<clus scale="   72.950">  2  9  1 -1</clus>
<clus scale="   81.696">  5  6 -1 -1</clus>
<clus scale="   90.044">  7  8 -1 -1</clus>
<clus scale="   92.300">  1  5  2 -1</clus>
<clus scale="  198.992">  2 10  1 -1</clus>
<clus scale="   72.950">  2  5  1 -1</clus>
</clustering>
</event>
<event>
10    4  0.3043429E-005  0.1433704E+03  0.7546771E-02  0.1208953E+00
         21   -1    0    0  503  502  0.00000000000E+00  0.00000000000E+00  0.12776001316E+03  0.12776001316E+03  0.00000000000E+00 0. -1.
          2   -1    0    0  502    0 -0.00000000000E+00 -0.00000000000E+00 -0.42488049245E+03  0.42488049245E+03  0.00000000000E+00 0. -1.
         24    2    1    2    0    0 -0.47034057667E+02  0.15390359106E+03 -0.16087257562E+03  0.24544451746E+03  0.92002758878E+02 0.  0.
         23    2    1    2    0    0 -0.29898263534E+02 -0.65356659923E+02 -0.37874047182E+02  0.12241965205E+03  0.91579083848E+02 0.  0.
        -11    1    3    3    0    0  0.10450981371E+02  0.80106652797E+02 -0.33604252290E+02  0.87495969084E+02  0.00000000000E+00 0.  1.
         12    1    3    3    0    0 -0.57485039039E+02  0.73796938268E+02 -0.12726832333E+03  0.15794854837E+03  0.00000000000E+00 0. -1.
        -13    1    4    4    0    0 -0.37700397355E+02 -0.36901672125E+02 -0.64048699620E+02  0.82977643311E+02  0.00000000000E+00 0.  1.
         13    1    4    4    0    0  0.78021338207E+01 -0.28454987798E+02  0.26174652439E+02  0.39442008735E+02  0.00000000000E+00 0. -1.
         21    1    1    2  503  501  0.31907636760E+02 -0.10643715683E+02  0.17622421880E+02  0.37972828708E+02  0.00000000000E+00 0. -1.
          1    1    1    2  501    0  0.45024684442E+02 -0.77903215459E+02 -0.11599627837E+03  0.14680350739E+03  0.00000000000E+00 0. -1.
<scales pt_clust_5="13000.00000" pt_clust_6="13000.00000" pt_clust_7="13000.00000" pt_clust_8="13000.00000" pt_clust_9="33.63608" pt_clust_10="93.92179"></scales>
<clustering>
<clus scale="   33.636">  1  9  2 -1</clus>
<clus scale="   91.579">  7  8 -1 -1</clus>
<clus scale="   92.003">  5  6 -1 -1</clus>
<clus scale="   93.922">  1 10  2 -1</clus>
<clus scale="  143.099">  1  7  2 -1</clus>
<clus scale="   33.636">  1  5  2 -1</clus>
</clustering>
</event>
<event>
10    4  0.3043429E-005  0.1166009E+03  0.7546771E-02  0.1254028E+00
         21   -1    0    0  503  502  0.00000000000E+00  0.00000000000E+00  0.20363077498E+03  0.20363077498E+03  0.00000000000E+00 0.  1.
          2   -1    0    0  502    0 -0.00000000000E+00 -0.00000000000E+00 -0.35831690040E+03  0.35831690040E+03  0.00000000000E+00 0. -1.
         23    2    1    2    0    0  0.37687790254E+02 -0.74248885988E+02 -0.13461077602E+03  0.18421679841E+03  0.94247022185E+02 0.  0.
         24    2    1    2    0    0  0.33747251588E+02  0.35093736344E+01  0.12138358492E+03  0.14904839807E+03  0.79562915899E+02 0.  0.
        -13    1    4    4    0    0 -0.26263823931E+02  0.27523479342E+00  0.40775280319E+02  0.48502450317E+02  0.00000000000E+00 0.  1.
         14    1    4    4    0    0  0.60011075519E+02  0.32341388410E+01  0.80608304598E+02  0.10054594775E+03  0.00000000000E+00 0. -1.
        -13    1    3    3    0    0 -0.21486478008E+01 -0.77788431271E+02 -0.11700474006E+03  0.14051962825E+03  0.00000000000E+00 0.  1.
         13    1    3    3    0    0  0.39836438054E+02  0.35395452832E+01 -0.17606035960E+02  0.43697170159E+02  0.00000000000E+00 0. -1.
         21    1    1    2  503  501 -0.11569289636E+01  0.39459467088E+02  0.24011424486E+02  0.46205373425E+02  0.00000000000E+00 0.  1.
          1    1    1    2  501    0 -0.70278112878E+02  0.31280045266E+02 -0.16547035880E+03  0.18247710547E+03  0.00000000000E+00 0. -1.
<scales pt_clust_5="13000.00000" pt_clust_6="13000.00000" pt_clust_7="13000.00000" pt_clust_8="13000.00000" pt_clust_9="39.47642" pt_clust_10="77.80870"></scales>
<clustering>
<clus scale="   39.476">  1  9  2 -1</clus>
<clus scale="   77.809">  1 10  2 -1</clus>
<clus scale="   79.563">  5  6 -1 -1</clus>
<clus scale="   94.247">  7  8 -1 -1</clus>
<clus scale="  105.088">  1  5  2 -1</clus>
<clus scale="   39.476">  1  5  2 -1</clus>
</clustering>
</event>
<event>
10    4  0.3043429E-005  0.1422019E+03  0.7546771E-02  0.1229921E+00
         21   -1    0    0  501  502  0.00000000000E+00  0.00000000000E+00  0.27167428995E+03  0.27167428995E+03  0.00000000000E+00 0.  1.
          2   -1    0    0  503    0 -0.00000000000E+00 -0.00000000000E+00 -0.45444533731E+03  0.45444533731E+03  0.00000000000E+00 0. -1.
         24    2    1    2    0    0 -0.14793906710E+02  0.49253242667E+02 -0.69425573155E+01  0.94211818546E+02  0.78631584384E+02 0.  0.
         23    2    1    2    0    0  0.53461837642E+02  0.44728080996E+02  0.17236983447E+03  0.20855258321E+03  0.94467194382E+02 0.  0.
        -11    1    3    3    0    0  0.12098435131E+02  0.62715845634E+02 -0.53491538784E+01  0.64095732100E+02  0.00000000000E+00 0.  1.
         12    1    3    3    0    0 -0.26892341841E+02 -0.13462602967E+02 -0.15934034371E+01  0.30116086446E+02  0.00000000000E+00 0. -1.
        -13    1    4    4    0    0  0.61159673464E+02 -0.16227855435E+01  0.55548484688E+02  0.82636391755E+02  0.00000000000E+00 0. -1.
         13    1    4    4    0    0 -0.76978358224E+01  0.46350866540E+02  0.11682134978E+03  0.12591619146E+03  0.00000000000E+00 0.  1.
         21    1    1    2  503  502  0.44207329253E+02  0.14061285784E+02  0.31967968817E+01  0.46499755137E+02  0.00000000000E+00 0. -1.
          1    1    1    2  501    0 -0.82875260185E+02 -0.10804260945E+03 -0.35139512140E+03  0.37685547037E+03  0.00000000000E+00 0. -1.
<scales pt_clust_5="13000.00000" pt_clust_6="13000.00000" pt_clust_7="13000.00000" pt_clust_8="13000.00000" pt_clust_9="46.38974" pt_clust_10="106.28898"></scales>
<clustering>
<clus scale="   46.390">  1  9  2 -1</clus>
<clus scale="   78.632">  5  6 -1 -1</clus>
<clus scale="   94.385">  2  5  1 -1</clus>
<clus scale="   94.467">  7  8 -1 -1</clus>
<clus scale="  106.289">  1 10  2 -1</clus>
<clus scale="   46.390">  1  5  2 -1</clus>
</clustering>
</event>
<event>
10    4  0.3043429E-005  0.1118140E+03  0.7546771E-02  0.1258685E+00
          2   -1    0    0  503    0 -0.00000000000E+00  0.00000000000E+00  0.29728784844E+04  0.29728784844E+04  0.00000000000E+00 0. -1.
         21   -1    0    0  501  502  0.00000000000E+00 -0.00000000000E+00 -0.14851669466E+02  0.14851669466E+02  0.00000000000E+00 0. -1.
         24    2    1    2    0    0  0.64800040342E+02 -0.34935702645E+02  0.22043302424E+04  0.22071885465E+04  0.84793358745E+02 0.  0.
         23    2    1    2    0    0 -0.71591332935E+02  0.13045863085E+02  0.49713324986E+03  0.50885897249E+03  0.80625506331E+02 0.  0.
        -13    1    3    3    0    0  0.19291707138E+02 -0.10884635600E+02  0.10908768950E+03  0.11131383228E+03  0.00000000000E+00 0.  1.
         14    1    3    3    0    0  0.45508333204E+02 -0.24051067045E+02  0.20952425529E+04  0.20958747142E+04  0.00000000000E+00 0. -1.
        -11    1    4    4    0    0 -0.56261448615E+02 -0.28741012578E+02  0.32351178647E+03  0.32962292455E+03  0.00000000000E+00 0.  1.
         11    1    4    4    0    0 -0.15329884320E+02  0.41786875663E+02  0.17362146339E+03  0.17923604794E+03  0.00000000000E+00 0. -1.
         21    1    1    2  503  502  0.75704819529E+01 -0.30458156049E+02  0.14620524290E+03  0.14953589709E+03  0.00000000000E+00 0.  1.
          1    1    1    2  501    0 -0.77918935962E+00  0.52347995609E+02  0.11035807974E+03  0.12214673775E+03  0.00000000000E+00 0. -1.
<scales pt_clust_5="13000.00000" pt_clust_6="13000.00000" pt_clust_7="13000.00000" pt_clust_8="13000.00000" pt_clust_9="31.38489" pt_clust_10="38.82061"></scales>
<clustering>
<clus scale="   31.385">  2  9  1 -1</clus>
<clus scale="   38.821">  2 10  1 -1</clus>
<clus scale="   80.626">  7  8 -1 -1</clus>
<clus scale="   84.793">  5  6 -1 -1</clus>
<clus scale="  108.687">  2  7  1 -1</clus>
<clus scale="   31.385">  2  5  1 -1</clus>
</clustering>
</event>
<event>
10    4  0.3043429E-005  0.2374079E+03  0.7546771E-02  0.1152057E+00
         21   -1    0    0  503  502  0.00000000000E+00  0.00000000000E+00  0.57198707742E+03  0.57198707742E+03  0.00000000000E+00 0.  1.
          2   -1    0    0  502    0 -0.00000000000E+00 -0.00000000000E+00 -0.31864942316E+03  0.31864942316E+03  0.00000000000E+00 0. -1.
         23    2    1    2    0    0  0.63568332209E+02 -0.18485161065E+02 -0.67718785467E+02  0.13083105624E+03  0.90267919736E+02 0.  0.
         24    2    1    2    0    0  0.16996341131E+03 -0.76215046024E+02  0.26352888744E+03  0.33590482943E+03  0.93210973014E+02 0.  0.
        -13    1    4    4    0    0  0.13426099998E+03 -0.52316180362E+02  0.12463302544E+03  0.19051611447E+03  0.00000000000E+00 0.  1.
         14    1    4    4    0    0  0.35702411331E+02 -0.23898865662E+02  0.13889586200E+03  0.14538871495E+03  0.00000000000E+00 0. -1.
        -13    1    3    3    0    0  0.74545132753E+02 -0.40987889198E+02 -0.61673669882E+02  0.10507438049E+03  0.00000000000E+00 0. -1.
         13    1    3    3    0    0 -0.10976800544E+02  0.22502728133E+02 -0.60451155844E+01  0.25756675757E+02  0.00000000000E+00 0.  1.
         21    1    1    2  503  501  0.36074074030E+02  0.21254458460E+02  0.12887422237E+03  0.13550518814E+03  0.00000000000E+00 0.  1.
          1    1    1    2  501    0 -0.26960581755E+03  0.73445748628E+02 -0.71346670089E+02  0.28839542677E+03  0.00000000000E+00 0. -1.
<scales pt_clust_5="13000.00000" pt_clust_6="13000.00000" pt_clust_7="13000.00000" pt_clust_8="13000.00000" pt_clust_9="41.86993" pt_clust_10="218.34439"></scales>
<clustering>
<clus scale="   41.870">  1  9  2 -1</clus>
<clus scale="   90.268">  7  8 -1 -1</clus>
<clus scale="   93.211">  5  6 -1 -1</clus>
<clus scale="  113.193">  2  7  1 -1</clus>
<clus scale="  218.344">  1 10  2 -1</clus>
<clus scale="   41.870">  1  5  2 -1</clus>
</clustering>
</event>
<event>
10    4  0.3043429E-005  0.4525382E+03  0.7546771E-02  0.1027026E+00
         21   -1    0    0  503  502  0.00000000000E+00  0.00000000000E+00  0.25614184264E+03  0.25614184264E+03  0.00000000000E+00 0.  1.
          2   -1    0    0  502    0 -0.00000000000E+00 -0.00000000000E+00 -0.14661192876E+04  0.14661192876E+04  0.00000000000E+00 0. -1.
         24    2    1    2    0    0  0.28825412954E+03 -0.27903114723E+03 -0.47320056384E+03  0.62654086089E+03  0.87668993503E+02 0.  0.
         23    2    1    2    0    0 -0.36628113787E+03  0.33174382086E+03 -0.58685191996E+03  0.77265873039E+03  0.91599689140E+02 0.  0.
        -11    1    3    3    0    0  0.14962737945E+03 -0.88016541436E+02 -0.22274415296E+03  0.28240081786E+03  0.00000000000E+00 0.  1.
         12    1    3    3    0    0  0.13862675009E+03 -0.19101460580E+03 -0.25045641088E+03  0.34414004303E+03  0.00000000000E+00 0. -1.
        -11    1    4    4    0    0 -0.25073336969E+03  0.27638136389E+03 -0.46041514426E+03  0.59265165658E+03  0.00000000000E+00 0.  1.
         11    1    4    4    0    0 -0.11554776818E+03  0.55362456974E+02 -0.12643677569E+03  0.18000707381E+03  0.00000000000E+00 0. -1.
         21    1    1    2  503  501  0.48303975066E+01 -0.44386495102E+02  0.74500029870E+02  0.86854753112E+02  0.00000000000E+00 0. -1.
          1    1    1    2  501    0  0.73196610816E+02 -0.83261785251E+01 -0.22442499106E+03  0.23620678588E+03  0.00000000000E+00 0. -1.
<scales pt_clust_5="13000.00000" pt_clust_6="13000.00000" pt_clust_7="13000.00000" pt_clust_8="13000.00000" pt_clust_9="44.64856" pt_clust_10="74.01269"></scales>
<clustering>
<clus scale="   44.649">  1  9  2 -1</clus>
<clus scale="   74.013">  1 10  2 -1</clus>
<clus scale="   87.669">  5  6 -1 -1</clus>
<clus scale="   91.600">  7  8 -1 -1</clus>
<clus scale="  451.759">  2  5  1 -1</clus>
<clus scale="   44.649">  1  5  2 -1</clus>
</clustering>
</event>
<event>
10    4  0.3043429E-005  0.1309343E+03  0.7546771E-02  0.1245899E+00
         21   -1    0    0  503  502  0.00000000000E+00  0.00000000000E+00  0.56855787580E+02  0.56855787580E+02  0.00000000000E+00 0.  1.
          2   -1    0    0  502    0 -0.00000000000E+00 -0.00000000000E+00 -0.89723375163E+03  0.89723375163E+03  0.00000000000E+00 0. -1.
         24    2    1    2    0    0  0.19601771414E+02  0.26482061606E+02 -0.52429560057E+03  0.53154434129E+03  0.81043080837E+02 0.  0.
         23    2    1    2    0    0  0.52916137306E+02  0.10838168596E+02 -0.78150971338E+02  0.14320252931E+03  0.10715319218E+03 0.  0.
        -11    1    3    3    0    0  0.50358397524E+02  0.96135330985E+01 -0.26804112183E+03  0.27290003887E+03  0.00000000000E+00 0.  1.
         12    1    3    3    0    0 -0.30756626111E+02  0.16868528508E+02 -0.25625447873E+03  0.25864430242E+03  0.00000000000E+00 0. -1.
        -13    1    4    4    0    0 -0.25820158522E+02 -0.10169269770E+02  0.33476274856E+01  0.27951766376E+02  0.00000000000E+00 0.  1.
         13    1    4    4    0    0  0.78736295828E+02  0.21007438366E+02 -0.81498598823E+02  0.11525076294E+03  0.00000000000E+00 0. -1.
         21    1    1    2  503  501  0.19597894988E+02 -0.23353618240E+02 -0.84003957332E+01  0.31623339819E+02  0.00000000000E+00 0.  1.
          1    1    1    2  501    0 -0.92115803708E+02 -0.13966611962E+02 -0.22953099642E+03  0.24771932879E+03  0.00000000000E+00 0. -1.
<scales pt_clust_5="13000.00000" pt_clust_6="13000.00000" pt_clust_7="13000.00000" pt_clust_8="13000.00000" pt_clust_9="30.48719" pt_clust_10="75.24625"></scales>
<clustering>
<clus scale="   30.487">  1  9  2 -1</clus>
<clus scale="   81.043">  5  6 -1 -1</clus>
<clus scale="   87.304">  2  5  1 -1</clus>
<clus scale="   75.246">  1 10  2 -1</clus>
<clus scale="  107.153">  7  8 -1 -1</clus>
<clus scale="   30.487">  1  5  2 -1</clus>
</clustering>
</event>
<event>
10    4  0.3043429E-005  0.1251612E+03  0.7546771E-02  0.1238577E+00
          2   -1    0    0  503    0 -0.00000000000E+00  0.00000000000E+00  0.68692551882E+03  0.68692551882E+03  0.00000000000E+00 0. -1.
         21   -1    0    0  501  502  0.00000000000E+00 -0.00000000000E+00 -0.62796681274E+02  0.62796681274E+02  0.00000000000E+00 0. -1.
         24    2    1    2    0    0  0.50603282637E+02 -0.53893301387E+02  0.40566370796E+03  0.42014355727E+03  0.80575335006E+02 0.  0.
         23    2    1    2    0    0 -0.10468156551E+03  0.56140229533E+02  0.21306637940E+03  0.26120719407E+03  0.93391437910E+02 0.  0.
        -11    1    3    3    0    0  0.69804728036E+02 -0.33509179383E+02  0.34092793607E+03  0.34961038708E+03  0.00000000000E+00 0.  1.
         12    1    3    3    0    0 -0.19201445399E+02 -0.20384122003E+02  0.64735771892E+02  0.70533170194E+02  0.00000000000E+00 0. -1.
        -11    1    4    4    0    0 -0.51475971258E+02  0.43824203977E+02  0.37426562331E+02  0.77272789772E+02  0.00000000000E+00 0.  1.
         11    1    4    4    0    0 -0.53205594247E+02  0.12316025556E+02  0.17563981707E+03  0.18393440430E+03  0.00000000000E+00 0. -1.
         21    1    1    2  503  502  0.36668063034E+02 -0.20481209628E+02  0.88573630769E+01  0.42924115311E+02  0.00000000000E+00 0. -1.
          1    1    1    2  501    0  0.17410219834E+02  0.18234281482E+02 -0.34586128984E+01  0.25447333436E+02  0.00000000000E+00 0. -1.
<scales pt_clust_5="13000.00000" pt_clust_6="13000.00000" pt_clust_7="13000.00000" pt_clust_8="13000.00000" pt_clust_9="45.05141" pt_clust_10="25.21120"></scales>
<clustering>
<clus scale="   25.211">  2 10  1 -1</clus>
<clus scale="   45.051">  2  9  1 -1</clus>
<clus scale="   80.575">  5  6 -1 -1</clus>
<clus scale="   93.391">  7  8 -1 -1</clus>
<clus scale="  115.913">  1  5  2 -1</clus>
<clus scale="   25.211">  2  5  1 -1</clus>
</clustering>
</event>
<event>
10    4  0.7940874E-005  0.1016906E+03  0.7546771E-02  0.1281606E+00
          4   -1    0    0  503    0 -0.00000000000E+00  0.00000000000E+00  0.82609315796E+03  0.82609315796E+03  0.00000000000E+00 0. -1.
         21   -1    0    0  501  502  0.00000000000E+00 -0.00000000000E+00 -0.64187777939E+03  0.64187777939E+03  0.00000000000E+00 0. -1.
         24    2    1    2    0    0  0.49735083974E+02 -0.26076695301E+01  0.52779376570E+03  0.53666369835E+03  0.83434330443E+02 0.  0.
         23    2    1    2    0    0 -0.43836128533E+01  0.15979843784E+02  0.11873703786E+03  0.15189290830E+03  0.93265213049E+02 0.  0.
        -13    1    3    3    0    0 -0.17475779748E+02 -0.19419508761E+02  0.10324355860E+03  0.10649766472E+03  0.00000000000E+00 0.  1.
         14    1    3    3    0    0  0.67210863722E+02  0.16811839231E+02  0.42455020710E+03  0.43016603363E+03  0.00000000000E+00 0. -1.
        -11    1    4    4    0    0 -0.45476862882E+02 -0.88937732981E+01  0.64853934020E+02  0.79707446446E+02  0.00000000000E+00 0. -1.
         11    1    4    4    0    0  0.41093250028E+02  0.24873617082E+02  0.53883103836E+02  0.72185461858E+02  0.00000000000E+00 0.  1.
         21    1    1    2  503  502 -0.44504731127E+02  0.79983236053E+02 -0.60336414237E+03  0.61026738192E+03  0.00000000000E+00 0. -1.
          3    1    1    2  501    0 -0.84673999338E+00 -0.93355410306E+02  0.14104871738E+03  0.16914694877E+03  0.00000000000E+00 0. -1.
<scales pt_clust_5="13000.00000" pt_clust_6="13000.00000" pt_clust_7="13000.00000" pt_clust_8="13000.00000" pt_clust_9="91.53136" pt_clust_10="64.08924"></scales>
<clustering>
<clus scale="   83.434">  5  6 -1 -1</clus>
<clus scale="   91.531">  2  9  1 -1</clus>
<clus scale="   64.089">  2 10  1 -1</clus>
<clus scale="   92.757">  1  5  2 -1</clus>
<clus scale="   93.265">  7  8 -1 -1</clus>
<clus scale="   91.531">  2  5  1 -1</clus>
</clustering>
</event>
<event>
10    4  0.3043429E-005  0.1268034E+03  0.7546771E-02  0.1253140E+00
          2   -1    0    0  503    0 -0.00000000000E+00  0.00000000000E+00  0.12103459408E+03  0.12103459408E+03  0.00000000000E+00 0. -1.
         21   -1    0    0  501  502  0.00000000000E+00 -0.00000000000E+00 -0.43629460137E+03  0.43629460137E+03  0.00000000000E+00 0.  1.
         24    2    1    2    0    0 -0.22642662796E+02 -0.65815831380E+01  0.18915283867E+02  0.85906136150E+02  0.80411870077E+02 0.  0.
         23    2    1    2    0    0 -0.64792847170E+02 -0.55693799752E+02 -0.52674602363E+02  0.13576439389E+03  0.91419060049E+02 0.  0.
        -11    1    3    3    0    0 -0.36678400113E+02  0.28089309805E+02  0.75354241023E+01  0.46809154837E+02  0.00000000000E+00 0.  1.
         12    1    3    3    0    0  0.14035737317E+02 -0.34670892943E+02  0.11379859765E+02  0.39096981313E+02  0.00000000000E+00 0. -1.
        -11    1    4    4    0    0 -0.35725122351E+02 -0.37612108241E+02  0.19868980460E+02  0.55549360373E+02  0.00000000000E+00 0.  1.
         11    1    4    4    0    0 -0.29067724820E+02 -0.18081691511E+02 -0.72543582823E+02  0.80215033522E+02  0.00000000000E+00 0. -1.
         21    1    1    2  503  502  0.67069521253E+02  0.19317086610E+02 -0.27949171207E+03  0.28807479520E+03  0.00000000000E+00 0.  1.
          1    1    1    2  501    0  0.20365988714E+02  0.42958296280E+02 -0.20089767298E+01  0.47583870198E+02  0.00000000000E+00 0. -1.
<scales pt_clust_5="13000.00000" pt_clust_6="13000.00000" pt_clust_7="13000.00000" pt_clust_8="13000.00000" pt_clust_9="87.87297" pt_clust_10="47.54147"></scales>
<clustering>
<clus scale="   47.541">  2 10  1 -1</clus>
<clus scale="   80.412">  5  6 -1 -1</clus>
<clus scale="   83.162">  1  5  2 -1</clus>
<clus scale="   87.873">  2  9  1 -1</clus>
<clus scale="   91.419">  7  8 -1 -1</clus>
<clus scale="   47.541">  2  5  1 -1</clus>
</clustering>
</event>
<event>
10    4  0.3043429E-005  0.2530057E+03  0.7546771E-02  0.1152176E+00
         21   -1    0    0  503  502  0.00000000000E+00  0.00000000000E+00  0.13248141300E+03  0.13248141300E+03  0.00000000000E+00 0. -1.
          2   -1    0    0  502    0 -0.00000000000E+00 -0.00000000000E+00 -0.12139048677E+04  0.12139048677E+04  0.00000000000E+00 0. -1.
         24    2    1    2    0    0  0.32409523291E+02  0.29712338975E+02 -0.49428516333E+03  0.50297533614E+03  0.82055869962E+02 0.  0.
         23    2    1    2    0    0 -0.21460731820E+03 -0.14361941084E+03 -0.37903767910E+03  0.46788007552E+03  0.92516845500E+02 0.  0.
        -11    1    3    3    0    0  0.58739050822E+02  0.11056932676E+02 -0.28327618882E+03  0.28951326568E+03  0.00000000000E+00 0.  1.
         12    1    3    3    0    0 -0.26329527531E+02  0.18655406299E+02 -0.21100897451E+03  0.21346207046E+03  0.00000000000E+00 0. -1.
        -11    1    4    4    0    0 -0.20161058342E+02 -0.27230150466E+02 -0.11519564901E+03  0.12007492211E+03  0.00000000000E+00 0.  1.
         11    1    4    4    0    0 -0.19444625986E+03 -0.11638926038E+03 -0.26384203009E+03  0.34780515342E+03  0.00000000000E+00 0. -1.
         21    1    1    2  503  501 -0.42887706318E+02  0.55603839135E+02 -0.11743258258E+02  0.71197235862E+02  0.00000000000E+00 0.  1.
          1    1    1    2  501    0  0.22508550123E+03  0.58303232734E+02 -0.19635735406E+03  0.30433363321E+03  0.00000000000E+00 0. -1.
<scales pt_clust_5="13000.00000" pt_clust_6="13000.00000" pt_clust_7="13000.00000" pt_clust_8="13000.00000" pt_clust_9="70.22209" pt_clust_10="235.48356"></scales>
<clustering>
<clus scale="   70.222">  1  9  2 -1</clus>
<clus scale="   82.056">  5  6 -1 -1</clus>
<clus scale="   92.517">  7  8 -1 -1</clus>
<clus scale="   93.260">  2  5  1 -1</clus>
<clus scale="  235.484">  1 10  2 -1</clus>
<clus scale="   70.222">  1  5  2 -1</clus>
</clustering>
</event>
<event>
10    4  0.3043429E-005  0.9302100E+02  0.7546771E-02  0.1303951E+00
         21   -1    0    0  501  502  0.00000000000E+00  0.00000000000E+00  0.10864611435E+03  0.10864611435E+03  0.00000000000E+00 0. -1.
         -1   -1    0    0    0  501 -0.00000000000E+00 -0.00000000000E+00 -0.27777087826E+03  0.27777087826E+03  0.00000000000E+00 0.  1.
         23    2    1    2    0    0  0.29629104580E+01 -0.27090410878E+01 -0.51099082948E+02  0.10618316142E+03  0.92992632770E+02 0.  0.
         24    2    1    2    0    0  0.12694400311E+01 -0.87127714563E+01  0.14881785056E+00  0.80337801407E+02  0.79853718284E+02 0.  0.
        -11    1    4    4    0    0  0.26825082626E+02 -0.33314749059E+02 -0.89890919322E+01  0.43706536542E+02  0.00000000000E+00 0.  1.
         12    1    4    4    0    0 -0.25555642595E+02  0.24601977603E+02  0.91379097828E+01  0.36631264865E+02  0.00000000000E+00 0. -1.
        -11    1    3    3    0    0  0.79396167715E+01  0.44425802641E+02 -0.30706409474E+02  0.54585465442E+02  0.00000000000E+00 0.  1.
         11    1    3    3    0    0 -0.49767063135E+01 -0.47134843729E+02 -0.20392673474E+02  0.51597695980E+02  0.00000000000E+00 0. -1.
         21    1    1    2  503  502 -0.22143735159E+02 -0.12769397611E+02  0.35252251154E+02  0.43544502908E+02  0.00000000000E+00 0. -1.
         -2    1    1    2    0  503  0.17911384670E+02  0.24191210155E+02 -0.15342674997E+03  0.15635152687E+03  0.00000000000E+00 0.  1.
<scales pt_clust_5="13000.00000" pt_clust_6="13000.00000" pt_clust_7="13000.00000" pt_clust_8="13000.00000" pt_clust_9="25.56174" pt_clust_10="29.60617"></scales>
<clustering>
<clus scale="   25.562">  1  9  2 -1</clus>
<clus scale="   29.606">  1 10  2 -1</clus>
<clus scale="   79.854">  5  6 -1 -1</clus>
<clus scale="   79.887">  1  5  2 -1</clus>
<clus scale="   92.993">  7  8 -1 -1</clus>
<clus scale="   25.562">  1  5  2 -1</clus>
</clustering>
</event>
<event>
10    4  0.3043429E-005  0.9440599E+02  0.7546771E-02  0.1298591E+00
         21   -1    0    0  503  502  0.00000000000E+00  0.00000000000E+00  0.13503822231E+03  0.13503822231E+03  0.00000000000E+00 0.  1.
          2   -1    0    0  502    0 -0.00000000000E+00 -0.00000000000E+00 -0.29904511778E+03  0.29904511778E+03  0.00000000000E+00 0. -1.
         24    2    1    2    0    0 -0.21129709159E+02  0.20059594225E+02 -0.21774049683E+03  0.23431676014E+03  0.81514220806E+02 0.  0.
         23    2    1    2    0    0 -0.54371344509E+01  0.20180550641E+02 -0.80265712033E+01  0.94576764306E+02  0.91888636110E+02 0.  0.
        -11    1    3    3    0    0  0.21973377132E+02 -0.14728974470E+02 -0.38495422699E+02  0.46708345724E+02  0.00000000000E+00 0.  1.
         12    1    3    3    0    0 -0.43103086291E+02  0.34788568695E+02 -0.17924507413E+03  0.18760841441E+03  0.00000000000E+00 0. -1.
        -13    1    4    4    0    0 -0.45442902010E+02  0.27827863232E+02 -0.77398246730E+01  0.53845633074E+02  0.00000000000E+00 0. -1.
         13    1    4    4    0    0  0.40005767559E+02 -0.76473125912E+01 -0.28674653035E+00  0.40731131232E+02  0.00000000000E+00 0.  1.
         21    1    1    2  503  501  0.13776212643E+02  0.17847939794E+02  0.30697162444E+02  0.38087383367E+02  0.00000000000E+00 0.  1.
          1    1    1    2  501    0  0.12790630967E+02 -0.58088084660E+02  0.31063010117E+02  0.67102432277E+02  0.00000000000E+00 0. -1.
<scales pt_clust_5="13000.00000" pt_clust_6="13000.00000" pt_clust_7="13000.00000" pt_clust_8="13000.00000" pt_clust_9="22.54624" pt_clust_10="53.09788"></scales>
<clustering>
<clus scale="   22.546">  1  9  2 -1</clus>
<clus scale="   53.098">  1 10  2 -1</clus>
<clus scale="   81.514">  5  6 -1 -1</clus>
<clus scale="   84.342">  2  5  1 -1</clus>
<clus scale="   91.889">  7  8 -1 -1</clus>
<clus scale="   22.546">  1  5  2 -1</clus>
</clustering>
</event>
<event>
10    4  0.3043429E-005  0.1443351E+03  0.7546771E-02  0.1209705E+00
         21   -1    0    0  501  502  0.00000000000E+00  0.00000000000E+00  0.91320552884E+02  0.91320552884E+02  0.00000000000E+00 0.  1.
          2   -1    0    0  503    0 -0.00000000000E+00 -0.00000000000E+00 -0.10229189600E+04  0.10229189600E+04  0.00000000000E+00 0. -1.
         24    2    1    2    0    0  0.47540639526E+02 -0.11714838449E+03 -0.63162264823E+03  0.64924711148E+03  0.81183653631E+02 0.  0.
         23    2    1    2    0    0 -0.65169129801E+02  0.64946208570E+02 -0.27133180439E+03  0.30076849687E+03  0.91518933285E+02 0.  0.
        -11    1    3    3    0    0  0.60353075374E+02 -0.47450547535E+02 -0.26781173909E+03  0.27859859253E+03  0.00000000000E+00 0.  1.
         12    1    3    3    0    0 -0.12812435848E+02 -0.69697836954E+02 -0.36381090914E+03  0.37064851895E+03  0.00000000000E+00 0. -1.
        -11    1    4    4    0    0  0.59208863979E+01  0.37942555783E+02 -0.33114757678E+02  0.50707806216E+02  0.00000000000E+00 0. -1.
         11    1    4    4    0    0 -0.71090016199E+02  0.27003652787E+02 -0.23821704671E+03  0.25006069065E+03  0.00000000000E+00 0.  1.
         21    1    1    2  503  502 -0.70721468023E+01  0.43933821615E+02  0.58368261411E+02  0.73396525001E+02  0.00000000000E+00 0.  1.
          1    1    1    2  501    0  0.24700637077E+02  0.82683543038E+01 -0.87012215882E+02  0.90827379505E+02  0.00000000000E+00 0. -1.
<scales pt_clust_5="13000.00000" pt_clust_6="13000.00000" pt_clust_7="13000.00000" pt_clust_8="13000.00000" pt_clust_9="51.24897" pt_clust_10="26.04780"></scales>
<clustering>
<clus scale="   26.048">  1 10  2 -1</clus>
<clus scale="   51.249">  1  9  2 -1</clus>
<clus scale="   81.184">  5  6 -1 -1</clus>
<clus scale="   91.519">  7  8 -1 -1</clus>
<clus scale="  138.013">  2  5  1 -1</clus>
<clus scale="   26.048">  1  5  2 -1</clus>
</clustering>
</event>
<event>
10    4  0.3043429E-005  0.2605873E+03  0.7546771E-02  0.1108315E+00
          2   -1    0    0  503    0 -0.00000000000E+00  0.00000000000E+00  0.12910113796E+04  0.12910113796E+04  0.00000000000E+00 0. -1.
         21   -1    0    0  501  502  0.00000000000E+00 -0.00000000000E+00 -0.23157786209E+03  0.23157786209E+03  0.00000000000E+00 0.  1.
         24    2    1    2    0    0 -0.49373881475E+02 -0.26956953363E+03  0.17568196337E+03  0.33537602801E+03  0.80668545798E+02 0.  0.
         23    2    1    2    0    0  0.13479547791E+03  0.14782984424E+03 -0.24907353679E+02  0.22857764130E+03  0.10772129836E+03 0.  0.
        -13    1    3    3    0    0 -0.32498478754E+02 -0.26417355869E+03  0.17302457056E+03  0.31746074127E+03  0.00000000000E+00 0.  1.
         14    1    3    3    0    0 -0.16875402721E+02 -0.53959749374E+01  0.26573928128E+01  0.17915286742E+02  0.00000000000E+00 0. -1.
        -13    1    4    4    0    0  0.55773738629E+02  0.13098996290E+03  0.49124726321E+01  0.14245424770E+03  0.00000000000E+00 0.  1.
         13    1    4    4    0    0  0.79021739283E+02  0.16839881339E+02 -0.29819826311E+02  0.86123393593E+02  0.00000000000E+00 0. -1.
         21    1    1    2  503  502 -0.75069693185E+01 -0.18811530016E+02 -0.12342880486E+02  0.23718662454E+02  0.00000000000E+00 0.  1.
          1    1    1    2  501    0 -0.77914627118E+02  0.14055121940E+03  0.92100178826E+03  0.93491690988E+03  0.00000000000E+00 0. -1.
<scales pt_clust_5="13000.00000" pt_clust_6="13000.00000" pt_clust_7="13000.00000" pt_clust_8="13000.00000" pt_clust_9="20.25409" pt_clust_10="160.28606"></scales>
<clustering>
<clus scale="   20.254">  2  9  1 -1</clus>
<clus scale="   80.669">  5  6 -1 -1</clus>
<clus scale="  107.721">  7  8 -1 -1</clus>
<clus scale="  160.286">  2 10  1 -1</clus>
<clus scale="  250.618">  1  5  2 -1</clus>
<clus scale="   20.254">  2  5  1 -1</clus>
</clustering>
</event>
<event>
10    4  0.3043429E-005  0.1510850E+03  0.7546771E-02  0.1200740E+00
         21   -1    0    0  503  502  0.00000000000E+00  0.00000000000E+00  0.10598342652E+03  0.10598342652E+03  0.00000000000E+00 0. -1.
          2   -1    0    0  502    0 -0.00000000000E+00 -0.00000000000E+00 -0.79646014718E+03  0.79646014718E+03  0.00000000000E+00 0. -1.
         24    2    1    2    0    0 -0.99158891418E+02 -0.66205064827E+02 -0.62592026739E+03  0.64253368780E+03  0.82811608349E+02 0.  0.
         23    2    1    2    0    0  0.13503637928E+03  0.27282617725E+02 -0.17952545304E+02  0.16639325193E+03  0.91571040436E+02 0.  0.
        -13    1    3    3    0    0 -0.26396641195E+02 -0.67410280194E+02 -0.31263720381E+03  0.32090956631E+03  0.00000000000E+00 0.  1.
         14    1    3    3    0    0 -0.72762250223E+02  0.12052153667E+01 -0.31328306358E+03  0.32162412149E+03  0.00000000000E+00 0. -1.
        -13    1    4    4    0    0  0.13993482192E+03  0.23099639371E+01 -0.16111320323E+02  0.14087819193E+03  0.00000000000E+00 0. -1.
         13    1    4    4    0    0 -0.48984426380E+01  0.24972653788E+02 -0.18412249811E+01  0.25515060003E+02  0.00000000000E+00 0.  1.
         21    1    1    2  503  501 -0.21532212701E+02 -0.53009426778E+01  0.63335750573E+01  0.23061880888E+02  0.00000000000E+00 0. -1.
          1    1    1    2  501    0 -0.14345275164E+02  0.44223389779E+02 -0.52937483022E+02  0.70454753082E+02  0.00000000000E+00 0. -1.
<scales pt_clust_5="13000.00000" pt_clust_6="13000.00000" pt_clust_7="13000.00000" pt_clust_8="13000.00000" pt_clust_9="22.17513" pt_clust_10="46.69379"></scales>
<clustering>
<clus scale="   22.175">  1  9  2 -1</clus>
<clus scale="   46.694">  1 10  2 -1</clus>
<clus scale="   82.812">  5  6 -1 -1</clus>
<clus scale="   91.571">  7  8 -1 -1</clus>
<clus scale="  145.942">  2  5  1 -1</clus>
<clus scale="   22.175">  1  5  2 -1</clus>
</clustering>
</event>
<event>
10    4  0.3043429E-005  0.1413345E+03  0.7546771E-02  0.1234499E+00
         21   -1    0    0  501  502  0.00000000000E+00  0.00000000000E+00  0.70623954328E+02  0.70623954328E+02  0.00000000000E+00 0.  1.
          2   -1    0    0  503    0 -0.00000000000E+00 -0.00000000000E+00 -0.84044293262E+03  0.84044293262E+03  0.00000000000E+00 0. -1.
         24    2    1    2    0    0  0.27093257185E+02  0.35802958658E+02 -0.24931554201E+03  0.26539204767E+03  0.79112597265E+02 0.  0.
         23    2    1    2    0    0  0.67381705520E+02 -0.76641250590E+02 -0.38367885666E+02  0.14657914582E+03  0.97975383686E+02 0.  0.
        -11    1    3    3    0    0 -0.27226710283E+02  0.45928470795E+01 -0.92248247272E+02  0.96291885026E+02  0.00000000000E+00 0.  1.
         12    1    3    3    0    0  0.54319967468E+02  0.31210111579E+02 -0.15706729474E+03  0.16910016265E+03  0.00000000000E+00 0. -1.
        -11    1    4    4    0    0  0.18079661640E+02 -0.55590168179E+02  0.24999423185E+02  0.63577607085E+02  0.00000000000E+00 0.  1.
         11    1    4    4    0    0  0.49302043881E+02 -0.21051082411E+02 -0.63367308851E+02  0.83001538736E+02  0.00000000000E+00 0. -1.
         21    1    1    2  503  502 -0.11498073040E+02 -0.20123304933E+02 -0.54195142525E+02  0.58942909313E+02  0.00000000000E+00 0. -1.
          1    1    1    2  501    0 -0.82976889666E+02  0.60961596865E+02 -0.42794040809E+03  0.44015278414E+03  0.00000000000E+00 0. -1.
<scales pt_clust_5="13000.00000" pt_clust_6="13000.00000" pt_clust_7="13000.00000" pt_clust_8="13000.00000" pt_clust_9="23.17656" pt_clust_10="101.86400"></scales>
<clustering>
<clus scale="   23.177">  2  9  1 -1</clus>
<clus scale="   79.113">  5  6 -1 -1</clus>
<clus scale="   87.493">  2  5  1 -1</clus>
<clus scale="   97.975">  7  8 -1 -1</clus>
<clus scale="  101.864">  1 10  2 -1</clus>
<clus scale="  101.864">  1  5  2 -1</clus>
</clustering>
</event>
<event>
10    4  0.3043429E-005  0.1229128E+03  0.7546771E-02  0.1243220E+00
          4   -1    0    0  502    0 -0.00000000000E+00  0.00000000000E+00  0.10229660221E+03  0.10229660221E+03  0.00000000000E+00 0. -1.
         21   -1    0    0  503  502  0.00000000000E+00 -0.00000000000E+00 -0.26718361150E+03  0.26718361150E+03  0.00000000000E+00 0. -1.
         23    2    1    2    0    0  0.49785175646E+01  0.71662675599E+02 -0.33826155557E+02  0.12431627804E+03  0.95655650511E+02 0.  0.
         24    2    1    2    0    0  0.37095484440E+02 -0.80919255819E+02 -0.56772271596E+02  0.13265562751E+03  0.80314530186E+02 0.  0.
        -13    1    4    4    0    0  0.20959961404E+02 -0.15587828342E+02 -0.59838561553E+02  0.65291299751E+02  0.00000000000E+00 0.  1.
         14    1    4    4    0    0  0.16135523036E+02 -0.65331427477E+02  0.30662899577E+01  0.67364327755E+02  0.00000000000E+00 0. -1.
        -11    1    3    3    0    0 -0.29888889826E+02 -0.83052751953E+01 -0.17322400837E+02  0.35530112607E+02  0.00000000000E+00 0.  1.
         11    1    3    3    0    0  0.34867407391E+02  0.79967950794E+02 -0.16503754721E+02  0.88786165433E+02  0.00000000000E+00 0. -1.
         21    1    1    2  503  501  0.96063063564E+00  0.29825742627E+02 -0.51786836768E+02  0.59769341614E+02  0.00000000000E+00 0. -1.
          3    1    1    2  501    0 -0.43034632640E+02 -0.20569162407E+02 -0.22501745366E+02  0.52738966553E+02  0.00000000000E+00 0. -1.
<scales pt_clust_5="13000.00000" pt_clust_6="13000.00000" pt_clust_7="13000.00000" pt_clust_8="13000.00000" pt_clust_9="29.84121" pt_clust_10="45.49957"></scales>
<clustering>
<clus scale="   29.841">  2  9  1 -1</clus>
<clus scale="   45.500">  2 10  1 -1</clus>
<clus scale="   80.315">  5  6 -1 -1</clus>
<clus scale="   95.656">  7  8 -1 -1</clus>
<clus scale="  111.391">  2  5  1 -1</clus>
<clus scale="   29.841">  2  5  1 -1</clus>
</clustering>
</event>
<event>
10    4  0.3043429E-005  0.2656892E+03  0.7546771E-02  0.1141177E+00
          2   -1    0    0  503    0 -0.00000000000E+00  0.00000000000E+00  0.16081980759E+04  0.16081980759E+04  0.00000000000E+00 0. -1.
         21   -1    0    0  501  502  0.00000000000E+00 -0.00000000000E+00 -0.13674054694E+03  0.13674054694E+03  0.00000000000E+00 0. -1.
         23    2    1    2    0    0  0.56836886144E+02 -0.39880650536E+01  0.11332144598E+03  0.15554857600E+03  0.90040396976E+02 0.  0.
         24    2    1    2    0    0 -0.29521788903E+03  0.21925201041E+02  0.12304476713E+04  0.12680832753E+04  0.79996279964E+02 0.  0.
        -11    1    4    4    0    0 -0.99367545438E+02 -0.23369185575E+02  0.32795435911E+03  0.34347356460E+03  0.00000000000E+00 0.  1.
         12    1    4    4    0    0 -0.19585034359E+03  0.45294386616E+02  0.90249331220E+03  0.92460971070E+03  0.00000000000E+00 0. -1.
        -11    1    3    3    0    0  0.32260764787E+02  0.18732478078E+02 -0.86278380102E-01  0.37305095142E+02  0.00000000000E+00 0.  1.
         11    1    3    3    0    0  0.24576121357E+02 -0.22720543131E+02  0.11340772436E+03  0.11824348086E+03  0.00000000000E+00 0. -1.
         21    1    1    2  503  502 -0.19872249928E+02  0.21899625493E+02 -0.18958501573E+01  0.29632653640E+02  0.00000000000E+00 0.  1.
          1    1    1    2  501    0  0.25825325281E+03 -0.39836761480E+02  0.12958426186E+03  0.29167411794E+03  0.00000000000E+00 0. -1.
<scales pt_clust_5="13000.00000" pt_clust_6="13000.00000" pt_clust_7="13000.00000" pt_clust_8="13000.00000" pt_clust_9="29.57194" pt_clust_10="253.36014"></scales>
<clustering>
<clus scale="   29.572">  2  9  1 -1</clus>
<clus scale="   79.996">  5  6 -1 -1</clus>
<clus scale="   90.040">  7  8 -1 -1</clus>
<clus scale="  104.669">  1  7  2 -1</clus>
<clus scale="  253.360">  2 10  1 -1</clus>
<clus scale="   29.572">  2  5  1 -1</clus>
</clustering>
</event>
<event>
10    4  0.3043429E-005  0.1650114E+03  0.7546771E-02  0.1194301E+00
          2   -1    0    0  502    0 -0.00000000000E+00  0.00000000000E+00  0.33471677206E+03  0.33471677206E+03  0.00000000000E+00 0. -1.
         21   -1    0    0  503  502  0.00000000000E+00 -0.00000000000E+00 -0.39790829762E+03  0.39790829762E+03  0.00000000000E+00 0. -1.
         23    2    1    2    0    0  0.34100229363E+01 -0.90982165546E+02 -0.66611193719E+02  0.14579966708E+03  0.92364003210E+02 0.  0.
         24    2    1    2    0    0  0.71269538852E+02 -0.86467391925E+02  0.12392916376E+03  0.18477077507E+03  0.78904021796E+02 0.  0.
        -11    1    4    4    0    0 -0.68461815973E+01 -0.49405590488E+02  0.36475297410E+02  0.61791827090E+02  0.00000000000E+00 0.  1.
         12    1    4    4    0    0  0.78115720449E+02 -0.37061801437E+02  0.87453866345E+02  0.12297894798E+03  0.00000000000E+00 0. -1.
        -11    1    3    3    0    0  0.16444529759E+02 -0.39725451930E+02 -0.80373252814E+02  0.91150391430E+02  0.00000000000E+00 0.  1.
         11    1    3    3    0    0 -0.13034506823E+02 -0.51256713617E+02  0.13762059095E+02  0.54649275653E+02  0.00000000000E+00 0. -1.
         21    1    1    2  503  501 -0.26585612084E+02  0.31868749464E+01 -0.20199426145E+03  0.20376121466E+03  0.00000000000E+00 0. -1.
          1    1    1    2  501    0 -0.48093949705E+02  0.17426268253E+03  0.81484765851E+02  0.19829341286E+03  0.00000000000E+00 0. -1.
<scales pt_clust_5="13000.00000" pt_clust_6="13000.00000" pt_clust_7="13000.00000" pt_clust_8="13000.00000" pt_clust_9="26.77594" pt_clust_10="144.92391"></scales>
<clustering>
<clus scale="   26.776">  2  9  1 -1</clus>
<clus scale="   78.904">  5  6 -1 -1</clus>
<clus scale="   92.364">  7  8 -1 -1</clus>
<clus scale="  128.913">  1  7  2 -1</clus>
<clus scale="  144.924">  2 10  1 -1</clus>
<clus scale="   26.776">  2  5  1 -1</clus>
</clustering>
</event>
<event>
10    4  0.3043429E-005  0.2515047E+03  0.7546771E-02  0.1137505E+00
         21   -1    0    0  503  502  0.00000000000E+00  0.00000000000E+00  0.99765898504E+03  0.99765898504E+03  0.00000000000E+00 0. -1.
          2   -1    0    0  502    0 -0.00000000000E+00 -0.00000000000E+00 -0.19964660404E+03  0.19964660404E+03  0.00000000000E+00 0. -1.
         23    2    1    2    0    0  0.34509165924E+02 -0.90574113773E+02  0.59771862263E+02  0.14710636001E+03  0.93129227515E+02 0.  0.
         24    2    1    2    0    0  0.21779762929E+03 -0.90784102992E+02  0.44788595008E+03  0.51228062222E+03  0.78435010909E+02 0.  0.
        -11    1    4    4    0    0  0.15187244412E+03 -0.22636486058E+02  0.26478872696E+03  0.30608939823E+03  0.00000000000E+00 0.  1.
         12    1    4    4    0    0  0.65925185172E+02 -0.68147616934E+02  0.18309722313E+03  0.20619122399E+03  0.00000000000E+00 0. -1.
        -11    1    3    3    0    0 -0.13236078129E+02 -0.84140935285E+02  0.29169889744E+02  0.90032067746E+02  0.00000000000E+00 0.  1.
         11    1    3    3    0    0  0.47745244052E+02 -0.64331784880E+01  0.30601972519E+02  0.57074292261E+02  0.00000000000E+00 0. -1.
         21    1    1    2  503  501 -0.25115778533E+02 -0.13636814481E+02  0.23091636811E+03  0.23267817711E+03  0.00000000000E+00 0.  1.
          1    1    1    2  501    0 -0.22719101668E+03  0.19499503125E+03  0.59438200546E+02  0.30524042975E+03  0.00000000000E+00 0. -1.
<scales pt_clust_5="13000.00000" pt_clust_6="13000.00000" pt_clust_7="13000.00000" pt_clust_8="13000.00000" pt_clust_9="28.57910" pt_clust_10="238.96150"></scales>
<clustering>
<clus scale="   28.579">  1  9  2 -1</clus>
<clus scale="   78.435">  5  6 -1 -1</clus>
<clus scale="   93.129">  7  8 -1 -1</clus>
<clus scale="  134.841">  2  7  1 -1</clus>
<clus scale="  238.962">  1 10  2 -1</clus>
<clus scale="   28.579">  1  5  2 -1</clus>
</clustering>
</event>
<event>
10    4  0.3043429E-005  0.1928866E+03  0.7546771E-02  0.1180951E+00
         21   -1    0    0  503  502  0.00000000000E+00  0.00000000000E+00  0.75209447137E+03  0.75209447137E+03  0.00000000000E+00 0.  1.
         -1   -1    0    0    0  501 -0.00000000000E+00 -0.00000000000E+00 -0.97485473120E+02  0.97485473120E+02  0.00000000000E+00 0.  1.
         24    2    1    2    0    0  0.53704827457E+02  0.50216223439E+02  0.33419768707E+02  0.11458770497E+03  0.81287044492E+02 0.  0.
         23    2    1    2    0    0 -0.19076483956E+03 -0.47732549407E+02  0.45203606866E+03  0.50084068695E+03  0.88516473372E+02 0.  0.
        -11    1    3    3    0    0  0.51613990259E+02  0.70740280421E+02  0.19536673409E+02  0.89721083767E+02  0.00000000000E+00 0.  1.
         12    1    3    3    0    0  0.20908371975E+01 -0.20524056982E+02  0.13883095298E+02  0.24866621207E+02  0.00000000000E+00 0. -1.
        -11    1    4    4    0    0 -0.11049198610E+03  0.70263082333E+00  0.32274329330E+03  0.34113370700E+03  0.00000000000E+00 0. -1.
         11    1    4    4    0    0 -0.80272853460E+02 -0.48435180230E+02  0.12929277536E+03  0.15970697995E+03  0.00000000000E+00 0.  1.
         21    1    1    2  503  501 -0.26347602503E+01 -0.20241427450E+02  0.29090991719E+02  0.35537911390E+02  0.00000000000E+00 0.  1.
         -2    1    1    2    0  502  0.13969477235E+03  0.17757753418E+02  0.14006216917E+03  0.19861364118E+03  0.00000000000E+00 0.  1.
<scales pt_clust_5="13000.00000" pt_clust_6="13000.00000" pt_clust_7="13000.00000" pt_clust_8="13000.00000" pt_clust_9="20.41219" pt_clust_10="171.37707"></scales>
<clustering>
<clus scale="   20.412">  1  9  2 -1</clus>
<clus scale="   81.287">  5  6 -1 -1</clus>
<clus scale="   88.516">  7  8 -1 -1</clus>
<clus scale="  108.535">  2  5  1 -1</clus>
<clus scale="  171.377">  1 10  2 -1</clus>
<clus scale="   20.412">  1  5  2 -1</clus>
</clustering>
</event>
<event>
10    4  0.3043429E-005  0.2698863E+03  0.7546771E-02  0.1139253E+00
         21   -1    0    0  503  502  0.00000000000E+00  0.00000000000E+00  0.21337853209E+03  0.21337853209E+03  0.00000000000E+00 0. -1.
          2   -1    0    0  502    0 -0.00000000000E+00 -0.00000000000E+00 -0.12227437775E+04  0.12227437775E+04  0.00000000000E+00 0. -1.
         24    2    1    2    0    0 -0.16292266561E+02  0.66326911519E+02 -0.25269050684E+03  0.27348532263E+03  0.79227724354E+02 0.  0.
         23    2    1    2    0    0 -0.28632389297E+03 -0.71081666491E+02 -0.38402262039E+03  0.49501564626E+03  0.10263109705E+03 0.  0.
        -13    1    3    3    0    0 -0.70550529595E+01  0.83895987379E+02 -0.21479831909E+03  0.23070896895E+03  0.00000000000E+00 0.  1.
         14    1    3    3    0    0 -0.92372136011E+01 -0.17569075860E+02 -0.37892187753E+02  0.42776353683E+02  0.00000000000E+00 0. -1.
        -13    1    4    4    0    0 -0.96971440562E+01 -0.27619542287E+02 -0.18760715253E+02  0.34768349915E+02  0.00000000000E+00 0.  1.
         13    1    4    4    0    0 -0.27662674891E+03 -0.43462124204E+02 -0.36526190513E+03  0.46024729635E+03  0.00000000000E+00 0. -1.
         21    1    1    2  503  501  0.11552962096E+03  0.22407799665E+03 -0.10122179554E+03  0.27166872068E+03  0.00000000000E+00 0. -1.
          1    1    1    2  501    0  0.18708653857E+03 -0.21932324168E+03 -0.27143032266E+03  0.39595262004E+03  0.00000000000E+00 0. -1.
<scales pt_clust_5="13000.00000" pt_clust_6="13000.00000" pt_clust_7="13000.00000" pt_clust_8="13000.00000" pt_clust_9="262.25518" pt_clust_10="249.61064"></scales>
<clustering>
<clus scale="   79.228">  5  6 -1 -1</clus>
<clus scale="  102.631">  7  8 -1 -1</clus>
<clus scale="  104.603">  2  5  1 -1</clus>
<clus scale="  262.255">  1  9  2 -1</clus>
<clus scale="  249.611">  1 10  2 -1</clus>
<clus scale="  262.255">  1  5  2 -1</clus>
</clustering>
</event>
<event>
10    4  0.3043429E-005  0.2080543E+03  0.7546771E-02  0.1144046E+00
          2   -1    0    0  502    0 -0.00000000000E+00  0.00000000000E+00  0.48978612377E+03  0.48978612377E+03  0.00000000000E+00 0. -1.
         21   -1    0    0  503  502  0.00000000000E+00 -0.00000000000E+00 -0.32861154965E+03  0.32861154965E+03  0.00000000000E+00 0. -1.
         23    2    1    2    0    0 -0.14328632298E+03 -0.44361536917E+02  0.11299670531E+03  0.20846140547E+03  0.90493015467E+02 0.  0.
         24    2    1    2    0    0  0.24062631058E+03  0.90601855608E+02  0.11483027722E+03  0.29257052855E+03  0.79383902843E+02 0.  0.
        -13    1    4    4    0    0  0.49250271690E+02 -0.27876488869E+01  0.49366566474E+02  0.69788381077E+02  0.00000000000E+00 0.  1.
         14    1    4    4    0    0  0.19137603889E+03  0.93389504495E+02  0.65463710743E+02  0.22278214748E+03  0.00000000000E+00 0. -1.
        -11    1    3    3    0    0 -0.13027500734E+03 -0.67802000118E+02  0.10482037532E+03  0.18043281253E+03  0.00000000000E+00 0. -1.
         11    1    3    3    0    0 -0.13011315643E+02  0.23440463201E+02  0.81763299926E+01  0.28028592936E+02  0.00000000000E+00 0.  1.
         21    1    1    2  503  501 -0.24882753148E+02 -0.69436971570E+02 -0.17215601529E+03  0.18729211950E+03  0.00000000000E+00 0. -1.
          1    1    1    2  501    0 -0.72457234452E+02  0.23196652879E+02  0.10550360688E+03  0.13007361990E+03  0.00000000000E+00 0. -1.
<scales pt_clust_5="13000.00000" pt_clust_6="13000.00000" pt_clust_7="13000.00000" pt_clust_8="13000.00000" pt_clust_9="73.76072" pt_clust_10="76.53042"></scales>
<clustering>
<clus scale="   73.761">  2  9  1 -1</clus>
<clus scale="   76.530">  2 10  1 -1</clus>
<clus scale="   79.384">  5  6 -1 -1</clus>
<clus scale="   90.493">  7  8 -1 -1</clus>
<clus scale="  203.468">  2  5  1 -1</clus>
<clus scale="   73.761">  2  5  1 -1</clus>
</clustering>
</event>
<event>
10    4  0.3043429E-005  0.1233211E+03  0.7546771E-02  0.1243758E+00
         21   -1    0    0  503  502  0.00000000000E+00  0.00000000000E+00  0.23139071209E+03  0.23139071209E+03  0.00000000000E+00 0.  1.
          2   -1    0    0  502    0 -0.00000000000E+00 -0.00000000000E+00 -0.27099712029E+03  0.27099712029E+03  0.00000000000E+00 0. -1.
         23    2    1    2    0    0  0.15389797806E+02 -0.46332293690E+02 -0.14535815131E+03  0.18241965374E+03  0.98815032271E+02 0.  0.
         24    2    1    2    0    0  0.19940931890E+02 -0.87473054844E+02  0.47087059177E+02  0.12979504416E+03  0.81119579988E+02 0.  0.
        -11    1    4    4    0    0  0.31506786803E+02 -0.86505110182E+02  0.61928172179E+02  0.11095454119E+03  0.00000000000E+00 0.  1.
         12    1    4    4    0    0 -0.11565854914E+02 -0.96794466229E+00 -0.14841113002E+02  0.18840502963E+02  0.00000000000E+00 0. -1.
        -11    1    3    3    0    0 -0.26160300810E+02  0.56866785835E+01 -0.52261108658E+01  0.27276581284E+02  0.00000000000E+00 0. -1.
         11    1    3    3    0    0  0.41550098616E+02 -0.52018972273E+02 -0.14013204045E+03  0.15514307246E+03  0.00000000000E+00 0.  1.
         21    1    1    2  503  501 -0.49106822791E+01  0.21805318697E+02  0.70077438563E+02  0.73555653212E+02  0.00000000000E+00 0.  1.
          1    1    1    2  501    0 -0.30420047416E+02  0.11200002984E+03 -0.11412754629E+02  0.11661748126E+03  0.00000000000E+00 0. -1.
<scales pt_clust_5="13000.00000" pt_clust_6="13000.00000" pt_clust_7="13000.00000" pt_clust_8="13000.00000" pt_clust_9="22.35144" pt_clust_10="92.88547"></scales>
<clustering>
<clus scale="   22.351">  1  9  2 -1</clus>
<clus scale="   81.120">  5  6 -1 -1</clus>
<clus scale="   98.815">  7  8 -1 -1</clus>
<clus scale="  109.098">  2  7  1 -1</clus>
<clus scale="   92.885">  1 10  2 -1</clus>
<clus scale="   22.351">  1  5  2 -1</clus>
</clustering>
</event>
<event>
10    4  0.3043429E-005  0.1345015E+03  0.7546771E-02  0.1223164E+00
         21   -1    0    0  503  502  0.00000000000E+00  0.00000000000E+00  0.25890962788E+02  0.25890962788E+02  0.00000000000E+00 0.  1.
         -3   -1    0    0    0  501 -0.00000000000E+00 -0.00000000000E+00 -0.15878076583E+04  0.15878076583E+04  0.00000000000E+00 0.  1.
         23    2    1    2    0    0 -0.37794688120E+02 -0.92711260225E+02 -0.61191894544E+03  0.62666363869E+03  0.90767307168E+02 0.  0.
         24    2    1    2    0    0  0.77569882758E+02  0.69269241383E+02 -0.47317570974E+03  0.49125500232E+03  0.81368977513E+02 0.  0.
        -11    1    4    4    0    0  0.57197286081E+01  0.36763787867E+02 -0.59840377851E+02  0.70463907180E+02  0.00000000000E+00 0.  1.
         12    1    4    4    0    0  0.71850154150E+02  0.32505453516E+02 -0.41333533189E+03  0.42079109514E+03  0.00000000000E+00 0. -1.
        -11    1    3    3    0    0 -0.66832083194E+02 -0.77573769251E+02 -0.46412745695E+03  0.47528782155E+03  0.00000000000E+00 0. -1.
         11    1    3    3    0    0  0.29037395074E+02 -0.15137490975E+02 -0.14779148849E+03  0.15137581714E+03  0.00000000000E+00 0.  1.
         21    1    1    2  503  501  0.14695410895E+02  0.51025971582E+02 -0.92662178292E+02  0.10679833408E+03  0.00000000000E+00 0.  1.
         -4    1    1    2    0  502 -0.54470605534E+02 -0.27583952740E+02 -0.38415986201E+03  0.38898164596E+03  0.00000000000E+00 0.  1.
<scales pt_clust_5="13000.00000" pt_clust_6="13000.00000" pt_clust_7="13000.00000" pt_clust_8="13000.00000" pt_clust_9="53.09995" pt_clust_10="56.64428"></scales>
<clustering>
<clus scale="   53.100">  1  9  2 -1</clus>
<clus scale="   56.644">  1 10  2 -1</clus>
<clus scale="   81.369">  5  6 -1 -1</clus>
<clus scale="   90.767">  7  8 -1 -1</clus>
<clus scale="  128.347">  1  5  2 -1</clus>
<clus scale="   53.100">  1  5  2 -1</clus>
</clustering>
</event>
<event>
10    4  0.3043429E-005  0.1386921E+03  0.7546771E-02  0.1217428E+00
          4   -1    0    0  503    0 -0.00000000000E+00  0.00000000000E+00  0.71755134510E+03  0.71755134510E+03  0.00000000000E+00 0. -1.
         21   -1    0    0  501  502  0.00000000000E+00 -0.00000000000E+00 -0.83265315852E+02  0.83265315852E+02  0.00000000000E+00 0. -1.
         23    2    1    2    0    0  0.10691774699E+03 -0.20716392927E+02  0.49097361141E+03  0.51122724943E+03  0.91856626912E+02 0.  0.
         24    2    1    2    0    0 -0.76359349058E+02  0.54463850207E+02  0.78108556527E+02  0.14674097554E+03  0.81454933140E+02 0.  0.
        -11    1    4    4    0    0 -0.13000689423E+02 -0.16694589859E+02  0.37733947752E+02  0.43261739089E+02  0.00000000000E+00 0.  1.
         12    1    4    4    0    0 -0.63358659635E+02  0.71158440067E+02  0.40374608774E+02  0.10347923645E+03  0.00000000000E+00 0. -1.
        -13    1    3    3    0    0  0.45492361114E+02  0.36621841378E+02  0.20746294318E+03  0.21552630229E+03  0.00000000000E+00 0.  1.
         13    1    3    3    0    0  0.61425385874E+02 -0.57338234305E+02  0.28351066822E+03  0.29570094714E+03  0.00000000000E+00 0. -1.
         21    1    1    2  503  502 -0.54617628402E+02 -0.53817327030E+01 -0.12866753529E+02  0.56370220201E+02  0.00000000000E+00 0. -1.
          3    1    1    2  501    0  0.24059230471E+02 -0.28365724577E+02  0.78070614848E+02  0.86478215780E+02  0.00000000000E+00 0. -1.
<scales pt_clust_5="13000.00000" pt_clust_6="13000.00000" pt_clust_7="13000.00000" pt_clust_8="13000.00000" pt_clust_9="47.54173" pt_clust_10="37.19492"></scales>
<clustering>
<clus scale="   37.195">  2 10  1 -1</clus>
<clus scale="   47.542">  2  9  1 -1</clus>
<clus scale="   81.455">  5  6 -1 -1</clus>
<clus scale="   91.857">  7  8 -1 -1</clus>
<clus scale="  132.033">  2  5  1 -1</clus>
<clus scale="   37.195">  2  5  1 -1</clus>
</clustering>
</event>
<event>
10    4  0.4470728E-005  0.2350322E+03  0.7546771E-02  0.1165055E+00
         21   -1    0    0  501  502  0.00000000000E+00  0.00000000000E+00  0.80285442894E+02  0.80285442894E+02  0.00000000000E+00 0. -1.
          2   -1    0    0  503    0 -0.00000000000E+00 -0.00000000000E+00 -0.18907916507E+04  0.18907916507E+04  0.00000000000E+00 0. -1.
         24    2    1    2    0    0  0.27939144222E+02 -0.22571035684E+00 -0.53628940297E+03  0.54310317944E+03  0.81080781088E+02 0.  0.
         23    2    1    2    0    0  0.78105712339E+02 -0.20443069299E+03 -0.18307327187E+03  0.29956470927E+03  0.91273115589E+02 0.  0.
        -13    1    3    3    0    0 -0.37068888992E+01  0.36786048779E+02 -0.21913644101E+03  0.22223351275E+03  0.00000000000E+00 0.  1.
         14    1    3    3    0    0  0.31646033122E+02 -0.37011759136E+02 -0.31715296195E+03  0.32086966669E+03  0.00000000000E+00 0. -1.
        -11    1    4    4    0    0  0.26209612787E+02 -0.92129773314E+02 -0.13781747147E+03  0.16783472340E+03  0.00000000000E+00 0.  1.
         11    1    4    4    0    0  0.51896099551E+02 -0.11230091967E+03 -0.45255800395E+02  0.13172998587E+03  0.00000000000E+00 0. -1.
         21    1    1    2  503  502  0.24339220087E+02  0.17462491425E+02 -0.27791822998E+02  0.40862227873E+02  0.00000000000E+00 0.  1.
          1    1    1    2  501    0 -0.13038407665E+03  0.18719391192E+03 -0.10633517100E+04  0.10875469770E+04  0.00000000000E+00 0. -1.
<scales pt_clust_5="13000.00000" pt_clust_6="13000.00000" pt_clust_7="13000.00000" pt_clust_8="13000.00000" pt_clust_9="29.95557" pt_clust_10="216.58577"></scales>
<clustering>
<clus scale="   29.956">  1  9  2 -1</clus>
<clus scale="   81.081">  5  6 -1 -1</clus>
<clus scale="   86.134">  2  5  1 -1</clus>
<clus scale="   91.273">  7  8 -1 -1</clus>
<clus scale="  216.586">  1 10  2 -1</clus>
<clus scale="   29.956">  1  5  2 -1</clus>
</clustering>
</event>
<event>
10    4  0.3043429E-005  0.1800068E+03  0.7546771E-02  0.1169715E+00
         21   -1    0    0  503  502  0.00000000000E+00  0.00000000000E+00  0.10201549153E+03  0.10201549153E+03  0.00000000000E+00 0. -1.
          2   -1    0    0  502    0 -0.00000000000E+00 -0.00000000000E+00 -0.80755702052E+03  0.80755702052E+03  0.00000000000E+00 0. -1.
         24    2    1    2    0    0  0.17933246032E+03  0.20320061353E+02 -0.37384500941E+03  0.42245860381E+03  0.78346312318E+02 0.  0.
         23    2    1    2    0    0 -0.11571540985E+03  0.35281132163E+02 -0.13105701064E+03  0.20168582293E+03  0.94161652330E+02 0.  0.
        -11    1    3    3    0    0  0.63136203922E+02  0.24026759333E+02 -0.70695765285E+02  0.97782189784E+02  0.00000000000E+00 0.  1.
         12    1    3    3    0    0  0.11619625640E+03 -0.37066979796E+01 -0.30314924412E+03  0.32467641402E+03  0.00000000000E+00 0. -1.
        -13    1    4    4    0    0  0.14477595152E+02  0.14108816863E+02 -0.26718775039E+02  0.33504513341E+02  0.00000000000E+00 0.  1.
         13    1    4    4    0    0 -0.13019300500E+03  0.21172315300E+02 -0.10433823560E+03  0.16818130959E+03  0.00000000000E+00 0. -1.
         21    1    1    2  503  501 -0.40906942598E+02  0.32736968674E+02  0.12263536787E+02  0.53809677616E+02  0.00000000000E+00 0. -1.
          1    1    1    2  501    0 -0.22710107872E+02 -0.88338162190E+02 -0.21290304573E+03  0.23161840769E+03  0.00000000000E+00 0. -1.
<scales pt_clust_5="13000.00000" pt_clust_6="13000.00000" pt_clust_7="13000.00000" pt_clust_8="13000.00000" pt_clust_9="52.39358" pt_clust_10="88.52868"></scales>
<clustering>
<clus scale="   52.394">  1  9  2 -1</clus>
<clus scale="   78.346">  5  6 -1 -1</clus>
<clus scale="   88.529">  1 10  2 -1</clus>
<clus scale="   94.162">  7  8 -1 -1</clus>
<clus scale="  172.262">  2  5  1 -1</clus>
<clus scale="   52.394">  1  5  2 -1</clus>
</clustering>
</event>
<event>
10    4  0.3043429E-005  0.1128454E+03  0.7546771E-02  0.1266558E+00
          4   -1    0    0  503    0 -0.00000000000E+00  0.00000000000E+00  0.65096971843E+03  0.65096971843E+03  0.00000000000E+00 0. -1.
         21   -1    0    0  501  502  0.00000000000E+00 -0.00000000000E+00 -0.14907638814E+03  0.14907638814E+03  0.00000000000E+00 0.  1.
         23    2    1    2    0    0 -0.47471337126E+02  0.59615395353E+01  0.51118353732E+03  0.52427884614E+03  0.10616323223E+03 0.  0.
         24    2    1    2    0    0  0.30078394804E+01 -0.20932923443E+02  0.62547051226E+02  0.10540823873E+03  0.82167687034E+02 0.  0.
        -11    1    4    4    0    0  0.99877010781E+01  0.29463554207E+02  0.11042986285E+02  0.33012160569E+02  0.00000000000E+00 0.  1.
         12    1    4    4    0    0 -0.69798615977E+01 -0.50396477650E+02  0.51504064941E+02  0.72396078160E+02  0.00000000000E+00 0. -1.
        -13    1    3    3    0    0 -0.76975175884E+02  0.16087154970E+02  0.43335209176E+03  0.44042934699E+03  0.00000000000E+00 0. -1.
         13    1    3    3    0    0  0.29503838758E+02 -0.10125615434E+02  0.77831445563E+02  0.83849499150E+02  0.00000000000E+00 0.  1.
         21    1    1    2  503  502  0.57715897201E+02 -0.12774281749E+01 -0.11146399119E+03  0.12552680170E+03  0.00000000000E+00 0.  1.
          3    1    1    2  501    0 -0.13252399556E+02  0.16248812082E+02  0.39626732931E+02  0.44832220008E+02  0.00000000000E+00 0. -1.
<scales pt_clust_5="13000.00000" pt_clust_6="13000.00000" pt_clust_7="13000.00000" pt_clust_8="13000.00000" pt_clust_9="48.47019" pt_clust_10="20.96784"></scales>
<clustering>
<clus scale="   20.968">  2 10  1 -1</clus>
<clus scale="   48.470">  2  9  1 -1</clus>
<clus scale="   82.168">  5  6 -1 -1</clus>
<clus scale="   90.637">  2  5  1 -1</clus>
<clus scale="  106.163">  7  8 -1 -1</clus>
<clus scale="   20.968">  2  5  1 -1</clus>
</clustering>
</event>
<event>
10    4  0.3043429E-005  0.1296137E+03  0.7546771E-02  0.1230355E+00
         21   -1    0    0  503  502  0.00000000000E+00  0.00000000000E+00  0.14720859968E+03  0.14720859968E+03  0.00000000000E+00 0. -1.
          2   -1    0    0  502    0 -0.00000000000E+00 -0.00000000000E+00 -0.48555328939E+03  0.48555328939E+03  0.00000000000E+00 0. -1.
         23    2    1    2    0    0 -0.77279578716E+02 -0.57261726262E+02 -0.22034352773E+03  0.25720419379E+03  0.91387573052E+02 0.  0.
         24    2    1    2    0    0  0.25431351057E+02  0.91733617842E+02 -0.25798710606E+02  0.12860471656E+03  0.82533565257E+02 0.  0.
        -13    1    4    4    0    0  0.78726541675E+01  0.56771156372E+02 -0.55270279917E+02  0.79622526471E+02  0.00000000000E+00 0.  1.
         14    1    4    4    0    0  0.17558696889E+02  0.34962461470E+02  0.29471569311E+02  0.48982190091E+02  0.00000000000E+00 0. -1.
        -13    1    3    3    0    0 -0.26638786327E+02  0.24673812450E+02 -0.63282114783E+02  0.72959221551E+02  0.00000000000E+00 0.  1.
         13    1    3    3    0    0 -0.50640792389E+02 -0.81935538712E+02 -0.15706141295E+03  0.18424497224E+03  0.00000000000E+00 0. -1.
         21    1    1    2  503  501 -0.64810041318E+02  0.39836060390E+02  0.75099420926E+01  0.76443785838E+02  0.00000000000E+00 0. -1.
          1    1    1    2  501    0  0.11665826898E+03 -0.74307951971E+02 -0.99712393469E+02  0.17050919288E+03  0.00000000000E+00 0. -1.
<scales pt_clust_5="13000.00000" pt_clust_6="13000.00000" pt_clust_7="13000.00000" pt_clust_8="13000.00000" pt_clust_9="76.07400" pt_clust_10="112.72809"></scales>
<clustering>
<clus scale="   76.074">  1  9  2 -1</clus>
<clus scale="   82.534">  5  6 -1 -1</clus>
<clus scale="   91.388">  7  8 -1 -1</clus>
<clus scale="  112.728">  1 10  2 -1</clus>
<clus scale="  123.531">  1  5  2 -1</clus>
<clus scale="   76.074">  1  5  2 -1</clus>
</clustering>
</event>
<event>
10    4  0.3043429E-005  0.2232293E+03  0.7546771E-02  0.1134861E+00
         21   -1    0    0  501  502  0.00000000000E+00  0.00000000000E+00  0.51480830644E+03  0.51480830644E+03  0.00000000000E+00 0. -1.
          2   -1    0    0  503    0 -0.00000000000E+00 -0.00000000000E+00 -0.12457310667E+04  0.12457310667E+04  0.00000000000E+00 0. -1.
         24    2    1    2    0    0 -0.12106592683E+02 -0.19162614170E+03 -0.38008919998E+03  0.43343674530E+03  0.80823662797E+02 0.  0.
         23    2    1    2    0    0  0.16221378153E+03 -0.15637566338E+03  0.31813862379E+03  0.40032572812E+03  0.91004646236E+02 0.  0.
        -11    1    3    3    0    0 -0.26121163097E+02 -0.13099244378E+02 -0.55824343279E+02  0.63010020372E+02  0.00000000000E+00 0.  1.
         12    1    3    3    0    0  0.14014570414E+02 -0.17852689732E+03 -0.32426485670E+03  0.37042672493E+03  0.00000000000E+00 0. -1.
        -13    1    4    4    0    0  0.75524177707E+02 -0.16003532528E+02  0.11707057033E+03  0.14023385080E+03  0.00000000000E+00 0.  1.
         13    1    4    4    0    0  0.86689603821E+02 -0.14037213085E+03  0.20106805346E+03  0.26009187733E+03  0.00000000000E+00 0. -1.
         21    1    1    2  503  502 -0.12704800151E+01  0.46469051284E+02  0.87417423645E+02  0.99009054148E+02  0.00000000000E+00 0. -1.
          1    1    1    2  501    0 -0.14883670883E+03  0.30153275379E+03 -0.75638960767E+03  0.82776784553E+03  0.00000000000E+00 0. -1.
<scales pt_clust_5="13000.00000" pt_clust_6="13000.00000" pt_clust_7="13000.00000" pt_clust_8="13000.00000" pt_clust_9="46.48642" pt_clust_10="203.83702"></scales>
<clustering>
<clus scale="   46.486">  1  9  2 -1</clus>
<clus scale="   80.824">  5  6 -1 -1</clus>
<clus scale="   91.005">  7  8 -1 -1</clus>
<clus scale="  205.629">  2  5  1 -1</clus>
<clus scale="  203.837">  1 10  2 -1</clus>
<clus scale="   46.486">  1  5  2 -1</clus>
</clustering>
</event>
<event>
10    4  0.3043429E-005  0.1002539E+03  0.7546771E-02  0.1285999E+00
          2   -1    0    0  503    0 -0.00000000000E+00  0.00000000000E+00  0.18378388355E+03  0.18378388355E+03  0.00000000000E+00 0. -1.
         21   -1    0    0  501  502  0.00000000000E+00 -0.00000000000E+00 -0.15009436013E+03  0.15009436013E+03  0.00000000000E+00 0.  1.
         24    2    1    2    0    0 -0.42713878301E+02  0.30863524204E+01  0.88904426348E+02  0.12750587707E+03  0.80744973173E+02 0.  0.
         23    2    1    2    0    0  0.22062454157E+02 -0.89899606879E+01 -0.13100871070E+02  0.96819094106E+02  0.92923263417E+02 0.  0.
        -13    1    3    3    0    0  0.48462294976E+01  0.34038102311E+02  0.38379398946E+02  0.51527241462E+02  0.00000000000E+00 0.  1.
         14    1    3    3    0    0 -0.47560107798E+02 -0.30951749890E+02  0.50525027402E+02  0.75978635609E+02  0.00000000000E+00 0. -1.
        -13    1    4    4    0    0 -0.30374204230E+02  0.17518850986E+02 -0.14748076814E+02  0.38039560883E+02  0.00000000000E+00 0.  1.
         13    1    4    4    0    0  0.52436658387E+02 -0.26508811674E+02  0.16472057439E+01  0.58779533223E+02  0.00000000000E+00 0. -1.
         21    1    1    2  503  502  0.28227121714E+02 -0.43060594617E+02 -0.19017531866E+02  0.54887628180E+02  0.00000000000E+00 0.  1.
          1    1    1    2  501    0 -0.75756975696E+01  0.48964202884E+02 -0.23096499984E+02  0.54665644323E+02  0.00000000000E+00 0. -1.
<scales pt_clust_5="13000.00000" pt_clust_6="13000.00000" pt_clust_7="13000.00000" pt_clust_8="13000.00000" pt_clust_9="37.13192" pt_clust_10="49.54679"></scales>
<clustering>
<clus scale="   49.547">  2 10  1 -1</clus>
<clus scale="   37.132">  2  9  1 -1</clus>
<clus scale="   80.745">  5  6 -1 -1</clus>
<clus scale="   89.083">  1  5  2 -1</clus>
<clus scale="   92.923">  7  8 -1 -1</clus>
<clus scale="   49.547">  2  5  1 -1</clus>
</clustering>
</event>
<event>
10    4  0.3043429E-005  0.1037599E+03  0.7546771E-02  0.1276550E+00
          2   -1    0    0  502    0 -0.00000000000E+00  0.00000000000E+00  0.10130177644E+04  0.10130177644E+04  0.00000000000E+00 0. -1.
         21   -1    0    0  503  502  0.00000000000E+00 -0.00000000000E+00 -0.71551514909E+02  0.71551514909E+02  0.00000000000E+00 0. -1.
         23    2    1    2    0    0 -0.13565861610E+02  0.67074820761E+02  0.55088594893E+03  0.56239046646E+03  0.90136806317E+02 0.  0.
         24    2    1    2    0    0  0.50807495057E+02  0.17154386723E+02  0.11999165657E+03  0.15452146302E+03  0.81260139988E+02 0.  0.
        -13    1    4    4    0    0  0.44517382988E+02  0.20748910411E+02  0.13180771589E+03  0.14066125493E+03  0.00000000000E+00 0.  1.
         14    1    4    4    0    0  0.62901120691E+01 -0.35945236875E+01 -0.11816059322E+02  0.13860208089E+02  0.00000000000E+00 0. -1.
        -13    1    3    3    0    0 -0.25536162611E+02  0.83999864798E+02  0.49619807189E+03  0.50390534770E+03  0.00000000000E+00 0.  1.
         13    1    3    3    0    0  0.11970301001E+02 -0.16925044037E+02  0.54687877037E+02  0.58485118761E+02  0.00000000000E+00 0. -1.
         21    1    1    2  503  501  0.13840283515E+02 -0.48631631246E+02 -0.31265758810E+02  0.59448605361E+02  0.00000000000E+00 0. -1.
          1    1    1    2  501    0 -0.51081916963E+02 -0.35597576238E+02  0.30185440279E+03  0.30820874446E+03  0.00000000000E+00 0. -1.
<scales pt_clust_5="13000.00000" pt_clust_6="13000.00000" pt_clust_7="13000.00000" pt_clust_8="13000.00000" pt_clust_9="50.56272" pt_clust_10="64.51834"></scales>
<clustering>
<clus scale="   50.563">  2  9  1 -1</clus>
<clus scale="   64.518">  2 10  1 -1</clus>
<clus scale="   81.260">  5  6 -1 -1</clus>
<clus scale="   90.137">  7  8 -1 -1</clus>
<clus scale="   96.149">  2  5  1 -1</clus>
<clus scale="   50.563">  2  5  1 -1</clus>
</clustering>
</event>
<event>
10    4  0.3043429E-005  0.1705129E+03  0.7546771E-02  0.1200595E+00
         21   -1    0    0  501  502  0.00000000000E+00  0.00000000000E+00  0.10700886619E+03  0.10700886619E+03  0.00000000000E+00 0. -1.
          2   -1    0    0  503    0 -0.00000000000E+00 -0.00000000000E+00 -0.14870523820E+04  0.14870523820E+04  0.00000000000E+00 0. -1.
         24    2    1    2    0    0  0.28671319870E+02 -0.23801889341E+02 -0.16886177252E+03  0.19183585616E+03  0.83054939486E+02 0.  0.
         23    2    1    2    0    0  0.98055604065E+02  0.67824348518E+02 -0.22079646419E+03  0.26754810724E+03  0.92821696538E+02 0.  0.
        -13    1    3    3    0    0  0.53801742941E+02 -0.26832247550E+02 -0.84132284171E+02  0.10340618111E+03  0.00000000000E+00 0.  1.
         14    1    3    3    0    0 -0.25130423070E+02  0.30303582093E+01 -0.84729488345E+02  0.88429675051E+02  0.00000000000E+00 0. -1.
        -11    1    4    4    0    0  0.65062242382E+01  0.31442544741E+02 -0.12885729264E+03  0.13279746398E+03  0.00000000000E+00 0.  1.
         11    1    4    4    0    0  0.91549379827E+02  0.36381803777E+02 -0.91939171546E+02  0.13475064325E+03  0.00000000000E+00 0. -1.
         21    1    1    2  503  502  0.57402559587E+02 -0.57948082271E+02  0.37901700971E+02  0.89942053693E+02  0.00000000000E+00 0. -1.
          1    1    1    2  501    0 -0.18412948352E+03  0.13925623094E+02 -0.10282869801E+04  0.10447352311E+04  0.00000000000E+00 0. -1.
<scales pt_clust_5="13000.00000" pt_clust_6="13000.00000" pt_clust_7="13000.00000" pt_clust_8="13000.00000" pt_clust_9="81.56613" pt_clust_10="143.03422"></scales>
<clustering>
<clus scale="   81.566">  1  9  2 -1</clus>
<clus scale="   83.055">  5  6 -1 -1</clus>
<clus scale="   92.822">  7  8 -1 -1</clus>
<clus scale="  101.846">  2  5  1 -1</clus>
<clus scale="  143.034">  1 10  2 -1</clus>
<clus scale="   81.566">  1  5  2 -1</clus>
</clustering>
</event>
<event>
10    4  0.3043429E-005  0.1262811E+03  0.7546771E-02  0.1236126E+00
          2   -1    0    0  503    0 -0.00000000000E+00  0.00000000000E+00  0.30033049636E+03  0.30033049636E+03  0.00000000000E+00 0. -1.
         21   -1    0    0  501  502  0.00000000000E+00 -0.00000000000E+00 -0.21696473197E+03  0.21696473197E+03  0.00000000000E+00 0.  1.
         23    2    1    2    0    0 -0.55124415457E+02  0.71514186298E+02  0.23735516732E+03  0.26980936151E+03  0.91140748745E+02 0.  0.
         24    2    1    2    0    0  0.39725343498E+02 -0.55869229547E+02 -0.80122543637E+02  0.13249289025E+03  0.80220136135E+02 0.  0.
        -11    1    4    4    0    0  0.21353140121E+02 -0.49210112867E+02 -0.94203735751E+02  0.10840634498E+03  0.00000000000E+00 0.  1.
         12    1    4    4    0    0  0.18372203376E+02 -0.66591166793E+01  0.14081192114E+02  0.24086545274E+02  0.00000000000E+00 0. -1.
        -13    1    3    3    0    0 -0.77624915572E+01  0.61340816075E+02  0.19789551410E+03  0.20732965657E+03  0.00000000000E+00 0.  1.
         13    1    3    3    0    0 -0.47361923900E+02  0.10173370223E+02  0.39459653228E+02  0.62479704946E+02  0.00000000000E+00 0. -1.
         21    1    1    2  503  502 -0.26122539735E+02  0.77515817241E+01 -0.59131025315E+02  0.65107236589E+02  0.00000000000E+00 0.  1.
          1    1    1    2  501    0  0.41521611695E+02 -0.23396538476E+02 -0.14735833987E+02  0.49885739984E+02  0.00000000000E+00 0. -1.
<scales pt_clust_5="13000.00000" pt_clust_6="13000.00000" pt_clust_7="13000.00000" pt_clust_8="13000.00000" pt_clust_9="27.24838" pt_clust_10="42.13582"></scales>
<clustering>
<clus scale="   27.248">  2  9  1 -1</clus>
<clus scale="   42.136">  2 10  1 -1</clus>
<clus scale="   80.220">  5  6 -1 -1</clus>
<clus scale="   91.141">  7  8 -1 -1</clus>
<clus scale="  118.640">  2  5  1 -1</clus>
<clus scale="   27.248">  2  5  1 -1</clus>
</clustering>
</event>
<event>
10    4  0.3043429E-005  0.1115732E+03  0.7546771E-02  0.1258247E+00
         21   -1    0    0  501  502  0.00000000000E+00  0.00000000000E+00  0.60206974039E+02  0.60206974039E+02  0.00000000000E+00 0. -1.
          2   -1    0    0  503    0 -0.00000000000E+00 -0.00000000000E+00 -0.35548103863E+03  0.35548103863E+03  0.00000000000E+00 0. -1.
         23    2    1    2    0    0 -0.26121235659E+02  0.54492921618E+02 -0.11653892483E+03  0.16185664124E+03  0.94680799814E+02 0.  0.
         24    2    1    2    0    0  0.47345587681E+02 -0.31574550663E+02 -0.10127416409E+03  0.15077383162E+03  0.96113136810E+02 0.  0.
        -11    1    4    4    0    0  0.42913402861E+02  0.65012202273E+01 -0.99135262406E+00  0.43414384593E+02  0.00000000000E+00 0.  1.
         12    1    4    4    0    0  0.44321848207E+01 -0.38075770891E+02 -0.10028281146E+03  0.10735944703E+03  0.00000000000E+00 0. -1.
        -13    1    3    3    0    0  0.30886762166E+02  0.30786259002E+02 -0.21747375933E+02  0.48731244396E+02  0.00000000000E+00 0. -1.
         13    1    3    3    0    0 -0.57007997825E+02  0.23706662616E+02 -0.94791548895E+02  0.11312539684E+03  0.00000000000E+00 0.  1.
         21    1    1    2  503  502 -0.49290177617E+01 -0.37220073926E+02 -0.22015456750E+02  0.43523665460E+02  0.00000000000E+00 0. -1.
          1    1    1    2  501    0 -0.16295334261E+02  0.14301702971E+02 -0.55445518928E+02  0.59533874355E+02  0.00000000000E+00 0. -1.
<scales pt_clust_5="13000.00000" pt_clust_6="13000.00000" pt_clust_7="13000.00000" pt_clust_8="13000.00000" pt_clust_9="35.47614" pt_clust_10="21.68126"></scales>
<clustering>
<clus scale="   21.681">  1 10  2 -1</clus>
<clus scale="   35.476">  1  9  2 -1</clus>
<clus scale="   94.681">  7  8 -1 -1</clus>
<clus scale="   96.113">  5  6 -1 -1</clus>
<clus scale="  110.342">  2  7  1 -1</clus>
<clus scale="   21.681">  1  5  2 -1</clus>
</clustering>
</event>
<event>
10    4  0.3043429E-005  0.2703942E+03  0.7546771E-02  0.1101054E+00
          2   -1    0    0  502    0 -0.00000000000E+00  0.00000000000E+00  0.35449265558E+03  0.35449265558E+03  0.00000000000E+00 0. -1.
         21   -1    0    0  503  502  0.00000000000E+00 -0.00000000000E+00 -0.34459820112E+03  0.34459820112E+03  0.00000000000E+00 0. -1.
         24    2    1    2    0    0  0.86281100315E+02 -0.61213946927E+02  0.16971128776E+03  0.21549314929E+03  0.80273287147E+02 0.  0.
         23    2    1    2    0    0  0.67762682346E+02 -0.56534120218E+02  0.73268305707E+02  0.14687019828E+03  0.91731797400E+02 0.  0.
        -11    1    3    3    0    0 -0.13555090571E+01 -0.27540483570E+02  0.83852100192E+02  0.88269419091E+02  0.00000000000E+00 0.  1.
         12    1    3    3    0    0  0.87636609372E+02 -0.33673463356E+02  0.85859187564E+02  0.12722373020E+03  0.00000000000E+00 0. -1.
        -13    1    4    4    0    0  0.13139267168E+02 -0.68773678249E+02  0.51014468423E+02  0.86631028795E+02  0.00000000000E+00 0. -1.
         13    1    4    4    0    0  0.54623415178E+02  0.12239558031E+02  0.22253837284E+02  0.60239169486E+02  0.00000000000E+00 0.  1.
         21    1    1    2  503  501  0.20361319109E+02  0.11005362188E+02 -0.74347721308E+02  0.77867098164E+02  0.00000000000E+00 0.  1.
          1    1    1    2  501    0 -0.17440510177E+03  0.10674270496E+03 -0.15873741769E+03  0.25886041096E+03  0.00000000000E+00 0. -1.
<scales pt_clust_5="13000.00000" pt_clust_6="13000.00000" pt_clust_7="13000.00000" pt_clust_8="13000.00000" pt_clust_9="23.14522" pt_clust_10="196.05873"></scales>
<clustering>
<clus scale="   23.145">  2  9  1 -1</clus>
<clus scale="   80.273">  5  6 -1 -1</clus>
<clus scale="   91.732">  7  8 -1 -1</clus>
<clus scale="  103.386">  5  7 -1 -1</clus>
<clus scale="  196.059">  2 10  1 -1</clus>
<clus scale="   23.145">  2  5  1 -1</clus>
</clustering>
</event>
<event>
10    4  0.3043429E-005  0.1188815E+03  0.7546771E-02  0.1247179E+00
         21   -1    0    0  501  502  0.00000000000E+00  0.00000000000E+00  0.60554442139E+02  0.60554442139E+02  0.00000000000E+00 0.  1.
          2   -1    0    0  503    0 -0.00000000000E+00 -0.00000000000E+00 -0.64851264988E+03  0.64851264988E+03  0.00000000000E+00 0. -1.
         23    2    1    2    0    0 -0.46601477214E+02 -0.83130800049E+02 -0.45681072890E+03  0.47455847320E+03  0.86297594695E+02 0.  0.
         24    2    1    2    0    0  0.32090898695E+02  0.39067348822E+02 -0.84409630374E+02  0.12616899703E+03  0.78978139935E+02 0.  0.
        -11    1    4    4    0    0  0.53369602931E+02  0.36880520529E+02 -0.38289601899E+02  0.75329814317E+02  0.00000000000E+00 0.  1.
         12    1    4    4    0    0 -0.21278704236E+02  0.21868282929E+01 -0.46120028475E+02  0.50839182709E+02  0.00000000000E+00 0. -1.
        -13    1    3    3    0    0 -0.29000792763E+02  0.11196853187E+02 -0.83071434164E+02  0.88697681347E+02  0.00000000000E+00 0.  1.
         13    1    3    3    0    0 -0.17600684450E+02 -0.94327653236E+02 -0.37373929473E+03  0.38586079185E+03  0.00000000000E+00 0. -1.
         21    1    1    2  503  502  0.28060274684E+01 -0.26134926727E+02 -0.89838336006E+01  0.27778003012E+02  0.00000000000E+00 0.  1.
          1    1    1    2  501    0  0.11704551050E+02  0.70198377954E+02 -0.37754014869E+02  0.80561618786E+02  0.00000000000E+00 0. -1.
<scales pt_clust_5="13000.00000" pt_clust_6="13000.00000" pt_clust_7="13000.00000" pt_clust_8="13000.00000" pt_clust_9="26.28513" pt_clust_10="60.64692"></scales>
<clustering>
<clus scale="   26.285">  1  9  2 -1</clus>
<clus scale="   60.647">  1 10  2 -1</clus>
<clus scale="   78.978">  5  6 -1 -1</clus>
<clus scale="   86.298">  7  8 -1 -1</clus>
<clus scale="  113.680">  1  5  2 -1</clus>
<clus scale="   26.285">  1  5  2 -1</clus>
</clustering>
</event>
<event>
10    4  0.3043429E-005  0.2001710E+03  0.7546771E-02  0.1181784E+00
          2   -1    0    0  503    0 -0.00000000000E+00  0.00000000000E+00  0.52609869988E+03  0.52609869988E+03  0.00000000000E+00 0. -1.
         21   -1    0    0  501  502  0.00000000000E+00 -0.00000000000E+00 -0.27025891425E+03  0.27025891425E+03  0.00000000000E+00 0.  1.
         23    2    1    2    0    0 -0.15166282509E+02 -0.23541060079E+02  0.39469225749E+02  0.10316309596E+03  0.91107666813E+02 0.  0.
         24    2    1    2    0    0 -0.18577224499E+03 -0.43468627907E+02 -0.13245947447E+03  0.24561853378E+03  0.79888066322E+02 0.  0.
        -11    1    4    4    0    0 -0.93724367750E+02  0.72661959291E+01 -0.96022831210E+02  0.13437797002E+03  0.00000000000E+00 0.  1.
         12    1    4    4    0    0 -0.92047877240E+02 -0.50734823836E+02 -0.36436643256E+02  0.11124056376E+03  0.00000000000E+00 0. -1.
        -11    1    3    3    0    0 -0.55670123177E+01  0.34996767980E+02  0.94241728798E+01  0.36668520964E+02  0.00000000000E+00 0.  1.
         11    1    3    3    0    0 -0.95992701917E+01 -0.58537828059E+02  0.30045052869E+02  0.66494574997E+02  0.00000000000E+00 0. -1.
         21    1    1    2  503  502  0.44544363648E+02  0.10037333542E+03  0.84189033304E+02  0.13837196293E+03  0.00000000000E+00 0. -1.
          1    1    1    2  501    0  0.15639416385E+03 -0.33363647435E+02  0.26464100104E+03  0.30920402147E+03  0.00000000000E+00 0. -1.
<scales pt_clust_5="13000.00000" pt_clust_6="13000.00000" pt_clust_7="13000.00000" pt_clust_8="13000.00000" pt_clust_9="103.04852" pt_clust_10="183.53839"></scales>
<clustering>
<clus scale="   79.888">  5  6 -1 -1</clus>
<clus scale="   91.108">  7  8 -1 -1</clus>
<clus scale="   95.314">  1  7  2 -1</clus>
<clus scale="  103.049">  1  9  2 -1</clus>
<clus scale="  183.538">  2 10  1 -1</clus>
<clus scale="  183.538">  2  5  1 -1</clus>
</clustering>
</event>
<event>
10    4  0.3043429E-005  0.1046877E+03  0.7546771E-02  0.1274188E+00
         21   -1    0    0  501  502  0.00000000000E+00  0.00000000000E+00  0.23580207244E+03  0.23580207244E+03  0.00000000000E+00 0. -1.
          2   -1    0    0  503    0 -0.00000000000E+00 -0.00000000000E+00 -0.54937654641E+03  0.54937654641E+03  0.00000000000E+00 0. -1.
         23    2    1    2    0    0  0.43500127698E+02 -0.34068568974E+02 -0.13197100864E+03  0.16090795569E+03  0.73634873403E+02 0.  0.
         24    2    1    2    0    0 -0.10946956167E+03  0.76268276858E+02  0.48523118767E+02  0.16413934005E+03  0.82382005981E+02 0.  0.
        -13    1    4    4    0    0 -0.91499733158E+02  0.26669628391E+02  0.56485168115E+02  0.11078828667E+03  0.00000000000E+00 0.  1.
         14    1    4    4    0    0 -0.17969828508E+02  0.49598648467E+02 -0.79620493480E+01  0.53351053375E+02  0.00000000000E+00 0. -1.
        -11    1    3    3    0    0  0.61772831744E+02 -0.25067363095E+02 -0.74696110698E+02  0.10011875143E+03  0.00000000000E+00 0. -1.
         11    1    3    3    0    0 -0.18272704045E+02 -0.90012058790E+01 -0.57274897946E+02  0.60789204265E+02  0.00000000000E+00 0.  1.
         21    1    1    2  503  502  0.10904277984E+03  0.92235886115E+01  0.84609491133E+02  0.13832631135E+03  0.00000000000E+00 0. -1.
          1    1    1    2  501    0 -0.43073345868E+02 -0.51423296496E+02 -0.31473607523E+03  0.32180501177E+03  0.00000000000E+00 0. -1.
<scales pt_clust_5="13000.00000" pt_clust_6="13000.00000" pt_clust_7="13000.00000" pt_clust_8="13000.00000" pt_clust_9="89.71265" pt_clust_10="67.07960"></scales>
<clustering>
<clus scale="   67.080">  1 10  2 -1</clus>
<clus scale="   73.635">  7  8 -1 -1</clus>
<clus scale="   82.382">  5  6 -1 -1</clus>
<clus scale="   89.713">  1  9  2 -1</clus>
<clus scale="   97.953">  2  7  1 -1</clus>
<clus scale="   67.080">  1  5  2 -1</clus>
</clustering>
</event>
<event>
10    4  0.3043429E-005  0.2376721E+03  0.7546771E-02  0.1122100E+00
          2   -1    0    0  503    0 -0.00000000000E+00  0.00000000000E+00  0.95245504922E+03  0.95245504922E+03  0.00000000000E+00 0. -1.
         21   -1    0    0  501  502  0.00000000000E+00 -0.00000000000E+00 -0.29934127608E+03  0.29934127608E+03  0.00000000000E+00 0. -1.
         24    2    1    2    0    0  0.21305828018E+03  0.14092285082E+03  0.28266130380E+03  0.38923293035E+03  0.79698060005E+02 0.  0.
         23    2    1    2    0    0 -0.12332020678E+03 -0.72622405841E+01 -0.20081006027E+03  0.25298560808E+03  0.91741070696E+02 0.  0.
        -13    1    3    3    0    0  0.61752614768E+02  0.14667806635E+01  0.68478341599E+02  0.92221581772E+02  0.00000000000E+00 0.  1.
         14    1    3    3    0    0  0.15130566541E+03  0.13945607015E+03  0.21418296220E+03  0.29701134858E+03  0.00000000000E+00 0. -1.
        -11    1    4    4    0    0 -0.51946418359E+02  0.31054911911E+02 -0.13730635147E+03  0.15005289763E+03  0.00000000000E+00 0. -1.
         11    1    4    4    0    0 -0.71373788426E+02 -0.38317152495E+02 -0.63503708801E+02  0.10293271045E+03  0.00000000000E+00 0.  1.
         21    1    1    2  503  502 -0.41791871662E+01 -0.50911633361E+02  0.39271932445E+02  0.64434033669E+02  0.00000000000E+00 0. -1.
          1    1    1    2  501    0 -0.85558886229E+02 -0.82748976871E+02  0.53199059716E+03  0.54514375320E+03  0.00000000000E+00 0. -1.
<scales pt_clust_5="13000.00000" pt_clust_6="13000.00000" pt_clust_7="13000.00000" pt_clust_8="13000.00000" pt_clust_9="51.08287" pt_clust_10="143.41286"></scales>
<clustering>
<clus scale="   51.083">  1  9  2 -1</clus>
<clus scale="   79.698">  5  6 -1 -1</clus>
<clus scale="   91.741">  7  8 -1 -1</clus>
<clus scale="  143.413">  2 10  1 -1</clus>
<clus scale="  233.288">  1  5  2 -1</clus>
<clus scale="  143.413">  2  5  1 -1</clus>
</clustering>
</event>
<event>
10    4  0.3043429E-005  0.2670881E+03  0.7546771E-02  0.1116492E+00
         21   -1    0    0  503  502  0.00000000000E+00  0.00000000000E+00  0.12742688117E+03  0.12742688117E+03  0.00000000000E+00 0. -1.
          2   -1    0    0  502    0 -0.00000000000E+00 -0.00000000000E+00 -0.20875857279E+04  0.20875857279E+04  0.00000000000E+00 0. -1.
         23    2    1    2    0    0  0.57834007039E+02  0.15079020727E+03 -0.39910200674E+03  0.44037897453E+03  0.92567653339E+02 0.  0.
         24    2    1    2    0    0  0.20162638745E+03  0.84610126119E+01 -0.10047391964E+04  0.10279201447E+04  0.79963630899E+02 0.  0.
        -11    1    4    4    0    0  0.10274245571E+03 -0.18307430788E+02 -0.35042137478E+03  0.36563139106E+03  0.00000000000E+00 0.  1.
         12    1    4    4    0    0  0.98883931738E+02  0.26768443400E+02 -0.65431782157E+03  0.66228875360E+03  0.00000000000E+00 0. -1.
        -13    1    3    3    0    0 -0.22147014819E+02  0.13077088785E+02 -0.74512357812E+02  0.78826340668E+02  0.00000000000E+00 0.  1.
         13    1    3    3    0    0  0.79981021858E+02  0.13771311848E+03 -0.32458964893E+03  0.36155263386E+03  0.00000000000E+00 0. -1.
         21    1    1    2  503  501 -0.13093730066E+02  0.16860672974E+02  0.58001185426E+02  0.61805061047E+02  0.00000000000E+00 0. -1.
          1    1    1    2  501    0 -0.24636666442E+03 -0.17611189285E+03 -0.61431882907E+03  0.68490842884E+03  0.00000000000E+00 0. -1.
<scales pt_clust_5="13000.00000" pt_clust_6="13000.00000" pt_clust_7="13000.00000" pt_clust_8="13000.00000" pt_clust_9="21.34779" pt_clust_10="254.83699"></scales>
<clustering>
<clus scale="   21.348">  1  9  2 -1</clus>
<clus scale="   79.964">  5  6 -1 -1</clus>
<clus scale="   92.568">  7  8 -1 -1</clus>
<clus scale="  189.170">  2  7  1 -1</clus>
<clus scale="  254.837">  1 10  2 -1</clus>
<clus scale="   21.348">  1  5  2 -1</clus>
</clustering>
</event>
<event>
10    4  0.3043429E-005  0.2174314E+03  0.7546771E-02  0.1136659E+00
         21   -1    0    0  501  502  0.00000000000E+00  0.00000000000E+00  0.70898396266E+03  0.70898396266E+03  0.00000000000E+00 0. -1.
         -3   -1    0    0    0  501 -0.00000000000E+00 -0.00000000000E+00 -0.10161712999E+03  0.10161712999E+03  0.00000000000E+00 0.  1.
         23    2    1    2    0    0  0.98107571844E+01 -0.17295627905E+03  0.19902796396E+03  0.27897903457E+03  0.90592747329E+02 0.  0.
         24    2    1    2    0    0 -0.28602091094E+02  0.22857278594E+03  0.27056848974E+03  0.36410595561E+03  0.79386656198E+02 0.  0.
        -13    1    4    4    0    0 -0.24853829528E+02  0.60379790923E+02  0.33437838628E+02  0.73358851178E+02  0.00000000000E+00 0.  1.
         14    1    4    4    0    0 -0.37482615663E+01  0.16819299502E+03  0.23713065112E+03  0.29074710443E+03  0.00000000000E+00 0. -1.
        -11    1    3    3    0    0  0.36336242289E+02 -0.16235884500E+03  0.17690244518E+03  0.24284808454E+03  0.00000000000E+00 0. -1.
         11    1    3    3    0    0 -0.26525485105E+02 -0.10597434052E+02  0.22125518784E+02  0.36130950029E+02  0.00000000000E+00 0.  1.
         21    1    1    2  503  502 -0.19993540642E+02 -0.24618750698E+02  0.10063688865E+03  0.10551591307E+03  0.00000000000E+00 0. -1.
         -4    1    1    2    0  503  0.38784874551E+02 -0.30997756187E+02  0.37133490322E+02  0.62000189404E+02  0.00000000000E+00 0.  1.
<scales pt_clust_5="13000.00000" pt_clust_6="13000.00000" pt_clust_7="13000.00000" pt_clust_8="13000.00000" pt_clust_9="31.71474" pt_clust_10="49.69754"></scales>
<clustering>
<clus scale="   31.715">  1  9  2 -1</clus>
<clus scale="   49.698">  1 10  2 -1</clus>
<clus scale="   79.387">  5  6 -1 -1</clus>
<clus scale="   90.593">  7  8 -1 -1</clus>
<clus scale="  213.006">  1  5  2 -1</clus>
<clus scale="   31.715">  1  5  2 -1</clus>
</clustering>
</event>
<event>
10    4  0.3043429E-005  0.8346105E+02  0.7546771E-02  0.1319547E+00
          2   -1    0    0  503    0 -0.00000000000E+00  0.00000000000E+00  0.76067750656E+03  0.76067750656E+03  0.00000000000E+00 0. -1.
         21   -1    0    0  501  502  0.00000000000E+00 -0.00000000000E+00 -0.48487624808E+02  0.48487624808E+02  0.00000000000E+00 0. -1.
         24    2    1    2    0    0 -0.10404485631E+02 -0.13878330931E+02  0.39363795597E+03  0.40255691787E+03  0.82464358085E+02 0.  0.
         23    2    1    2    0    0  0.21261826491E+02 -0.53955392279E+02  0.10401157558E+03  0.14488586750E+03  0.82524282031E+02 0.  0.
        -13    1    3    3    0    0 -0.85130712491E+01  0.34224784293E+02  0.19542060852E+03  0.19857749740E+03  0.00000000000E+00 0.  1.
         14    1    3    3    0    0 -0.18914143817E+01 -0.48103115224E+02  0.19821734745E+03  0.20397942047E+03  0.00000000000E+00 0. -1.
        -13    1    4    4    0    0 -0.21492336606E+02 -0.53966158063E+02  0.58442610844E+02  0.82400276159E+02  0.00000000000E+00 0.  1.
         13    1    4    4    0    0  0.42754163097E+02  0.10765784116E-01  0.45568964737E+02  0.62485591341E+02  0.00000000000E+00 0. -1.
         21    1    1    2  503  502 -0.11662644149E+02  0.33988609291E+02 -0.78404908623E+01  0.36779289377E+02  0.00000000000E+00 0. -1.
          1    1    1    2  501    0  0.80530328858E+00  0.33845113919E+02  0.22238084106E+03  0.22494305662E+03  0.00000000000E+00 0. -1.
<scales pt_clust_5="13000.00000" pt_clust_6="13000.00000" pt_clust_7="13000.00000" pt_clust_8="13000.00000" pt_clust_9="51.24132" pt_clust_10="33.85471"></scales>
<clustering>
<clus scale="   33.855">  2 10  1 -1</clus>
<clus scale="   51.241">  2  9  1 -1</clus>
<clus scale="   82.464">  5  6 -1 -1</clus>
<clus scale="   82.524">  7  8 -1 -1</clus>
<clus scale="   83.402">  1  5  2 -1</clus>
<clus scale="   33.855">  2  5  1 -1</clus>
</clustering>
</event>
<event>
10    4  0.3043429E-005  0.1283550E+03  0.7546771E-02  0.1235913E+00
         21   -1    0    0  501  502  0.00000000000E+00  0.00000000000E+00  0.85119207125E+02  0.85119207125E+02  0.00000000000E+00 0.  1.
          2   -1    0    0  503    0 -0.00000000000E+00 -0.00000000000E+00 -0.60831212594E+03  0.60831212594E+03  0.00000000000E+00 0. -1.
         24    2    1    2    0    0 -0.92912705699E+02 -0.71159155406E+01 -0.37239221277E+03  0.39270485490E+03  0.82811447222E+02 0.  0.
         23    2    1    2    0    0  0.47686442592E+02  0.19275520230E+02 -0.16147686226E+03  0.19793036467E+03  0.10225512079E+03 0.  0.
        -13    1    3    3    0    0 -0.62019382683E+02 -0.40343685716E+02 -0.17195005108E+03  0.18719197865E+03  0.00000000000E+00 0.  1.
         14    1    3    3    0    0 -0.30893323016E+02  0.33227770176E+02 -0.20044216169E+03  0.20551287624E+03  0.00000000000E+00 0. -1.
        -13    1    4    4    0    0  0.11287131334E+02  0.50939668232E+02 -0.13063771937E+03  0.14067147137E+03  0.00000000000E+00 0. -1.
         13    1    4    4    0    0  0.36399311258E+02 -0.31664148002E+02 -0.30839142885E+02  0.57258893306E+02  0.00000000000E+00 0.  1.
         21    1    1    2  503  502  0.91682052946E+01  0.18605356571E+02  0.41403679618E+02  0.46308530179E+02  0.00000000000E+00 0.  1.
          1    1    1    2  501    0  0.36058057812E+02 -0.30764961261E+02 -0.30727523402E+02  0.56487583317E+02  0.00000000000E+00 0. -1.
<scales pt_clust_5="13000.00000" pt_clust_6="13000.00000" pt_clust_7="13000.00000" pt_clust_8="13000.00000" pt_clust_9="20.74163" pt_clust_10="46.23449"></scales>
<clustering>
<clus scale="   20.742">  1  9  2 -1</clus>
<clus scale="   46.234">  1 10  2 -1</clus>
<clus scale="   82.811">  5  6 -1 -1</clus>
<clus scale="  102.255">  7  8 -1 -1</clus>
<clus scale="  113.475">  2  5  1 -1</clus>
<clus scale="   20.742">  1  5  2 -1</clus>
</clustering>
</event>
<event>
10    4  0.3043429E-005  0.1500476E+03  0.7546771E-02  0.1214875E+00
         21   -1    0    0  501  502  0.00000000000E+00  0.00000000000E+00  0.14157115671E+03  0.14157115671E+03  0.00000000000E+00 0. -1.
          2   -1    0    0  503    0 -0.00000000000E+00 -0.00000000000E+00 -0.14232388037E+04  0.14232388037E+04  0.00000000000E+00 0. -1.
         23    2    1    2    0    0  0.59272773682E+02  0.99494096867E+01 -0.26775503974E+03  0.28922844254E+03  0.91367818250E+02 0.  0.
         24    2    1    2    0    0 -0.13241941283E+03  0.83728459173E+02 -0.10010126401E+04  0.10162928643E+04  0.79243452062E+02 0.  0.
        -11    1    4    4    0    0 -0.68123742539E+02  0.87746903685E+02 -0.64649401995E+03  0.65596865873E+03  0.00000000000E+00 0.  1.
         12    1    4    4    0    0 -0.64295670294E+02 -0.40184445123E+01 -0.35451862016E+03  0.36032420562E+03  0.00000000000E+00 0. -1.
        -11    1    3    3    0    0  0.29127892673E+02 -0.40806239727E+02 -0.13160980342E+03  0.14083580400E+03  0.00000000000E+00 0.  1.
         11    1    3    3    0    0  0.30144881009E+02  0.50755649414E+02 -0.13614523632E+03  0.14839263853E+03  0.00000000000E+00 0. -1.
         21    1    1    2  503  502  0.14426978729E+01  0.23420055406E+02  0.86598162058E+02  0.89720800510E+02  0.00000000000E+00 0. -1.
          1    1    1    2  501    0  0.71703941279E+02 -0.11709792427E+03 -0.99498129190E+02  0.16956785301E+03  0.00000000000E+00 0. -1.
<scales pt_clust_5="13000.00000" pt_clust_6="13000.00000" pt_clust_7="13000.00000" pt_clust_8="13000.00000" pt_clust_9="23.46445" pt_clust_10="127.41573"></scales>
<clustering>
<clus scale="   23.464">  1  9  2 -1</clus>
<clus scale="   79.243">  5  6 -1 -1</clus>
<clus scale="   91.368">  7  8 -1 -1</clus>
<clus scale="  110.048">  2  7  1 -1</clus>
<clus scale="  127.416">  1 10  2 -1</clus>
<clus scale="   23.464">  1  5  2 -1</clus>
</clustering>
</event>
<event>
10    4  0.3043429E-005  0.3503313E+03  0.7546771E-02  0.1102673E+00
          2   -1    0    0  503    0 -0.00000000000E+00  0.00000000000E+00  0.13599455783E+04  0.13599455783E+04  0.00000000000E+00 0. -1.
         21   -1    0    0  501  502  0.00000000000E+00 -0.00000000000E+00 -0.22580034691E+03  0.22580034691E+03  0.00000000000E+00 0. -1.
         23    2    1    2    0    0  0.44126210952E+02  0.64364532035E+02  0.27782431666E+03  0.30221339206E+03  0.89758943507E+02 0.  0.
         24    2    1    2    0    0  0.25183700983E+03 -0.25598511023E+03  0.56105966085E+03  0.67090700172E+03  0.79862417609E+02 0.  0.
        -13    1    4    4    0    0  0.11768677589E+03 -0.14843061368E+03  0.35634730282E+03  0.40356563843E+03  0.00000000000E+00 0.  1.
         14    1    4    4    0    0  0.13415023394E+03 -0.10755449656E+03  0.20471235803E+03  0.26734136329E+03  0.00000000000E+00 0. -1.
        -11    1    3    3    0    0  0.69610563257E+02  0.29158522981E+02  0.17786215124E+03  0.19321178749E+03  0.00000000000E+00 0. -1.
         11    1    3    3    0    0 -0.25484352305E+02  0.35206009054E+02  0.99962165413E+02  0.10900160458E+03  0.00000000000E+00 0.  1.
         21    1    1    2  503  502 -0.18353962437E+02  0.17588300242E+02 -0.97720327784E+02  0.10097266316E+03  0.00000000000E+00 0.  1.
          1    1    1    2  501    0 -0.27760925834E+03  0.17403227795E+03  0.39298158167E+03  0.51165286828E+03  0.00000000000E+00 0. -1.
<scales pt_clust_5="13000.00000" pt_clust_6="13000.00000" pt_clust_7="13000.00000" pt_clust_8="13000.00000" pt_clust_9="25.42078" pt_clust_10="341.10700"></scales>
<clustering>
<clus scale="   25.421">  2  9  1 -1</clus>
<clus scale="   79.862">  5  6 -1 -1</clus>
<clus scale="   89.759">  7  8 -1 -1</clus>
<clus scale="  119.226">  1  7  2 -1</clus>
<clus scale="  341.107">  2 10  1 -1</clus>
<clus scale="   25.421">  2  5  1 -1</clus>
</clustering>
</event>
<event>
10    4  0.3043429E-005  0.1776800E+03  0.7546771E-02  0.1205045E+00
         21   -1    0    0  503  502  0.00000000000E+00  0.00000000000E+00  0.36645050018E+03  0.36645050018E+03  0.00000000000E+00 0. -1.
          2   -1    0    0  502    0 -0.00000000000E+00 -0.00000000000E+00 -0.20523103349E+03  0.20523103349E+03  0.00000000000E+00 0. -1.
         24    2    1    2    0    0  0.13154869940E+02  0.33542245882E+02 -0.51635034129E+02  0.97812381332E+02  0.74852871224E+02 0.  0.
         23    2    1    2    0    0  0.36690665099E+02  0.14205789980E+03  0.29113625759E+01  0.17269048354E+03  0.91032275990E+02 0.  0.
        -13    1    3    3    0    0 -0.13475393829E+02 -0.16908167945E+02 -0.29603565037E+02  0.36658470304E+02  0.00000000000E+00 0.  1.
         14    1    3    3    0    0  0.26630263769E+02  0.50450413827E+02 -0.22031469092E+02  0.61153911028E+02  0.00000000000E+00 0. -1.
        -13    1    4    4    0    0  0.21917455252E+02  0.64116991755E+02  0.46495137968E+02  0.82177620622E+02  0.00000000000E+00 0. -1.
         13    1    4    4    0    0  0.14773209847E+02  0.77940908046E+02 -0.43583775392E+02  0.90512862918E+02  0.00000000000E+00 0.  1.
         21    1    1    2  503  501  0.10355841388E+02 -0.40241152363E+02  0.12203893015E+03  0.12891894456E+03  0.00000000000E+00 0. -1.
          1    1    1    2  501    0 -0.60201376427E+02 -0.13535899332E+03  0.87904208090E+02  0.17225972424E+03  0.00000000000E+00 0. -1.
<scales pt_clust_5="13000.00000" pt_clust_6="13000.00000" pt_clust_7="13000.00000" pt_clust_8="13000.00000" pt_clust_9="41.55230" pt_clust_10="152.58865"></scales>
<clustering>
<clus scale="   41.552">  1  9  2 -1</clus>
<clus scale="   74.853">  5  6 -1 -1</clus>
<clus scale="   81.758">  2  5  1 -1</clus>
<clus scale="   91.032">  7  8 -1 -1</clus>
<clus scale="  152.589">  1 10  2 -1</clus>
<clus scale="   41.552">  1  5  2 -1</clus>
</clustering>
</event>
<event>
10    4  0.3043429E-005  0.1523674E+03  0.7546771E-02  0.1215934E+00
         21   -1    0    0  501  502  0.00000000000E+00  0.00000000000E+00  0.12037584394E+03  0.12037584394E+03  0.00000000000E+00 0.  1.
         -1   -1    0    0    0  501 -0.00000000000E+00 -0.00000000000E+00 -0.73730036396E+03  0.73730036396E+03  0.00000000000E+00 0.  1.
         23    2    1    2    0    0  0.25885429516E+02  0.41622711165E+02 -0.50380380010E+03  0.51430734903E+03  0.91056437024E+02 0.  0.
         24    2    1    2    0    0  0.96008499128E+02  0.49152431531E+02 -0.69860474304E+02  0.15783146318E+03  0.91633462603E+02 0.  0.
        -11    1    4    4    0    0  0.32495804343E+02  0.67336327736E+02 -0.29262610062E+02  0.80289841702E+02  0.00000000000E+00 0.  1.
         12    1    4    4    0    0  0.63512694785E+02 -0.18183896205E+02 -0.40597864242E+02  0.77541621476E+02  0.00000000000E+00 0. -1.
        -13    1    3    3    0    0 -0.21431104837E+02  0.49979404863E+02 -0.23190005506E+03  0.23819082414E+03  0.00000000000E+00 0.  1.
         13    1    3    3    0    0  0.47316534353E+02 -0.83566936980E+01 -0.27190374504E+03  0.27611652489E+03  0.00000000000E+00 0. -1.
         21    1    1    2  503  502  0.26544153890E+00 -0.28895109486E+02  0.19543014745E+02  0.34884484184E+02  0.00000000000E+00 0.  1.
         -2    1    1    2    0  503 -0.12215937018E+03 -0.61880033210E+02 -0.62803260364E+02  0.15065291151E+03  0.00000000000E+00 0.  1.
<scales pt_clust_5="13000.00000" pt_clust_6="13000.00000" pt_clust_7="13000.00000" pt_clust_8="13000.00000" pt_clust_9="28.89633" pt_clust_10="121.73397"></scales>
<clustering>
<clus scale="   28.896">  1  9  2 -1</clus>
<clus scale="   91.056">  7  8 -1 -1</clus>
<clus scale="   91.633">  5  6 -1 -1</clus>
<clus scale="  102.770">  2  7  1 -1</clus>
<clus scale="  121.734">  1 10  2 -1</clus>
<clus scale="   28.896">  1  5  2 -1</clus>
</clustering>
</event>
<event>
10    4  0.3043429E-005  0.1636085E+03  0.7546771E-02  0.1206141E+00
         21   -1    0    0  501  502  0.00000000000E+00  0.00000000000E+00  0.51360672558E+03  0.51360672558E+03  0.00000000000E+00 0. -1.
          2   -1    0    0  503    0 -0.00000000000E+00 -0.00000000000E+00 -0.43027562405E+03  0.43027562405E+03  0.00000000000E+00 0. -1.
         23    2    1    2    0    0 -0.45225486693E+02 -0.18194014310E+01 -0.11342931340E+03  0.15273151082E+03  0.91717230598E+02 0.  0.
         24    2    1    2    0    0  0.69743331222E+02 -0.27034199235E+02 -0.21302420169E+02  0.11088752010E+03  0.79039666184E+02 0.  0.
        -11    1    4    4    0    0  0.29960309490E+02  0.20180198020E+02  0.15169958921E+02  0.39178925337E+02  0.00000000000E+00 0.  1.
         12    1    4    4    0    0  0.39783021732E+02 -0.47214397255E+02 -0.36472379090E+02  0.71708594762E+02  0.00000000000E+00 0. -1.
        -13    1    3    3    0    0 -0.56184725005E+02 -0.35178812152E+02 -0.64361904808E+02  0.92394409673E+02  0.00000000000E+00 0. -1.
         13    1    3    3    0    0  0.10959238312E+02  0.33359410721E+02 -0.49067408597E+02  0.60337101144E+02  0.00000000000E+00 0.  1.
         21    1    1    2  503  502 -0.89513132111E+02 -0.13604246486E+03  0.39657208484E+03  0.42870685969E+03  0.00000000000E+00 0. -1.
          1    1    1    2  501    0  0.64995287581E+02  0.16489606552E+03 -0.17850924974E+03  0.25155645902E+03  0.00000000000E+00 0. -1.
<scales pt_clust_5="13000.00000" pt_clust_6="13000.00000" pt_clust_7="13000.00000" pt_clust_8="13000.00000" pt_clust_9="13000.00000" pt_clust_10="163.60847"></scales>
<clustering>
<clus scale="   79.040">  5  6 -1 -1</clus>
<clus scale="   91.717">  7  8 -1 -1</clus>
<clus scale="  102.278">  2  7  1 -1</clus>
<clus scale="  102.774">  2  5  1 -1</clus>
<clus scale="  163.608">  2 10  1 -1</clus>
<clus scale="  163.608">  1  5  2 -1</clus>
</clustering>
</event>
<event>
10    4  0.3043429E-005  0.1322538E+03  0.7546771E-02  0.1226919E+00
         21   -1    0    0  501  502  0.00000000000E+00  0.00000000000E+00  0.24239071574E+03  0.24239071574E+03  0.00000000000E+00 0. -1.
         -1   -1    0    0    0  501 -0.00000000000E+00 -0.00000000000E+00 -0.11300797214E+03  0.11300797214E+03  0.00000000000E+00 0.  1.
         23    2    1    2    0    0 -0.55388946479E+02  0.10426921470E+03  0.11089097240E+02  0.15027089205E+03  0.92295007416E+02 0.  0.
         24    2    1    2    0    0  0.19258850152E+02 -0.64421729561E+02  0.69706430846E+02  0.12646942867E+03  0.81329375623E+02 0.  0.
        -11    1    4    4    0    0  0.22208651083E+02  0.11421688753E+01 -0.89998637011E+01  0.23990128789E+02  0.00000000000E+00 0.  1.
         12    1    4    4    0    0 -0.29498009310E+01 -0.65563898436E+02  0.78706294548E+02  0.10247929989E+03  0.00000000000E+00 0. -1.
        -13    1    3    3    0    0 -0.76083191300E+02  0.89206309526E+02 -0.92051727577E+01  0.11760592189E+03  0.00000000000E+00 0. -1.
         13    1    3    3    0    0  0.20694244821E+02  0.15062905173E+02  0.20294269998E+02  0.32664970162E+02  0.00000000000E+00 0.  1.
         21    1    1    2  503  502  0.22084455619E+01 -0.24502896435E+02  0.20430963016E+02  0.31979578097E+02  0.00000000000E+00 0. -1.
         -2    1    1    2    0  503  0.33921650765E+02 -0.15344588703E+02  0.28156252503E+02  0.46678789060E+02  0.00000000000E+00 0.  1.
<scales pt_clust_5="13000.00000" pt_clust_6="13000.00000" pt_clust_7="13000.00000" pt_clust_8="13000.00000" pt_clust_9="24.60222" pt_clust_10="39.50128"></scales>
<clustering>
<clus scale="   24.602">  1  9  2 -1</clus>
<clus scale="   39.501">  1 10  2 -1</clus>
<clus scale="   81.329">  5  6 -1 -1</clus>
<clus scale="   92.295">  7  8 -1 -1</clus>
<clus scale="  124.849">  1  5  2 -1</clus>
<clus scale="   24.602">  1  5  2 -1</clus>
</clustering>
</event>
<event>
10    4  0.3043429E-005  0.9592346E+02  0.7546771E-02  0.1292566E+00
          2   -1    0    0  503    0 -0.00000000000E+00  0.00000000000E+00  0.18125982395E+03  0.18125982395E+03  0.00000000000E+00 0. -1.
         21   -1    0    0  501  502  0.00000000000E+00 -0.00000000000E+00 -0.24789579757E+03  0.24789579757E+03  0.00000000000E+00 0. -1.
         24    2    1    2    0    0  0.36251206558E+02  0.16871038353E+02  0.13258993869E+03  0.16086192676E+03  0.81839389831E+02 0.  0.
         23    2    1    2    0    0 -0.79084572372E+01 -0.15705912964E+02 -0.10342947490E+03  0.13718856642E+03  0.88395854426E+02 0.  0.
        -11    1    3    3    0    0 -0.69384192316E+01  0.25498739547E+02  0.63760254069E+01  0.27184206442E+02  0.00000000000E+00 0.  1.
         12    1    3    3    0    0  0.43189625790E+02 -0.86277011932E+01  0.12621391329E+03  0.13367772032E+03  0.00000000000E+00 0. -1.
        -13    1    4    4    0    0 -0.44022468973E+02 -0.12460886385E+02 -0.84960631958E+02  0.96496427118E+02  0.00000000000E+00 0.  1.
         13    1    4    4    0    0  0.36114011736E+02 -0.32450265781E+01 -0.18468842944E+02  0.40692139300E+02  0.00000000000E+00 0. -1.
         21    1    1    2  503  502  0.56647022523E+01  0.37529705067E+02 -0.38764309154E+02  0.54251629268E+02  0.00000000000E+00 0. -1.
          1    1    1    2  501    0 -0.34007451573E+02 -0.38694830457E+02 -0.57032128250E+02  0.76853499070E+02  0.00000000000E+00 0. -1.
<scales pt_clust_5="13000.00000" pt_clust_6="13000.00000" pt_clust_7="13000.00000" pt_clust_8="13000.00000" pt_clust_9="37.95481" pt_clust_10="41.46628"></scales>
<clustering>
<clus scale="   37.955">  2  9  1 -1</clus>
<clus scale="   41.466">  2 10  1 -1</clus>
<clus scale="   81.839">  5  6 -1 -1</clus>
<clus scale="   88.396">  7  8 -1 -1</clus>
<clus scale="   89.918">  1  5  2 -1</clus>
<clus scale="   37.955">  2  5  1 -1</clus>
</clustering>
</event>
<event>
10    4  0.3043429E-005  0.1729819E+03  0.7546771E-02  0.1176328E+00
         21   -1    0    0  501  502  0.00000000000E+00  0.00000000000E+00  0.42583613656E+03  0.42583613656E+03  0.00000000000E+00 0.  1.
          2   -1    0    0  503    0 -0.00000000000E+00 -0.00000000000E+00 -0.38454230966E+03  0.38454230966E+03  0.00000000000E+00 0. -1.
         23    2    1    2    0    0  0.22725708985E+01 -0.14691613924E+03 -0.29742647293E+03  0.34429276780E+03  0.92116701043E+02 0.  0.
         24    2    1    2    0    0 -0.70415556288E+02  0.13968039514E+03  0.12111379306E+03  0.21351347547E+03  0.80314942478E+02 0.  0.
        -11    1    4    4    0    0 -0.34579442775E+02  0.10028173295E+03  0.12011003516E+03  0.16024538799E+03  0.00000000000E+00 0.  1.
         12    1    4    4    0    0 -0.35836113513E+02  0.39398662185E+02  0.10037578985E+01  0.53268087479E+02  0.00000000000E+00 0. -1.
        -13    1    3    3    0    0 -0.29681844197E+02 -0.29109981844E+02 -0.33092562447E+02  0.53136810285E+02  0.00000000000E+00 0.  1.
         13    1    3    3    0    0  0.31954415096E+02 -0.11780615740E+03 -0.26433391048E+03  0.29115595751E+03  0.00000000000E+00 0. -1.
         21    1    1    2  503  502  0.40935494284E+02 -0.15987550867E+02  0.21182646995E+03  0.21633716705E+03  0.00000000000E+00 0.  1.
          1    1    1    2  501    0  0.27207491106E+02  0.23223294968E+02  0.57800368201E+01  0.36235035906E+02  0.00000000000E+00 0. -1.
<scales pt_clust_5="13000.00000" pt_clust_6="13000.00000" pt_clust_7="13000.00000" pt_clust_8="13000.00000" pt_clust_9="55.44741" pt_clust_10="35.77106"></scales>
<clustering>
<clus scale="   35.771">  1 10  2 -1</clus>
<clus scale="   55.447">  1  9  2 -1</clus>
<clus scale="   80.315">  5  6 -1 -1</clus>
<clus scale="   92.117">  7  8 -1 -1</clus>
<clus scale="  166.996">  1  5  2 -1</clus>
<clus scale="   35.771">  1  5  2 -1</clus>
</clustering>
</event>
<event>
10    4  0.3043429E-005  0.1369477E+03  0.7546771E-02  0.1219511E+00
         21   -1    0    0  501  502  0.00000000000E+00  0.00000000000E+00  0.96003313778E+03  0.96003313778E+03  0.00000000000E+00 0.  1.
          4   -1    0    0  503    0 -0.00000000000E+00 -0.00000000000E+00 -0.95798510354E+02  0.95798510354E+02  0.00000000000E+00 0. -1.
         24    2    1    2    0    0 -0.95891425735E+02 -0.71808899437E+01  0.64697466363E+02  0.14040066017E+03  0.79245520450E+02 0.  0.
         23    2    1    2    0    0  0.11862194401E+03 -0.91382312113E+02  0.22277654792E+03  0.28258938070E+03  0.88348600508E+02 0.  0.
        -11    1    3    3    0    0 -0.42616862581E+02  0.33893712764E+02  0.44033512762E+02  0.70028072852E+02  0.00000000000E+00 0.  1.
         12    1    3    3    0    0 -0.53274563154E+02 -0.41074602708E+02  0.20663953602E+02  0.70372587315E+02  0.00000000000E+00 0. -1.
        -11    1    4    4    0    0  0.13047599811E+03 -0.67503281314E+02  0.19425787512E+03  0.24355040775E+03  0.00000000000E+00 0.  1.
         11    1    4    4    0    0 -0.11854054094E+02 -0.23879030800E+02  0.28518672797E+02  0.39038972944E+02  0.00000000000E+00 0. -1.
         21    1    1    2  503  502 -0.60032220135E+02  0.45931310453E+02  0.56148195947E+03  0.56654703559E+03  0.00000000000E+00 0.  1.
          3    1    1    2  501    0  0.37301701858E+02  0.52631891605E+02  0.15278653676E+02  0.66294571675E+02  0.00000000000E+00 0. -1.
<scales pt_clust_5="13000.00000" pt_clust_6="13000.00000" pt_clust_7="13000.00000" pt_clust_8="13000.00000" pt_clust_9="86.59564" pt_clust_10="64.50998"></scales>
<clustering>
<clus scale="   64.510">  1 10  2 -1</clus>
<clus scale="   79.246">  5  6 -1 -1</clus>
<clus scale="   86.596">  1  9  2 -1</clus>
<clus scale="   88.349">  7  8 -1 -1</clus>
<clus scale="  131.259">  2  5  1 -1</clus>
<clus scale="   64.510">  1  5  2 -1</clus>
</clustering>
</event>
<event>
10    4  0.3043429E-005  0.1810335E+03  0.7546771E-02  0.1193075E+00
          2   -1    0    0  502    0 -0.00000000000E+00  0.00000000000E+00  0.85977179827E+03  0.85977179827E+03  0.00000000000E+00 0. -1.
         21   -1    0    0  503  502  0.00000000000E+00 -0.00000000000E+00 -0.13732720233E+03  0.13732720233E+03  0.00000000000E+00 0. -1.
         24    2    1    2    0    0  0.44046855977E+02  0.56753217580E+02  0.17750330259E+03  0.20843759765E+03  0.82327130756E+02 0.  0.
         23    2    1    2    0    0 -0.24819176936E+02  0.13637986436E+03  0.38608675769E+03  0.42018505986E+03  0.90978245305E+02 0.  0.
        -11    1    3    3    0    0  0.29690943840E+02 -0.13126669491E+02  0.89163224838E+02  0.94889105073E+02  0.00000000000E+00 0.  1.
         12    1    3    3    0    0  0.14355912137E+02  0.69879887071E+02  0.88340077750E+02  0.11354849258E+03  0.00000000000E+00 0. -1.
        -13    1    4    4    0    0  0.24829235155E+02  0.67859774176E+02  0.11159416737E+03  0.13294622243E+03  0.00000000000E+00 0.  1.
         13    1    4    4    0    0 -0.49648412091E+02  0.68520090183E+02  0.27449259033E+03  0.28723883743E+03  0.00000000000E+00 0. -1.
         21    1    1    2  503  501 -0.52320628239E+02 -0.31705978841E+02 -0.65813048951E+02  0.89855854822E+02  0.00000000000E+00 0. -1.
          1    1    1    2  501    0  0.33092949198E+02 -0.16142710310E+03  0.22466758461E+03  0.27862048826E+03  0.00000000000E+00 0. -1.
<scales pt_clust_5="13000.00000" pt_clust_6="13000.00000" pt_clust_7="13000.00000" pt_clust_8="13000.00000" pt_clust_9="61.17775" pt_clust_10="156.51223"></scales>
<clustering>
<clus scale="   61.178">  2  9  1 -1</clus>
<clus scale="   82.327">  5  6 -1 -1</clus>
<clus scale="   90.978">  7  8 -1 -1</clus>
<clus scale="  100.289">  1  5  2 -1</clus>
<clus scale="  156.512">  2 10  1 -1</clus>
<clus scale="   61.178">  2  5  1 -1</clus>
</clustering>
</event>
<event>
10    4  0.3043429E-005  0.1653921E+03  0.7546771E-02  0.1198149E+00
          2   -1    0    0  503    0 -0.00000000000E+00  0.00000000000E+00  0.19454813134E+04  0.19454813134E+04  0.00000000000E+00 0. -1.
         21   -1    0    0  501  502  0.00000000000E+00 -0.00000000000E+00 -0.60088870691E+02  0.60088870691E+02  0.00000000000E+00 0. -1.
         23    2    1    2    0    0  0.19408948877E+02  0.57079468523E+02  0.16426904619E+03  0.19716973372E+03  0.90866998052E+02 0.  0.
         24    2    1    2    0    0 -0.25864540627E+02 -0.21192519190E+03  0.15533913966E+04  0.15700618202E+04  0.80548289655E+02 0.  0.
        -13    1    4    4    0    0  0.24261294933E+02 -0.82155708074E+02  0.46603674441E+03  0.47384429715E+03  0.00000000000E+00 0.  1.
         14    1    4    4    0    0 -0.50125835560E+02 -0.12976948383E+03  0.10873546522E+04  0.10962175231E+04  0.00000000000E+00 0. -1.
        -11    1    3    3    0    0  0.45827738286E+01  0.39594248102E+02  0.16910624552E+03  0.17374011791E+03  0.00000000000E+00 0.  1.
         11    1    3    3    0    0  0.14826175048E+02  0.17485220421E+02 -0.48371993235E+01  0.23429615811E+02  0.00000000000E+00 0. -1.
         21    1    1    2  503  502  0.13352467294E+02  0.36794798229E+02  0.85940335897E+01  0.40074966911E+02  0.00000000000E+00 0. -1.
          1    1    1    2  501    0 -0.68968755441E+01  0.11805092515E+03  0.15913796632E+03  0.19826366320E+03  0.00000000000E+00 0. -1.
<scales pt_clust_5="13000.00000" pt_clust_6="13000.00000" pt_clust_7="13000.00000" pt_clust_8="13000.00000" pt_clust_9="39.14263" pt_clust_10="144.45247"></scales>
<clustering>
<clus scale="   39.143">  2  9  1 -1</clus>
<clus scale="   80.548">  5  6 -1 -1</clus>
<clus scale="   90.867">  7  8 -1 -1</clus>
<clus scale="  117.698">  1  7  2 -1</clus>
<clus scale="  144.452">  2 10  1 -1</clus>
<clus scale="   39.143">  2  5  1 -1</clus>
</clustering>
</event>
<event>
10    4  0.3043429E-005  0.1259364E+03  0.7546771E-02  0.1237367E+00
         21   -1    0    0  503  502  0.00000000000E+00  0.00000000000E+00  0.75649158054E+02  0.75649158054E+02  0.00000000000E+00 0.  1.
          2   -1    0    0  502    0 -0.00000000000E+00 -0.00000000000E+00 -0.93442320616E+03  0.93442320616E+03  0.00000000000E+00 0. -1.
         24    2    1    2    0    0  0.28004386550E+02  0.72708087278E+02 -0.42079907920E+03  0.43519630849E+03  0.79077495163E+02 0.  0.
         23    2    1    2    0    0 -0.13579191289E+02 -0.11092565044E+03 -0.21788287848E+03  0.26167503505E+03  0.92260397089E+02 0.  0.
        -13    1    3    3    0    0  0.45466454001E+02  0.18158416829E+02 -0.25829010678E+03  0.26288915117E+03  0.00000000000E+00 0.  1.
         14    1    3    3    0    0 -0.17462067450E+02  0.54549670448E+02 -0.16250897242E+03  0.17230715732E+03  0.00000000000E+00 0. -1.
        -13    1    4    4    0    0 -0.36079792291E+02 -0.32342776813E+02 -0.30538621359E+02  0.57274898675E+02  0.00000000000E+00 0.  1.
         13    1    4    4    0    0  0.22500601002E+02 -0.78582873622E+02 -0.18734425712E+03  0.20440013637E+03  0.00000000000E+00 0. -1.
         21    1    1    2  503  501 -0.14242433814E+02 -0.23708413670E+02  0.38439992633E+02  0.47355768744E+02  0.00000000000E+00 0.  1.
          1    1    1    2  501    0 -0.18276144729E+00  0.61925976828E+02 -0.25853208306E+03  0.26584525194E+03  0.00000000000E+00 0. -1.
<scales pt_clust_5="13000.00000" pt_clust_6="13000.00000" pt_clust_7="13000.00000" pt_clust_8="13000.00000" pt_clust_9="27.65747" pt_clust_10="59.30554"></scales>
<clustering>
<clus scale="   27.657">  1  9  2 -1</clus>
<clus scale="   59.306">  1 10  2 -1</clus>
<clus scale="   79.077">  5  6 -1 -1</clus>
<clus scale="   92.260">  7  8 -1 -1</clus>
<clus scale="  116.624">  2  5  1 -1</clus>
<clus scale="   27.657">  1  5  2 -1</clus>
</clustering>
</event>
<event>
10    4  0.3043429E-005  0.2103063E+03  0.7546771E-02  0.1181494E+00
         21   -1    0    0  501  502  0.00000000000E+00  0.00000000000E+00  0.71535012203E+03  0.71535012203E+03  0.00000000000E+00 0.  1.
         -1   -1    0    0    0  501 -0.00000000000E+00 -0.00000000000E+00 -0.14347246424E+03  0.14347246424E+03  0.00000000000E+00 0.  1.
         24    2    1    2    0    0  0.10081458477E+01  0.24130399868E+02  0.98177261055E+02  0.12867487702E+03  0.79593698448E+02 0.  0.
         23    2    1    2    0    0 -0.28198659044E+02  0.18474151679E+03  0.28244439420E+03  0.35046859557E+03  0.90159903869E+02 0.  0.
        -11    1    3    3    0    0  0.53818862742E+01  0.26360377542E+02  0.11138291980E+03  0.11458616421E+03  0.00000000000E+00 0.  1.
         12    1    3    3    0    0 -0.43737404265E+01 -0.22299776745E+01 -0.13205658749E+02  0.14088712814E+02  0.00000000000E+00 0. -1.
        -11    1    4    4    0    0 -0.48904569090E+02  0.75692587465E+02  0.17034559835E+03  0.19271390078E+03  0.00000000000E+00 0. -1.
         11    1    4    4    0    0  0.20705910046E+02  0.10904892932E+03  0.11209879585E+03  0.15775469479E+03  0.00000000000E+00 0.  1.
         21    1    1    2  503  502 -0.20774207151E+02 -0.88098467905E+01  0.17152579572E+03  0.17300369846E+03  0.00000000000E+00 0.  1.
         -2    1    1    2    0  503  0.47964720347E+02 -0.20006206986E+03  0.19730206813E+02  0.20667541522E+03  0.00000000000E+00 0.  1.
<scales pt_clust_5="13000.00000" pt_clust_6="13000.00000" pt_clust_7="13000.00000" pt_clust_8="13000.00000" pt_clust_9="22.56504" pt_clust_10="189.99995"></scales>
<clustering>
<clus scale="   22.565">  1  9  2 -1</clus>
<clus scale="   79.594">  5  6 -1 -1</clus>
<clus scale="   82.723">  2  5  1 -1</clus>
<clus scale="   90.160">  7  8 -1 -1</clus>
<clus scale="  190.000">  1 10  2 -1</clus>
<clus scale="   22.565">  1  5  2 -1</clus>
</clustering>
</event>
<event>
10    4  0.3043429E-005  0.3578596E+03  0.7546771E-02  0.1059579E+00
         21   -1    0    0  503  502  0.00000000000E+00  0.00000000000E+00  0.45641618987E+03  0.45641618987E+03  0.00000000000E+00 0.  1.
          2   -1    0    0  502    0 -0.00000000000E+00 -0.00000000000E+00 -0.55883085253E+03  0.55883085253E+03  0.00000000000E+00 0. -1.
         23    2    1    2    0    0  0.20390134314E+03  0.32939523713E+03 -0.33828857514E+03  0.52234392183E+03  0.91252575967E+02 0.  0.
         24    2    1    2    0    0 -0.13786690227E+03 -0.21028543752E+03  0.12680977158E+03  0.29428757330E+03  0.85423706651E+02 0.  0.
        -11    1    4    4    0    0 -0.28613754825E+02 -0.72375464818E+02  0.81319701775E+02  0.11256042275E+03  0.00000000000E+00 0.  1.
         12    1    4    4    0    0 -0.10925314745E+03 -0.13790997270E+03  0.45490069807E+02  0.18172715056E+03  0.00000000000E+00 0. -1.
        -13    1    3    3    0    0  0.12335866081E+03  0.25792884190E+03 -0.27872405644E+03  0.39928905109E+03  0.00000000000E+00 0. -1.
         13    1    3    3    0    0  0.80542682335E+02  0.71466395236E+02 -0.59564518700E+02  0.12305487074E+03  0.00000000000E+00 0.  1.
         21    1    1    2  503  501 -0.49293308626E+02 -0.55823422004E+01  0.20579104183E+02  0.53707470139E+02  0.00000000000E+00 0. -1.
          1    1    1    2  501    0 -0.16741132243E+02 -0.11352745741E+03  0.88485036717E+02  0.14490807713E+03  0.00000000000E+00 0. -1.
<scales pt_clust_5="13000.00000" pt_clust_6="13000.00000" pt_clust_7="13000.00000" pt_clust_8="13000.00000" pt_clust_9="49.60839" pt_clust_10="119.04433"></scales>
<clustering>
<clus scale="   49.608">  1  9  2 -1</clus>
<clus scale="   85.424">  5  6 -1 -1</clus>
<clus scale="   91.253">  7  8 -1 -1</clus>
<clus scale="  119.044">  1 10  2 -1</clus>
<clus scale="  356.418">  1  5  2 -1</clus>
<clus scale="   49.608">  1  5  2 -1</clus>
</clustering>
</event>
<event>
10    4  0.3043429E-005  0.1504306E+03  0.7546771E-02  0.1216698E+00
         21   -1    0    0  503  502  0.00000000000E+00  0.00000000000E+00  0.12368854559E+03  0.12368854559E+03  0.00000000000E+00 0. -1.
          2   -1    0    0  502    0 -0.00000000000E+00 -0.00000000000E+00 -0.43414463668E+03  0.43414463668E+03  0.00000000000E+00 0. -1.
         24    2    1    2    0    0  0.40675844965E+02  0.60086177732E+02 -0.54264297468E+02  0.12014535986E+03  0.78901333313E+02 0.  0.
         23    2    1    2    0    0  0.76030711526E+02  0.26231956898E+02 -0.14254562146E+03  0.18744582167E+03  0.91366827719E+02 0.  0.
        -13    1    3    3    0    0  0.30417256561E+02 -0.96767652752E+01 -0.12815371101E+01  0.31945134532E+02  0.00000000000E+00 0.  1.
         14    1    3    3    0    0  0.10258588404E+02  0.69762943007E+02 -0.52982760358E+02  0.88200225330E+02  0.00000000000E+00 0. -1.
        -11    1    4    4    0    0 -0.16263366331E+02 -0.13584492328E+02 -0.26017447518E+02  0.33555075496E+02  0.00000000000E+00 0.  1.
         11    1    4    4    0    0  0.92294077858E+02  0.39816449226E+02 -0.11652817394E+03  0.15389074617E+03  0.00000000000E+00 0. -1.
         21    1    1    2  503  501  0.32281747166E+02 -0.40243941175E+02  0.83249974152E+01  0.52258889994E+02  0.00000000000E+00 0. -1.
          1    1    1    2  501    0 -0.14898830366E+03 -0.46074193455E+02 -0.12197116958E+03  0.19798311074E+03  0.00000000000E+00 0. -1.
<scales pt_clust_5="13000.00000" pt_clust_6="13000.00000" pt_clust_7="13000.00000" pt_clust_8="13000.00000" pt_clust_9="51.59153" pt_clust_10="119.50511"></scales>
<clustering>
<clus scale="   51.592">  1  9  2 -1</clus>
<clus scale="   78.901">  5  6 -1 -1</clus>
<clus scale="   91.367">  7  8 -1 -1</clus>
<clus scale="  105.081">  2  5  1 -1</clus>
<clus scale="  119.505">  1 10  2 -1</clus>
<clus scale="   51.592">  1  5  2 -1</clus>
</clustering>
</event>
<event>
10    4  0.3043429E-005  0.2434787E+03  0.7546771E-02  0.1146571E+00
          2   -1    0    0  503    0 -0.00000000000E+00  0.00000000000E+00  0.12890108033E+04  0.12890108033E+04  0.00000000000E+00 0. -1.
         21   -1    0    0  501  502  0.00000000000E+00 -0.00000000000E+00 -0.28510254757E+03  0.28510254757E+03  0.00000000000E+00 0. -1.
         23    2    1    2    0    0  0.10323035795E+02  0.77363877347E+02  0.31100112427E+03  0.33309184174E+03  0.90203886583E+02 0.  0.
         24    2    1    2    0    0  0.12185285537E+03 -0.26437701153E+03  0.77941534055E+03  0.83591263458E+03  0.80736218530E+02 0.  0.
        -13    1    4    4    0    0  0.41042216996E+02 -0.10308932094E+03  0.41079219802E+03  0.42551392647E+03  0.00000000000E+00 0.  1.
         14    1    4    4    0    0  0.80810638377E+02 -0.16128769058E+03  0.36862314253E+03  0.41039870811E+03  0.00000000000E+00 0. -1.
        -13    1    3    3    0    0  0.30548555105E+02  0.34820735429E+02  0.25824130520E+03  0.26236285855E+03  0.00000000000E+00 0.  1.
         13    1    3    3    0    0 -0.20225519309E+02  0.42543141919E+02  0.52759819064E+02  0.70728983192E+02  0.00000000000E+00 0. -1.
         21    1    1    2  503  502 -0.30739447890E+02  0.16762897930E+03 -0.19251646151E+03  0.25711276964E+03  0.00000000000E+00 0. -1.
          1    1    1    2  501    0 -0.10143644328E+03  0.19384154876E+02  0.10600825238E+03  0.14799610487E+03  0.00000000000E+00 0. -1.
<scales pt_clust_5="13000.00000" pt_clust_6="13000.00000" pt_clust_7="13000.00000" pt_clust_8="13000.00000" pt_clust_9="229.70313" pt_clust_10="103.27201"></scales>
<clustering>
<clus scale="   80.736">  5  6 -1 -1</clus>
<clus scale="   90.204">  7  8 -1 -1</clus>
<clus scale="  103.272">  2 10  1 -1</clus>
<clus scale="  119.520">  1  7  2 -1</clus>
<clus scale="  229.703">  2  9  1 -1</clus>
<clus scale="  103.272">  2  5  1 -1</clus>
</clustering>
</event>
<event>
10    4  0.3043429E-005  0.1015221E+03  0.7546771E-02  0.1281806E+00
         21   -1    0    0  501  502  0.00000000000E+00  0.00000000000E+00  0.52552254312E+02  0.52552254312E+02  0.00000000000E+00 0. -1.
          4   -1    0    0  503    0 -0.00000000000E+00 -0.00000000000E+00 -0.56108329762E+03  0.56108329762E+03  0.00000000000E+00 0. -1.
         23    2    1    2    0    0 -0.25303520830E+02  0.29274219474E+02 -0.17682054280E+03  0.20187204900E+03  0.89384404227E+02 0.  0.
         24    2    1    2    0    0  0.80342714185E+02  0.40422332077E+02 -0.18602225138E+03  0.22136010967E+03  0.79417274536E+02 0.  0.
        -13    1    4    4    0    0  0.16155831994E+02  0.22391122113E+02 -0.44925684158E+01  0.27974210049E+02  0.00000000000E+00 0.  1.
         14    1    4    4    0    0  0.64186882191E+02  0.18031209964E+02 -0.18152968296E+03  0.19338589962E+03  0.00000000000E+00 0. -1.
        -11    1    3    3    0    0 -0.57342943028E+02  0.14969228001E+02 -0.13393744449E+03  0.14646340819E+03  0.00000000000E+00 0.  1.
         11    1    3    3    0    0  0.32039422198E+02  0.14304991473E+02 -0.42883098318E+02  0.55408640817E+02  0.00000000000E+00 0. -1.
         21    1    1    2  503  502 -0.13632753679E+02  0.17994664202E+02 -0.12987559671E+02  0.26044896215E+02  0.00000000000E+00 0. -1.
          3    1    1    2  501    0 -0.41406439676E+02 -0.87691215754E+02 -0.13270068946E+03  0.16435849704E+03  0.00000000000E+00 0. -1.
<scales pt_clust_5="13000.00000" pt_clust_6="13000.00000" pt_clust_7="13000.00000" pt_clust_8="13000.00000" pt_clust_9="22.57565" pt_clust_10="93.63434"></scales>
<clustering>
<clus scale="   22.576">  1  9  2 -1</clus>
<clus scale="   79.417">  5  6 -1 -1</clus>
<clus scale="   89.384">  7  8 -1 -1</clus>
<clus scale="   93.634">  1 10  2 -1</clus>
<clus scale="   92.867">  1  5  2 -1</clus>
<clus scale="   22.576">  1  5  2 -1</clus>
</clustering>
</event>
<event>
10    4  0.3043429E-005  0.1244570E+03  0.7546771E-02  0.1249860E+00
          2   -1    0    0  503    0 -0.00000000000E+00  0.00000000000E+00  0.32998751517E+03  0.32998751517E+03  0.00000000000E+00 0. -1.
         21   -1    0    0  501  502  0.00000000000E+00 -0.00000000000E+00 -0.15160725894E+03  0.15160725894E+03  0.00000000000E+00 0.  1.
         23    2    1    2    0    0  0.13236928414E+02  0.36854015185E+01 -0.15029476762E+01  0.94757103904E+02  0.93743540739E+02 0.  0.
         24    2    1    2    0    0 -0.86322730571E+02  0.54057328864E+01  0.17723869026E+03  0.21249541280E+03  0.79119601725E+02 0.  0.
        -11    1    4    4    0    0  0.19489171314E+01 -0.21695065049E+02  0.17305144167E+02  0.27819815602E+02  0.00000000000E+00 0.  1.
         12    1    4    4    0    0 -0.88271647702E+02  0.27100797936E+02  0.15993354609E+03  0.18467559720E+03  0.00000000000E+00 0. -1.
        -13    1    3    3    0    0  0.43002902341E+02  0.29972723350E+02 -0.11805246450E+02  0.53730602067E+02  0.00000000000E+00 0.  1.
         13    1    3    3    0    0 -0.29765973927E+02 -0.26287321832E+02  0.10302298773E+02  0.41026501837E+02  0.00000000000E+00 0. -1.
         21    1    1    2  503  502 -0.38269010691E+02 -0.14944106059E+02 -0.37700058854E+02  0.55759644213E+02  0.00000000000E+00 0.  1.
          1    1    1    2  501    0  0.11135481285E+03  0.58529716544E+01  0.40344572507E+02  0.11858261320E+03  0.00000000000E+00 0. -1.
<scales pt_clust_5="13000.00000" pt_clust_6="13000.00000" pt_clust_7="13000.00000" pt_clust_8="13000.00000" pt_clust_9="41.08337" pt_clust_10="96.07097"></scales>
<clustering>
<clus scale="   41.083">  2  9  1 -1</clus>
<clus scale="   79.120">  5  6 -1 -1</clus>
<clus scale="   93.744">  7  8 -1 -1</clus>
<clus scale="   93.897">  1  7  2 -1</clus>
<clus scale="   96.071">  2 10  1 -1</clus>
<clus scale="   41.083">  2  5  1 -1</clus>
</clustering>
</event>
<event>
10    4  0.3043429E-005  0.2291814E+03  0.7546771E-02  0.1167570E+00
         -1   -1    0    0    0  501 -0.00000000000E+00  0.00000000000E+00  0.32372087794E+03  0.32372087794E+03  0.00000000000E+00 0.  1.
         21   -1    0    0  503  502  0.00000000000E+00 -0.00000000000E+00 -0.66908983241E+03  0.66908983241E+03  0.00000000000E+00 0.  1.
         24    2    1    2    0    0 -0.35748264354E+02  0.10507724250E+02 -0.19384044900E+02  0.89792075988E+02  0.79363247415E+02 0.  0.
         23    2    1    2    0    0  0.21867312760E+03 -0.10850070288E+03 -0.18521523855E+03  0.31885235187E+03  0.88157804223E+02 0.  0.
        -13    1    3    3    0    0 -0.55655471603E+02 -0.12451241900E+02 -0.15894264233E+02  0.59204666875E+02  0.00000000000E+00 0.  1.
         14    1    3    3    0    0  0.19907207249E+02  0.22958966151E+02 -0.34897806672E+01  0.30587409113E+02  0.00000000000E+00 0. -1.
        -13    1    4    4    0    0  0.20817938409E+03 -0.91014266183E+02 -0.19188888316E+03  0.29739468066E+03  0.00000000000E+00 0.  1.
         13    1    4    4    0    0  0.10493743513E+02 -0.17486436697E+02  0.66736446125E+01  0.21457671208E+02  0.00000000000E+00 0. -1.
         21    1    1    2  503  501 -0.91981274403E+02  0.17406220721E+03 -0.31616961341E+03  0.37245326051E+03  0.00000000000E+00 0.  1.
         -2    1    1    2    0  502 -0.90943588841E+02 -0.76069228580E+02  0.17539994238E+03  0.21171302198E+03  0.00000000000E+00 0.  1.
<scales pt_clust_5="13000.00000" pt_clust_6="13000.00000" pt_clust_7="13000.00000" pt_clust_8="13000.00000" pt_clust_9="211.54748" pt_clust_10="134.05871"></scales>
<clustering>
<clus scale="   79.363">  5  6 -1 -1</clus>
<clus scale="   87.675">  1  5  2 -1</clus>
<clus scale="   88.158">  7  8 -1 -1</clus>
<clus scale="  134.059">  2 10  1 -1</clus>
<clus scale="  211.547">  2  9  1 -1</clus>
<clus scale="  134.059">  2  5  1 -1</clus>
</clustering>
</event>
<event>
10    4  0.3043429E-005  0.2184562E+03  0.7546771E-02  0.1159425E+00
         21   -1    0    0  501  502  0.00000000000E+00  0.00000000000E+00  0.64073995685E+03  0.64073995685E+03  0.00000000000E+00 0. -1.
          2   -1    0    0  503    0 -0.00000000000E+00 -0.00000000000E+00 -0.15038664769E+04  0.15038664769E+04  0.00000000000E+00 0. -1.
         23    2    1    2    0    0  0.22085079524E+01  0.93372352813E+02 -0.16835723020E+03  0.21283071238E+03  0.90716489087E+02 0.  0.
         24    2    1    2    0    0  0.86342427899E+02  0.10963232603E+03 -0.12565310690E+04  0.12668190441E+04  0.80535093202E+02 0.  0.
        -11    1    4    4    0    0 -0.13072252328E+02  0.28329141895E+02 -0.18401957368E+03  0.18664572741E+03  0.00000000000E+00 0.  1.
         12    1    4    4    0    0  0.99414680227E+02  0.81303184136E+02 -0.10725114953E+04  0.10801733166E+04  0.00000000000E+00 0. -1.
        -13    1    3    3    0    0  0.31755406538E+02  0.12252067766E+02 -0.15770129545E+02  0.37512877719E+02  0.00000000000E+00 0. -1.
         13    1    3    3    0    0 -0.29546898585E+02  0.81120285047E+02 -0.15258710066E+03  0.17531783466E+03  0.00000000000E+00 0.  1.
         21    1    1    2  503  502  0.69301278570E+00 -0.77362295654E+02  0.48801359236E+03  0.49410795519E+03  0.00000000000E+00 0. -1.
          1    1    1    2  501    0 -0.89243948637E+02 -0.12564238319E+03  0.73748186743E+02  0.17084872218E+03  0.00000000000E+00 0. -1.
<scales pt_clust_5="13000.00000" pt_clust_6="13000.00000" pt_clust_7="13000.00000" pt_clust_8="13000.00000" pt_clust_9="77.36540" pt_clust_10="203.06949"></scales>
<clustering>
<clus scale="   77.365">  1  9  2 -1</clus>
<clus scale="   80.535">  5  6 -1 -1</clus>
<clus scale="   90.716">  7  8 -1 -1</clus>
<clus scale="  122.225">  2  7  1 -1</clus>
<clus scale="  203.069">  1 10  2 -1</clus>
<clus scale="   77.365">  1  5  2 -1</clus>
</clustering>
</event>
<event>
10    4  0.3043429E-005  0.1541866E+03  0.7546771E-02  0.1198079E+00
          2   -1    0    0  503    0 -0.00000000000E+00  0.00000000000E+00  0.64617733487E+03  0.64617733487E+03  0.00000000000E+00 0. -1.
         21   -1    0    0  501  502  0.00000000000E+00 -0.00000000000E+00 -0.13675244240E+03  0.13675244240E+03  0.00000000000E+00 0.  1.
         24    2    1    2    0    0  0.43669260295E+02  0.90710439589E+02  0.14283409693E+03  0.19208116732E+03  0.79738368746E+02 0.  0.
         23    2    1    2    0    0 -0.45672382351E+02 -0.19236470122E+03  0.54688449854E+02  0.22593187130E+03  0.94679665911E+02 0.  0.
        -13    1    3    3    0    0  0.28685128344E+02  0.10394677670E+03  0.11325762959E+03  0.15638113580E+03  0.00000000000E+00 0.  1.
         14    1    3    3    0    0  0.14984131951E+02 -0.13236337112E+02  0.29576467336E+02  0.35700031520E+02  0.00000000000E+00 0. -1.
        -13    1    4    4    0    0 -0.15974245888E+02 -0.18807239205E+03  0.52131085658E+02  0.19581637132E+03  0.00000000000E+00 0.  1.
         13    1    4    4    0    0 -0.29698136464E+02 -0.42923091623E+01  0.25573641963E+01  0.30115499979E+02  0.00000000000E+00 0. -1.
         21    1    1    2  503  502  0.50937608318E+02 -0.69978515167E+01  0.31635657793E+02  0.60369070815E+02  0.00000000000E+00 0.  1.
          1    1    1    2  501    0 -0.48934486262E+02  0.10865211314E+03  0.28026668790E+03  0.30454766783E+03  0.00000000000E+00 0. -1.
<scales pt_clust_5="13000.00000" pt_clust_6="13000.00000" pt_clust_7="13000.00000" pt_clust_8="13000.00000" pt_clust_9="51.41605" pt_clust_10="116.53549"></scales>
<clustering>
<clus scale="   51.416">  2  9  1 -1</clus>
<clus scale="   79.738">  5  6 -1 -1</clus>
<clus scale="   94.680">  7  8 -1 -1</clus>
<clus scale="  116.535">  2 10  1 -1</clus>
<clus scale="  145.490">  1  5  2 -1</clus>
<clus scale="   51.416">  2  5  1 -1</clus>
</clustering>
</event>
<event>
10    4  0.3043429E-005  0.1355087E+03  0.7546771E-02  0.1226062E+00
         21   -1    0    0  501  502  0.00000000000E+00  0.00000000000E+00  0.43879781535E+03  0.43879781535E+03  0.00000000000E+00 0. -1.
         -1   -1    0    0    0  501 -0.00000000000E+00 -0.00000000000E+00 -0.55881257113E+03  0.55881257113E+03  0.00000000000E+00 0.  1.
         23    2    1    2    0    0 -0.13580189591E+02  0.34292508261E+02 -0.35772444747E+03  0.37705192948E+03  0.11331804591E+03 0.  0.
         24    2    1    2    0    0  0.15056708812E+02  0.81765919812E+02 -0.15033753005E+02  0.11709608056E+03  0.81074707708E+02 0.  0.
        -13    1    4    4    0    0  0.17920586531E+02  0.53502321811E+02 -0.47643130728E+02  0.73847909695E+02  0.00000000000E+00 0.  1.
         14    1    4    4    0    0 -0.28638777191E+01  0.28263598002E+02  0.32609377723E+02  0.43248170864E+02  0.00000000000E+00 0. -1.
        -11    1    3    3    0    0 -0.49183934750E+02 -0.74491320687E+01 -0.81896249675E+02  0.95820377357E+02  0.00000000000E+00 0. -1.
         11    1    3    3    0    0  0.35603745158E+02  0.41741640330E+02 -0.27582819780E+03  0.28123155212E+03  0.00000000000E+00 0.  1.
         21    1    1    2  503  502  0.91227205249E+02 -0.12620319701E+02  0.33131633519E+03  0.34387816070E+03  0.00000000000E+00 0. -1.
         -2    1    1    2    0  503 -0.92703724470E+02 -0.10343810837E+03 -0.78572890495E+02  0.15958421574E+03  0.00000000000E+00 0.  1.
<scales pt_clust_5="13000.00000" pt_clust_6="13000.00000" pt_clust_7="13000.00000" pt_clust_8="13000.00000" pt_clust_9="92.09601" pt_clust_10="108.57947"></scales>
<clustering>
<clus scale="   81.075">  5  6 -1 -1</clus>
<clus scale="   92.096">  1  9  2 -1</clus>
<clus scale="  113.318">  7  8 -1 -1</clus>
<clus scale="  118.150">  2  7  1 -1</clus>
<clus scale="  108.579">  1 10  2 -1</clus>
<clus scale="   92.096">  1  5  2 -1</clus>
</clustering>
</event>
<event>
10    4  0.3043429E-005  0.2280138E+03  0.7546771E-02  0.1148590E+00
          2   -1    0    0  503    0 -0.00000000000E+00  0.00000000000E+00  0.49248181282E+03  0.49248181282E+03  0.00000000000E+00 0. -1.
         21   -1    0    0  501  502  0.00000000000E+00 -0.00000000000E+00 -0.34299993262E+03  0.34299993262E+03  0.00000000000E+00 0. -1.
         23    2    1    2    0    0 -0.19512234452E+03 -0.82840792146E+02  0.16056970029E+03  0.28171501823E+03  0.92980625251E+02 0.  0.
         24    2    1    2    0    0 -0.16135344585E+02  0.90467363987E+02 -0.86997066410E+02  0.14975673355E+03  0.80086805329E+02 0.  0.
        -11    1    4    4    0    0 -0.82744161046E+01  0.31888596632E+02  0.11494444785E+02  0.34892274474E+02  0.00000000000E+00 0.  1.
         12    1    4    4    0    0 -0.78609284806E+01  0.58578767355E+02 -0.98491511195E+02  0.11486445908E+03  0.00000000000E+00 0. -1.
        -11    1    3    3    0    0 -0.25390620731E+02 -0.47058108438E+02  0.15739912050E+02  0.55739519394E+02  0.00000000000E+00 0.  1.
         11    1    3    3    0    0 -0.16973172379E+03 -0.35782683707E+02  0.14482978824E+03  0.22597549884E+03  0.00000000000E+00 0. -1.
         21    1    1    2  503  502  0.22723570305E+03 -0.66437122441E+02 -0.69173531001E+02  0.24664738671E+03  0.00000000000E+00 0. -1.
          1    1    1    2  501    0 -0.15978013946E+02  0.58810550600E+02  0.14508277732E+03  0.15736260695E+03  0.00000000000E+00 0. -1.
<scales pt_clust_5="13000.00000" pt_clust_6="13000.00000" pt_clust_7="13000.00000" pt_clust_8="13000.00000" pt_clust_9="208.19439" pt_clust_10="60.94244"></scales>
<clustering>
<clus scale="   60.942">  2 10  1 -1</clus>
<clus scale="   80.087">  5  6 -1 -1</clus>
<clus scale="   92.981">  7  8 -1 -1</clus>
<clus scale="  138.700">  2  5  1 -1</clus>
<clus scale="  208.194">  2  9  1 -1</clus>
<clus scale="   60.942">  2  5  1 -1</clus>
</clustering>
</event>
<event>
10    4  0.3043429E-005  0.2623106E+03  0.7546771E-02  0.1105763E+00
          2   -1    0    0  503    0 -0.00000000000E+00  0.00000000000E+00  0.61583007829E+03  0.61583007829E+03  0.00000000000E+00 0. -1.
         21   -1    0    0  501  502  0.00000000000E+00 -0.00000000000E+00 -0.37145227500E+03  0.37145227500E+03  0.00000000000E+00 0.  1.
         24    2    1    2    0    0 -0.40387812062E+02  0.17943444131E+03  0.85168179505E+02  0.21852757652E+03  0.81687139810E+02 0.  0.
         23    2    1    2    0    0 -0.20778553855E+02  0.75287244550E+02  0.77498047490E+02  0.14199819123E+03  0.89764254890E+02 0.  0.
        -13    1    3    3    0    0  0.59270108575E+01  0.55513025483E+02  0.63362497857E+02  0.84448988098E+02  0.00000000000E+00 0.  1.
         14    1    3    3    0    0 -0.46314822920E+02  0.12392141582E+03  0.21805681647E+02  0.13407858842E+03  0.00000000000E+00 0. -1.
        -11    1    4    4    0    0 -0.47008624506E+02  0.76399650101E+02  0.72350700084E+02  0.11524470103E+03  0.00000000000E+00 0. -1.
         11    1    4    4    0    0  0.26230070651E+02 -0.11124055512E+01  0.51473474056E+01  0.26753490198E+02  0.00000000000E+00 0.  1.
         21    1    1    2  503  502  0.75572984140E+02 -0.85622100288E+02 -0.23845432747E+03  0.26439153973E+03  0.00000000000E+00 0.  1.
          1    1    1    2  501    0 -0.14406618223E+02 -0.16909958557E+03  0.32016590377E+03  0.36236504581E+03  0.00000000000E+00 0. -1.
<scales pt_clust_5="13000.00000" pt_clust_6="13000.00000" pt_clust_7="13000.00000" pt_clust_8="13000.00000" pt_clust_9="114.20341" pt_clust_10="184.15433"></scales>
<clustering>
<clus scale="   81.687">  5  6 -1 -1</clus>
<clus scale="   89.764">  7  8 -1 -1</clus>
<clus scale="   94.194">  5  7 -1 -1</clus>
<clus scale="  114.203">  2  9  1 -1</clus>
<clus scale="  184.154">  2 10  1 -1</clus>
<clus scale="  114.203">  2  5  1 -1</clus>
</clustering>
</event>
<event>
10    4  0.3043429E-005  0.2771779E+03  0.7546771E-02  0.1097240E+00
          2   -1    0    0  503    0 -0.00000000000E+00  0.00000000000E+00  0.10455163828E+04  0.10455163828E+04  0.00000000000E+00 0. -1.
         21   -1    0    0  501  502  0.00000000000E+00 -0.00000000000E+00 -0.62889415300E+02  0.62889415300E+02  0.00000000000E+00 0. -1.
         24    2    1    2    0    0  0.69906943062E+02  0.59174981540E+02  0.22642031478E+03  0.25795844816E+03  0.82992426787E+02 0.  0.
         23    2    1    2    0    0 -0.21464361364E+01  0.12376104472E+03  0.29795444145E+03  0.33510104044E+03  0.90523227656E+02 0.  0.
        -11    1    3    3    0    0  0.61895660236E+02  0.85624094151E+01  0.72389224215E+02  0.95627336016E+02  0.00000000000E+00 0.  1.
         12    1    3    3    0    0  0.80112828262E+01  0.50612572125E+02  0.15403109057E+03  0.16233111215E+03  0.00000000000E+00 0. -1.
        -13    1    4    4    0    0 -0.27533841756E+02  0.40794179245E+02  0.41536269064E+02  0.64401390900E+02  0.00000000000E+00 0. -1.
         13    1    4    4    0    0  0.25387405619E+02  0.82966865479E+02  0.25641817239E+03  0.27069964954E+03  0.00000000000E+00 0.  1.
         21    1    1    2  503  502 -0.36223606566E+02  0.11455791607E+02  0.91295431608E+02  0.98884987063E+02  0.00000000000E+00 0.  1.
          1    1    1    2  501    0 -0.31536900360E+02 -0.19439181787E+03  0.36695677961E+03  0.41646132239E+03  0.00000000000E+00 0. -1.
<scales pt_clust_5="13000.00000" pt_clust_6="13000.00000" pt_clust_7="13000.00000" pt_clust_8="13000.00000" pt_clust_9="37.99190" pt_clust_10="195.27921"></scales>
<clustering>
<clus scale="   37.992">  1  9  2 -1</clus>
<clus scale="   82.992">  5  6 -1 -1</clus>
<clus scale="   90.523">  7  8 -1 -1</clus>
<clus scale="  117.132">  5  7 -1 -1</clus>
<clus scale="  195.279">  2 10  1 -1</clus>
<clus scale="  195.279">  2  5  1 -1</clus>
</clustering>
</event>
<event>
10    4  0.3043429E-005  0.3113944E+03  0.7546771E-02  0.1080056E+00
         21   -1    0    0  503  502  0.00000000000E+00  0.00000000000E+00  0.45188347062E+03  0.45188347062E+03  0.00000000000E+00 0. -1.
          2   -1    0    0  502    0 -0.00000000000E+00 -0.00000000000E+00 -0.57221628058E+03  0.57221628058E+03  0.00000000000E+00 0. -1.
         23    2    1    2    0    0 -0.12305785573E+03 -0.20342926607E+03  0.33016002461E+02  0.25721893739E+03  0.92438212795E+02 0.  0.
         24    2    1    2    0    0 -0.73730513220E+02  0.40907752885E+03 -0.69551447036E+02  0.42920467220E+03  0.81231974406E+02 0.  0.
        -13    1    4    4    0    0 -0.26708375485E+02  0.41778722856E+02  0.96906465599E+01  0.50524327163E+02  0.00000000000E+00 0.  1.
         14    1    4    4    0    0 -0.47022137735E+02  0.36729880599E+03 -0.79242093596E+02  0.37868034504E+03  0.00000000000E+00 0. -1.
        -11    1    3    3    0    0 -0.12987417799E+02 -0.50357328667E+02  0.44339665645E+02  0.68341345619E+02  0.00000000000E+00 0.  1.
         11    1    3    3    0    0 -0.11007043793E+03 -0.15307193740E+03 -0.11323663183E+02  0.18887759178E+03  0.00000000000E+00 0. -1.
         21    1    1    2  503  501  0.66897124747E+02 -0.11716364317E+02  0.34302987875E+02  0.76086749631E+02  0.00000000000E+00 0. -1.
          1    1    1    2  501    0  0.12989124420E+03 -0.19393189846E+03 -0.11810035326E+03  0.26158939198E+03  0.00000000000E+00 0. -1.
<scales pt_clust_5="13000.00000" pt_clust_6="13000.00000" pt_clust_7="13000.00000" pt_clust_8="13000.00000" pt_clust_9="67.91538" pt_clust_10="242.06863"></scales>
<clustering>
<clus scale="   67.915">  1  9  2 -1</clus>
<clus scale="   81.232">  5  6 -1 -1</clus>
<clus scale="   92.438">  7  8 -1 -1</clus>
<clus scale="  242.069">  1 10  2 -1</clus>
<clus scale="  308.254">  1  5  2 -1</clus>
<clus scale="   67.915">  1  5  2 -1</clus>
</clustering>
</event>
<event>
10    4  0.3043429E-005  0.2120802E+03  0.7546771E-02  0.1161238E+00
         21   -1    0    0  503  502  0.00000000000E+00  0.00000000000E+00  0.29863107386E+03  0.29863107386E+03  0.00000000000E+00 0.  1.
          2   -1    0    0  502    0 -0.00000000000E+00 -0.00000000000E+00 -0.83231131588E+03  0.83231131588E+03  0.00000000000E+00 0. -1.
         24    2    1    2    0    0 -0.79942948995E+01 -0.99119409658E+02 -0.41034876637E+03  0.42986860061E+03  0.80699055801E+02 0.  0.
         23    2    1    2    0    0  0.25390276987E+03 -0.80621575500E+02  0.16898883061E+00  0.28100567362E+03  0.89429889109E+02 0.  0.
        -13    1    3    3    0    0 -0.28791351929E+02 -0.10263467372E+02 -0.54309499780E+02  0.62320161061E+02  0.00000000000E+00 0.  1.
         14    1    3    3    0    0  0.20797057029E+02 -0.88855942285E+02 -0.35603926659E+03  0.36754843955E+03  0.00000000000E+00 0. -1.
        -11    1    4    4    0    0  0.89181169009E+02  0.34464084772E+01 -0.28879688462E+02  0.93804024663E+02  0.00000000000E+00 0. -1.
         11    1    4    4    0    0  0.16472160086E+03 -0.84067983977E+02  0.29048677293E+02  0.18720164896E+03  0.00000000000E+00 0.  1.
         21    1    1    2  503  501 -0.13353107084E+03 -0.22051746358E+01  0.52105709276E+02  0.14335415799E+03  0.00000000000E+00 0. -1.
          1    1    1    2  501    0 -0.11237740413E+03  0.18194615979E+03 -0.17560617376E+03  0.27671395752E+03  0.00000000000E+00 0. -1.
<scales pt_clust_5="13000.00000" pt_clust_6="13000.00000" pt_clust_7="13000.00000" pt_clust_8="13000.00000" pt_clust_9="135.06016" pt_clust_10="192.30279"></scales>
<clustering>
<clus scale="   80.699">  5  6 -1 -1</clus>
<clus scale="   89.430">  7  8 -1 -1</clus>
<clus scale="  128.066">  2  5  1 -1</clus>
<clus scale="  135.060">  1  9  2 -1</clus>
<clus scale="  192.303">  1 10  2 -1</clus>
<clus scale="  135.060">  1  5  2 -1</clus>
</clustering>
</event>
<event>
10    4  0.3043429E-005  0.1390496E+03  0.7546771E-02  0.1223661E+00
         21   -1    0    0  501  502  0.00000000000E+00  0.00000000000E+00  0.35892596841E+03  0.35892596841E+03  0.00000000000E+00 0.  1.
          2   -1    0    0  503    0 -0.00000000000E+00 -0.00000000000E+00 -0.36037316846E+03  0.36037316846E+03  0.00000000000E+00 0. -1.
         24    2    1    2    0    0 -0.71971769232E+02 -0.69395171754E+02 -0.17627230643E+03  0.21702509397E+03  0.77668139986E+02 0.  0.
         23    2    1    2    0    0  0.58795622157E+02  0.24706231142E+01 -0.25395383223E+02  0.12751111274E+03  0.11023216055E+03 0.  0.
        -13    1    3    3    0    0  0.16104447055E+02 -0.19797243218E+02 -0.35342161431E+02  0.43593031881E+02  0.00000000000E+00 0.  1.
         14    1    3    3    0    0 -0.88076216287E+02 -0.49597928536E+02 -0.14093014500E+03  0.17343206209E+03  0.00000000000E+00 0. -1.
        -13    1    4    4    0    0 -0.32912169249E+02 -0.23209080535E+01 -0.41614494955E+01  0.33255302747E+02  0.00000000000E+00 0.  1.
         13    1    4    4    0    0  0.91707791406E+02  0.47915311678E+01 -0.21233933728E+02  0.94255809991E+02  0.00000000000E+00 0. -1.
         21    1    1    2  503  502 -0.12664636784E+02  0.54403139497E+02  0.28231685750E+03  0.28778968474E+03  0.00000000000E+00 0.  1.
          1    1    1    2  501    0  0.25840783859E+02  0.12521409143E+02 -0.82096367901E+02  0.86973245426E+02  0.00000000000E+00 0. -1.
<scales pt_clust_5="13000.00000" pt_clust_6="13000.00000" pt_clust_7="13000.00000" pt_clust_8="13000.00000" pt_clust_9="64.91010" pt_clust_10="28.71468"></scales>
<clustering>
<clus scale="   28.715">  1 10  2 -1</clus>
<clus scale="   64.910">  1  9  2 -1</clus>
<clus scale="   77.668">  5  6 -1 -1</clus>
<clus scale="  110.232">  7  8 -1 -1</clus>
<clus scale="  114.961">  2  5  1 -1</clus>
<clus scale="   28.715">  1  5  2 -1</clus>
</clustering>
</event>
<event>
10    4  0.3043429E-005  0.3076116E+03  0.7546771E-02  0.1105590E+00
          2   -1    0    0  503    0 -0.00000000000E+00  0.00000000000E+00  0.33233248158E+03  0.33233248158E+03  0.00000000000E+00 0. -1.
         21   -1    0    0  501  502  0.00000000000E+00 -0.00000000000E+00 -0.91745180028E+03  0.91745180028E+03  0.00000000000E+00 0. -1.
         23    2    1    2    0    0 -0.74797158639E+02 -0.10386092016E+03 -0.18642342777E+03  0.24345105890E+03  0.90183246690E+02 0.  0.
         24    2    1    2    0    0  0.27595561225E+03  0.30985101191E+03  0.77511527632E+02  0.42955931035E+03  0.79712073605E+02 0.  0.
        -11    1    4    4    0    0  0.81217010163E+02  0.66627451903E+02  0.51227689900E+02  0.11687470342E+03  0.00000000000E+00 0.  1.
         12    1    4    4    0    0  0.19473860209E+03  0.24322356001E+03  0.26283837732E+02  0.31268460693E+03  0.00000000000E+00 0. -1.
        -13    1    3    3    0    0  0.57951446522E+01 -0.66442921647E+02 -0.93847740813E+02  0.11513315767E+03  0.00000000000E+00 0. -1.
         13    1    3    3    0    0 -0.80592303292E+02 -0.37417998509E+02 -0.92575686955E+02  0.12831790124E+03  0.00000000000E+00 0.  1.
         21    1    1    2  503  502 -0.26434589151E+02 -0.15319687691E+02 -0.18416053902E+03  0.18667775568E+03  0.00000000000E+00 0. -1.
          1    1    1    2  501    0 -0.17472386446E+03 -0.19067040406E+03 -0.29204687955E+03  0.39009615693E+03  0.00000000000E+00 0. -1.
<scales pt_clust_5="13000.00000" pt_clust_6="13000.00000" pt_clust_7="13000.00000" pt_clust_8="13000.00000" pt_clust_9="30.55291" pt_clust_10="297.10414"></scales>
<clustering>
<clus scale="   30.553">  2  9  1 -1</clus>
<clus scale="   79.712">  5  6 -1 -1</clus>
<clus scale="   90.183">  7  8 -1 -1</clus>
<clus scale="  163.373">  1  7  2 -1</clus>
<clus scale="  297.104">  2 10  1 -1</clus>
<clus scale="   30.553">  2  5  1 -1</clus>
</clustering>
</event>
<event>
10    4  0.3043429E-005  0.1022287E+03  0.7546771E-02  0.1277618E+00
          2   -1    0    0  502    0 -0.00000000000E+00  0.00000000000E+00  0.12307668947E+04  0.12307668947E+04  0.00000000000E+00 0. -1.
         21   -1    0    0  503  502  0.00000000000E+00 -0.00000000000E+00 -0.39614155694E+02  0.39614155694E+02  0.00000000000E+00 0. -1.
         24    2    1    2    0    0 -0.24187334355E+02 -0.26110660227E+02  0.41452969103E+03  0.42496541689E+03  0.86567586780E+02 0.  0.
         23    2    1    2    0    0  0.93556173805E+02  0.56235543224E+02  0.15824856972E+03  0.21260157377E+03  0.90783398105E+02 0.  0.
        -11    1    3    3    0    0 -0.26951728811E+02 -0.32130143726E+02  0.79612518622E+02  0.89982748030E+02  0.00000000000E+00 0.  1.
         12    1    3    3    0    0  0.27643944557E+01  0.60194834991E+01  0.33491717241E+03  0.33498266886E+03  0.00000000000E+00 0. -1.
        -11    1    4    4    0    0  0.62462303498E+02 -0.13636970355E+02  0.56544403830E+02  0.85350898784E+02  0.00000000000E+00 0.  1.
         11    1    4    4    0    0  0.31093870307E+02  0.69872513579E+02  0.10170416589E+03  0.12725067499E+03  0.00000000000E+00 0. -1.
         21    1    1    2  503  501  0.10575248047E+02 -0.16976948315E+02  0.17724578939E+02  0.26724770231E+02  0.00000000000E+00 0. -1.
          1    1    1    2  501    0 -0.79944087497E+02 -0.13147934683E+02  0.60064989929E+03  0.60608928949E+03  0.00000000000E+00 0. -1.
<scales pt_clust_5="13000.00000" pt_clust_6="13000.00000" pt_clust_7="13000.00000" pt_clust_8="13000.00000" pt_clust_9="20.00132" pt_clust_10="80.43598"></scales>
<clustering>
<clus scale="   20.001">  2  9  1 -1</clus>
<clus scale="   80.436">  2 10  1 -1</clus>
<clus scale="   86.568">  5  6 -1 -1</clus>
<clus scale="   90.783">  7  8 -1 -1</clus>
<clus scale="   98.504">  1  5  2 -1</clus>
<clus scale="   20.001">  2  5  1 -1</clus>
</clustering>
</event>
<event>
10    4  0.3043429E-005  0.1929990E+03  0.7546771E-02  0.1186106E+00
         -3   -1    0    0    0  501 -0.00000000000E+00  0.00000000000E+00  0.20923904847E+03  0.20923904847E+03  0.00000000000E+00 0.  1.
         21   -1    0    0  501  502  0.00000000000E+00 -0.00000000000E+00 -0.63408976825E+03  0.63408976825E+03  0.00000000000E+00 0.  1.
         23    2    1    2    0    0 -0.17796827890E+02 -0.23625484080E+02  0.37528088671E+02  0.10359459398E+03  0.91916222080E+02 0.  0.
         24    2    1    2    0    0 -0.36510931413E+02 -0.14915843945E+03  0.62040975441E+02  0.18187882336E+03  0.75163392557E+02 0.  0.
        -13    1    4    4    0    0 -0.38853543471E+02 -0.14838158728E+03  0.38411279845E+02  0.15812058596E+03  0.00000000000E+00 0.  1.
         14    1    4    4    0    0  0.23426120587E+01 -0.77685217268E+00  0.23629695596E+02  0.23758237403E+02  0.00000000000E+00 0. -1.
        -13    1    3    3    0    0  0.41409925526E+01  0.24410998439E+02  0.43901821889E+02  0.50402526021E+02  0.00000000000E+00 0.  1.
         13    1    3    3    0    0 -0.21937820443E+02 -0.48036482519E+02 -0.63737332181E+01  0.53192067958E+02  0.00000000000E+00 0. -1.
         21    1    1    2  503  502 -0.31705391999E+01  0.60850636447E+02 -0.22421011219E+03  0.23234247714E+03  0.00000000000E+00 0.  1.
         -4    1    1    2    0  503  0.57478298503E+02  0.11193328709E+03 -0.30020967171E+03  0.32551292224E+03  0.00000000000E+00 0.  1.
<scales pt_clust_5="13000.00000" pt_clust_6="13000.00000" pt_clust_7="13000.00000" pt_clust_8="13000.00000" pt_clust_9="40.47466" pt_clust_10="187.03480"></scales>
<clustering>
<clus scale="   40.475">  9 10 -1 -1</clus>
<clus scale="   75.163">  5  6 -1 -1</clus>
<clus scale="   91.916">  7  8 -1 -1</clus>
<clus scale="   96.558">  1  7  2 -1</clus>
<clus scale="  187.035">  2  9  1 -1</clus>
<clus scale="  187.035">  2  5  1 -1</clus>
</clustering>
</event>
<event>
10    4  0.3043429E-005  0.3423363E+03  0.7546771E-02  0.1095844E+00
          2   -1    0    0  502    0 -0.00000000000E+00  0.00000000000E+00  0.57744884076E+03  0.57744884076E+03  0.00000000000E+00 0. -1.
         21   -1    0    0  503  502  0.00000000000E+00 -0.00000000000E+00 -0.46017998446E+03  0.46017998446E+03  0.00000000000E+00 0. -1.
         24    2    1    2    0    0  0.38461735041E+02 -0.12036153573E+03  0.20116137274E+03  0.25304802491E+03  0.87184864959E+02 0.  0.
         23    2    1    2    0    0 -0.35139044992E+03  0.11858979446E+03 -0.13529087861E+02  0.38208796305E+03  0.90936173485E+02 0.  0.
        -13    1    3    3    0    0 -0.85688826055E+01 -0.88493008914E+02  0.81606347271E+02  0.12068154080E+03  0.00000000000E+00 0.  1.
         14    1    3    3    0    0  0.47030617647E+02 -0.31868526821E+02  0.11955502547E+03  0.13236648410E+03  0.00000000000E+00 0. -1.
        -13    1    4    4    0    0 -0.16937730881E+03  0.29200870317E+02 -0.43014757484E+02  0.17717684084E+03  0.00000000000E+00 0.  1.
         13    1    4    4    0    0 -0.18201314110E+03  0.89388924139E+02  0.29485669624E+02  0.20491112221E+03  0.00000000000E+00 0. -1.
         21    1    1    2  503  501  0.15129282580E+02  0.21442727233E+02 -0.99239557054E+02  0.10265074489E+03  0.00000000000E+00 0. -1.
          1    1    1    2  501    0  0.29779943229E+03 -0.19670985954E+02  0.28876128466E+02  0.29984209237E+03  0.00000000000E+00 0. -1.
<scales pt_clust_5="13000.00000" pt_clust_6="13000.00000" pt_clust_7="13000.00000" pt_clust_8="13000.00000" pt_clust_9="26.24282" pt_clust_10="330.03746"></scales>
<clustering>
<clus scale="   26.243">  2  9  1 -1</clus>
<clus scale="   87.185">  5  6 -1 -1</clus>
<clus scale="   90.936">  7  8 -1 -1</clus>
<clus scale="  152.585">  1  5  2 -1</clus>
<clus scale="  330.037">  2 10  1 -1</clus>
<clus scale="   26.243">  2  5  1 -1</clus>
</clustering>
</event>
<event>
10    4  0.3043429E-005  0.2084746E+03  0.7546771E-02  0.1167547E+00
          2   -1    0    0  502    0 -0.00000000000E+00  0.00000000000E+00  0.12820332997E+03  0.12820332997E+03  0.00000000000E+00 0. -1.
         21   -1    0    0  503  502  0.00000000000E+00 -0.00000000000E+00 -0.65245019851E+03  0.65245019851E+03  0.00000000000E+00 0. -1.
         24    2    1    2    0    0 -0.86252794887E+02  0.55518693463E+02 -0.20159581512E+03  0.23285776531E+03  0.55317232775E+02 0.  0.
         23    2    1    2    0    0  0.63281093662E+02 -0.22452386273E+03 -0.13229177094E+03  0.28332894449E+03  0.91426015856E+02 0.  0.
        -11    1    3    3    0    0  0.13943105254E+01  0.22905039803E+02 -0.36463931953E+02  0.43083677694E+02  0.00000000000E+00 0.  1.
         12    1    3    3    0    0 -0.87647105412E+02  0.32613653660E+02 -0.16513188317E+03  0.18977408762E+03  0.00000000000E+00 0. -1.
        -13    1    4    4    0    0 -0.15007202179E+02 -0.21296500105E+02 -0.37846120505E+02  0.45946554509E+02  0.00000000000E+00 0.  1.
         13    1    4    4    0    0  0.78288295841E+02 -0.20322736263E+03 -0.94445650438E+02  0.23738238998E+03  0.00000000000E+00 0. -1.
         21    1    1    2  503  501  0.22028990402E+02  0.50856263036E+02 -0.10492159537E+03  0.11865992197E+03  0.00000000000E+00 0. -1.
          1    1    1    2  501    0  0.94271082272E+00  0.11814890624E+03 -0.85437687098E+02  0.14580689670E+03  0.00000000000E+00 0. -1.
<scales pt_clust_5="13000.00000" pt_clust_6="13000.00000" pt_clust_7="13000.00000" pt_clust_8="13000.00000" pt_clust_9="46.53016" pt_clust_10="199.29512"></scales>
<clustering>
<clus scale="   46.530">  9 10 -1 -1</clus>
<clus scale="   55.317">  5  6 -1 -1</clus>
<clus scale="   91.426">  7  8 -1 -1</clus>
<clus scale="  116.541">  1  5  2 -1</clus>
<clus scale="  199.295">  2  9  1 -1</clus>
<clus scale="  199.295">  2  5  1 -1</clus>
</clustering>
</event>
<event>
10    4  0.3043429E-005  0.4492448E+03  0.7546771E-02  0.1050254E+00
          2   -1    0    0  503    0 -0.00000000000E+00  0.00000000000E+00  0.49897984549E+03  0.49897984549E+03  0.00000000000E+00 0. -1.
         21   -1    0    0  501  502  0.00000000000E+00 -0.00000000000E+00 -0.12040127266E+04  0.12040127266E+04  0.00000000000E+00 0.  1.
         23    2    1    2    0    0 -0.21324687560E+03  0.36933379085E+01  0.20809850491E+03  0.31191190208E+03  0.92174704862E+02 0.  0.
         24    2    1    2    0    0 -0.14956998263E+03  0.33465414615E+03 -0.43171601222E+03  0.57233982215E+03  0.82641270387E+02 0.  0.
        -13    1    4    4    0    0 -0.83157749387E+02  0.24330375203E+03 -0.34326645425E+03  0.42888668159E+03  0.00000000000E+00 0.  1.
         14    1    4    4    0    0 -0.66412233242E+02  0.91350394124E+02 -0.88449557972E+02  0.14345314056E+03  0.00000000000E+00 0. -1.
        -13    1    3    3    0    0 -0.16674298731E+03 -0.32857776875E+02  0.13014078987E+03  0.21405485864E+03  0.00000000000E+00 0.  1.
         13    1    3    3    0    0 -0.46503888298E+02  0.36551114783E+02  0.77957715036E+02  0.97857043448E+02  0.00000000000E+00 0. -1.
         21    1    1    2  503  502 -0.45769226681E+02  0.52841248910E+02 -0.14404783180E+03  0.16011495103E+03  0.00000000000E+00 0.  1.
          1    1    1    2  501    0  0.40858608491E+03 -0.39118873297E+03 -0.33736754202E+03  0.65862589685E+03  0.00000000000E+00 0. -1.
<scales pt_clust_5="13000.00000" pt_clust_6="13000.00000" pt_clust_7="13000.00000" pt_clust_8="13000.00000" pt_clust_9="69.90722" pt_clust_10="441.57845"></scales>
<clustering>
<clus scale="   69.907">  2  9  1 -1</clus>
<clus scale="   82.641">  5  6 -1 -1</clus>
<clus scale="   92.175">  7  8 -1 -1</clus>
<clus scale="  234.475">  1  7  2 -1</clus>
<clus scale="  441.578">  2 10  1 -1</clus>
<clus scale="   69.907">  2  5  1 -1</clus>
</clustering>
</event>
<event>
10    4  0.3043429E-005  0.2078310E+03  0.7546771E-02  0.1177963E+00
         -1   -1    0    0    0  501 -0.00000000000E+00  0.00000000000E+00  0.49282874612E+03  0.49282874612E+03  0.00000000000E+00 0.  1.
         21   -1    0    0  501  502  0.00000000000E+00 -0.00000000000E+00 -0.18703837292E+03  0.18703837292E+03  0.00000000000E+00 0.  1.
         23    2    1    2    0    0 -0.79025663596E-01 -0.19632843458E+02 -0.44963091087E+02  0.10260311247E+03  0.90112509353E+02 0.  0.
         24    2    1    2    0    0  0.19413368213E+03  0.75499558548E+02  0.17131065265E+03  0.28154377907E+03  0.80817633843E+02 0.  0.
        -13    1    4    4    0    0  0.86988504602E+02  0.38131687592E+02  0.12953263103E+03  0.16062293745E+03  0.00000000000E+00 0.  1.
         14    1    4    4    0    0  0.10714517753E+03  0.37367870956E+02  0.41778021619E+02  0.12092084162E+03  0.00000000000E+00 0. -1.
        -11    1    3    3    0    0 -0.29194436997E+02  0.21453762328E+01 -0.57187128703E+02  0.64243952868E+02  0.00000000000E+00 0.  1.
         11    1    3    3    0    0  0.29115411333E+02 -0.21778219691E+02  0.12224037616E+02  0.38359159606E+02  0.00000000000E+00 0. -1.
         21    1    1    2  503  502 -0.27502066994E+02  0.30117518243E+01 -0.16251534053E+02  0.32086550096E+02  0.00000000000E+00 0.  1.
         -2    1    1    2    0  503 -0.16655258948E+03 -0.58878466915E+02  0.19569434569E+03  0.26363367741E+03  0.00000000000E+00 0.  1.
<scales pt_clust_5="13000.00000" pt_clust_6="13000.00000" pt_clust_7="13000.00000" pt_clust_8="13000.00000" pt_clust_9="27.66648" pt_clust_10="191.47395"></scales>
<clustering>
<clus scale="   27.666">  2  9  1 -1</clus>
<clus scale="   80.818">  5  6 -1 -1</clus>
<clus scale="   90.113">  7  8 -1 -1</clus>
<clus scale="   92.797">  1  7  2 -1</clus>
<clus scale="  191.474">  2 10  1 -1</clus>
<clus scale="   27.666">  2  5  1 -1</clus>
</clustering>
</event>
<event>
10    4  0.3043429E-005  0.2341030E+03  0.7546771E-02  0.1134796E+00
          2   -1    0    0  502    0 -0.00000000000E+00  0.00000000000E+00  0.22143287097E+04  0.22143287097E+04  0.00000000000E+00 0. -1.
         21   -1    0    0  503  502  0.00000000000E+00 -0.00000000000E+00 -0.80415481078E+02  0.80415481078E+02  0.00000000000E+00 0. -1.
         23    2    1    2    0    0 -0.41327166810E+02  0.14785611230E+03  0.85947651655E+03  0.87776313599E+03  0.90547643498E+02 0.  0.
         24    2    1    2    0    0 -0.12337159821E+03 -0.21866458896E+03  0.55554642059E+03  0.61469393118E+03  0.78626012849E+02 0.  0.
        -13    1    4    4    0    0 -0.25055486927E+02 -0.99858352874E+02  0.16125060284E+03  0.19131446621E+03  0.00000000000E+00 0.  1.
         14    1    4    4    0    0 -0.98316111281E+02 -0.11880623609E+03  0.39429581775E+03  0.42337946498E+03  0.00000000000E+00 0. -1.
        -13    1    3    3    0    0 -0.61924759433E+02  0.13032493889E+03  0.79255428542E+03  0.80558150479E+03  0.00000000000E+00 0. -1.
         13    1    3    3    0    0  0.20597592623E+02  0.17531173406E+02  0.66922231130E+02  0.72181631197E+02  0.00000000000E+00 0.  1.
         21    1    1    2  503  501 -0.25735586494E+02 -0.52942246043E+01 -0.21543740156E+02  0.33977668640E+02  0.00000000000E+00 0. -1.
          1    1    1    2  501    0  0.19043435151E+03  0.76102701269E+02  0.74043403169E+03  0.76830945501E+03  0.00000000000E+00 0. -1.
<scales pt_clust_5="13000.00000" pt_clust_6="13000.00000" pt_clust_7="13000.00000" pt_clust_8="13000.00000" pt_clust_9="26.27450" pt_clust_10="220.50445"></scales>
<clustering>
<clus scale="   26.274">  2  9  1 -1</clus>
<clus scale="   78.626">  5  6 -1 -1</clus>
<clus scale="   90.548">  7  8 -1 -1</clus>
<clus scale="  178.568">  1  7  2 -1</clus>
<clus scale="  220.504">  2 10  1 -1</clus>
<clus scale="   26.274">  2  5  1 -1</clus>
</clustering>
</event>
<event>
10    4  0.3043429E-005  0.1420820E+03  0.7546771E-02  0.1212131E+00
          2   -1    0    0  502    0 -0.00000000000E+00  0.00000000000E+00  0.56645900032E+03  0.56645900032E+03  0.00000000000E+00 0. -1.
         21   -1    0    0  503  502  0.00000000000E+00 -0.00000000000E+00 -0.89486882497E+02  0.89486882497E+02  0.00000000000E+00 0.  1.
         23    2    1    2    0    0 -0.10364718000E+03  0.26504609755E+02  0.28307996084E+03  0.31523673624E+03  0.88287617398E+02 0.  0.
         24    2    1    2    0    0  0.12989892857E+03 -0.18498091979E+01  0.40459401351E+02  0.15810492995E+03  0.80517403587E+02 0.  0.
        -13    1    4    4    0    0  0.49099801625E+02 -0.19384782594E+02 -0.19174982058E+02  0.56162623272E+02  0.00000000000E+00 0.  1.
         14    1    4    4    0    0  0.80799126943E+02  0.17534973397E+02  0.59634383410E+02  0.10194230668E+03  0.00000000000E+00 0. -1.
        -11    1    3    3    0    0 -0.96170522184E+02  0.53196099071E+02  0.24060648812E+03  0.26451857481E+03  0.00000000000E+00 0. -1.
         11    1    3    3    0    0 -0.74766578141E+01 -0.26691489316E+02  0.42473472721E+02  0.50718161431E+02  0.00000000000E+00 0.  1.
         21    1    1    2  503  501 -0.11742196885E+02  0.28005757086E+02  0.15176850280E+02  0.33949055982E+02  0.00000000000E+00 0.  1.
          1    1    1    2  501    0 -0.14509551685E+02 -0.52660557643E+02  0.13825590535E+03  0.14865516064E+03  0.00000000000E+00 0. -1.
<scales pt_clust_5="13000.00000" pt_clust_6="13000.00000" pt_clust_7="13000.00000" pt_clust_8="13000.00000" pt_clust_9="30.36777" pt_clust_10="53.08673"></scales>
<clustering>
<clus scale="   30.368">  2  9  1 -1</clus>
<clus scale="   53.087">  2 10  1 -1</clus>
<clus scale="   80.517">  5  6 -1 -1</clus>
<clus scale="   88.288">  7  8 -1 -1</clus>
<clus scale="  137.389">  2  5  1 -1</clus>
<clus scale="   30.368">  2  5  1 -1</clus>
</clustering>
</event>
<event>
10    4  0.3043429E-005  0.1298529E+03  0.7546771E-02  0.1232097E+00
         21   -1    0    0  503  502  0.00000000000E+00  0.00000000000E+00  0.52617154307E+03  0.52617154307E+03  0.00000000000E+00 0. -1.
          2   -1    0    0  502    0 -0.00000000000E+00 -0.00000000000E+00 -0.19971593722E+03  0.19971593722E+03  0.00000000000E+00 0. -1.
         24    2    1    2    0    0  0.70857790707E+02 -0.24770782488E+02 -0.44205847365E+02  0.11428200066E+03  0.73971620001E+02 0.  0.
         23    2    1    2    0    0 -0.95884556010E+02  0.85396994372E+02 -0.38905648621E+02  0.16213454814E+03  0.91035528657E+02 0.  0.
        -11    1    3    3    0    0  0.57352166401E+02 -0.29309169193E+00 -0.59311308339E+02  0.82505685808E+02  0.00000000000E+00 0.  1.
         12    1    3    3    0    0  0.13505624305E+02 -0.24477690796E+02  0.15105460974E+02  0.31776314856E+02  0.00000000000E+00 0. -1.
        -11    1    4    4    0    0 -0.79991217332E+02  0.17943888093E+02  0.13508674296E+01  0.81990260476E+02  0.00000000000E+00 0. -1.
         11    1    4    4    0    0 -0.15893338678E+02  0.67453106280E+02 -0.40256516051E+02  0.80144287667E+02  0.00000000000E+00 0.  1.
         21    1    1    2  503  501 -0.41822456776E+02  0.63187311969E+00  0.31752856361E+03  0.32027161264E+03  0.00000000000E+00 0. -1.
          1    1    1    2  501    0  0.66849222079E+02 -0.61258085004E+02  0.92038538234E+02  0.12919931885E+03  0.00000000000E+00 0. -1.
<scales pt_clust_5="13000.00000" pt_clust_6="13000.00000" pt_clust_7="13000.00000" pt_clust_8="13000.00000" pt_clust_9="41.82723" pt_clust_10="75.45978"></scales>
<clustering>
<clus scale="   41.827">  1  9  2 -1</clus>
<clus scale="   73.972">  5  6 -1 -1</clus>
<clus scale="   75.460">  1 10  2 -1</clus>
<clus scale="   91.036">  7  8 -1 -1</clus>
<clus scale="  118.516">  2  5  1 -1</clus>
<clus scale="   41.827">  1  5  2 -1</clus>
</clustering>
</event>
<event>
10    4  0.3043429E-005  0.1007673E+03  0.7546771E-02  0.1282446E+00
         21   -1    0    0  503  502  0.00000000000E+00  0.00000000000E+00  0.15694168395E+03  0.15694168395E+03  0.00000000000E+00 0.  1.
         -1   -1    0    0    0  501 -0.00000000000E+00 -0.00000000000E+00 -0.29297054986E+03  0.29297054986E+03  0.00000000000E+00 0.  1.
         23    2    1    2    0    0  0.21315773487E+02 -0.32091849435E+02 -0.18044289839E+03  0.20502636024E+03  0.89397538066E+02 0.  0.
         24    2    1    2    0    0 -0.41674649319E+02  0.51716532521E+02 -0.60269217238E+02  0.12117981897E+03  0.81491066053E+02 0.  0.
        -11    1    4    4    0    0 -0.66069381415E+02  0.42417300971E+02 -0.50244325977E+02  0.93214177436E+02  0.00000000000E+00 0.  1.
         12    1    4    4    0    0  0.24394732096E+02  0.92992315499E+01 -0.10024891260E+02  0.27965641531E+02  0.00000000000E+00 0. -1.
        -13    1    3    3    0    0 -0.27252668678E+02 -0.24417524789E+02 -0.31857347212E+02  0.48516121427E+02  0.00000000000E+00 0.  1.
         13    1    3    3    0    0  0.48568442165E+02 -0.76743246462E+01 -0.14858555118E+03  0.15651023881E+03  0.00000000000E+00 0. -1.
         21    1    1    2  503  501  0.38401965189E+01  0.21334803073E+02  0.31806433761E+02  0.38491169897E+02  0.00000000000E+00 0.  1.
         -2    1    1    2    0  502  0.16518679313E+02 -0.40959486158E+02  0.72876815955E+02  0.85214884711E+02  0.00000000000E+00 0.  1.
<scales pt_clust_5="13000.00000" pt_clust_6="13000.00000" pt_clust_7="13000.00000" pt_clust_8="13000.00000" pt_clust_9="21.67766" pt_clust_10="33.11380"></scales>
<clustering>
<clus scale="   21.678">  1  9  2 -1</clus>
<clus scale="   33.114">  1 10  2 -1</clus>
<clus scale="   81.491">  5  6 -1 -1</clus>
<clus scale="   89.398">  7  8 -1 -1</clus>
<clus scale="   93.824">  1  5  2 -1</clus>
<clus scale="   21.678">  1  5  2 -1</clus>
</clustering>
</event>
<event>
10    4  0.3043429E-005  0.1558992E+03  0.7546771E-02  0.1197304E+00
          2   -1    0    0  502    0 -0.00000000000E+00  0.00000000000E+00  0.21391278838E+04  0.21391278838E+04  0.00000000000E+00 0. -1.
         21   -1    0    0  503  502  0.00000000000E+00 -0.00000000000E+00 -0.49058566392E+02  0.49058566392E+02  0.00000000000E+00 0. -1.
         24    2    1    2    0    0  0.10173553006E+03 -0.97693188233E+02  0.10147827322E+04  0.10264261861E+04  0.62230578957E+02 0.  0.
         23    2    1    2    0    0  0.41746529153E+02  0.12765253217E+03  0.18985589972E+03  0.24853435102E+03  0.87670515638E+02 0.  0.
        -11    1    3    3    0    0  0.10195626915E+01 -0.35372972955E+02  0.20599232001E+03  0.20900986251E+03  0.00000000000E+00 0.  1.
         12    1    3    3    0    0  0.10071596737E+03 -0.62320215278E+02  0.80879041217E+03  0.81741632363E+03  0.00000000000E+00 0. -1.
        -11    1    4    4    0    0 -0.21973709762E+02  0.22989412122E+02  0.71134000975E+02  0.77919208705E+02  0.00000000000E+00 0.  1.
         11    1    4    4    0    0  0.63720238915E+02  0.10466312004E+03  0.11872189875E+03  0.17061514231E+03  0.00000000000E+00 0. -1.
         21    1    1    2  503  501 -0.28613413153E+02 -0.25125945072E+02  0.25929293949E+02  0.46069174214E+02  0.00000000000E+00 0. -1.
          1    1    1    2  501    0 -0.11486864606E+03 -0.48333988609E+01  0.85950139151E+03  0.86715673877E+03  0.00000000000E+00 0. -1.
<scales pt_clust_5="13000.00000" pt_clust_6="13000.00000" pt_clust_7="13000.00000" pt_clust_8="13000.00000" pt_clust_9="38.07940" pt_clust_10="117.90401"></scales>
<clustering>
<clus scale="   38.079">  2  9  1 -1</clus>
<clus scale="   62.231">  5  6 -1 -1</clus>
<clus scale="   87.671">  7  8 -1 -1</clus>
<clus scale="  117.904">  2 10  1 -1</clus>
<clus scale="  143.147">  1  5  2 -1</clus>
<clus scale="   38.079">  2  5  1 -1</clus>
</clustering>
</event>
<event>
10    4  0.4069231E-005  0.3384383E+03  0.7546771E-02  0.1067463E+00
          2   -1    0    0  503    0 -0.00000000000E+00  0.00000000000E+00  0.33039069415E+04  0.33039069415E+04  0.00000000000E+00 0. -1.
         21   -1    0    0  501  502  0.00000000000E+00 -0.00000000000E+00 -0.35932114570E+02  0.35932114570E+02  0.00000000000E+00 0. -1.
         24    2    1    2    0    0 -0.68431493412E+02  0.20035259349E+03  0.87440605501E+03  0.90321952094E+03  0.79972013570E+02 0.  0.
         23    2    1    2    0    0 -0.19870057165E+01  0.67959209490E+02  0.26679328721E+03  0.28987453521E+03  0.90698322549E+02 0.  0.
        -11    1    3    3    0    0 -0.24658939670E+02  0.66415766769E+01  0.65776047728E+02  0.70559636486E+02  0.00000000000E+00 0.  1.
         12    1    3    3    0    0 -0.43772553742E+02  0.19371101681E+03  0.80863000729E+03  0.83265988445E+03  0.00000000000E+00 0. -1.
        -13    1    4    4    0    0 -0.35315843342E+02  0.16073375111E+02  0.43817178054E+02  0.58527833302E+02  0.00000000000E+00 0. -1.
         13    1    4    4    0    0  0.33328837625E+02  0.51885834379E+02  0.22297610916E+03  0.23134670190E+03  0.00000000000E+00 0.  1.
         21    1    1    2  503  502  0.18950583982E+02 -0.11954664912E+02  0.72157884470E+02  0.75556594270E+02  0.00000000000E+00 0. -1.
          1    1    1    2  501    0  0.51467915147E+02 -0.25635713807E+03  0.20546176002E+04  0.20711884056E+04  0.00000000000E+00 0. -1.
<scales pt_clust_5="13000.00000" pt_clust_6="13000.00000" pt_clust_7="13000.00000" pt_clust_8="13000.00000" pt_clust_9="22.40622" pt_clust_10="265.24145"></scales>
<clustering>
<clus scale="   22.406">  2  9  1 -1</clus>
<clus scale="   79.972">  5  6 -1 -1</clus>
<clus scale="   90.698">  7  8 -1 -1</clus>
<clus scale="  108.515">  5  7 -1 -1</clus>
<clus scale="  265.241">  2 10  1 -1</clus>
<clus scale="   22.406">  2  5  1 -1</clus>
</clustering>
</event>
<event>
10    4  0.3043429E-005  0.1386498E+03  0.7546771E-02  0.1216081E+00
         21   -1    0    0  501  502  0.00000000000E+00  0.00000000000E+00  0.81667633374E+02  0.81667633374E+02  0.00000000000E+00 0.  1.
          2   -1    0    0  503    0 -0.00000000000E+00 -0.00000000000E+00 -0.96747113151E+03  0.96747113151E+03  0.00000000000E+00 0. -1.
         23    2    1    2    0    0  0.14803509968E+03 -0.47011537673E+02 -0.41046176902E+03  0.44689553862E+03  0.84334353602E+02 0.  0.
         24    2    1    2    0    0 -0.31341483473E+01  0.10323820549E+03 -0.16794718233E+03  0.21272096111E+03  0.79849867154E+02 0.  0.
        -11    1    4    4    0    0  0.16188274341E+02  0.98013317970E+02 -0.96396100092E+02  0.13842282629E+03  0.00000000000E+00 0.  1.
         12    1    4    4    0    0 -0.19322422688E+02  0.52248875200E+01 -0.71551082238E+02  0.74298134818E+02  0.00000000000E+00 0. -1.
        -13    1    3    3    0    0  0.10161246478E+03  0.10876445700E+01 -0.30996180715E+03  0.32619411071E+03  0.00000000000E+00 0. -1.
         13    1    3    3    0    0  0.46422634893E+02 -0.48099182243E+02 -0.10049996187E+03  0.12070142791E+03  0.00000000000E+00 0.  1.
         21    1    1    2  503  502 -0.90434940287E+02 -0.47205251606E+02 -0.29495318616E+02  0.10619222205E+03  0.00000000000E+00 0.  1.
          1    1    1    2  501    0 -0.54466011043E+02 -0.90214162107E+01 -0.27789922817E+03  0.28333004311E+03  0.00000000000E+00 0. -1.
<scales pt_clust_5="13000.00000" pt_clust_6="13000.00000" pt_clust_7="13000.00000" pt_clust_8="13000.00000" pt_clust_9="127.76739" pt_clust_10="55.20811"></scales>
<clustering>
<clus scale="   55.208">  1 10  2 -1</clus>
<clus scale="   79.850">  5  6 -1 -1</clus>
<clus scale="   84.334">  7  8 -1 -1</clus>
<clus scale="  127.767">  1  9  2 -1</clus>
<clus scale="  135.969">  1  5  2 -1</clus>
<clus scale="   55.208">  1  5  2 -1</clus>
</clustering>
</event>
<event>
10    4  0.3043429E-005  0.1430791E+03  0.7546771E-02  0.1211715E+00
          4   -1    0    0  503    0 -0.00000000000E+00  0.00000000000E+00  0.66255062324E+03  0.66255062324E+03  0.00000000000E+00 0. -1.
         21   -1    0    0  501  502  0.00000000000E+00 -0.00000000000E+00 -0.24547539127E+03  0.24547539127E+03  0.00000000000E+00 0.  1.
         24    2    1    2    0    0 -0.83908213253E+02 -0.75666708228E+02  0.28931852811E+03  0.32068535740E+03  0.79798801729E+02 0.  0.
         23    2    1    2    0    0 -0.98533340157E+01  0.11824220374E+03 -0.13645055645E+03  0.20276374776E+03  0.91739174358E+02 0.  0.
        -11    1    3    3    0    0  0.63114257790E+01 -0.40406196122E+02  0.99591821673E+02  0.10766162605E+03  0.00000000000E+00 0.  1.
         12    1    3    3    0    0 -0.90219639032E+02 -0.35260512106E+02  0.18972670643E+03  0.21302373134E+03  0.00000000000E+00 0. -1.
        -13    1    4    4    0    0 -0.76231942318E+01  0.56778654510E+02 -0.48410911316E+01  0.57492302629E+02  0.00000000000E+00 0. -1.
         13    1    4    4    0    0 -0.22301397839E+01  0.61463549229E+02 -0.13160946532E+03  0.14527144513E+03  0.00000000000E+00 0.  1.
         21    1    1    2  503  502 -0.11871321354E+02 -0.20966838599E+02 -0.48308898012E+02  0.53984129322E+02  0.00000000000E+00 0.  1.
          3    1    1    2  501    0  0.10563286862E+03 -0.21608656911E+02  0.31251615833E+03  0.33059278003E+03  0.00000000000E+00 0. -1.
<scales pt_clust_5="13000.00000" pt_clust_6="13000.00000" pt_clust_7="13000.00000" pt_clust_8="13000.00000" pt_clust_9="24.09433" pt_clust_10="107.48023"></scales>
<clustering>
<clus scale="   24.094">  2  9  1 -1</clus>
<clus scale="   79.799">  5  6 -1 -1</clus>
<clus scale="   91.739">  7  8 -1 -1</clus>
<clus scale="  107.480">  2 10  1 -1</clus>
<clus scale="  135.733">  1  5  2 -1</clus>
<clus scale="   24.094">  2  5  1 -1</clus>
</clustering>
</event>
<event>
10    4  0.3043429E-005  0.1440937E+03  0.7546771E-02  0.1210241E+00
         -1   -1    0    0    0  501 -0.00000000000E+00  0.00000000000E+00  0.73947096146E+03  0.73947096146E+03  0.00000000000E+00 0.  1.
         21   -1    0    0  503  502  0.00000000000E+00 -0.00000000000E+00 -0.10339920601E+03  0.10339920601E+03  0.00000000000E+00 0.  1.
         23    2    1    2    0    0 -0.88809052275E+02  0.65913487948E+02  0.34509476097E+03  0.37344246088E+03  0.90206662039E+02 0.  0.
         24    2    1    2    0    0  0.10019295641E+03 -0.59451238946E+02  0.13531970168E+03  0.19509808736E+03  0.78605112459E+02 0.  0.
        -11    1    4    4    0    0  0.83099483439E+02 -0.71177935663E+02  0.78633749039E+02  0.13474082218E+03  0.00000000000E+00 0.  1.
         12    1    4    4    0    0  0.17093472966E+02  0.11726696717E+02  0.56685952641E+02  0.60357265187E+02  0.00000000000E+00 0. -1.
        -11    1    3    3    0    0 -0.47300419941E+02 -0.16547663960E+02  0.11027457530E+03  0.12112653247E+03  0.00000000000E+00 0. -1.
         11    1    3    3    0    0 -0.41508632335E+02  0.82461151908E+02  0.23482018566E+03  0.25231592841E+03  0.00000000000E+00 0.  1.
         21    1    1    2  503  501 -0.42457827085E+02 -0.22730326213E+01 -0.50377788163E+02  0.65922342937E+02  0.00000000000E+00 0.  1.
         -2    1    1    2    0  502  0.31073922955E+02 -0.41892163812E+01  0.20603508097E+03  0.20840727629E+03  0.00000000000E+00 0.  1.
<scales pt_clust_5="13000.00000" pt_clust_6="13000.00000" pt_clust_7="13000.00000" pt_clust_8="13000.00000" pt_clust_9="25.21325" pt_clust_10="31.35505"></scales>
<clustering>
<clus scale="   31.355">  2 10  1 -1</clus>
<clus scale="   25.213">  2  9  1 -1</clus>
<clus scale="   78.605">  5  6 -1 -1</clus>
<clus scale="   90.207">  7  8 -1 -1</clus>
<clus scale="  137.130">  2  5  1 -1</clus>
<clus scale="   31.355">  2  5  1 -1</clus>
</clustering>
</event>
<event>
10    4  0.3043429E-005  0.1114621E+03  0.7546771E-02  0.1260935E+00
         21   -1    0    0  501  502  0.00000000000E+00  0.00000000000E+00  0.18332870579E+03  0.18332870579E+03  0.00000000000E+00 0. -1.
          2   -1    0    0  503    0 -0.00000000000E+00 -0.00000000000E+00 -0.39007229346E+03  0.39007229346E+03  0.00000000000E+00 0. -1.
         23    2    1    2    0    0 -0.62919743456E+02  0.11923849778E+02 -0.24220410782E+03  0.26594499979E+03  0.89234750855E+02 0.  0.
         24    2    1    2    0    0  0.67095851460E+02 -0.30121988293E+02 -0.10302924574E+03  0.15027535605E+03  0.80984379330E+02 0.  0.
        -13    1    4    4    0    0 -0.22673366478E+01 -0.33590808877E+02 -0.11921239852E+02  0.35715531861E+02  0.00000000000E+00 0.  1.
         14    1    4    4    0    0  0.69363188108E+02  0.34688205843E+01 -0.91108005888E+02  0.11455982419E+03  0.00000000000E+00 0. -1.
        -11    1    3    3    0    0 -0.63318015189E+02 -0.16819951843E+02 -0.91572181473E+02  0.11259461020E+03  0.00000000000E+00 0.  1.
         11    1    3    3    0    0  0.39827173216E+00  0.28743801621E+02 -0.15063192635E+03  0.15335038959E+03  0.00000000000E+00 0. -1.
         21    1    1    2  503  502 -0.71482199025E+01  0.40252911419E+02  0.12414622303E+03  0.13070454704E+03  0.00000000000E+00 0. -1.
          1    1    1    2  501    0  0.29721118993E+01 -0.22054772904E+02  0.14343542860E+02  0.26476096366E+02  0.00000000000E+00 0. -1.
<scales pt_clust_5="13000.00000" pt_clust_6="13000.00000" pt_clust_7="13000.00000" pt_clust_8="13000.00000" pt_clust_9="23.50329" pt_clust_10="22.25413"></scales>
<clustering>
<clus scale="   22.254">  1 10  2 -1</clus>
<clus scale="   23.503">  1  9  2 -1</clus>
<clus scale="   80.984">  5  6 -1 -1</clus>
<clus scale="   89.235">  7  8 -1 -1</clus>
<clus scale="  104.973">  1  5  2 -1</clus>
<clus scale="   22.254">  1  5  2 -1</clus>
</clustering>
</event>
<event>
10    4  0.3043429E-005  0.9906102E+02  0.7546771E-02  0.1286571E+00
         -1   -1    0    0    0  501 -0.00000000000E+00  0.00000000000E+00  0.19574881764E+03  0.19574881764E+03  0.00000000000E+00 0.  1.
         21   -1    0    0  503  502  0.00000000000E+00 -0.00000000000E+00 -0.23733655822E+03  0.23733655822E+03  0.00000000000E+00 0. -1.
         23    2    1    2    0    0  0.54660933979E+01  0.87533610262E+01  0.13915926622E+03  0.17049275201E+03  0.97959060866E+02 0.  0.
         24    2    1    2    0    0  0.23383289511E+02 -0.46087947236E+02 -0.49833910615E+02  0.11524804684E+03  0.90154403914E+02 0.  0.
        -11    1    4    4    0    0 -0.27657641868E+02 -0.24182966926E+02  0.51435306683E+01  0.37097398167E+02  0.00000000000E+00 0.  1.
         12    1    4    4    0    0  0.51040931379E+02 -0.21904980310E+02 -0.54977441283E+02  0.78150648676E+02  0.00000000000E+00 0. -1.
        -11    1    3    3    0    0  0.11659277042E+02  0.50351543206E+02  0.49995419101E+02  0.71907986868E+02  0.00000000000E+00 0. -1.
         11    1    3    3    0    0 -0.61931836439E+01 -0.41598182180E+02  0.89163847120E+02  0.98584765140E+02  0.00000000000E+00 0.  1.
         21    1    1    2  503  501 -0.99952930350E+01  0.44546119037E+02 -0.73914225169E+02  0.86876782206E+02  0.00000000000E+00 0. -1.
         -2    1    1    2    0  502 -0.18854089873E+02 -0.72115328271E+01 -0.56998871022E+02  0.60467794804E+02  0.00000000000E+00 0.  1.
<scales pt_clust_5="13000.00000" pt_clust_6="13000.00000" pt_clust_7="13000.00000" pt_clust_8="13000.00000" pt_clust_9="45.24685" pt_clust_10="20.18621"></scales>
<clustering>
<clus scale="   20.186">  2 10  1 -1</clus>
<clus scale="   45.247">  2  9  1 -1</clus>
<clus scale="   90.154">  5  6 -1 -1</clus>
<clus scale="   91.351">  2  5  1 -1</clus>
<clus scale="   97.959">  7  8 -1 -1</clus>
<clus scale="   20.186">  2  5  1 -1</clus>
</clustering>
</event>
<event>
10    4  0.3043429E-005  0.3149421E+03  0.7546771E-02  0.1109367E+00
          4   -1    0    0  503    0 -0.00000000000E+00  0.00000000000E+00  0.45363531179E+03  0.45363531179E+03  0.00000000000E+00 0. -1.
         21   -1    0    0  501  502  0.00000000000E+00 -0.00000000000E+00 -0.53926415252E+03  0.53926415252E+03  0.00000000000E+00 0.  1.
         24    2    1    2    0    0  0.10636812872E+03  0.32159037763E+02  0.15526556751E+03  0.20772126609E+03  0.81806756539E+02 0.  0.
         23    2    1    2    0    0  0.55111785679E+01 -0.32530610304E+03 -0.29471963712E+03  0.44839740262E+03  0.91357169463E+02 0.  0.
        -13    1    3    3    0    0  0.22268763732E+02 -0.25957069483E+02  0.26238142460E+02  0.43105770078E+02  0.00000000000E+00 0.  1.
         14    1    3    3    0    0  0.84099364987E+02  0.58116107246E+02  0.12902742505E+03  0.16461549601E+03  0.00000000000E+00 0. -1.
        -11    1    4    4    0    0  0.30280242157E+02 -0.29434849323E+03 -0.27565357358E+03  0.40440427935E+03  0.00000000000E+00 0.  1.
         11    1    4    4    0    0 -0.24769063589E+02 -0.30957609815E+02 -0.19066063537E+02  0.43993123273E+02  0.00000000000E+00 0. -1.
         21    1    1    2  503  502 -0.16372276767E+01  0.22944203782E+02 -0.25522838205E+02  0.34358874715E+02  0.00000000000E+00 0. -1.
          3    1    1    2  501    0 -0.11024207961E+03  0.27020286150E+03  0.79348067087E+02  0.30242192088E+03  0.00000000000E+00 0. -1.
<scales pt_clust_5="13000.00000" pt_clust_6="13000.00000" pt_clust_7="13000.00000" pt_clust_8="13000.00000" pt_clust_9="23.00254" pt_clust_10="301.40085"></scales>
<clustering>
<clus scale="   23.003">  2  9  1 -1</clus>
<clus scale="   81.807">  5  6 -1 -1</clus>
<clus scale="   91.357">  7  8 -1 -1</clus>
<clus scale="  138.203">  1  5  2 -1</clus>
<clus scale="  301.401">  2 10  1 -1</clus>
<clus scale="   23.003">  2  5  1 -1</clus>
</clustering>
</event>
<event>
10    4  0.3043429E-005  0.1402888E+03  0.7546771E-02  0.1215036E+00
         -3   -1    0    0    0  501 -0.00000000000E+00  0.00000000000E+00  0.54614294040E+03  0.54614294040E+03  0.00000000000E+00 0.  1.
         21   -1    0    0  501  502  0.00000000000E+00 -0.00000000000E+00 -0.31142384713E+03  0.31142384713E+03  0.00000000000E+00 0.  1.
         23    2    1    2    0    0 -0.96418594134E+02  0.85170848653E+01  0.33904104843E+03  0.36392080820E+03  0.90113462314E+02 0.  0.
         24    2    1    2    0    0  0.15659161155E+03 -0.13311232415E+03  0.71889091200E+02  0.23206616871E+03  0.80292226144E+02 0.  0.
        -11    1    4    4    0    0  0.14544741897E+03 -0.84582450884E+02  0.40018110203E+02  0.17294678900E+03  0.00000000000E+00 0.  1.
         12    1    4    4    0    0  0.11144192578E+02 -0.48529873264E+02  0.31870980997E+02  0.59119379707E+02  0.00000000000E+00 0. -1.
        -11    1    3    3    0    0 -0.41543723745E+02  0.39173417838E+02  0.86296181191E+02  0.10347689856E+03  0.00000000000E+00 0.  1.
         11    1    3    3    0    0 -0.54874870388E+02 -0.30656332973E+02  0.25274486724E+03  0.26044390963E+03  0.00000000000E+00 0. -1.
         21    1    1    2  503  502 -0.39820568640E+02  0.21451579356E+02  0.11287410006E+02  0.46618167793E+02  0.00000000000E+00 0.  1.
         -4    1    1    2    0  503 -0.20352448771E+02  0.10314365993E+03 -0.18749845636E+03  0.21496164284E+03  0.00000000000E+00 0.  1.
<scales pt_clust_5="13000.00000" pt_clust_6="13000.00000" pt_clust_7="13000.00000" pt_clust_8="13000.00000" pt_clust_9="45.23105" pt_clust_10="127.10048"></scales>
<clustering>
<clus scale="   45.231">  2  9  1 -1</clus>
<clus scale="   80.292">  5  6 -1 -1</clus>
<clus scale="   90.113">  7  8 -1 -1</clus>
<clus scale="  127.100">  2 10  1 -1</clus>
<clus scale="  134.191">  2  5  1 -1</clus>
<clus scale="   45.231">  2  5  1 -1</clus>
</clustering>
</event>
<event>
10    4  0.3043429E-005  0.1718756E+03  0.7546771E-02  0.1176852E+00
          2   -1    0    0  503    0 -0.00000000000E+00  0.00000000000E+00  0.53591982112E+03  0.53591982112E+03  0.00000000000E+00 0. -1.
         21   -1    0    0  501  502  0.00000000000E+00 -0.00000000000E+00 -0.24239986552E+03  0.24239986552E+03  0.00000000000E+00 0. -1.
         24    2    1    2    0    0  0.57066161405E+02  0.15378698139E+03  0.21311695629E+03  0.28192133278E+03  0.84580248245E+02 0.  0.
         23    2    1    2    0    0 -0.93307594244E+02 -0.85765453445E+02  0.66523570834E+02  0.16993954182E+03  0.91608090521E+02 0.  0.
        -13    1    3    3    0    0 -0.36180711940E+01  0.80210196972E+02  0.55191640417E+02  0.97431428756E+02  0.00000000000E+00 0.  1.
         14    1    3    3    0    0  0.60684232599E+02  0.73576784415E+02  0.15792531588E+03  0.18448990402E+03  0.00000000000E+00 0. -1.
        -11    1    4    4    0    0 -0.13081459905E+02 -0.46778283589E+02 -0.13169656631E+02  0.50326655607E+02  0.00000000000E+00 0. -1.
         11    1    4    4    0    0 -0.80226134339E+02 -0.38987169856E+02  0.79693227465E+02  0.11961288621E+03  0.00000000000E+00 0.  1.
         21    1    1    2  503  502  0.14637290937E+03  0.65845795558E+01 -0.76839142223E+02  0.16544678619E+03  0.00000000000E+00 0. -1.
          1    1    1    2  501    0 -0.11013147653E+03 -0.74606107498E+02  0.90718570701E+02  0.16101202585E+03  0.00000000000E+00 0. -1.
<scales pt_clust_5="13000.00000" pt_clust_6="13000.00000" pt_clust_7="13000.00000" pt_clust_8="13000.00000" pt_clust_9="89.97023" pt_clust_10="133.02267"></scales>
<clustering>
<clus scale="   84.580">  5  6 -1 -1</clus>
<clus scale="   91.608">  7  8 -1 -1</clus>
<clus scale="  133.023">  2 10  1 -1</clus>
<clus scale="   89.970">  2  9  1 -1</clus>
<clus scale="  168.235">  1  5  2 -1</clus>
<clus scale="  133.023">  2  5  1 -1</clus>
</clustering>
</event>
<event>
10    4  0.3043429E-005  0.2003801E+03  0.7546771E-02  0.1181881E+00
         21   -1    0    0  503  502  0.00000000000E+00  0.00000000000E+00  0.15774304854E+03  0.15774304854E+03  0.00000000000E+00 0.  1.
          2   -1    0    0  502    0 -0.00000000000E+00 -0.00000000000E+00 -0.11026030169E+04  0.11026030169E+04  0.00000000000E+00 0. -1.
         24    2    1    2    0    0  0.44638083751E+02 -0.25812648072E+01 -0.96854082048E+02  0.13388148309E+03  0.80896952089E+02 0.  0.
         23    2    1    2    0    0  0.82006105326E+02  0.12102758757E+03  0.48978856058E+02  0.18053606750E+03  0.93923719378E+02 0.  0.
        -11    1    3    3    0    0 -0.83383976279E+00 -0.30150209165E+02 -0.95138829834E+01  0.31626640208E+02  0.00000000000E+00 0.  1.
         12    1    3    3    0    0  0.45471923514E+02  0.27568944358E+02 -0.87340199065E+02  0.10225484289E+03  0.00000000000E+00 0. -1.
        -13    1    4    4    0    0 -0.17547449613E+02  0.42913325033E+02  0.21209546760E+02  0.50983441695E+02  0.00000000000E+00 0. -1.
         13    1    4    4    0    0  0.99553554939E+02  0.78114262541E+02  0.27769309298E+02  0.12955262580E+03  0.00000000000E+00 0.  1.
         21    1    1    2  503  501  0.37809210705E+02  0.14474273817E+02 -0.22655880260E+02  0.46393209924E+02  0.00000000000E+00 0. -1.
          1    1    1    2  501    0 -0.16445339978E+03 -0.13292059658E+03 -0.87432886211E+03  0.89953530493E+03  0.00000000000E+00 0. -1.
<scales pt_clust_5="13000.00000" pt_clust_6="13000.00000" pt_clust_7="13000.00000" pt_clust_8="13000.00000" pt_clust_9="40.48507" pt_clust_10="177.00439"></scales>
<clustering>
<clus scale="   40.485">  1  9  2 -1</clus>
<clus scale="   80.897">  5  6 -1 -1</clus>
<clus scale="   93.924">  7  8 -1 -1</clus>
<clus scale="   94.810">  2  5  1 -1</clus>
<clus scale="  177.004">  1 10  2 -1</clus>
<clus scale="   40.485">  1  5  2 -1</clus>
</clustering>
</event>
<event>
10    4  0.3043429E-005  0.2903566E+03  0.7546771E-02  0.1130823E+00
          2   -1    0    0  502    0 -0.00000000000E+00  0.00000000000E+00  0.10563529161E+04  0.10563529161E+04  0.00000000000E+00 0. -1.
         21   -1    0    0  503  502  0.00000000000E+00 -0.00000000000E+00 -0.59392601403E+03  0.59392601403E+03  0.00000000000E+00 0. -1.
         23    2    1    2    0    0  0.43054977753E+02  0.17237704718E+02  0.34007923177E+03  0.35531553484E+03  0.91893285099E+02 0.  0.
         24    2    1    2    0    0  0.15486817853E+03  0.18338839142E+03  0.53416230689E+03  0.59093429364E+03  0.79110773441E+02 0.  0.
        -13    1    4    4    0    0  0.11564123605E+02  0.52276807657E+02  0.16970815350E+03  0.17795350780E+03  0.00000000000E+00 0.  1.
         14    1    4    4    0    0  0.14330405492E+03  0.13111158377E+03  0.36445415339E+03  0.41298078584E+03  0.00000000000E+00 0. -1.
        -13    1    3    3    0    0 -0.19868655662E+02  0.31795178404E+02  0.14769972734E+03  0.15238407497E+03  0.00000000000E+00 0. -1.
         13    1    3    3    0    0  0.62923633415E+02 -0.14557473686E+02  0.19237950443E+03  0.20293145988E+03  0.00000000000E+00 0.  1.
         21    1    1    2  503  501 -0.73822991380E+01  0.47934252720E+02 -0.38681409359E+03  0.38984270408E+03  0.00000000000E+00 0. -1.
          1    1    1    2  501    0 -0.19054085714E+03 -0.24856034886E+03 -0.25000542985E+02  0.31418639757E+03  0.00000000000E+00 0. -1.
<scales pt_clust_5="13000.00000" pt_clust_6="13000.00000" pt_clust_7="13000.00000" pt_clust_8="13000.00000" pt_clust_9="48.49939" pt_clust_10="279.37147"></scales>
<clustering>
<clus scale="   48.499">  2  9  1 -1</clus>
<clus scale="   79.111">  5  6 -1 -1</clus>
<clus scale="   91.893">  7  8 -1 -1</clus>
<clus scale="  103.132">  1  7  2 -1</clus>
<clus scale="  279.371">  2 10  1 -1</clus>
<clus scale="   48.499">  2  5  1 -1</clus>
</clustering>
</event>
<event>
10    4  0.4643684E-005  0.2304470E+03  0.7546771E-02  0.1160847E+00
          2   -1    0    0  503    0 -0.00000000000E+00  0.00000000000E+00  0.19034367200E+04  0.19034367200E+04  0.00000000000E+00 0. -1.
         21   -1    0    0  501  502  0.00000000000E+00 -0.00000000000E+00 -0.64332436957E+03  0.64332436957E+03  0.00000000000E+00 0. -1.
         24    2    1    2    0    0  0.16775657787E+01 -0.62526031651E+02  0.26037958320E+03  0.27918562320E+03  0.78960534425E+02 0.  0.
         23    2    1    2    0    0  0.18558759278E+03 -0.16946328681E+02  0.29372100655E+03  0.36027654411E+03  0.93793528010E+02 0.  0.
        -13    1    3    3    0    0 -0.25669747132E+02  0.65054543994E+01  0.68803215114E+02  0.73723396998E+02  0.00000000000E+00 0.  1.
         14    1    3    3    0    0  0.27347312911E+02 -0.69031486051E+02  0.19157636808E+03  0.20546222621E+03  0.00000000000E+00 0. -1.
        -11    1    4    4    0    0  0.44285341625E+02  0.20323001301E+02  0.25902363776E+02  0.55182862502E+02  0.00000000000E+00 0. -1.
         11    1    4    4    0    0  0.14130225115E+03 -0.37269329982E+02  0.26781864278E+03  0.30509368161E+03  0.00000000000E+00 0.  1.
         21    1    1    2  503  502 -0.57903409326E+02 -0.22249001725E+03 -0.55683291782E+03  0.60242635314E+03  0.00000000000E+00 0. -1.
          1    1    1    2  501    0 -0.12936174923E+03  0.30196237758E+03  0.12628446785E+04  0.13048725691E+04  0.00000000000E+00 0. -1.
<scales pt_clust_5="13000.00000" pt_clust_6="13000.00000" pt_clust_7="13000.00000" pt_clust_8="13000.00000" pt_clust_9="13000.00000" pt_clust_10="230.44702"></scales>
<clustering>
<clus scale="   78.961">  5  6 -1 -1</clus>
<clus scale="   93.794">  7  8 -1 -1</clus>
<clus scale="  100.733">  1  5  2 -1</clus>
<clus scale="  210.316">  1  7  2 -1</clus>
<clus scale="  230.447">  1 10  2 -1</clus>
<clus scale="  230.447">  2  5  1 -1</clus>
</clustering>
</event>
<event>
10    4  0.3043429E-005  0.2803766E+03  0.7546771E-02  0.1095483E+00
          2   -1    0    0  503    0 -0.00000000000E+00  0.00000000000E+00  0.10364666647E+04  0.10364666647E+04  0.00000000000E+00 0. -1.
         21   -1    0    0  501  502  0.00000000000E+00 -0.00000000000E+00 -0.22552898356E+03  0.22552898356E+03  0.00000000000E+00 0. -1.
         24    2    1    2    0    0 -0.63283032101E+02  0.12783176856E+03  0.26791347497E+03  0.31399312016E+03  0.80426029548E+02 0.  0.
         23    2    1    2    0    0  0.25768274142E+02  0.78381880952E+02  0.30110396776E+03  0.32562501387E+03  0.92522035432E+02 0.  0.
        -13    1    3    3    0    0  0.12498894711E+01  0.84714312521E+02  0.11915274012E+03  0.14620346250E+03  0.00000000000E+00 0.  1.
         14    1    3    3    0    0 -0.64532921572E+02  0.43117456042E+02  0.14876073486E+03  0.16778965766E+03  0.00000000000E+00 0. -1.
        -13    1    4    4    0    0  0.43117234621E+02  0.17365466324E+02  0.57718027831E+02  0.74108205205E+02  0.00000000000E+00 0.  1.
         13    1    4    4    0    0 -0.17348960479E+02  0.61016414628E+02  0.24338593993E+03  0.25151680866E+03  0.00000000000E+00 0. -1.
         21    1    1    2  503  502  0.25873505704E+02 -0.22499725401E+02 -0.16882336918E+03  0.17227015389E+03  0.00000000000E+00 0. -1.
          1    1    1    2  501    0  0.11641252255E+02 -0.18371392411E+03  0.41074360753E+03  0.45010736030E+03  0.00000000000E+00 0. -1.
<scales pt_clust_5="13000.00000" pt_clust_6="13000.00000" pt_clust_7="13000.00000" pt_clust_8="13000.00000" pt_clust_9="34.28813" pt_clust_10="192.90408"></scales>
<clustering>
<clus scale="   34.288">  2  9  1 -1</clus>
<clus scale="   80.426">  5  6 -1 -1</clus>
<clus scale="   92.522">  7  8 -1 -1</clus>
<clus scale="  120.312">  5  7 -1 -1</clus>
<clus scale="  192.904">  2 10  1 -1</clus>
<clus scale="   34.288">  2  5  1 -1</clus>
</clustering>
</event>
<event>
10    4  0.3043429E-005  0.4243334E+03  0.7546771E-02  0.1055413E+00
         21   -1    0    0  503  502  0.00000000000E+00  0.00000000000E+00  0.24847499221E+03  0.24847499221E+03  0.00000000000E+00 0. -1.
          2   -1    0    0  502    0 -0.00000000000E+00 -0.00000000000E+00 -0.33276443274E+04  0.33276443274E+04  0.00000000000E+00 0. -1.
         24    2    1    2    0    0 -0.22840033074E+03  0.36186034582E+02 -0.10571882502E+04  0.10851161377E+04  0.79711327406E+02 0.  0.
         23    2    1    2    0    0 -0.10895504357E+03  0.32095714747E+03 -0.12374206365E+04  0.12862180322E+04  0.90897209149E+02 0.  0.
        -13    1    3    3    0    0 -0.24442015323E+02 -0.17388988457E+02 -0.80138648480E+02  0.85568639190E+02  0.00000000000E+00 0.  1.
         14    1    3    3    0    0 -0.20395831541E+03  0.53575023039E+02 -0.97704960173E+03  0.99954749850E+03  0.00000000000E+00 0. -1.
        -13    1    4    4    0    0 -0.95557775121E+02  0.14794700009E+03 -0.67795740641E+03  0.70046116818E+03  0.00000000000E+00 0.  1.
         13    1    4    4    0    0 -0.13397268446E+02  0.17301014737E+03 -0.55946323012E+03  0.58575686402E+03  0.00000000000E+00 0. -1.
         21    1    1    2  503  501  0.35372927022E+02  0.21175890033E+02  0.14823886102E+03  0.15386494793E+03  0.00000000000E+00 0. -1.
          1    1    1    2  501    0  0.30198244728E+03 -0.37831907208E+03 -0.93279930952E+03  0.10509202018E+04  0.00000000000E+00 0. -1.
<scales pt_clust_5="13000.00000" pt_clust_6="13000.00000" pt_clust_7="13000.00000" pt_clust_8="13000.00000" pt_clust_9="41.22696" pt_clust_10="414.48345"></scales>
<clustering>
<clus scale="   41.227">  1  9  2 -1</clus>
<clus scale="   79.711">  5  6 -1 -1</clus>
<clus scale="   90.897">  7  8 -1 -1</clus>
<clus scale="  240.351">  2  5  1 -1</clus>
<clus scale="  414.483">  1 10  2 -1</clus>
<clus scale="   41.227">  1  5  2 -1</clus>
</clustering>
</event>
<event>
10    4  0.3043429E-005  0.9474502E+02  0.7546771E-02  0.1296981E+00
          2   -1    0    0  503    0 -0.00000000000E+00  0.00000000000E+00  0.91490736112E+03  0.91490736112E+03  0.00000000000E+00 0. -1.
         21   -1    0    0  501  502  0.00000000000E+00 -0.00000000000E+00 -0.43916191517E+02  0.43916191517E+02  0.00000000000E+00 0. -1.
         24    2    1    2    0    0  0.43279161070E+01  0.83164810561E+01  0.20236682191E+03  0.21844915898E+03  0.81730102984E+02 0.  0.
         23    2    1    2    0    0 -0.55571251901E+02  0.46487652358E+01  0.25933627751E+03  0.28041369309E+03  0.90921721187E+02 0.  0.
        -11    1    3    3    0    0  0.27005280843E+02 -0.28345828597E+02  0.94952768385E+02  0.10270734840E+03  0.00000000000E+00 0.  1.
         12    1    3    3    0    0 -0.22677364736E+02  0.36662309653E+02  0.10741405352E+03  0.11574181057E+03  0.00000000000E+00 0. -1.
        -11    1    4    4    0    0  0.10444831198E+02  0.24362229641E+02  0.14110408518E+03  0.14357219642E+03  0.00000000000E+00 0.  1.
         11    1    4    4    0    0 -0.66016083099E+02 -0.19713464405E+02  0.11823219234E+03  0.13684149667E+03  0.00000000000E+00 0. -1.
         21    1    1    2  503  502 -0.30066284323E+02  0.27755892248E+02  0.23323489227E+00  0.40919743474E+02  0.00000000000E+00 0. -1.
          1    1    1    2  501    0  0.81309620117E+02 -0.40721138540E+02  0.40905483530E+03  0.41904095710E+03  0.00000000000E+00 0. -1.
<scales pt_clust_5="13000.00000" pt_clust_6="13000.00000" pt_clust_7="13000.00000" pt_clust_8="13000.00000" pt_clust_9="40.91908" pt_clust_10="82.64477"></scales>
<clustering>
<clus scale="   40.919">  2  9  1 -1</clus>
<clus scale="   81.730">  5  6 -1 -1</clus>
<clus scale="   82.645">  2 10  1 -1</clus>
<clus scale="   85.963">  1  5  2 -1</clus>
<clus scale="   90.922">  7  8 -1 -1</clus>
<clus scale="   40.919">  2  5  1 -1</clus>
</clustering>
</event>
<event>
10    4  0.3043429E-005  0.2778969E+03  0.7546771E-02  0.1096843E+00
          2   -1    0    0  503    0 -0.00000000000E+00  0.00000000000E+00  0.10410203603E+04  0.10410203603E+04  0.00000000000E+00 0. -1.
         21   -1    0    0  501  502  0.00000000000E+00 -0.00000000000E+00 -0.74607390068E+02  0.74607390068E+02  0.00000000000E+00 0. -1.
         24    2    1    2    0    0  0.86741561609E+02 -0.51462214248E+01  0.16089728131E+03  0.21062380849E+03  0.10451732613E+03 0.  0.
         23    2    1    2    0    0  0.79929428167E+02  0.63794829737E+02  0.15574815546E+03  0.20636447894E+03  0.88714804015E+02 0.  0.
        -13    1    3    3    0    0  0.38445692364E+02 -0.37816316545E+01 -0.39588398196E+01  0.38833547508E+02  0.00000000000E+00 0.  1.
         14    1    3    3    0    0  0.48295869245E+02 -0.13645897703E+01  0.16485612113E+03  0.17179026098E+03  0.00000000000E+00 0. -1.
        -13    1    4    4    0    0  0.32159582953E+02  0.87420946538E+01  0.12120774574E+03  0.12570592914E+03  0.00000000000E+00 0.  1.
         13    1    4    4    0    0  0.47769845215E+02  0.55052735083E+02  0.34540409721E+02  0.80658549799E+02  0.00000000000E+00 0. -1.
         21    1    1    2  503  502  0.20988486654E+02 -0.28655356992E+02  0.19872920318E+02  0.40701093576E+02  0.00000000000E+00 0.  1.
          1    1    1    2  501    0 -0.18765947643E+03 -0.29993251321E+02  0.62989461313E+03  0.65793836935E+03  0.00000000000E+00 0. -1.
<scales pt_clust_5="13000.00000" pt_clust_6="13000.00000" pt_clust_7="13000.00000" pt_clust_8="13000.00000" pt_clust_9="35.51966" pt_clust_10="186.62986"></scales>
<clustering>
<clus scale="   35.520">  2  9  1 -1</clus>
<clus scale="   88.715">  7  8 -1 -1</clus>
<clus scale="  104.517">  5  6 -1 -1</clus>
<clus scale="  123.974">  5  7 -1 -1</clus>
<clus scale="  186.630">  2 10  1 -1</clus>
<clus scale="   35.520">  2  5  1 -1</clus>
</clustering>
</event>
<event>
10    4  0.3043429E-005  0.1188448E+03  0.7546771E-02  0.1253751E+00
          2   -1    0    0  502    0 -0.00000000000E+00  0.00000000000E+00  0.36667517044E+03  0.36667517044E+03  0.00000000000E+00 0. -1.
         21   -1    0    0  503  502  0.00000000000E+00 -0.00000000000E+00 -0.17635355415E+03  0.17635355415E+03  0.00000000000E+00 0.  1.
         23    2    1    2    0    0 -0.49829970477E+01  0.37105493255E+02  0.18853689797E+03  0.21297442943E+03  0.91707675831E+02 0.  0.
         24    2    1    2    0    0 -0.72517667447E+02  0.35883017794E+02 -0.56012271378E+02  0.12616011666E+03  0.78946801286E+02 0.  0.
        -11    1    4    4    0    0 -0.91276247593E+01  0.41350827792E+02 -0.44633468949E+02  0.61525206569E+02  0.00000000000E+00 0.  1.
         12    1    4    4    0    0 -0.63390042687E+02 -0.54678099987E+01 -0.11378802429E+02  0.64634910093E+02  0.00000000000E+00 0. -1.
        -11    1    3    3    0    0  0.29696123625E+02 -0.15322270668E+02  0.90952082912E+02  0.96896404076E+02  0.00000000000E+00 0. -1.
         11    1    3    3    0    0 -0.34679120673E+02  0.52427763924E+02  0.97584815056E+02  0.11607802535E+03  0.00000000000E+00 0.  1.
         21    1    1    2  503  501  0.12097779563E+02  0.21797497247E+02 -0.43751694723E+02  0.50355714151E+02  0.00000000000E+00 0.  1.
          1    1    1    2  501    0  0.65402884932E+02 -0.94786008296E+02  0.10154868442E+03  0.15353846435E+03  0.00000000000E+00 0. -1.
<scales pt_clust_5="13000.00000" pt_clust_6="13000.00000" pt_clust_7="13000.00000" pt_clust_8="13000.00000" pt_clust_9="24.92964" pt_clust_10="88.83415"></scales>
<clustering>
<clus scale="   24.930">  2  9  1 -1</clus>
<clus scale="   78.947">  5  6 -1 -1</clus>
<clus scale="   91.708">  7  8 -1 -1</clus>
<clus scale="   99.795">  1  7  2 -1</clus>
<clus scale="   88.834">  2 10  1 -1</clus>
<clus scale="   24.930">  2  5  1 -1</clus>
</clustering>
</event>
<event>
10    4  0.3043429E-005  0.1095026E+03  0.7546771E-02  0.1266738E+00
          2   -1    0    0  503    0 -0.00000000000E+00  0.00000000000E+00  0.78661043389E+03  0.78661043389E+03  0.00000000000E+00 0. -1.
         21   -1    0    0  501  502  0.00000000000E+00 -0.00000000000E+00 -0.67744252472E+02  0.67744252472E+02  0.00000000000E+00 0.  1.
         24    2    1    2    0    0  0.36442733888E+01  0.55602606461E+02  0.59595936915E+03  0.60416520029E+03  0.82116313776E+02 0.  0.
         23    2    1    2    0    0  0.15067162198E+02 -0.52144091267E+02  0.12756873680E+03  0.16787931725E+03  0.94676591201E+02 0.  0.
        -11    1    3    3    0    0  0.38382251451E+01 -0.21154246580E+02  0.98512779056E+02  0.10083155140E+03  0.00000000000E+00 0.  1.
         12    1    3    3    0    0 -0.19395175632E+00  0.76756853041E+02  0.49744659010E+03  0.50333364889E+03  0.00000000000E+00 0. -1.
        -13    1    4    4    0    0  0.40029460395E+01  0.20131963465E+02  0.75176317256E+02  0.77928160546E+02  0.00000000000E+00 0. -1.
         13    1    4    4    0    0  0.11064216158E+02 -0.72276054732E+02  0.52392419539E+02  0.89951156702E+02  0.00000000000E+00 0.  1.
         21    1    1    2  503  502  0.94487678189E+01  0.21049420284E+02 -0.29514483960E+02  0.37462809171E+02  0.00000000000E+00 0.  1.
          1    1    1    2  501    0 -0.28160203406E+02 -0.24507935478E+02  0.24852559423E+02  0.44847359645E+02  0.00000000000E+00 0. -1.
<scales pt_clust_5="13000.00000" pt_clust_6="13000.00000" pt_clust_7="13000.00000" pt_clust_8="13000.00000" pt_clust_9="23.07287" pt_clust_10="31.34574"></scales>
<clustering>
<clus scale="   23.073">  2  9  1 -1</clus>
<clus scale="   31.346">  2 10  1 -1</clus>
<clus scale="   82.116">  5  6 -1 -1</clus>
<clus scale="   94.677">  7  8 -1 -1</clus>
<clus scale="   98.845">  1  5  2 -1</clus>
<clus scale="   23.073">  2  5  1 -1</clus>
</clustering>
</event>
<event>
10    4  0.3043429E-005  0.2645233E+03  0.7546771E-02  0.1104994E+00
          2   -1    0    0  503    0 -0.00000000000E+00  0.00000000000E+00  0.15595213432E+04  0.15595213432E+04  0.00000000000E+00 0. -1.
         21   -1    0    0  501  502  0.00000000000E+00 -0.00000000000E+00 -0.97761463553E+02  0.97761463553E+02  0.00000000000E+00 0.  1.
         23    2    1    2    0    0 -0.27473277258E+03  0.10861035947E+03  0.81499209051E+03  0.87163397559E+03  0.90881094286E+02 0.  0.
         24    2    1    2    0    0  0.17822573216E+03 -0.35399013145E+02  0.19595348391E+03  0.27885902938E+03  0.79668617862E+02 0.  0.
        -11    1    4    4    0    0  0.16167063985E+03 -0.27264993531E+02  0.12673723550E+03  0.20722717613E+03  0.00000000000E+00 0.  1.
         12    1    4    4    0    0  0.16555092309E+02 -0.81340196138E+01  0.69216248405E+02  0.71631853248E+02  0.00000000000E+00 0. -1.
        -13    1    3    3    0    0 -0.15445954392E+03  0.10590941391E+03  0.45351105298E+03  0.49065958651E+03  0.00000000000E+00 0. -1.
         13    1    3    3    0    0 -0.12027322866E+03  0.27009455559E+01  0.36148103753E+03  0.38097438908E+03  0.00000000000E+00 0.  1.
         21    1    1    2  503  502  0.22714571469E+02 -0.35573268199E+01 -0.16682899279E+02  0.28406433417E+02  0.00000000000E+00 0.  1.
          1    1    1    2  501    0  0.73792468946E+02 -0.69654019503E+02  0.46749720447E+03  0.47838336833E+03  0.00000000000E+00 0. -1.
<scales pt_clust_5="13000.00000" pt_clust_6="13000.00000" pt_clust_7="13000.00000" pt_clust_8="13000.00000" pt_clust_9="22.99144" pt_clust_10="102.85059"></scales>
<clustering>
<clus scale="   22.991">  2  9  1 -1</clus>
<clus scale="   79.669">  5  6 -1 -1</clus>
<clus scale="   90.881">  7  8 -1 -1</clus>
<clus scale="  102.851">  2 10  1 -1</clus>
<clus scale="  260.884">  2  5  1 -1</clus>
<clus scale="   22.991">  2  5  1 -1</clus>
</clustering>
</event>
<event>
10    4  0.3043429E-005  0.4298647E+03  0.7546771E-02  0.1078060E+00
         21   -1    0    0  503  502  0.00000000000E+00  0.00000000000E+00  0.86981505442E+03  0.86981505442E+03  0.00000000000E+00 0.  1.
         -3   -1    0    0    0  501 -0.00000000000E+00 -0.00000000000E+00 -0.19953497914E+04  0.19953497914E+04  0.00000000000E+00 0.  1.
         24    2    1    2    0    0 -0.55672883703E+02  0.73343150059E+02 -0.29610064222E+03  0.32057273365E+03  0.81317892228E+02 0.  0.
         23    2    1    2    0    0 -0.37198483279E+03 -0.10639736292E+03 -0.11871440482E+04  0.12517898415E+04  0.89295585189E+02 0.  0.
        -13    1    3    3    0    0 -0.17860299883E+02  0.58975636530E+02 -0.81392505215E+02  0.10208749150E+03  0.00000000000E+00 0.  1.
         14    1    3    3    0    0 -0.37812583819E+02  0.14367513529E+02 -0.21470813701E+03  0.21848524215E+03  0.00000000000E+00 0. -1.
        -11    1    4    4    0    0 -0.15187311175E+03 -0.85907460634E+02 -0.57860057343E+03  0.60433778422E+03  0.00000000000E+00 0. -1.
         11    1    4    4    0    0 -0.22011172104E+03 -0.20489902284E+02 -0.60854347477E+03  0.64745205731E+03  0.00000000000E+00 0.  1.
         21    1    1    2  503  501  0.50995916565E+03 -0.44443975706E+00  0.74090282358E+03  0.89944179475E+03  0.00000000000E+00 0.  1.
         -4    1    1    2    0  502 -0.82301449152E+02  0.33498652616E+02 -0.38319287015E+03  0.39336047589E+03  0.00000000000E+00 0.  1.
<scales pt_clust_5="13000.00000" pt_clust_6="13000.00000" pt_clust_7="13000.00000" pt_clust_8="13000.00000" pt_clust_9="420.48780" pt_clust_10="88.85773"></scales>
<clustering>
<clus scale="   81.318">  5  6 -1 -1</clus>
<clus scale="   88.858">  1 10  2 -1</clus>
<clus scale="   89.296">  7  8 -1 -1</clus>
<clus scale="  123.661">  2  5  1 -1</clus>
<clus scale="  420.488">  1  9  2 -1</clus>
<clus scale="   88.858">  1  5  2 -1</clus>
</clustering>
</event>
<event>
10    4  0.3043429E-005  0.1464201E+03  0.7546771E-02  0.1223383E+00
          2   -1    0    0  503    0 -0.00000000000E+00  0.00000000000E+00  0.88260965780E+03  0.88260965780E+03  0.00000000000E+00 0. -1.
         21   -1    0    0  501  502  0.00000000000E+00 -0.00000000000E+00 -0.74543191743E+02  0.74543191743E+02  0.00000000000E+00 0. -1.
         24    2    1    2    0    0 -0.13900990831E+02 -0.57567899937E+02  0.19626375422E+03  0.21983372169E+03  0.79373190192E+02 0.  0.
         23    2    1    2    0    0 -0.13042563664E+03 -0.61580458261E+01  0.26250331179E+03  0.30802562338E+03  0.94461779247E+02 0.  0.
        -13    1    3    3    0    0 -0.81764596185E+01 -0.72006022858E+02  0.10701557547E+03  0.12924416897E+03  0.00000000000E+00 0.  1.
         14    1    3    3    0    0 -0.57245312127E+01  0.14438122921E+02  0.89248178758E+02  0.90589552724E+02  0.00000000000E+00 0. -1.
        -13    1    4    4    0    0 -0.70520863427E+02 -0.88575094385E+00  0.48147578176E+02  0.85394180232E+02  0.00000000000E+00 0. -1.
         13    1    4    4    0    0 -0.59904773217E+02 -0.52722948822E+01  0.21435573361E+03  0.22263144315E+03  0.00000000000E+00 0.  1.
         21    1    1    2  503  502  0.44738288898E+02  0.96448218095E+02  0.61107897834E+02  0.12262931316E+03  0.00000000000E+00 0. -1.
          1    1    1    2  501    0  0.99588338577E+02 -0.32722272332E+02  0.28819150221E+03  0.30666419131E+03  0.00000000000E+00 0. -1.
<scales pt_clust_5="13000.00000" pt_clust_6="13000.00000" pt_clust_7="13000.00000" pt_clust_8="13000.00000" pt_clust_9="98.42300" pt_clust_10="111.87415"></scales>
<clustering>
<clus scale="   79.373">  5  6 -1 -1</clus>
<clus scale="   94.462">  7  8 -1 -1</clus>
<clus scale="   99.032">  1  5  2 -1</clus>
<clus scale="   98.423">  2  9  1 -1</clus>
<clus scale="  111.874">  2 10  1 -1</clus>
<clus scale="   98.423">  2  5  1 -1</clus>
</clustering>
</event>
<event>
10    4  0.3043429E-005  0.1085914E+03  0.7546771E-02  0.1266771E+00
          2   -1    0    0  503    0 -0.00000000000E+00  0.00000000000E+00  0.50668594252E+03  0.50668594252E+03  0.00000000000E+00 0. -1.
         21   -1    0    0  501  502  0.00000000000E+00 -0.00000000000E+00 -0.12769215722E+03  0.12769215722E+03  0.00000000000E+00 0.  1.
         23    2    1    2    0    0 -0.15501307979E+00  0.59673874439E+02  0.43359880335E+03  0.44711220159E+03  0.91325808087E+02 0.  0.
         24    2    1    2    0    0 -0.25458272323E+02 -0.48391654959E+02 -0.39249664080E+02  0.10648115583E+03  0.82509541971E+02 0.  0.
        -13    1    4    4    0    0 -0.35851019841E+02 -0.23357679225E+02 -0.59043403628E+02  0.72917764052E+02  0.00000000000E+00 0.  1.
         14    1    4    4    0    0  0.10392747518E+02 -0.25033975734E+02  0.19793739548E+02  0.33563391773E+02  0.00000000000E+00 0. -1.
        -11    1    3    3    0    0 -0.34269793365E+02 -0.14184023714E+01  0.86922279987E+02  0.93444707505E+02  0.00000000000E+00 0.  1.
         11    1    3    3    0    0  0.34114780286E+02  0.61092276810E+02  0.34667652337E+03  0.35366749409E+03  0.00000000000E+00 0. -1.
         21    1    1    2  503  502  0.37193455677E+02  0.84513822718E+01 -0.34133858216E+02  0.51184951736E+02  0.00000000000E+00 0. -1.
          1    1    1    2  501    0 -0.11580170274E+02 -0.19733601752E+02  0.18778504243E+02  0.29599790595E+02  0.00000000000E+00 0. -1.
<scales pt_clust_5="13000.00000" pt_clust_6="13000.00000" pt_clust_7="13000.00000" pt_clust_8="13000.00000" pt_clust_9="33.19059" pt_clust_10="22.88047"></scales>
<clustering>
<clus scale="   22.880">  2 10  1 -1</clus>
<clus scale="   33.191">  2  9  1 -1</clus>
<clus scale="   82.510">  5  6 -1 -1</clus>
<clus scale="   91.326">  7  8 -1 -1</clus>
<clus scale="  101.289">  2  5  1 -1</clus>
<clus scale="   22.880">  2  5  1 -1</clus>
</clustering>
</event>
<event>
10    4  0.3043429E-005  0.4547451E+03  0.7546771E-02  0.1038473E+00
          2   -1    0    0  503    0 -0.00000000000E+00  0.00000000000E+00  0.50782385656E+03  0.50782385656E+03  0.00000000000E+00 0. -1.
         21   -1    0    0  501  502  0.00000000000E+00 -0.00000000000E+00 -0.19165249121E+04  0.19165249121E+04  0.00000000000E+00 0. -1.
         24    2    1    2    0    0  0.31736239773E+03 -0.53411543520E+02 -0.68606688830E+03  0.76199345428E+03  0.79840870921E+02 0.  0.
         23    2    1    2    0    0 -0.64005622937E+03 -0.12689786486E+03  0.10535085388E+03  0.66851968478E+03  0.10022335889E+03 0.  0.
        -13    1    3    3    0    0  0.19895465059E+02 -0.70391445833E+01 -0.13322020563E+02  0.24957069504E+02  0.00000000000E+00 0.  1.
         14    1    3    3    0    0  0.29746693267E+03 -0.46372398936E+02 -0.67274486774E+03  0.73703638477E+03  0.00000000000E+00 0. -1.
        -13    1    4    4    0    0 -0.86646946750E+02  0.83443434304E+00 -0.15026025710E+02  0.87944136305E+02  0.00000000000E+00 0.  1.
         13    1    4    4    0    0 -0.55340928262E+03 -0.12773229921E+03  0.12037687959E+03  0.58057554847E+03  0.00000000000E+00 0. -1.
         21    1    1    2  503  502 -0.52530932642E+02 -0.69222725295E+02 -0.68175719861E+02  0.11045004916E+03  0.00000000000E+00 0. -1.
          1    1    1    2  501    0  0.37522476428E+03  0.24953213368E+03 -0.75980930126E+03  0.88338558045E+03  0.00000000000E+00 0. -1.
<scales pt_clust_5="13000.00000" pt_clust_6="13000.00000" pt_clust_7="13000.00000" pt_clust_8="13000.00000" pt_clust_9="86.89813" pt_clust_10="443.56332"></scales>
<clustering>
<clus scale="   79.841">  5  6 -1 -1</clus>
<clus scale="   86.898">  2  9  1 -1</clus>
<clus scale="  100.223">  7  8 -1 -1</clus>
<clus scale="  317.569">  1  5  2 -1</clus>
<clus scale="  443.563">  2 10  1 -1</clus>
<clus scale="   86.898">  2  5  1 -1</clus>
</clustering>
</event>
<event>
10    4  0.3043429E-005  0.3139637E+03  0.7546771E-02  0.1078461E+00
         21   -1    0    0  503  502  0.00000000000E+00  0.00000000000E+00  0.12004099923E+03  0.12004099923E+03  0.00000000000E+00 0. -1.
          2   -1    0    0  502    0 -0.00000000000E+00 -0.00000000000E+00 -0.10775638628E+04  0.10775638628E+04  0.00000000000E+00 0. -1.
         24    2    1    2    0    0  0.20796183432E+03  0.60236847525E+02 -0.28519710489E+03  0.36734939476E+03  0.82046248298E+02 0.  0.
         23    2    1    2    0    0  0.19763060904E+02 -0.73520523148E+01 -0.13357244333E+03  0.16302339440E+03  0.91051624122E+02 0.  0.
        -11    1    3    3    0    0  0.19018217354E+02 -0.17648726453E+02 -0.45301945997E+02  0.52205712789E+02  0.00000000000E+00 0.  1.
         12    1    3    3    0    0  0.18894361696E+03  0.77885573978E+02 -0.23989515889E+03  0.31514368197E+03  0.00000000000E+00 0. -1.
        -13    1    4    4    0    0  0.43900129401E+02  0.34478332487E+01 -0.12884354495E+03  0.13616081665E+03  0.00000000000E+00 0.  1.
         13    1    4    4    0    0 -0.24137068497E+02 -0.10799885563E+02 -0.47288983873E+01  0.26862577757E+02  0.00000000000E+00 0. -1.
         21    1    1    2  503  501 -0.25593161716E+02  0.11655118146E+02  0.41086042659E+02  0.49788699591E+02  0.00000000000E+00 0. -1.
          1    1    1    2  501    0 -0.20213173351E+03 -0.64539913357E+02 -0.57983935806E+03  0.61744337332E+03  0.00000000000E+00 0. -1.
<scales pt_clust_5="13000.00000" pt_clust_6="13000.00000" pt_clust_7="13000.00000" pt_clust_8="13000.00000" pt_clust_9="28.12209" pt_clust_10="217.48865"></scales>
<clustering>
<clus scale="   28.122">  1  9  2 -1</clus>
<clus scale="   82.046">  5  6 -1 -1</clus>
<clus scale="   91.052">  7  8 -1 -1</clus>
<clus scale="   92.100">  5  7 -1 -1</clus>
<clus scale="  217.489">  1 10  2 -1</clus>
<clus scale="   28.122">  1  5  2 -1</clus>
</clustering>
</event>
<event>
10    4  0.3043429E-005  0.1323806E+03  0.7546771E-02  0.1226524E+00
         21   -1    0    0  503  502  0.00000000000E+00  0.00000000000E+00  0.36706039850E+03  0.36706039850E+03  0.00000000000E+00 0. -1.
         -3   -1    0    0    0  501 -0.00000000000E+00 -0.00000000000E+00 -0.80358192647E+02  0.80358192647E+02  0.00000000000E+00 0.  1.
         23    2    1    2    0    0  0.90164048711E+02  0.25718863715E+01  0.59666490611E+02  0.14098703838E+03  0.90449348305E+02 0.  0.
         24    2    1    2    0    0 -0.10755267893E+03 -0.66705353933E+01  0.14552905360E+03  0.19799396476E+03  0.80067657990E+02 0.  0.
        -13    1    4    4    0    0  0.15215916946E+01 -0.20563222070E+02  0.84982268239E+01  0.22302044801E+02  0.00000000000E+00 0.  1.
         14    1    4    4    0    0 -0.10907427062E+03  0.13892686676E+02  0.13703082677E+03  0.17569191996E+03  0.00000000000E+00 0. -1.
        -11    1    3    3    0    0 -0.75491472387E+01 -0.20048075912E+02  0.29101361549E+02  0.36135913103E+02  0.00000000000E+00 0. -1.
         11    1    3    3    0    0  0.97713195949E+02  0.22619962284E+02  0.30565129062E+02  0.10485112527E+03  0.00000000000E+00 0.  1.
         21    1    1    2  503  501 -0.69700055272E+01 -0.20046680437E+02  0.68572690350E+02  0.71782060679E+02  0.00000000000E+00 0.  1.
         -4    1    1    2    0  502  0.24358635743E+02  0.24145329459E+02  0.12933971293E+02  0.36655527323E+02  0.00000000000E+00 0.  1.
<scales pt_clust_5="13000.00000" pt_clust_6="13000.00000" pt_clust_7="13000.00000" pt_clust_8="13000.00000" pt_clust_9="21.22382" pt_clust_10="32.71504"></scales>
<clustering>
<clus scale="   21.224">  1  9  2 -1</clus>
<clus scale="   32.715">  1 10  2 -1</clus>
<clus scale="   80.068">  5  6 -1 -1</clus>
<clus scale="   90.449">  7  8 -1 -1</clus>
<clus scale="  125.516">  1  5  2 -1</clus>
<clus scale="   21.224">  1  5  2 -1</clus>
</clustering>
</event>
<event>
10    4  0.3043429E-005  0.1092486E+03  0.7546771E-02  0.1266400E+00
          2   -1    0    0  503    0 -0.00000000000E+00  0.00000000000E+00  0.87155601850E+03  0.87155601850E+03  0.00000000000E+00 0. -1.
         21   -1    0    0  501  502  0.00000000000E+00 -0.00000000000E+00 -0.78349893085E+02  0.78349893085E+02  0.00000000000E+00 0. -1.
         24    2    1    2    0    0 -0.62086784531E+02 -0.20860435147E+02  0.72068041393E+03  0.72818819183E+03  0.81165615379E+02 0.  0.
         23    2    1    2    0    0  0.28848719716E+02 -0.14290049342E+02  0.10189579003E+03  0.14107968538E+03  0.92110105107E+02 0.  0.
        -11    1    3    3    0    0 -0.34234894833E+02 -0.35924587217E+02  0.18399829034E+03  0.19057275471E+03  0.00000000000E+00 0.  1.
         12    1    3    3    0    0 -0.27851889698E+02  0.15064152070E+02  0.53668212360E+03  0.53761543712E+03  0.00000000000E+00 0. -1.
        -13    1    4    4    0    0  0.18672046871E+02  0.24676615772E+02  0.95390254642E+02  0.10028400361E+03  0.00000000000E+00 0.  1.
         13    1    4    4    0    0  0.10176672844E+02 -0.38966665114E+02  0.65055353863E+01  0.40795681768E+02  0.00000000000E+00 0. -1.
         21    1    1    2  503  502 -0.15720606369E+02  0.13601302800E+02 -0.30107112758E+01  0.21004696734E+02  0.00000000000E+00 0. -1.
          1    1    1    2  501    0  0.48958671184E+02  0.21549181689E+02 -0.26359367271E+02  0.59633337643E+02  0.00000000000E+00 0. -1.
<scales pt_clust_5="13000.00000" pt_clust_6="13000.00000" pt_clust_7="13000.00000" pt_clust_8="13000.00000" pt_clust_9="20.78781" pt_clust_10="49.24539"></scales>
<clustering>
<clus scale="   20.788">  2  9  1 -1</clus>
<clus scale="   49.245">  2 10  1 -1</clus>
<clus scale="   81.166">  5  6 -1 -1</clus>
<clus scale="   92.110">  7  8 -1 -1</clus>
<clus scale="  100.194">  1  5  2 -1</clus>
<clus scale="   20.788">  2  5  1 -1</clus>
</clustering>
</event>
<event>
10    4  0.3043429E-005  0.1412123E+03  0.7546771E-02  0.1227201E+00
         21   -1    0    0  503  502  0.00000000000E+00  0.00000000000E+00  0.52012670264E+03  0.52012670264E+03  0.00000000000E+00 0.  1.
         -1   -1    0    0    0  501 -0.00000000000E+00 -0.00000000000E+00 -0.11301071746E+03  0.11301071746E+03  0.00000000000E+00 0.  1.
         23    2    1    2    0    0  0.30090685725E+02  0.40658712682E+02  0.12113253251E+03  0.15937465768E+03  0.90380367311E+02 0.  0.
         24    2    1    2    0    0  0.46374160158E+02 -0.10333384010E+03  0.29354668937E+01  0.14191248769E+03  0.85452278824E+02 0.  0.
        -13    1    4    4    0    0  0.44592412350E+02 -0.71730287031E+02  0.39761099428E+02  0.93352355859E+02  0.00000000000E+00 0.  1.
         14    1    4    4    0    0  0.17817478074E+01 -0.31603553068E+02 -0.36825632534E+02  0.48560131830E+02  0.00000000000E+00 0. -1.
        -11    1    3    3    0    0 -0.75883262378E+01  0.47368124745E+02  0.10922143576E+03  0.11929226281E+03  0.00000000000E+00 0.  1.
         11    1    3    3    0    0  0.37679011963E+02 -0.67094120636E+01  0.11911096744E+02  0.40082394868E+02  0.00000000000E+00 0. -1.
         21    1    1    2  503  501  0.12618998071E+02 -0.23566352597E+02  0.14007184767E+03  0.14259991093E+03  0.00000000000E+00 0.  1.
         -2    1    1    2    0  502 -0.89083843953E+02  0.86241480014E+02  0.14297613811E+03  0.18925036380E+03  0.00000000000E+00 0.  1.
<scales pt_clust_5="13000.00000" pt_clust_6="13000.00000" pt_clust_7="13000.00000" pt_clust_8="13000.00000" pt_clust_9="26.73223" pt_clust_10="112.42255"></scales>
<clustering>
<clus scale="   26.732">  1  9  2 -1</clus>
<clus scale="   85.452">  5  6 -1 -1</clus>
<clus scale="   90.380">  7  8 -1 -1</clus>
<clus scale="  101.965">  2  7  1 -1</clus>
<clus scale="  112.423">  1 10  2 -1</clus>
<clus scale="   26.732">  1  5  2 -1</clus>
</clustering>
</event>
<event>
10    4  0.3043429E-005  0.1397981E+03  0.7546771E-02  0.1219509E+00
         -1   -1    0    0    0  501 -0.00000000000E+00  0.00000000000E+00  0.68481386212E+03  0.68481386212E+03  0.00000000000E+00 0.  1.
         21   -1    0    0  503  502  0.00000000000E+00 -0.00000000000E+00 -0.19983679214E+03  0.19983679214E+03  0.00000000000E+00 0.  1.
         24    2    1    2    0    0 -0.65077133126E+02  0.63593277414E+02  0.28722808043E+03  0.31186751904E+03  0.80512365860E+02 0.  0.
         23    2    1    2    0    0  0.12423339613E+03 -0.46859506066E+02 -0.93126513414E+02  0.19261511456E+03  0.10391479603E+03 0.  0.
        -13    1    3    3    0    0 -0.31716961979E+02  0.73842847123E+02  0.14888784367E+03  0.16919314921E+03  0.00000000000E+00 0.  1.
         14    1    3    3    0    0 -0.33360171147E+02 -0.10249569710E+02  0.13834023676E+03  0.14267436982E+03  0.00000000000E+00 0. -1.
        -11    1    4    4    0    0  0.72670432025E+01  0.25840282421E+02 -0.32474955015E+02  0.42132562416E+02  0.00000000000E+00 0.  1.
         11    1    4    4    0    0  0.11696635293E+03 -0.72699788487E+02 -0.60651558399E+02  0.15048255214E+03  0.00000000000E+00 0. -1.
         21    1    1    2  503  501  0.31459338636E+01  0.22210451869E+02 -0.37486940307E+02  0.43686059169E+02  0.00000000000E+00 0.  1.
         -2    1    1    2    0  502 -0.62302196870E+02 -0.38944223217E+02  0.32836244328E+03  0.33648196149E+03  0.00000000000E+00 0.  1.
<scales pt_clust_5="13000.00000" pt_clust_6="13000.00000" pt_clust_7="13000.00000" pt_clust_8="13000.00000" pt_clust_9="22.43214" pt_clust_10="73.10577"></scales>
<clustering>
<clus scale="   22.432">  2  9  1 -1</clus>
<clus scale="   73.106">  2 10  1 -1</clus>
<clus scale="   80.512">  5  6 -1 -1</clus>
<clus scale="  103.915">  7  8 -1 -1</clus>
<clus scale="  123.400">  1  5  2 -1</clus>
<clus scale="   22.432">  2  5  1 -1</clus>
</clustering>
</event>
<event>
10    4  0.3043429E-005  0.1540487E+03  0.7546771E-02  0.1197449E+00
         21   -1    0    0  501  502  0.00000000000E+00  0.00000000000E+00  0.51935438840E+02  0.51935438840E+02  0.00000000000E+00 0.  1.
          2   -1    0    0  503    0 -0.00000000000E+00 -0.00000000000E+00 -0.14538452090E+04  0.14538452090E+04  0.00000000000E+00 0. -1.
         24    2    1    2    0    0  0.13177829587E+03 -0.78876712643E+01 -0.86908259348E+03  0.88282733142E+03  0.81558618144E+02 0.  0.
         23    2    1    2    0    0 -0.10613255166E+03  0.35115601580E+02 -0.45800176188E+03  0.48038689929E+03  0.92242805312E+02 0.  0.
        -13    1    3    3    0    0  0.53588663373E+02  0.36888957171E+02 -0.37042823224E+03  0.37609787987E+03  0.00000000000E+00 0.  1.
         14    1    3    3    0    0  0.78189632498E+02 -0.44776628436E+02 -0.49865436124E+03  0.50672945155E+03  0.00000000000E+00 0. -1.
        -13    1    4    4    0    0 -0.21330559632E+01 -0.21845585021E+02 -0.12478572611E+03  0.12670144811E+03  0.00000000000E+00 0. -1.
         13    1    4    4    0    0 -0.10399949570E+03  0.56961186601E+02 -0.33321603577E+03  0.35368545118E+03  0.00000000000E+00 0.  1.
         21    1    1    2  503  502  0.11327216302E+02 -0.46498366678E+02  0.92286078216E+01  0.48739831096E+02  0.00000000000E+00 0.  1.
          1    1    1    2  501    0 -0.36972960514E+02  0.19270436363E+02 -0.84054022612E+02  0.93826586019E+02  0.00000000000E+00 0. -1.
<scales pt_clust_5="13000.00000" pt_clust_6="13000.00000" pt_clust_7="13000.00000" pt_clust_8="13000.00000" pt_clust_9="36.47084" pt_clust_10="41.69352"></scales>
<clustering>
<clus scale="   41.694">  1 10  2 -1</clus>
<clus scale="   36.471">  1  9  2 -1</clus>
<clus scale="   81.559">  5  6 -1 -1</clus>
<clus scale="   92.243">  7  8 -1 -1</clus>
<clus scale="  147.899">  2  5  1 -1</clus>
<clus scale="   41.694">  1  5  2 -1</clus>
</clustering>
</event>
<event>
10    4  0.3043429E-005  0.1291208E+03  0.7546771E-02  0.1237934E+00
         21   -1    0    0  501  502  0.00000000000E+00  0.00000000000E+00  0.15787008391E+03  0.15787008391E+03  0.00000000000E+00 0.  1.
          2   -1    0    0  503    0 -0.00000000000E+00 -0.00000000000E+00 -0.56664438255E+03  0.56664438255E+03  0.00000000000E+00 0. -1.
         23    2    1    2    0    0  0.66506193708E+02 -0.13274636830E+02 -0.92501034823E+02  0.14481142742E+03  0.88400329655E+02 0.  0.
         24    2    1    2    0    0  0.77152623133E+02 -0.30327036712E+02 -0.20843806373E+02  0.11762021301E+03  0.80794763649E+02 0.  0.
        -13    1    4    4    0    0  0.29791135916E+02 -0.54281505664E+02 -0.44844158313E+01  0.62081427349E+02  0.00000000000E+00 0.  1.
         14    1    4    4    0    0  0.47361487216E+02  0.23954468952E+02 -0.16359390542E+02  0.55538785664E+02  0.00000000000E+00 0. -1.
        -13    1    3    3    0    0  0.51637078923E+02  0.23637503593E+02 -0.16691919560E+02  0.59192395410E+02  0.00000000000E+00 0.  1.
         13    1    3    3    0    0  0.14869114785E+02 -0.36912140423E+02 -0.75809115263E+02  0.85619032008E+02  0.00000000000E+00 0. -1.
         21    1    1    2  503  502 -0.84426411557E+02  0.89290565690E+02  0.31374458584E+02  0.12682657742E+03  0.00000000000E+00 0.  1.
          1    1    1    2  501    0 -0.59232405284E+02 -0.45688892149E+02 -0.32680391602E+03  0.33525624861E+03  0.00000000000E+00 0. -1.
<scales pt_clust_5="13000.00000" pt_clust_6="13000.00000" pt_clust_7="13000.00000" pt_clust_8="13000.00000" pt_clust_9="100.71941" pt_clust_10="74.80614"></scales>
<clustering>
<clus scale="   74.806">  1 10  2 -1</clus>
<clus scale="   80.795">  5  6 -1 -1</clus>
<clus scale="   88.400">  7  8 -1 -1</clus>
<clus scale="  106.964">  2  7  1 -1</clus>
<clus scale="  100.719">  1  9  2 -1</clus>
<clus scale="   74.806">  1  5  2 -1</clus>
</clustering>
</event>
<event>
10    4  0.3043429E-005  0.1621373E+03  0.7546771E-02  0.1187971E+00
         21   -1    0    0  503  502  0.00000000000E+00  0.00000000000E+00  0.10649197901E+03  0.10649197901E+03  0.00000000000E+00 0.  1.
         -1   -1    0    0    0  501 -0.00000000000E+00 -0.00000000000E+00 -0.65068794877E+03  0.65068794877E+03  0.00000000000E+00 0.  1.
         24    2    1    2    0    0  0.33014698977E+01 -0.16473249149E+03 -0.37876925862E+03  0.42212696228E+03  0.87047846359E+02 0.  0.
         23    2    1    2    0    0  0.31643563130E+01  0.89611129237E+02 -0.15091115953E+03  0.20066652373E+03  0.97225038142E+02 0.  0.
        -11    1    3    3    0    0 -0.44453718189E+01 -0.16161347447E+03 -0.38065452894E+03  0.41356565000E+03  0.00000000000E+00 0.  1.
         12    1    3    3    0    0  0.77468417166E+01 -0.31190170188E+01  0.18852703211E+01  0.85613122784E+01  0.00000000000E+00 0. -1.
        -11    1    4    4    0    0  0.22389285731E+02  0.78027321316E+02 -0.45839905122E+02  0.93224674249E+02  0.00000000000E+00 0.  1.
         11    1    4    4    0    0 -0.19224929418E+02  0.11583807921E+02 -0.10507125441E+03  0.10744184948E+03  0.00000000000E+00 0. -1.
         21    1    1    2  503  501 -0.41288872201E+02  0.25078213277E+02  0.31788562862E+02  0.57829062569E+02  0.00000000000E+00 0.  1.
         -2    1    1    2    0  502  0.34823045990E+02  0.50043148980E+02 -0.46304114473E+02  0.76557379193E+02  0.00000000000E+00 0.  1.
<scales pt_clust_5="13000.00000" pt_clust_6="13000.00000" pt_clust_7="13000.00000" pt_clust_8="13000.00000" pt_clust_9="48.30826" pt_clust_10="61.38113"></scales>
<clustering>
<clus scale="   48.308">  1  9  2 -1</clus>
<clus scale="   61.381">  1 10  2 -1</clus>
<clus scale="   87.048">  5  6 -1 -1</clus>
<clus scale="   97.225">  7  8 -1 -1</clus>
<clus scale="  156.247">  2  5  1 -1</clus>
<clus scale="   48.308">  1  5  2 -1</clus>
</clustering>
</event>
<event>
10    4  0.3043429E-005  0.1835587E+03  0.7546771E-02  0.1196646E+00
         21   -1    0    0  503  502  0.00000000000E+00  0.00000000000E+00  0.46822618663E+03  0.46822618663E+03  0.00000000000E+00 0.  1.
         -3   -1    0    0    0  501 -0.00000000000E+00 -0.00000000000E+00 -0.33668818768E+03  0.33668818768E+03  0.00000000000E+00 0.  1.
         23    2    1    2    0    0 -0.14620040090E+02  0.10279974225E+02 -0.12774819737E+03  0.15545594154E+03  0.86761306970E+02 0.  0.
         24    2    1    2    0    0  0.12191673442E+03  0.15195984848E+03 -0.63696955335E+02  0.21978994488E+03  0.79339977758E+02 0.  0.
        -13    1    4    4    0    0  0.62283602179E+02  0.93087045415E+02 -0.75631219488E+02  0.13514631510E+03  0.00000000000E+00 0.  1.
         14    1    4    4    0    0  0.59633132237E+02  0.58872803069E+02  0.11934264153E+02  0.84643629780E+02  0.00000000000E+00 0. -1.
        -11    1    3    3    0    0  0.36510529791E+02  0.43448629636E+00 -0.52584685567E+02  0.64018409228E+02  0.00000000000E+00 0.  1.
         11    1    3    3    0    0 -0.51130569882E+02  0.98454879289E+01 -0.75163511799E+02  0.91437532310E+02  0.00000000000E+00 0. -1.
         21    1    1    2  503  501 -0.49007637743E+02 -0.40801221968E+02  0.28163188617E+03  0.28876116009E+03  0.00000000000E+00 0.  1.
         -4    1    1    2    0  502 -0.58289056582E+02 -0.12143860074E+03  0.41351265481E+02  0.14090732779E+03  0.00000000000E+00 0.  1.
<scales pt_clust_5="13000.00000" pt_clust_6="13000.00000" pt_clust_7="13000.00000" pt_clust_8="13000.00000" pt_clust_9="63.76902" pt_clust_10="165.52633"></scales>
<clustering>
<clus scale="   63.769">  1  9  2 -1</clus>
<clus scale="   79.340">  5  6 -1 -1</clus>
<clus scale="   86.761">  7  8 -1 -1</clus>
<clus scale="   88.967">  2  7  1 -1</clus>
<clus scale="  165.526">  1 10  2 -1</clus>
<clus scale="   63.769">  1  5  2 -1</clus>
</clustering>
</event>
<event>
10    4  0.3043429E-005  0.3185761E+03  0.7546771E-02  0.1076307E+00
         -1   -1    0    0    0  501 -0.00000000000E+00  0.00000000000E+00  0.98505178310E+03  0.98505178310E+03  0.00000000000E+00 0.  1.
         21   -1    0    0  501  502  0.00000000000E+00 -0.00000000000E+00 -0.13712477915E+03  0.13712477915E+03  0.00000000000E+00 0.  1.
         24    2    1    2    0    0 -0.69933635416E+02 -0.16684103760E+03  0.10943715754E+03  0.22694714317E+03  0.82473445134E+02 0.  0.
         23    2    1    2    0    0 -0.27103972910E+02 -0.33121332396E+02  0.12077997704E+03  0.15887828428E+03  0.93930071631E+02 0.  0.
        -11    1    3    3    0    0 -0.78907822173E+02 -0.15542713668E+03  0.11761874841E+03  0.21028126211E+03  0.00000000000E+00 0.  1.
         12    1    3    3    0    0  0.89741867566E+01 -0.11413900919E+02 -0.81815908761E+01  0.16665881057E+02  0.00000000000E+00 0. -1.
        -13    1    4    4    0    0 -0.54836353611E+02  0.58308834641E+01  0.70280279897E+02  0.89332763428E+02  0.00000000000E+00 0.  1.
         13    1    4    4    0    0  0.27732380701E+02 -0.38952215860E+02  0.50499697140E+02  0.69545520855E+02  0.00000000000E+00 0. -1.
         21    1    1    2  503  502 -0.27708974216E+02 -0.29205489842E+01 -0.33138371752E+02  0.43295132993E+02  0.00000000000E+00 0.  1.
         -2    1    1    2    0  503  0.12474658254E+03  0.20288291898E+03  0.65084824113E+03  0.69305600182E+03  0.00000000000E+00 0.  1.
<scales pt_clust_5="13000.00000" pt_clust_6="13000.00000" pt_clust_7="13000.00000" pt_clust_8="13000.00000" pt_clust_9="27.86246" pt_clust_10="234.58617"></scales>
<clustering>
<clus scale="   27.862">  2  9  1 -1</clus>
<clus scale="   82.473">  5  6 -1 -1</clus>
<clus scale="   93.930">  7  8 -1 -1</clus>
<clus scale="   96.208">  5  7 -1 -1</clus>
<clus scale="  234.586">  2 10  1 -1</clus>
<clus scale="   27.862">  2  5  1 -1</clus>
</clustering>
</event>
<event>
10    4  0.3043429E-005  0.1321861E+03  0.7546771E-02  0.1237467E+00
          2   -1    0    0  503    0 -0.00000000000E+00  0.00000000000E+00  0.15121598130E+04  0.15121598130E+04  0.00000000000E+00 0. -1.
         21   -1    0    0  501  502  0.00000000000E+00 -0.00000000000E+00 -0.96217060018E+02  0.96217060018E+02  0.00000000000E+00 0. -1.
         24    2    1    2    0    0 -0.56079684026E+02  0.17313076844E+02  0.96767298415E+03  0.97279795541E+03  0.80623719765E+02 0.  0.
         23    2    1    2    0    0 -0.42591708151E+02 -0.39829445874E+02  0.41716760971E+03  0.43054902779E+03  0.89124701317E+02 0.  0.
        -13    1    3    3    0    0 -0.39697855025E+02  0.36134830711E+02  0.30727868217E+03  0.31193241928E+03  0.00000000000E+00 0.  1.
         14    1    3    3    0    0 -0.16381829001E+02 -0.18821753867E+02  0.66039430199E+03  0.66086553612E+03  0.00000000000E+00 0. -1.
        -11    1    4    4    0    0 -0.69746559226E+02 -0.35698163555E+02  0.28613337899E+03  0.29666690408E+03  0.00000000000E+00 0. -1.
         11    1    4    4    0    0  0.27154851075E+02 -0.41312823187E+01  0.13103423072E+03  0.13388212371E+03  0.00000000000E+00 0.  1.
         21    1    1    2  503  502 -0.25925764037E+02  0.60113606926E+01 -0.49160875641E+02  0.55902355872E+02  0.00000000000E+00 0. -1.
          1    1    1    2  501    0  0.12459715621E+03  0.16505008337E+02  0.80263034802E+02  0.14912753399E+03  0.00000000000E+00 0. -1.
<scales pt_clust_5="13000.00000" pt_clust_6="13000.00000" pt_clust_7="13000.00000" pt_clust_8="13000.00000" pt_clust_9="26.61356" pt_clust_10="97.62153"></scales>
<clustering>
<clus scale="   26.614">  2  9  1 -1</clus>
<clus scale="   80.624">  5  6 -1 -1</clus>
<clus scale="   89.125">  7  8 -1 -1</clus>
<clus scale="  100.648">  1  5  2 -1</clus>
<clus scale="   97.622">  2 10  1 -1</clus>
<clus scale="   26.614">  2  5  1 -1</clus>
</clustering>
</event>
<event>
10    4  0.3043429E-005  0.2654686E+03  0.7546771E-02  0.1104516E+00
          2   -1    0    0  503    0 -0.00000000000E+00  0.00000000000E+00  0.63383326707E+03  0.63383326707E+03  0.00000000000E+00 0. -1.
         21   -1    0    0  501  502  0.00000000000E+00 -0.00000000000E+00 -0.23187436469E+03  0.23187436469E+03  0.00000000000E+00 0. -1.
         24    2    1    2    0    0  0.22205543042E+03  0.12560744569E+03  0.23307348710E+03  0.35448148016E+03  0.79044448222E+02 0.  0.
         23    2    1    2    0    0 -0.12327923963E+03 -0.23514183843E+03  0.13104835140E+03  0.31000916089E+03  0.91883373501E+02 0.  0.
        -13    1    3    3    0    0  0.17060041916E+03  0.68600022880E+02  0.19750518256E+03  0.26984951973E+03  0.00000000000E+00 0.  1.
         14    1    3    3    0    0  0.51455011257E+02  0.57007422807E+02  0.35568304534E+02  0.84631960429E+02  0.00000000000E+00 0. -1.
        -13    1    4    4    0    0 -0.75299448199E+02 -0.79805746400E+02  0.16093524843E+02  0.11089619290E+03  0.00000000000E+00 0.  1.
         13    1    4    4    0    0 -0.47979791429E+02 -0.15533609203E+03  0.11495482655E+03  0.19911296799E+03  0.00000000000E+00 0. -1.
         21    1    1    2  503  502 -0.17615768724E+02  0.66989058224E+02 -0.40865521373E+02  0.80422882730E+02  0.00000000000E+00 0. -1.
          1    1    1    2  501    0 -0.81160422069E+02  0.42545334519E+02  0.78702585256E+02  0.12079410799E+03  0.00000000000E+00 0. -1.
<scales pt_clust_5="13000.00000" pt_clust_6="13000.00000" pt_clust_7="13000.00000" pt_clust_8="13000.00000" pt_clust_9="69.26651" pt_clust_10="97.57897"></scales>
<clustering>
<clus scale="   69.267">  2  9  1 -1</clus>
<clus scale="   79.044">  5  6 -1 -1</clus>
<clus scale="   91.883">  7  8 -1 -1</clus>
<clus scale="   97.579">  2 10  1 -1</clus>
<clus scale="  261.303">  1  5  2 -1</clus>
<clus scale="   69.267">  2  5  1 -1</clus>
</clustering>
</event>
<event>
10    4  0.3043429E-005  0.1056414E+03  0.7546771E-02  0.1274699E+00
          2   -1    0    0  503    0 -0.00000000000E+00  0.00000000000E+00  0.42571646510E+03  0.42571646510E+03  0.00000000000E+00 0. -1.
         21   -1    0    0  501  502  0.00000000000E+00 -0.00000000000E+00 -0.61912320342E+02  0.61912320342E+02  0.00000000000E+00 0. -1.
         23    2    1    2    0    0 -0.18201482238E+02  0.41134046772E+02  0.27985097119E+03  0.29865762592E+03  0.94109020194E+02 0.  0.
         24    2    1    2    0    0  0.14994468478E+02 -0.58848731897E+02  0.30450104859E+02  0.10593269680E+03  0.81280502175E+02 0.  0.
        -11    1    4    4    0    0  0.15483717099E+02 -0.24709501122E+02  0.56101782908E+02  0.63227486004E+02  0.00000000000E+00 0.  1.
         12    1    4    4    0    0 -0.48924862054E+00 -0.34139230775E+02 -0.25651678050E+02  0.42705210793E+02  0.00000000000E+00 0. -1.
        -11    1    3    3    0    0 -0.24486814576E+02 -0.26470046987E+02  0.10902518191E+03  0.11483360904E+03  0.00000000000E+00 0.  1.
         11    1    3    3    0    0  0.62853323377E+01  0.67604093759E+02  0.17082578929E+03  0.18382401688E+03  0.00000000000E+00 0. -1.
         21    1    1    2  503  502  0.27819735923E+02  0.18485489656E+02  0.13421898942E+02  0.35997199973E+02  0.00000000000E+00 0. -1.
          1    1    1    2  501    0 -0.24612722163E+02 -0.77080453088E+00  0.40081169765E+02  0.47041262755E+02  0.00000000000E+00 0. -1.
<scales pt_clust_5="13000.00000" pt_clust_6="13000.00000" pt_clust_7="13000.00000" pt_clust_8="13000.00000" pt_clust_9="29.46579" pt_clust_10="24.62480"></scales>
<clustering>
<clus scale="   24.625">  2 10  1 -1</clus>
<clus scale="   29.466">  2  9  1 -1</clus>
<clus scale="   81.281">  5  6 -1 -1</clus>
<clus scale="   94.109">  7  8 -1 -1</clus>
<clus scale="   94.393">  2  5  1 -1</clus>
<clus scale="   24.625">  2  5  1 -1</clus>
</clustering>
</event>
<event>
10    4  0.3043429E-005  0.1611945E+03  0.7546771E-02  0.1188611E+00
         -3   -1    0    0    0  501 -0.00000000000E+00  0.00000000000E+00  0.43959392264E+03  0.43959392264E+03  0.00000000000E+00 0.  1.
         21   -1    0    0  503  502  0.00000000000E+00 -0.00000000000E+00 -0.28570758174E+03  0.28570758174E+03  0.00000000000E+00 0.  1.
         24    2    1    2    0    0  0.10240250879E+03 -0.46497395819E+02  0.48500565911E+02  0.14819998098E+03  0.83442482250E+02 0.  0.
         23    2    1    2    0    0 -0.17513983955E+03  0.45884400213E+02 -0.15831272239E+03  0.25731796086E+03  0.91489197908E+02 0.  0.
        -13    1    3    3    0    0  0.87532799077E+02  0.37637526829E+01  0.29456943393E+02  0.92433047459E+02  0.00000000000E+00 0.  1.
         14    1    3    3    0    0  0.14869709714E+02 -0.50261148502E+02  0.19043622518E+02  0.55766933521E+02  0.00000000000E+00 0. -1.
        -13    1    4    4    0    0 -0.94990189790E+02  0.70009761815E+02 -0.78983381977E+02  0.14199604760E+03  0.00000000000E+00 0. -1.
         13    1    4    4    0    0 -0.80149649757E+02 -0.24125361602E+02 -0.79329340408E+02  0.11532191326E+03  0.00000000000E+00 0.  1.
         21    1    1    2  503  501  0.38034740536E+02  0.12036182058E+02 -0.12012072727E+02  0.41662945856E+02  0.00000000000E+00 0.  1.
         -4    1    1    2    0  502  0.34702590220E+02 -0.11423186452E+02  0.27571057010E+03  0.27812061668E+03  0.00000000000E+00 0.  1.
<scales pt_clust_5="13000.00000" pt_clust_6="13000.00000" pt_clust_7="13000.00000" pt_clust_8="13000.00000" pt_clust_9="42.73717" pt_clust_10="36.53437"></scales>
<clustering>
<clus scale="   36.534">  2 10  1 -1</clus>
<clus scale="   42.737">  1  9  2 -1</clus>
<clus scale="   83.442">  5  6 -1 -1</clus>
<clus scale="   91.489">  7  8 -1 -1</clus>
<clus scale="  156.767">  1  5  2 -1</clus>
<clus scale="   36.534">  2  5  1 -1</clus>
</clustering>
</event>
<event>
10    4  0.3043429E-005  0.1059438E+03  0.7546771E-02  0.1271591E+00
          2   -1    0    0  503    0 -0.00000000000E+00  0.00000000000E+00  0.11700127999E+04  0.11700127999E+04  0.00000000000E+00 0. -1.
         21   -1    0    0  501  502  0.00000000000E+00 -0.00000000000E+00 -0.29094472575E+02  0.29094472575E+02  0.00000000000E+00 0.  1.
         24    2    1    2    0    0 -0.26059636933E+02 -0.56026525273E+02  0.49624945459E+03  0.50658965638E+03  0.80941229033E+02 0.  0.
         23    2    1    2    0    0  0.86410785889E+00  0.47939819972E+02  0.14232816093E+03  0.17452893905E+03  0.88904848863E+02 0.  0.
        -11    1    3    3    0    0  0.25653577432E+01 -0.66924820460E+02  0.26553722293E+03  0.27385311649E+03  0.00000000000E+00 0.  1.
         12    1    3    3    0    0 -0.28624994676E+02  0.10898295187E+02  0.23071223166E+03  0.23273653988E+03  0.00000000000E+00 0. -1.
        -11    1    4    4    0    0  0.37899647027E+02  0.51310239129E+02  0.92013310884E+02  0.11196237432E+03  0.00000000000E+00 0.  1.
         11    1    4    4    0    0 -0.37035539168E+02 -0.33704191570E+01  0.50314850047E+02  0.62566564730E+02  0.00000000000E+00 0. -1.
         21    1    1    2  503  502 -0.86645038057E+01 -0.39748201028E+02  0.64600977707E+02  0.76343168862E+02  0.00000000000E+00 0.  1.
          1    1    1    2  501    0  0.33860032880E+02  0.47834906329E+02  0.43773973408E+03  0.44164550817E+03  0.00000000000E+00 0. -1.
<scales pt_clust_5="13000.00000" pt_clust_6="13000.00000" pt_clust_7="13000.00000" pt_clust_8="13000.00000" pt_clust_9="40.68161" pt_clust_10="55.47315"></scales>
<clustering>
<clus scale="   40.682">  2  9  1 -1</clus>
<clus scale="   55.473">  2 10  1 -1</clus>
<clus scale="   80.941">  5  6 -1 -1</clus>
<clus scale="   88.905">  7  8 -1 -1</clus>
<clus scale="   99.355">  1  5  2 -1</clus>
<clus scale="   40.682">  2  5  1 -1</clus>
</clustering>
</event>
<event>
10    4  0.3043429E-005  0.1623316E+03  0.7546771E-02  0.1212951E+00
          2   -1    0    0  503    0 -0.00000000000E+00  0.00000000000E+00  0.13257893748E+04  0.13257893748E+04  0.00000000000E+00 0. -1.
         21   -1    0    0  501  502  0.00000000000E+00 -0.00000000000E+00 -0.19574442130E+03  0.19574442130E+03  0.00000000000E+00 0. -1.
         24    2    1    2    0    0  0.60031104218E+01 -0.38184466457E+02  0.52528419590E+03  0.53302809451E+03  0.81861909684E+02 0.  0.
         23    2    1    2    0    0  0.11798554378E+03  0.19190397931E+02  0.59666363698E+03  0.61538206705E+03  0.91644600695E+02 0.  0.
        -11    1    3    3    0    0  0.15129370378E+02 -0.25812090348E+02  0.55994042122E+02  0.63486176522E+02  0.00000000000E+00 0.  1.
         12    1    3    3    0    0 -0.91262599561E+01 -0.12372376108E+02  0.46929015378E+03  0.46954191799E+03  0.00000000000E+00 0. -1.
        -11    1    4    4    0    0 -0.10419838027E+01  0.30856230820E+02  0.11159883752E+03  0.11579073040E+03  0.00000000000E+00 0.  1.
         11    1    4    4    0    0  0.11902752758E+03 -0.11665832888E+02  0.48506479946E+03  0.49959133665E+03  0.00000000000E+00 0. -1.
         21    1    1    2  503  502  0.93259751188E+02  0.94928180302E+02 -0.38047315167E+02  0.13840642615E+03  0.00000000000E+00 0. -1.
          1    1    1    2  501    0 -0.21724840539E+03 -0.75934111777E+02  0.46144435801E+02  0.23471720842E+03  0.00000000000E+00 0. -1.
<scales pt_clust_5="13000.00000" pt_clust_6="13000.00000" pt_clust_7="13000.00000" pt_clust_8="13000.00000" pt_clust_9="131.63796" pt_clust_10="133.98807"></scales>
<clustering>
<clus scale="   81.862">  5  6 -1 -1</clus>
<clus scale="   90.529">  1  5  2 -1</clus>
<clus scale="   91.645">  7  8 -1 -1</clus>
<clus scale="  131.638">  2  9  1 -1</clus>
<clus scale="  133.988">  2 10  1 -1</clus>
<clus scale="  131.638">  2  5  1 -1</clus>
</clustering>
</event>
<event>
10    4  0.3043429E-005  0.3374424E+03  0.7546771E-02  0.1099777E+00
         21   -1    0    0  501  502  0.00000000000E+00  0.00000000000E+00  0.12384816350E+04  0.12384816350E+04  0.00000000000E+00 0. -1.
          2   -1    0    0  503    0 -0.00000000000E+00 -0.00000000000E+00 -0.73960798194E+03  0.73960798194E+03  0.00000000000E+00 0. -1.
         23    2    1    2    0    0  0.11010678007E+03  0.93492014020E+01 -0.11832228902E+03  0.18694674046E+03  0.93477318661E+02 0.  0.
         24    2    1    2    0    0  0.11453023216E+03  0.25016256920E+03 -0.44353956108E+03  0.52808070529E+03  0.80270816279E+02 0.  0.
        -13    1    4    4    0    0  0.52642214751E+02  0.48189528881E+02 -0.15338432594E+03  0.16917501267E+03  0.00000000000E+00 0.  1.
         14    1    4    4    0    0  0.61888017408E+02  0.20197304032E+03 -0.29015523515E+03  0.35890569262E+03  0.00000000000E+00 0. -1.
        -11    1    3    3    0    0  0.15258177019E+02  0.36301258386E+02 -0.10328690715E+02  0.40709644782E+02  0.00000000000E+00 0.  1.
         11    1    3    3    0    0  0.94848603047E+02 -0.26952056984E+02 -0.10799359831E+03  0.14623709568E+03  0.00000000000E+00 0. -1.
         21    1    1    2  503  502 -0.18171181360E+03 -0.24418374622E+03  0.11354517416E+04  0.11755405321E+04  0.00000000000E+00 0. -1.
          1    1    1    2  501    0 -0.42925198621E+02 -0.15328024380E+02 -0.74716238477E+02  0.87521639040E+02  0.00000000000E+00 0. -1.
<scales pt_clust_5="13000.00000" pt_clust_6="13000.00000" pt_clust_7="13000.00000" pt_clust_8="13000.00000" pt_clust_9="327.75591" pt_clust_10="45.57985"></scales>
<clustering>
<clus scale="   45.580">  1 10  2 -1</clus>
<clus scale="   80.271">  5  6 -1 -1</clus>
<clus scale="   93.477">  7  8 -1 -1</clus>
<clus scale="  143.803">  2  7  1 -1</clus>
<clus scale="  327.756">  1  9  2 -1</clus>
<clus scale="   45.580">  1  5  2 -1</clus>
</clustering>
</event>
<event>
10    4  0.3043429E-005  0.1815775E+03  0.7546771E-02  0.1167658E+00
          2   -1    0    0  503    0 -0.00000000000E+00  0.00000000000E+00  0.55972488320E+03  0.55972488320E+03  0.00000000000E+00 0. -1.
         21   -1    0    0  501  502  0.00000000000E+00 -0.00000000000E+00 -0.13146113513E+03  0.13146113513E+03  0.00000000000E+00 0.  1.
         23    2    1    2    0    0  0.17029212429E+03  0.42183587355E+02  0.38380582407E+03  0.43188609866E+03  0.91868541910E+02 0.  0.
         24    2    1    2    0    0 -0.10815280468E+03  0.19923244634E+02 -0.37762964821E+01  0.13612535412E+03  0.80136675631E+02 0.  0.
        -13    1    4    4    0    0 -0.11954668867E+03  0.26520942997E+02 -0.91418775470E-01  0.12245317288E+03  0.00000000000E+00 0.  1.
         14    1    4    4    0    0  0.11393883993E+02 -0.65976983626E+01 -0.36848777066E+01  0.13672181240E+02  0.00000000000E+00 0. -1.
        -11    1    3    3    0    0  0.26329199760E+02  0.42386317646E+02  0.63855806849E+02  0.81039439484E+02  0.00000000000E+00 0. -1.
         11    1    3    3    0    0  0.14396292453E+03 -0.20273029071E+00  0.31995001722E+03  0.35084665918E+03  0.00000000000E+00 0.  1.
         21    1    1    2  503  502  0.84802195656E+01 -0.34554947812E+02  0.50612092794E+01  0.35938480512E+02  0.00000000000E+00 0. -1.
          1    1    1    2  501    0 -0.70619539177E+02 -0.27551884177E+02  0.43173011205E+02  0.87236085033E+02  0.00000000000E+00 0. -1.
<scales pt_clust_5="13000.00000" pt_clust_6="13000.00000" pt_clust_7="13000.00000" pt_clust_8="13000.00000" pt_clust_9="35.58031" pt_clust_10="76.98056"></scales>
<clustering>
<clus scale="   35.580">  2  9  1 -1</clus>
<clus scale="   76.981">  2 10  1 -1</clus>
<clus scale="   80.137">  5  6 -1 -1</clus>
<clus scale="   91.869">  7  8 -1 -1</clus>
<clus scale="  175.933">  2  5  1 -1</clus>
<clus scale="   35.580">  2  5  1 -1</clus>
</clustering>
</event>
<event>
10    4  0.3043429E-005  0.9275414E+02  0.7546771E-02  0.1304408E+00
          2   -1    0    0  503    0 -0.00000000000E+00  0.00000000000E+00  0.48885426428E+03  0.48885426428E+03  0.00000000000E+00 0. -1.
         21   -1    0    0  501  502  0.00000000000E+00 -0.00000000000E+00 -0.11778871200E+03  0.11778871200E+03  0.00000000000E+00 0. -1.
         24    2    1    2    0    0  0.37191909831E+01  0.62071518829E+01  0.11964682001E+03  0.14268581777E+03  0.77404908992E+02 0.  0.
         23    2    1    2    0    0 -0.53195353996E+02  0.25232895530E+02  0.93684717795E+02  0.14301417499E+03  0.90607853943E+02 0.  0.
        -11    1    3    3    0    0 -0.43219885163E+01  0.27530309290E+02  0.83669657091E+01  0.29096453899E+02  0.00000000000E+00 0.  1.
         12    1    3    3    0    0  0.80411794993E+01 -0.21323157407E+02  0.11127985431E+03  0.11358936387E+03  0.00000000000E+00 0. -1.
        -13    1    4    4    0    0 -0.90230957116E+00  0.50059889529E+02  0.46542614870E+02  0.68359503371E+02  0.00000000000E+00 0.  1.
         13    1    4    4    0    0 -0.52293044424E+02 -0.24826994000E+02  0.47142102926E+02  0.74654671619E+02  0.00000000000E+00 0. -1.
         21    1    1    2  503  502  0.31694597912E+02 -0.86288631449E+02 -0.50493261993E+02  0.10488014569E+03  0.00000000000E+00 0. -1.
          1    1    1    2  501    0  0.17781565100E+02  0.54848584036E+02  0.20822727646E+03  0.21606283783E+03  0.00000000000E+00 0. -1.
<scales pt_clust_5="13000.00000" pt_clust_6="13000.00000" pt_clust_7="13000.00000" pt_clust_8="13000.00000" pt_clust_9="65.64208" pt_clust_10="57.65895"></scales>
<clustering>
<clus scale="   57.659">  2 10  1 -1</clus>
<clus scale="   65.642">  2  9  1 -1</clus>
<clus scale="   77.405">  5  6 -1 -1</clus>
<clus scale="   79.907">  1  5  2 -1</clus>
<clus scale="   90.608">  7  8 -1 -1</clus>
<clus scale="   57.659">  2  5  1 -1</clus>
</clustering>
</event>
<event>
10    4  0.3043429E-005  0.1608871E+03  0.7546771E-02  0.1209738E+00
          2   -1    0    0  503    0 -0.00000000000E+00  0.00000000000E+00  0.78189443949E+03  0.78189443949E+03  0.00000000000E+00 0. -1.
         21   -1    0    0  501  502  0.00000000000E+00 -0.00000000000E+00 -0.64000328619E+02  0.64000328619E+02  0.00000000000E+00 0. -1.
         23    2    1    2    0    0 -0.13087160455E+03 -0.92186662590E+02  0.32832045705E+03  0.37636751587E+03  0.90732722046E+02 0.  0.
         24    2    1    2    0    0  0.56995210032E+02 -0.20496743041E+01  0.99675383294E+02  0.13801825039E+03  0.76558476179E+02 0.  0.
        -13    1    4    4    0    0  0.35292027099E+02 -0.38195581721E+02  0.43611240197E+02  0.67870243195E+02  0.00000000000E+00 0.  1.
         14    1    4    4    0    0  0.21703182933E+02  0.36145907417E+02  0.56064143098E+02  0.70148007197E+02  0.00000000000E+00 0. -1.
        -13    1    3    3    0    0 -0.12028138179E+03 -0.10938936166E+03  0.30405108457E+03  0.34479081379E+03  0.00000000000E+00 0. -1.
         13    1    3    3    0    0 -0.10590222764E+02  0.17202699072E+02  0.24269372480E+02  0.31576702078E+02  0.00000000000E+00 0.  1.
         21    1    1    2  503  502  0.52737875043E+02  0.10562524726E+03  0.15687374594E+03  0.19633478675E+03  0.00000000000E+00 0. -1.
          1    1    1    2  501    0  0.21138519477E+02 -0.11388910363E+02  0.13302452459E+03  0.13517421510E+03  0.00000000000E+00 0. -1.
<scales pt_clust_5="13000.00000" pt_clust_6="13000.00000" pt_clust_7="13000.00000" pt_clust_8="13000.00000" pt_clust_9="132.86174" pt_clust_10="24.01135"></scales>
<clustering>
<clus scale="   24.011">  2 10  1 -1</clus>
<clus scale="   76.558">  5  6 -1 -1</clus>
<clus scale="   90.733">  7  8 -1 -1</clus>
<clus scale="   99.578">  2  5  1 -1</clus>
<clus scale="  132.862">  1  9  2 -1</clus>
<clus scale="   24.011">  2  5  1 -1</clus>
</clustering>
</event>
<event>
10    4  0.3043429E-005  0.2707341E+03  0.7546771E-02  0.1149034E+00
         21   -1    0    0  503  502  0.00000000000E+00  0.00000000000E+00  0.20226667092E+03  0.20226667092E+03  0.00000000000E+00 0.  1.
         -3   -1    0    0    0  501 -0.00000000000E+00 -0.00000000000E+00 -0.11135009658E+04  0.11135009658E+04  0.00000000000E+00 0.  1.
         24    2    1    2    0    0 -0.77736201958E+01 -0.35426347568E+01 -0.46206244496E+02  0.93952761354E+02  0.81358004546E+02 0.  0.
         23    2    1    2    0    0  0.12763679157E+02  0.26543604115E+03 -0.89440140025E+03  0.93782588381E+03  0.94574415775E+02 0.  0.
        -13    1    3    3    0    0 -0.40286662301E+02 -0.12778553762E+02 -0.42521344566E+02  0.59953076145E+02  0.00000000000E+00 0.  1.
         14    1    3    3    0    0  0.32513042105E+02  0.92359190055E+01 -0.36848999300E+01  0.33999685209E+02  0.00000000000E+00 0. -1.
        -13    1    4    4    0    0 -0.28154500268E+02  0.25814625813E+02 -0.14724695477E+03  0.15212079568E+03  0.00000000000E+00 0. -1.
         13    1    4    4    0    0  0.40918179425E+02  0.23962141534E+03 -0.74715444548E+03  0.78570508812E+03  0.00000000000E+00 0.  1.
         21    1    1    2  503  501  0.15711757034E+02 -0.33014437255E+02  0.39664748406E+02  0.53945385738E+02  0.00000000000E+00 0.  1.
         -4    1    1    2    0  502 -0.20701815995E+02 -0.22887896914E+03 -0.10291398541E+02  0.23004360583E+03  0.00000000000E+00 0.  1.
<scales pt_clust_5="13000.00000" pt_clust_6="13000.00000" pt_clust_7="13000.00000" pt_clust_8="13000.00000" pt_clust_9="36.56244" pt_clust_10="253.67822"></scales>
<clustering>
<clus scale="   36.562">  1  9  2 -1</clus>
<clus scale="   81.358">  5  6 -1 -1</clus>
<clus scale="   81.988">  2  5  1 -1</clus>
<clus scale="   94.574">  7  8 -1 -1</clus>
<clus scale="  253.678">  1 10  2 -1</clus>
<clus scale="   36.562">  1  5  2 -1</clus>
</clustering>
</event>
<event>
10    4  0.3043429E-005  0.2503906E+03  0.7546771E-02  0.1143779E+00
         21   -1    0    0  501  502  0.00000000000E+00  0.00000000000E+00  0.25144173571E+03  0.25144173571E+03  0.00000000000E+00 0. -1.
          2   -1    0    0  503    0 -0.00000000000E+00 -0.00000000000E+00 -0.71523703292E+03  0.71523703292E+03  0.00000000000E+00 0. -1.
         23    2    1    2    0    0 -0.71530319257E+02 -0.48155519073E+02  0.31310563302E+02  0.13128883733E+03  0.93919469995E+02 0.  0.
         24    2    1    2    0    0 -0.11149688473E+02  0.26240786205E+03 -0.47510853574E+03  0.54906008628E+03  0.82198880717E+02 0.  0.
        -13    1    4    4    0    0  0.34532832177E+02  0.10750108536E+03 -0.21623254851E+03  0.24393752250E+03  0.00000000000E+00 0.  1.
         14    1    4    4    0    0 -0.45682520650E+02  0.15490677669E+03 -0.25887598723E+03  0.30512256377E+03  0.00000000000E+00 0. -1.
        -11    1    3    3    0    0  0.17475726753E+02 -0.32340642267E+02  0.13434041447E+02  0.39138109783E+02  0.00000000000E+00 0.  1.
         11    1    3    3    0    0 -0.89006046010E+02 -0.15814876807E+02  0.17876521855E+02  0.92150727552E+02  0.00000000000E+00 0. -1.
         21    1    1    2  503  502  0.43782387204E+02  0.16998111011E+02 -0.21904246471E+02  0.51823056844E+02  0.00000000000E+00 0.  1.
          1    1    1    2  501    0  0.38897620526E+02 -0.23125045398E+03  0.19069217004E+01  0.23450678818E+03  0.00000000000E+00 0. -1.
<scales pt_clust_5="13000.00000" pt_clust_6="13000.00000" pt_clust_7="13000.00000" pt_clust_8="13000.00000" pt_clust_9="46.96630" pt_clust_10="236.51383"></scales>
<clustering>
<clus scale="   46.966">  1  9  2 -1</clus>
<clus scale="   82.199">  5  6 -1 -1</clus>
<clus scale="   93.919">  7  8 -1 -1</clus>
<clus scale="  117.478">  2  7  1 -1</clus>
<clus scale="  236.514">  1 10  2 -1</clus>
<clus scale="   46.966">  1  5  2 -1</clus>
</clustering>
</event>
<event>
10    4  0.8536817E-005  0.2639911E+03  0.7546771E-02  0.1148817E+00
          2   -1    0    0  503    0 -0.00000000000E+00  0.00000000000E+00  0.96317754278E+03  0.96317754278E+03  0.00000000000E+00 0. -1.
         21   -1    0    0  501  502  0.00000000000E+00 -0.00000000000E+00 -0.19126583275E+04  0.19126583275E+04  0.00000000000E+00 0.  1.
         24    2    1    2    0    0 -0.38460519776E+02 -0.92748986948E+01  0.45239077877E+03  0.46102796245E+03  0.79524399502E+02 0.  0.
         23    2    1    2    0    0 -0.13051621004E+03  0.19471483134E+03  0.38925650620E+03  0.46347204225E+03  0.91309143595E+02 0.  0.
        -13    1    3    3    0    0 -0.26726526167E+02 -0.43424457153E+02  0.30789736523E+03  0.31209097743E+03  0.00000000000E+00 0.  1.
         14    1    3    3    0    0 -0.11733993609E+02  0.34149558458E+02  0.14449341354E+03  0.14893698502E+03  0.00000000000E+00 0. -1.
        -11    1    4    4    0    0 -0.13506603226E+03  0.14196374120E+03  0.27639175096E+03  0.33880516065E+03  0.00000000000E+00 0. -1.
         11    1    4    4    0    0  0.45498222133E+01  0.52751090145E+02  0.11286475524E+03  0.12466688161E+03  0.00000000000E+00 0.  1.
         21    1    1    2  503  502  0.22171874174E+03 -0.12278967562E+03 -0.18390618859E+04  0.18564442154E+04  0.00000000000E+00 0.  1.
          1    1    1    2  501    0 -0.52742011919E+02 -0.62650257021E+02  0.47933816215E+02  0.94891650123E+02  0.00000000000E+00 0. -1.
<scales pt_clust_5="13000.00000" pt_clust_6="13000.00000" pt_clust_7="13000.00000" pt_clust_8="13000.00000" pt_clust_9="247.69731" pt_clust_10="81.89494"></scales>
<clustering>
<clus scale="   79.524">  5  6 -1 -1</clus>
<clus scale="   81.895">  2 10  1 -1</clus>
<clus scale="   88.889">  1  5  2 -1</clus>
<clus scale="   91.309">  7  8 -1 -1</clus>
<clus scale="  247.697">  2  9  1 -1</clus>
<clus scale="   81.895">  2  5  1 -1</clus>
</clustering>
</event>
<event>
10    4  0.3043429E-005  0.2572974E+03  0.7546771E-02  0.1109310E+00
          2   -1    0    0  502    0 -0.00000000000E+00  0.00000000000E+00  0.48182590999E+03  0.48182590999E+03  0.00000000000E+00 0. -1.
         21   -1    0    0  503  502  0.00000000000E+00 -0.00000000000E+00 -0.51393588617E+03  0.51393588617E+03  0.00000000000E+00 0. -1.
         24    2    1    2    0    0  0.25024048647E+03  0.37140519632E+02  0.39059797533E+03  0.47216601055E+03  0.79838862205E+02 0.  0.
         23    2    1    2    0    0 -0.16418814813E+03 -0.44382401125E+02 -0.20557101341E+03  0.28166426384E+03  0.90265001237E+02 0.  0.
        -13    1    3    3    0    0  0.10635567324E+03  0.49990691413E+01  0.23401469439E+03  0.25709803016E+03  0.00000000000E+00 0.  1.
         14    1    3    3    0    0  0.14388481323E+03  0.32141450491E+02  0.15658328094E+03  0.21506798038E+03  0.00000000000E+00 0. -1.
        -11    1    4    4    0    0 -0.88086340499E+02  0.17241622103E+02 -0.67097359338E+02  0.11206485866E+03  0.00000000000E+00 0. -1.
         11    1    4    4    0    0 -0.76101807635E+02 -0.61624023228E+02 -0.13847365408E+03  0.16959940518E+03  0.00000000000E+00 0.  1.
         21    1    1    2  503  501 -0.21549046344E+02  0.56257655823E+01 -0.13818081414E+03  0.13996409552E+03  0.00000000000E+00 0. -1.
          1    1    1    2  501    0 -0.64503291991E+02  0.16161159110E+01 -0.78956123948E+02  0.10196742626E+03  0.00000000000E+00 0. -1.
<scales pt_clust_5="13000.00000" pt_clust_6="13000.00000" pt_clust_7="13000.00000" pt_clust_8="13000.00000" pt_clust_9="22.27130" pt_clust_10="69.76690"></scales>
<clustering>
<clus scale="   22.271">  2  9  1 -1</clus>
<clus scale="   69.767">  2 10  1 -1</clus>
<clus scale="   79.839">  5  6 -1 -1</clus>
<clus scale="   90.265">  7  8 -1 -1</clus>
<clus scale="  253.828">  1  5  2 -1</clus>
<clus scale="   22.271">  2  5  1 -1</clus>
</clustering>
</event>
<event>
10    4  0.3043429E-005  0.9833853E+02  0.7546771E-02  0.1289851E+00
         21   -1    0    0  503  502  0.00000000000E+00  0.00000000000E+00  0.16158256051E+03  0.16158256051E+03  0.00000000000E+00 0. -1.
          2   -1    0    0  502    0 -0.00000000000E+00 -0.00000000000E+00 -0.18732236223E+03  0.18732236223E+03  0.00000000000E+00 0. -1.
         23    2    1    2    0    0 -0.25388869662E+02 -0.21003664805E+02 -0.78863268647E+02  0.12465803018E+03  0.90743929315E+02 0.  0.
         24    2    1    2    0    0  0.47659393886E+02  0.55685197743E+01 -0.42882454039E+02  0.10205015771E+03  0.79201664036E+02 0.  0.
        -11    1    4    4    0    0 -0.16485249662E+02  0.14781514326E+02 -0.27755261387E+02  0.35505086352E+02  0.00000000000E+00 0.  1.
         12    1    4    4    0    0  0.64144643548E+02 -0.92129945521E+01 -0.15127192652E+02  0.66545071358E+02  0.00000000000E+00 0. -1.
        -13    1    3    3    0    0 -0.16169695250E+02  0.22249522631E+02 -0.75443966748E+02  0.80301260391E+02  0.00000000000E+00 0. -1.
         13    1    3    3    0    0 -0.92191744117E+01 -0.43253187436E+02 -0.34193018992E+01  0.44356769784E+02  0.00000000000E+00 0.  1.
         21    1    1    2  503  501  0.21385544060E+02  0.12730441326E+01  0.60466822229E+02  0.64149814704E+02  0.00000000000E+00 0. -1.
          1    1    1    2  501    0 -0.43656068284E+02  0.14162100898E+02  0.35539098743E+02  0.58046920154E+02  0.00000000000E+00 0. -1.
<scales pt_clust_5="13000.00000" pt_clust_6="13000.00000" pt_clust_7="13000.00000" pt_clust_8="13000.00000" pt_clust_9="21.42340" pt_clust_10="36.67788"></scales>
<clustering>
<clus scale="   21.423">  1  9  2 -1</clus>
<clus scale="   36.678">  1 10  2 -1</clus>
<clus scale="   79.202">  5  6 -1 -1</clus>
<clus scale="   87.800">  1  5  2 -1</clus>
<clus scale="   90.744">  7  8 -1 -1</clus>
<clus scale="   21.423">  1  5  2 -1</clus>
</clustering>
</event>
<event>
10    4  0.3043429E-005  0.9465531E+02  0.7546771E-02  0.1296800E+00
         21   -1    0    0  501  502  0.00000000000E+00  0.00000000000E+00  0.13123742085E+03  0.13123742085E+03  0.00000000000E+00 0.  1.
          2   -1    0    0  503    0 -0.00000000000E+00 -0.00000000000E+00 -0.37449650083E+03  0.37449650083E+03  0.00000000000E+00 0. -1.
         24    2    1    2    0    0  0.10510205255E+02  0.19346051691E+02 -0.27958604083E+03  0.29232230997E+03  0.82457531773E+02 0.  0.
         23    2    1    2    0    0 -0.59221221041E+01 -0.70442375625E+02  0.85602891660E+01  0.11553146507E+03  0.90978244967E+02 0.  0.
        -11    1    3    3    0    0 -0.15844378572E+02  0.40340749444E+02 -0.91545126148E+02  0.10128637875E+03  0.00000000000E+00 0.  1.
         12    1    3    3    0    0  0.26354583827E+02 -0.20994697753E+02 -0.18804091468E+03  0.19103593122E+03  0.00000000000E+00 0. -1.
        -11    1    4    4    0    0  0.25891126071E+02  0.50498091079E+01 -0.14926819740E+02  0.30309419803E+02  0.00000000000E+00 0. -1.
         11    1    4    4    0    0 -0.31813248175E+02 -0.75492184732E+02  0.23487108907E+02  0.85222045269E+02  0.00000000000E+00 0.  1.
         21    1    1    2  503  502 -0.33115298090E+02  0.91248920462E+01  0.32012921786E+02  0.46954379814E+02  0.00000000000E+00 0. -1.
          1    1    1    2  501    0  0.28527214939E+02  0.41971431888E+02 -0.42462501038E+01  0.50925766826E+02  0.00000000000E+00 0. -1.
<scales pt_clust_5="13000.00000" pt_clust_6="13000.00000" pt_clust_7="13000.00000" pt_clust_8="13000.00000" pt_clust_9="34.34948" pt_clust_10="48.64138"></scales>
<clustering>
<clus scale="   34.349">  1  9  2 -1</clus>
<clus scale="   48.641">  1 10  2 -1</clus>
<clus scale="   82.458">  5  6 -1 -1</clus>
<clus scale="   86.498">  2  5  1 -1</clus>
<clus scale="   90.978">  7  8 -1 -1</clus>
<clus scale="   34.349">  1  5  2 -1</clus>
</clustering>
</event>
<event>
10    4  0.3043429E-005  0.1324612E+03  0.7546771E-02  0.1227648E+00
          2   -1    0    0  502    0 -0.00000000000E+00  0.00000000000E+00  0.48015224899E+03  0.48015224899E+03  0.00000000000E+00 0. -1.
         21   -1    0    0  503  502  0.00000000000E+00 -0.00000000000E+00 -0.69738579360E+02  0.69738579360E+02  0.00000000000E+00 0.  1.
         24    2    1    2    0    0 -0.48124677512E+02 -0.65786128101E+02  0.13208269906E+03  0.17405003618E+03  0.78764055670E+02 0.  0.
         23    2    1    2    0    0  0.95779849148E+02  0.63087276816E+02  0.15358185913E+03  0.21332960156E+03  0.93639454556E+02 0.  0.
        -11    1    3    3    0    0 -0.66704743032E+02 -0.36931904636E+02  0.72067205076E+02  0.10491506265E+03  0.00000000000E+00 0.  1.
         12    1    3    3    0    0  0.18580065520E+02 -0.28854223465E+02  0.60015493986E+02  0.69134973529E+02  0.00000000000E+00 0. -1.
        -13    1    4    4    0    0  0.33897822649E+02 -0.18335835107E+02  0.75119411647E+02  0.84428616212E+02  0.00000000000E+00 0. -1.
         13    1    4    4    0    0  0.61882026500E+02  0.81423111923E+02  0.78462447484E+02  0.12890098535E+03  0.00000000000E+00 0.  1.
         21    1    1    2  503  501  0.12724895370E+02  0.25914689415E+02  0.95807429995E+01  0.30418493159E+02  0.00000000000E+00 0.  1.
          1    1    1    2  501    0 -0.60380067006E+02 -0.23215838129E+02  0.11516836844E+03  0.13209269745E+03  0.00000000000E+00 0. -1.
<scales pt_clust_5="13000.00000" pt_clust_6="13000.00000" pt_clust_7="13000.00000" pt_clust_8="13000.00000" pt_clust_9="28.87030" pt_clust_10="61.73195"></scales>
<clustering>
<clus scale="   28.870">  2  9  1 -1</clus>
<clus scale="   61.732">  2 10  1 -1</clus>
<clus scale="   78.764">  5  6 -1 -1</clus>
<clus scale="   93.639">  7  8 -1 -1</clus>
<clus scale="  122.399">  1  5  2 -1</clus>
<clus scale="   28.870">  2  5  1 -1</clus>
</clustering>
</event>
<event>
10    4  0.3043429E-005  0.1349309E+03  0.7546771E-02  0.1242870E+00
         21   -1    0    0  501  502  0.00000000000E+00  0.00000000000E+00  0.87070588418E+03  0.87070588418E+03  0.00000000000E+00 0. -1.
          2   -1    0    0  503    0 -0.00000000000E+00 -0.00000000000E+00 -0.99958865550E+02  0.99958865550E+02  0.00000000000E+00 0. -1.
         24    2    1    2    0    0  0.82805985228E+01 -0.24616566198E+02 -0.42739570528E+02  0.94213598122E+02  0.79843519078E+02 0.  0.
         23    2    1    2    0    0 -0.11261235498E+03  0.24896317917E+02  0.42092904697E+03  0.44783524630E+03  0.10036820264E+03 0.  0.
        -13    1    3    3    0    0  0.38411310553E+02  0.19644684100E+01 -0.44617704079E+01  0.38719443562E+02  0.00000000000E+00 0.  1.
         14    1    3    3    0    0 -0.30130712030E+02 -0.26581034608E+02 -0.38277800120E+02  0.55494154560E+02  0.00000000000E+00 0. -1.
        -11    1    4    4    0    0 -0.80210459120E+02 -0.25332777692E+02  0.16727412318E+03  0.18723274196E+03  0.00000000000E+00 0.  1.
         11    1    4    4    0    0 -0.32401895864E+02  0.50229095609E+02  0.25365492380E+03  0.26060250434E+03  0.00000000000E+00 0. -1.
         21    1    1    2  503  502  0.30415922524E+02 -0.53758761313E+02  0.26301835687E+03  0.27017362716E+03  0.00000000000E+00 0. -1.
          1    1    1    2  501    0  0.73915833938E+02  0.53479009594E+02  0.12953918532E+03  0.15844227815E+03  0.00000000000E+00 0. -1.
<scales pt_clust_5="13000.00000" pt_clust_6="13000.00000" pt_clust_7="13000.00000" pt_clust_8="13000.00000" pt_clust_9="61.76676" pt_clust_10="90.18084"></scales>
<clustering>
<clus scale="   61.767">  1  9  2 -1</clus>
<clus scale="   79.844">  5  6 -1 -1</clus>
<clus scale="   84.798">  2  5  1 -1</clus>
<clus scale="   90.181">  1 10  2 -1</clus>
<clus scale="  100.368">  7  8 -1 -1</clus>
<clus scale="   61.767">  1  5  2 -1</clus>
</clustering>
</event>
<event>
10    4  0.3043429E-005  0.1139136E+03  0.7546771E-02  0.1260816E+00
         -1   -1    0    0    0  501 -0.00000000000E+00  0.00000000000E+00  0.54434885039E+03  0.54434885039E+03  0.00000000000E+00 0.  1.
         21   -1    0    0  503  502  0.00000000000E+00 -0.00000000000E+00 -0.90515570015E+02  0.90515570015E+02  0.00000000000E+00 0.  1.
         24    2    1    2    0    0 -0.45255995067E+02 -0.29455590102E+02  0.17199506307E+03  0.19553576327E+03  0.75737679648E+02 0.  0.
         23    2    1    2    0    0  0.85669239279E+02  0.48930394136E+02  0.56047399581E+02  0.14788893307E+03  0.94849478096E+02 0.  0.
        -11    1    3    3    0    0 -0.12504208684E+02 -0.47634083242E+02  0.61049344799E+02  0.78437131650E+02  0.00000000000E+00 0.  1.
         12    1    3    3    0    0 -0.32751786382E+02  0.18178493139E+02  0.11094571827E+03  0.11709863162E+03  0.00000000000E+00 0. -1.
        -13    1    4    4    0    0  0.68079397413E+02  0.65236451132E+02  0.85472440590E+01  0.94676577301E+02  0.00000000000E+00 0.  1.
         13    1    4    4    0    0  0.17589841865E+02 -0.16306056996E+02  0.47500155522E+02  0.53212355766E+02  0.00000000000E+00 0. -1.
         21    1    1    2  503  501  0.20645076177E+02  0.30491977786E+02 -0.13698554433E+02  0.39289060478E+02  0.00000000000E+00 0.  1.
         -2    1    1    2    0  502 -0.61058320389E+02 -0.49966781819E+02  0.23948937216E+03  0.25215066359E+03  0.00000000000E+00 0.  1.
<scales pt_clust_5="13000.00000" pt_clust_6="13000.00000" pt_clust_7="13000.00000" pt_clust_8="13000.00000" pt_clust_9="36.82363" pt_clust_10="75.41522"></scales>
<clustering>
<clus scale="   36.824">  2  9  1 -1</clus>
<clus scale="   75.415">  2 10  1 -1</clus>
<clus scale="   75.738">  5  6 -1 -1</clus>
<clus scale="   94.849">  7  8 -1 -1</clus>
<clus scale="   98.570">  1  5  2 -1</clus>
<clus scale="   36.824">  2  5  1 -1</clus>
</clustering>
</event>
<event>
10    4  0.3043429E-005  0.3456961E+03  0.7546771E-02  0.1064396E+00
          4   -1    0    0  502    0 -0.00000000000E+00  0.00000000000E+00  0.53033954865E+03  0.53033954865E+03  0.00000000000E+00 0. -1.
         21   -1    0    0  503  502  0.00000000000E+00 -0.00000000000E+00 -0.50573540342E+03  0.50573540342E+03  0.00000000000E+00 0.  1.
         24    2    1    2    0    0 -0.14723772636E+03 -0.14684518734E+03  0.45568965777E+02  0.22750423355E+03  0.80244554559E+02 0.  0.
         23    2    1    2    0    0 -0.52571789233E+02 -0.63906688493E+02  0.11988738026E+03  0.17215131697E+03  0.91734585241E+02 0.  0.
        -11    1    3    3    0    0 -0.11637170665E+03 -0.14753949397E+03  0.53971280048E+02  0.19550748185E+03  0.00000000000E+00 0.  1.
         12    1    3    3    0    0 -0.30866019708E+02  0.69430663722E+00 -0.84023142711E+01  0.31996751701E+02  0.00000000000E+00 0. -1.
        -13    1    4    4    0    0  0.93664571008E+01 -0.43561692929E+02  0.12082255236E+02  0.46166356809E+02  0.00000000000E+00 0. -1.
         13    1    4    4    0    0 -0.61938246334E+02 -0.20344995564E+02  0.10780512503E+03  0.12598496016E+03  0.00000000000E+00 0.  1.
         21    1    1    2  503  501  0.37769564608E+01  0.47541533624E+02 -0.32075389604E+03  0.32428000963E+03  0.00000000000E+00 0.  1.
          3    1    1    2  501    0  0.19603255913E+03  0.16321034221E+03  0.17990169523E+03  0.31213939192E+03  0.00000000000E+00 0. -1.
<scales pt_clust_5="13000.00000" pt_clust_6="13000.00000" pt_clust_7="13000.00000" pt_clust_8="13000.00000" pt_clust_9="47.69133" pt_clust_10="267.38977"></scales>
<clustering>
<clus scale="   47.691">  2  9  1 -1</clus>
<clus scale="   80.245">  5  6 -1 -1</clus>
<clus scale="   91.735">  7  8 -1 -1</clus>
<clus scale="  116.631">  5  7 -1 -1</clus>
<clus scale="  267.390">  2 10  1 -1</clus>
<clus scale="   47.691">  2  5  1 -1</clus>
</clustering>
</event>
<event>
10    4  0.3043429E-005  0.3090597E+03  0.7546771E-02  0.1081089E+00
         -1   -1    0    0    0  501 -0.00000000000E+00  0.00000000000E+00  0.27615527014E+03  0.27615527014E+03  0.00000000000E+00 0.  1.
         21   -1    0    0  503  502  0.00000000000E+00 -0.00000000000E+00 -0.13075221887E+04  0.13075221887E+04  0.00000000000E+00 0.  1.
         23    2    1    2    0    0 -0.30705547362E+02  0.18694227125E+03  0.83342665105E+02  0.22522773009E+03  0.88832917079E+02 0.  0.
         24    2    1    2    0    0  0.86989526736E+02 -0.36667272051E+03 -0.10139707168E+04  0.10846922464E+04  0.80028702414E+02 0.  0.
        -11    1    4    4    0    0  0.76988283072E+02 -0.18355876059E+03 -0.46203710454E+03  0.50308975371E+03  0.00000000000E+00 0.  1.
         12    1    4    4    0    0  0.10001243665E+02 -0.18311395992E+03 -0.55193361223E+03  0.58160249269E+03  0.00000000000E+00 0. -1.
        -13    1    3    3    0    0  0.18807901901E+02  0.18798609141E+02 -0.77369784847E+01  0.27694506958E+02  0.00000000000E+00 0. -1.
         13    1    3    3    0    0 -0.49513449264E+02  0.16814366210E+03  0.91079643590E+02  0.19753322313E+03  0.00000000000E+00 0.  1.
         21    1    1    2  503  501 -0.10861459466E+03  0.11311309420E+03 -0.10534970047E+03  0.18891866409E+03  0.00000000000E+00 0.  1.
         -2    1    1    2    0  502  0.52330615290E+02  0.66617355064E+02  0.46108335931E+01  0.84838818231E+02  0.00000000000E+00 0.  1.
<scales pt_clust_5="13000.00000" pt_clust_6="13000.00000" pt_clust_7="13000.00000" pt_clust_8="13000.00000" pt_clust_9="158.48749" pt_clust_10="84.71347"></scales>
<clustering>
<clus scale="   80.029">  5  6 -1 -1</clus>
<clus scale="   84.713">  2 10  1 -1</clus>
<clus scale="   88.833">  7  8 -1 -1</clus>
<clus scale="  158.487">  1  9  2 -1</clus>
<clus scale="  306.645">  2  5  1 -1</clus>
<clus scale="   84.713">  2  5  1 -1</clus>
</clustering>
</event>
<event>
10    4  0.3043429E-005  0.3747420E+03  0.7546771E-02  0.1106802E+00
          2   -1    0    0  503    0 -0.00000000000E+00  0.00000000000E+00  0.22736479015E+04  0.22736479015E+04  0.00000000000E+00 0. -1.
         21   -1    0    0  501  502  0.00000000000E+00 -0.00000000000E+00 -0.30426356482E+03  0.30426356482E+03  0.00000000000E+00 0. -1.
         24    2    1    2    0    0 -0.32073400559E+02 -0.15351837537E+00  0.15103747924E+03  0.17460148532E+03  0.81514611890E+02 0.  0.
         23    2    1    2    0    0 -0.23125056675E+02  0.20636938234E+03  0.22866975383E+03  0.32143875503E+03  0.88937768750E+02 0.  0.
        -13    1    3    3    0    0 -0.44510730423E+02  0.23980049643E+02  0.54593974572E+02  0.74409340565E+02  0.00000000000E+00 0.  1.
         14    1    3    3    0    0  0.12437329863E+02 -0.24133568019E+02  0.96443504665E+02  0.10019214476E+03  0.00000000000E+00 0. -1.
        -13    1    4    4    0    0 -0.51687623630E+02  0.16351575150E+03  0.15247850920E+03  0.22947485089E+03  0.00000000000E+00 0. -1.
         13    1    4    4    0    0  0.28562566956E+02  0.42853630840E+02  0.76191244626E+02  0.91963904141E+02  0.00000000000E+00 0.  1.
         21    1    1    2  503  502  0.37909019539E+03 -0.36844257274E+02 -0.65806167497E+02  0.38651950431E+03  0.00000000000E+00 0. -1.
          1    1    1    2  501    0 -0.32389173816E+03 -0.16937160669E+03  0.16554832711E+04  0.16953517216E+04  0.00000000000E+00 0. -1.
<scales pt_clust_5="13000.00000" pt_clust_6="13000.00000" pt_clust_7="13000.00000" pt_clust_8="13000.00000" pt_clust_9="374.74199" pt_clust_10="13000.00000"></scales>
<clustering>
<clus scale="   81.515">  5  6 -1 -1</clus>
<clus scale="   87.598">  1  5  2 -1</clus>
<clus scale="   88.938">  7  8 -1 -1</clus>
<clus scale="  226.353">  1  7  2 -1</clus>
<clus scale="  374.742">  2  9  1 -1</clus>
<clus scale="  374.742">  2  5  1 -1</clus>
</clustering>
</event>
<event>
10    4  0.3043429E-005  0.3532631E+03  0.7546771E-02  0.1061284E+00
         21   -1    0    0  501  502  0.00000000000E+00  0.00000000000E+00  0.36055156225E+03  0.36055156225E+03  0.00000000000E+00 0.  1.
         -1   -1    0    0    0  501 -0.00000000000E+00 -0.00000000000E+00 -0.13953388079E+04  0.13953388079E+04  0.00000000000E+00 0.  1.
         24    2    1    2    0    0  0.65768160119E+02 -0.14990229940E+03 -0.96540708039E+03  0.98236143284E+03  0.78911365547E+02 0.  0.
         23    2    1    2    0    0  0.58130036470E+02 -0.98570509929E+02 -0.34194742107E+03  0.37188027332E+03  0.90948624735E+02 0.  0.
        -13    1    3    3    0    0  0.45992834700E+02 -0.15466325689E+03 -0.85204523626E+03  0.86718922302E+03  0.00000000000E+00 0.  1.
         14    1    3    3    0    0  0.19775325419E+02  0.47609574952E+01 -0.11336184412E+03  0.11517220982E+03  0.00000000000E+00 0. -1.
        -11    1    4    4    0    0  0.23223052195E+02 -0.10063437026E+03 -0.19314224126E+03  0.21902171580E+03  0.00000000000E+00 0.  1.
         11    1    4    4    0    0  0.34906984274E+02  0.20638603307E+01 -0.14880517981E+03  0.15285855753E+03  0.00000000000E+00 0. -1.
         21    1    1    2  503  502  0.65095243201E+01  0.53959226010E+02  0.21864026185E+02  0.58583339095E+02  0.00000000000E+00 0. -1.
         -2    1    1    2    0  503 -0.13040772091E+03  0.19451358331E+03  0.25070322966E+03  0.34306532487E+03  0.00000000000E+00 0.  1.
<scales pt_clust_5="13000.00000" pt_clust_6="13000.00000" pt_clust_7="13000.00000" pt_clust_8="13000.00000" pt_clust_9="48.02866" pt_clust_10="295.00634"></scales>
<clustering>
<clus scale="   48.029">  9 10 -1 -1</clus>
<clus scale="   78.911">  5  6 -1 -1</clus>
<clus scale="   90.949">  7  8 -1 -1</clus>
<clus scale="  122.896">  5  7 -1 -1</clus>
<clus scale="  295.006">  1  9  2 -1</clus>
<clus scale="  295.006">  1  5  2 -1</clus>
</clustering>
</event>
<event>
10    4  0.3043429E-005  0.1508569E+03  0.7546771E-02  0.1203452E+00
         21   -1    0    0  501  502  0.00000000000E+00  0.00000000000E+00  0.39019686851E+02  0.39019686851E+02  0.00000000000E+00 0. -1.
          2   -1    0    0  503    0 -0.00000000000E+00 -0.00000000000E+00 -0.93463657709E+03  0.93463657709E+03  0.00000000000E+00 0. -1.
         24    2    1    2    0    0 -0.11991174394E+03  0.25597119655E+02 -0.43941689837E+03  0.46324735795E+03  0.80478973647E+02 0.  0.
         23    2    1    2    0    0  0.10129338782E+03  0.26278159748E+02 -0.28696582036E+03  0.32159300938E+03  0.10060710477E+03 0.  0.
        -13    1    3    3    0    0 -0.14357222269E+02  0.37483215570E+02 -0.10758075193E+03  0.11482482078E+03  0.00000000000E+00 0.  1.
         14    1    3    3    0    0 -0.10555452167E+03 -0.11886095914E+02 -0.33183614644E+03  0.34842253717E+03  0.00000000000E+00 0. -1.
        -13    1    4    4    0    0  0.81224793055E+02  0.58358855941E+02 -0.24736448739E+03  0.26681906359E+03  0.00000000000E+00 0. -1.
         13    1    4    4    0    0  0.20068594766E+02 -0.32080696193E+02 -0.39601332975E+02  0.54773945791E+02  0.00000000000E+00 0.  1.
         21    1    1    2  503  502 -0.74265906877E+01 -0.37510709843E+02 -0.36755660787E+02  0.53039477770E+02  0.00000000000E+00 0. -1.
          1    1    1    2  501    0  0.26044946807E+02 -0.14364569560E+02 -0.13247851072E+03  0.13577641885E+03  0.00000000000E+00 0. -1.
<scales pt_clust_5="13000.00000" pt_clust_6="13000.00000" pt_clust_7="13000.00000" pt_clust_8="13000.00000" pt_clust_9="40.67805" pt_clust_10="29.74359"></scales>
<clustering>
<clus scale="   29.744">  1 10  2 -1</clus>
<clus scale="   40.678">  1  9  2 -1</clus>
<clus scale="   80.479">  5  6 -1 -1</clus>
<clus scale="  100.607">  7  8 -1 -1</clus>
<clus scale="  138.249">  2  5  1 -1</clus>
<clus scale="   29.744">  1  5  2 -1</clus>
</clustering>
</event>
<event>
10    4  0.3043429E-005  0.1089354E+03  0.7546771E-02  0.1266661E+00
          2   -1    0    0  502    0 -0.00000000000E+00  0.00000000000E+00  0.70586600730E+03  0.70586600730E+03  0.00000000000E+00 0. -1.
         21   -1    0    0  503  502  0.00000000000E+00 -0.00000000000E+00 -0.14700104142E+03  0.14700104142E+03  0.00000000000E+00 0. -1.
         24    2    1    2    0    0 -0.44287419863E+02 -0.46111048351E+02  0.39062829262E+03  0.40409283452E+03  0.81320056436E+02 0.  0.
         23    2    1    2    0    0 -0.51396787684E+02  0.41013897528E+02 -0.51587010500E+02  0.12391559497E+03  0.91488171098E+02 0.  0.
        -11    1    3    3    0    0  0.54066186665E+01 -0.49442541839E+02  0.25015029162E+03  0.25504698561E+03  0.00000000000E+00 0.  1.
         12    1    3    3    0    0 -0.49694038530E+02  0.33314934880E+01  0.14047800100E+03  0.14904584892E+03  0.00000000000E+00 0. -1.
        -11    1    4    4    0    0  0.68556631903E+01  0.27761745769E+02 -0.57161549823E+02  0.63915236244E+02  0.00000000000E+00 0. -1.
         11    1    4    4    0    0 -0.58252450874E+02  0.13252151759E+02  0.55745393236E+01  0.60000358731E+02  0.00000000000E+00 0.  1.
         21    1    1    2  503  501  0.73337045926E+01 -0.19365349404E+02 -0.42337808169E+02  0.47130563132E+02  0.00000000000E+00 0. -1.
          1    1    1    2  501    0  0.88350502955E+02  0.24462500227E+02  0.26216149193E+03  0.27772805609E+03  0.00000000000E+00 0. -1.
<scales pt_clust_5="13000.00000" pt_clust_6="13000.00000" pt_clust_7="13000.00000" pt_clust_8="13000.00000" pt_clust_9="20.70749" pt_clust_10="91.83265"></scales>
<clustering>
<clus scale="   20.707">  2  9  1 -1</clus>
<clus scale="   81.320">  5  6 -1 -1</clus>
<clus scale="   91.488">  7  8 -1 -1</clus>
<clus scale="   91.833">  2 10  1 -1</clus>
<clus scale="  100.547">  1  5  2 -1</clus>
<clus scale="   20.707">  2  5  1 -1</clus>
</clustering>
</event>
<event>
10    4  0.3043429E-005  0.1709239E+03  0.7546771E-02  0.1188510E+00
          2   -1    0    0  503    0 -0.00000000000E+00  0.00000000000E+00  0.18296403293E+04  0.18296403293E+04  0.00000000000E+00 0. -1.
         21   -1    0    0  501  502  0.00000000000E+00 -0.00000000000E+00 -0.45649273937E+02  0.45649273937E+02  0.00000000000E+00 0.  1.
         24    2    1    2    0    0 -0.94346321129E+02  0.94472124516E+01  0.61196381993E+03  0.62578139066E+03  0.90067496102E+02 0.  0.
         23    2    1    2    0    0 -0.10067703689E+03  0.73426272115E+02  0.27403983873E+03  0.31454185088E+03  0.91167206537E+02 0.  0.
        -11    1    3    3    0    0 -0.87118450222E+02  0.42281671510E+02  0.47266802555E+03  0.48248567491E+03  0.00000000000E+00 0.  1.
         12    1    3    3    0    0 -0.72278709065E+01 -0.32834459058E+02  0.13929579438E+03  0.14329571575E+03  0.00000000000E+00 0. -1.
        -13    1    4    4    0    0 -0.18665552111E+01  0.52238679958E+02  0.11155802855E+03  0.12319722986E+03  0.00000000000E+00 0.  1.
         13    1    4    4    0    0 -0.98810481678E+02  0.21187592156E+02  0.16248181018E+03  0.19134462101E+03  0.00000000000E+00 0. -1.
         21    1    1    2  503  502 -0.10936555552E+02 -0.46832262659E+02  0.11759983305E+03  0.12705349191E+03  0.00000000000E+00 0. -1.
          1    1    1    2  501    0  0.20595991357E+03 -0.36041221908E+02  0.78038756360E+03  0.80791286974E+03  0.00000000000E+00 0. -1.
<scales pt_clust_5="13000.00000" pt_clust_6="13000.00000" pt_clust_7="13000.00000" pt_clust_8="13000.00000" pt_clust_9="48.09230" pt_clust_10="144.58052"></scales>
<clustering>
<clus scale="   48.092">  2  9  1 -1</clus>
<clus scale="   90.067">  5  6 -1 -1</clus>
<clus scale="   91.167">  7  8 -1 -1</clus>
<clus scale="  131.786">  1  5  2 -1</clus>
<clus scale="  144.581">  2 10  1 -1</clus>
<clus scale="   48.092">  2  5  1 -1</clus>
</clustering>
</event>
<event>
10    4  0.3043429E-005  0.1831506E+03  0.7546771E-02  0.1191694E+00
         21   -1    0    0  503  502  0.00000000000E+00  0.00000000000E+00  0.12073405635E+03  0.12073405635E+03  0.00000000000E+00 0.  1.
          2   -1    0    0  502    0 -0.00000000000E+00 -0.00000000000E+00 -0.68010548970E+03  0.68010548970E+03  0.00000000000E+00 0. -1.
         24    2    1    2    0    0 -0.46158476963E+02 -0.35031082193E+02 -0.28540637336E+03  0.30199634110E+03  0.79920024810E+02 0.  0.
         23    2    1    2    0    0 -0.40206113860E+02 -0.11437093614E+03 -0.21459130802E+03  0.26236626510E+03  0.89941008216E+02 0.  0.
        -11    1    3    3    0    0 -0.11950051700E+02 -0.56559903813E+02 -0.15293939911E+03  0.16350011087E+03  0.00000000000E+00 0.  1.
         12    1    3    3    0    0 -0.34208425263E+02  0.21528821620E+02 -0.13246697425E+03  0.13849623022E+03  0.00000000000E+00 0. -1.
        -11    1    4    4    0    0 -0.28471022716E+02  0.40670232727E+01 -0.23039415554E+02  0.36850433944E+02  0.00000000000E+00 0.  1.
         11    1    4    4    0    0 -0.11735091144E+02 -0.11843795942E+03 -0.19155189246E+03  0.22551583115E+03  0.00000000000E+00 0. -1.
         21    1    1    2  503  501 -0.22496975631E+02 -0.63882320206E+01  0.19747860517E+02  0.30608845386E+02  0.00000000000E+00 0.  1.
          1    1    1    2  501    0  0.10886156645E+03  0.15579025036E+03 -0.79121612499E+02  0.20586809447E+03  0.00000000000E+00 0. -1.
<scales pt_clust_5="13000.00000" pt_clust_6="13000.00000" pt_clust_7="13000.00000" pt_clust_8="13000.00000" pt_clust_9="23.38639" pt_clust_10="159.54547"></scales>
<clustering>
<clus scale="   23.386">  1  9  2 -1</clus>
<clus scale="   79.920">  5  6 -1 -1</clus>
<clus scale="   89.941">  7  8 -1 -1</clus>
<clus scale="   99.841">  2  5  1 -1</clus>
<clus scale="  159.545">  1 10  2 -1</clus>
<clus scale="   23.386">  1  5  2 -1</clus>
</clustering>
</event>
<event>
10    4  0.3043429E-005  0.1314641E+03  0.7546771E-02  0.1236718E+00
         21   -1    0    0  501  502  0.00000000000E+00  0.00000000000E+00  0.32216647285E+03  0.32216647285E+03  0.00000000000E+00 0. -1.
          2   -1    0    0  503    0 -0.00000000000E+00 -0.00000000000E+00 -0.51243323364E+03  0.51243323364E+03  0.00000000000E+00 0. -1.
         23    2    1    2    0    0  0.10746193844E+02  0.15690376957E+02  0.39259830521E+01  0.95404534586E+02  0.93407404768E+02 0.  0.
         24    2    1    2    0    0  0.68978752849E+02  0.73365762048E+01 -0.28437186573E+03  0.30302931083E+03  0.78406068046E+02 0.  0.
        -13    1    4    4    0    0 -0.19267281102E+01 -0.23759983011E+02 -0.10480441138E+03  0.10748122495E+03  0.00000000000E+00 0.  1.
         14    1    4    4    0    0  0.70905480959E+02  0.31096559216E+02 -0.17956745436E+03  0.19554808588E+03  0.00000000000E+00 0. -1.
        -11    1    3    3    0    0 -0.10713579634E+01  0.52892886655E+02 -0.10227792475E+02  0.53883327713E+02  0.00000000000E+00 0.  1.
         11    1    3    3    0    0  0.11817551807E+02 -0.37202509698E+02  0.14153775527E+02  0.41521206873E+02  0.00000000000E+00 0. -1.
         21    1    1    2  503  502  0.51389204438E+02  0.85709482396E+01  0.23357291235E+03  0.23931280131E+03  0.00000000000E+00 0. -1.
          1    1    1    2  501    0 -0.13111415113E+03 -0.31597901401E+02 -0.14339379045E+03  0.19685305977E+03  0.00000000000E+00 0. -1.
<scales pt_clust_5="13000.00000" pt_clust_6="13000.00000" pt_clust_7="13000.00000" pt_clust_8="13000.00000" pt_clust_9="52.09905" pt_clust_10="105.52390"></scales>
<clustering>
<clus scale="   52.099">  1  9  2 -1</clus>
<clus scale="   78.406">  5  6 -1 -1</clus>
<clus scale="   93.407">  7  8 -1 -1</clus>
<clus scale="  103.891">  2  7  1 -1</clus>
<clus scale="  105.524">  1 10  2 -1</clus>
<clus scale="   52.099">  1  5  2 -1</clus>
</clustering>
</event>
<event>
10    4  0.3043429E-005  0.1843111E+03  0.7546771E-02  0.1164798E+00
         21   -1    0    0  503  502  0.00000000000E+00  0.00000000000E+00  0.11707579765E+04  0.11707579765E+04  0.00000000000E+00 0.  1.
         -3   -1    0    0    0  501 -0.00000000000E+00 -0.00000000000E+00 -0.57068866384E+02  0.57068866384E+02  0.00000000000E+00 0.  1.
         24    2    1    2    0    0 -0.12536424629E+03  0.33394606998E+02  0.32679131527E+03  0.36074488825E+03  0.80702643306E+02 0.  0.
         23    2    1    2    0    0  0.21195711272E+03 -0.28331282728E+02  0.56226962927E+03  0.60833905067E+03  0.90558187723E+02 0.  0.
        -13    1    3    3    0    0 -0.33544326287E+02 -0.56469073613E+01  0.23190564440E+02  0.41169304923E+02  0.00000000000E+00 0.  1.
         14    1    3    3    0    0 -0.91819920002E+02  0.39041514359E+02  0.30360075083E+03  0.31957558332E+03  0.00000000000E+00 0. -1.
        -13    1    4    4    0    0  0.40004076808E+02 -0.20743398616E+02  0.22743051832E+03  0.23185179622E+03  0.00000000000E+00 0. -1.
         13    1    4    4    0    0  0.17195303592E+03 -0.75878841117E+01  0.33483911095E+03  0.37648725445E+03  0.00000000000E+00 0.  1.
         21    1    1    2  503  501 -0.42663036842E+02 -0.44062480880E+02  0.16028060374E+03  0.17161441918E+03  0.00000000000E+00 0.  1.
         -4    1    1    2    0  502 -0.43929829594E+02  0.38999156610E+02  0.64347561794E+02  0.87128484741E+02  0.00000000000E+00 0.  1.
<scales pt_clust_5="13000.00000" pt_clust_6="13000.00000" pt_clust_7="13000.00000" pt_clust_8="13000.00000" pt_clust_9="62.35468" pt_clust_10="58.74323"></scales>
<clustering>
<clus scale="   58.743">  1 10  2 -1</clus>
<clus scale="   62.355">  1  9  2 -1</clus>
<clus scale="   80.703">  5  6 -1 -1</clus>
<clus scale="   90.558">  7  8 -1 -1</clus>
<clus scale="  179.674">  2  5  1 -1</clus>
<clus scale="   58.743">  1  5  2 -1</clus>
</clustering>
</event>
<event>
10    4  0.3043429E-005  0.1855972E+03  0.7546771E-02  0.1177524E+00
         21   -1    0    0  501  502  0.00000000000E+00  0.00000000000E+00  0.22454648220E+03  0.22454648220E+03  0.00000000000E+00 0.  1.
         -3   -1    0    0    0  501 -0.00000000000E+00 -0.00000000000E+00 -0.37608800871E+03  0.37608800871E+03  0.00000000000E+00 0.  1.
         24    2    1    2    0    0  0.87279592114E+01 -0.10776279047E+03 -0.35608485520E+02  0.14082023341E+03  0.82905835823E+02 0.  0.
         23    2    1    2    0    0  0.11767920013E+03 -0.60341380877E+02 -0.40285506205E+02  0.16665994918E+03  0.93075991861E+02 0.  0.
        -13    1    3    3    0    0  0.18430654572E+02 -0.11885890603E+03 -0.25515683717E+02  0.12295600305E+03  0.00000000000E+00 0.  1.
         14    1    3    3    0    0 -0.97026953603E+01  0.11096115563E+02 -0.10092801803E+02  0.17864230352E+02  0.00000000000E+00 0. -1.
        -11    1    4    4    0    0  0.81356796539E+02 -0.45414077719E+02  0.19440468311E+02  0.95180347795E+02  0.00000000000E+00 0.  1.
         11    1    4    4    0    0  0.36322403588E+02 -0.14927303158E+02 -0.59725974516E+02  0.71479601383E+02  0.00000000000E+00 0. -1.
         21    1    1    2  503  502  0.24225714680E+02  0.22917509385E+02  0.41609400660E+02  0.53323913130E+02  0.00000000000E+00 0.  1.
         -4    1    1    2    0  503 -0.15063287402E+03  0.14518666196E+03 -0.11725693545E+03  0.23983039519E+03  0.00000000000E+00 0.  1.
<scales pt_clust_5="13000.00000" pt_clust_6="13000.00000" pt_clust_7="13000.00000" pt_clust_8="13000.00000" pt_clust_9="33.34813" pt_clust_10="160.57150"></scales>
<clustering>
<clus scale="   33.348">  1  9  2 -1</clus>
<clus scale="   82.906">  5  6 -1 -1</clus>
<clus scale="   93.076">  7  8 -1 -1</clus>
<clus scale="  131.601">  2  5  1 -1</clus>
<clus scale="  160.571">  1 10  2 -1</clus>
<clus scale="   33.348">  1  5  2 -1</clus>
</clustering>
</event>
<event>
10    4  0.3043429E-005  0.1059424E+03  0.7546771E-02  0.1275069E+00
         21   -1    0    0  503  502  0.00000000000E+00  0.00000000000E+00  0.13632031683E+03  0.13632031683E+03  0.00000000000E+00 0.  1.
         -1   -1    0    0    0  501 -0.00000000000E+00 -0.00000000000E+00 -0.32133929333E+03  0.32133929333E+03  0.00000000000E+00 0.  1.
         23    2    1    2    0    0  0.12456486339E+02  0.53590711506E+02 -0.10881290654E+03  0.15221226790E+03  0.91110907471E+02 0.  0.
         24    2    1    2    0    0  0.66896645559E+02 -0.38276697796E+02 -0.12768819406E+03  0.16720592362E+03  0.75586236901E+02 0.  0.
        -13    1    4    4    0    0  0.42631471537E+02 -0.29903772784E+02 -0.18848114540E+02  0.55379864697E+02  0.00000000000E+00 0.  1.
         14    1    4    4    0    0  0.24265174023E+02 -0.83729250121E+01 -0.10884007952E+03  0.11182605892E+03  0.00000000000E+00 0. -1.
        -13    1    3    3    0    0  0.49209716561E+01 -0.23992225308E+02 -0.10245510067E+02  0.26548320358E+02  0.00000000000E+00 0. -1.
         13    1    3    3    0    0  0.75355146830E+01  0.77582936814E+02 -0.98567396469E+02  0.12566394755E+03  0.00000000000E+00 0.  1.
         21    1    1    2  503  501  0.20448986933E+02 -0.18900719756E+02  0.59002278236E+01  0.28464204929E+02  0.00000000000E+00 0.  1.
         -2    1    1    2    0  502 -0.99802118831E+02  0.35867060470E+01  0.45581896268E+02  0.10977721371E+03  0.00000000000E+00 0.  1.
<scales pt_clust_5="13000.00000" pt_clust_6="13000.00000" pt_clust_7="13000.00000" pt_clust_8="13000.00000" pt_clust_9="27.84597" pt_clust_10="86.90938"></scales>
<clustering>
<clus scale="   27.846">  1  9  2 -1</clus>
<clus scale="   75.586">  5  6 -1 -1</clus>
<clus scale="   86.909">  1 10  2 -1</clus>
<clus scale="   91.111">  7  8 -1 -1</clus>
<clus scale="   92.929">  1  5  2 -1</clus>
<clus scale="   27.846">  1  5  2 -1</clus>
</clustering>
</event>
<event>
10    4  0.3043429E-005  0.9969159E+02  0.7546771E-02  0.1286577E+00
          2   -1    0    0  502    0 -0.00000000000E+00  0.00000000000E+00  0.36576620577E+03  0.36576620577E+03  0.00000000000E+00 0. -1.
         21   -1    0    0  503  502  0.00000000000E+00 -0.00000000000E+00 -0.78467855479E+02  0.78467855479E+02  0.00000000000E+00 0. -1.
         24    2    1    2    0    0  0.29271767327E+02 -0.43276112180E+02  0.71429919209E+02  0.11962667704E+03  0.80490063070E+02 0.  0.
         23    2    1    2    0    0  0.13993189222E+02  0.30813237403E+02  0.42344977703E+02  0.10641417046E+03  0.91572995994E+02 0.  0.
        -11    1    3    3    0    0  0.85847956134E+01 -0.62887753342E+02  0.32306379672E+02  0.71219873656E+02  0.00000000000E+00 0.  1.
         12    1    3    3    0    0  0.20686971713E+02  0.19611641162E+02  0.39123539537E+02  0.48406803382E+02  0.00000000000E+00 0. -1.
        -11    1    4    4    0    0  0.24582528450E+02  0.69988085385E+01 -0.24044855272E+02  0.35091866451E+02  0.00000000000E+00 0. -1.
         11    1    4    4    0    0 -0.10589339228E+02  0.23814428865E+02  0.66389832975E+02  0.71322304014E+02  0.00000000000E+00 0.  1.
         21    1    1    2  503  501 -0.14152146050E+02 -0.14778310607E+02 -0.15082114066E+02  0.25419517441E+02  0.00000000000E+00 0.  1.
          1    1    1    2  501    0 -0.29112810498E+02  0.27241185384E+02  0.18860556744E+03  0.19277369631E+03  0.00000000000E+00 0. -1.
<scales pt_clust_5="13000.00000" pt_clust_6="13000.00000" pt_clust_7="13000.00000" pt_clust_8="13000.00000" pt_clust_9="20.46171" pt_clust_10="39.88548"></scales>
<clustering>
<clus scale="   20.462">  2  9  1 -1</clus>
<clus scale="   39.885">  2 10  1 -1</clus>
<clus scale="   80.490">  5  6 -1 -1</clus>
<clus scale="   89.618">  1  5  2 -1</clus>
<clus scale="   91.573">  7  8 -1 -1</clus>
<clus scale="   20.462">  2  5  1 -1</clus>
</clustering>
</event>
<event>
10    4  0.3043429E-005  0.1253444E+03  0.7546771E-02  0.1237710E+00
         21   -1    0    0  503  502  0.00000000000E+00  0.00000000000E+00  0.12695060037E+03  0.12695060037E+03  0.00000000000E+00 0. -1.
          2   -1    0    0  502    0 -0.00000000000E+00 -0.00000000000E+00 -0.91946428928E+03  0.91946428928E+03  0.00000000000E+00 0. -1.
         24    2    1    2    0    0  0.93208721095E+02 -0.35565330125E+02 -0.76784513488E+03  0.77843833280E+03  0.80170620709E+02 0.  0.
         23    2    1    2    0    0 -0.34855198968E+02 -0.34186130713E+01 -0.95290222805E+02  0.13655823031E+03  0.91331001812E+02 0.  0.
        -11    1    3    3    0    0  0.26858735826E+02 -0.52877637552E+02 -0.34041065087E+03  0.34553848913E+03  0.00000000000E+00 0.  1.
         12    1    3    3    0    0  0.66349985269E+02  0.17312307427E+02 -0.42743448401E+03  0.43289984367E+03  0.00000000000E+00 0. -1.
        -13    1    4    4    0    0 -0.54728343948E+02 -0.31303787608E+02 -0.54849238826E+02  0.83567683645E+02  0.00000000000E+00 0.  1.
         13    1    4    4    0    0  0.19873144981E+02  0.27885174537E+02 -0.40440983980E+02  0.52990546663E+02  0.00000000000E+00 0. -1.
         21    1    1    2  503  501 -0.68334423520E+01  0.20347007626E+02  0.73485711549E+02  0.76556165366E+02  0.00000000000E+00 0. -1.
          1    1    1    2  501    0 -0.51520079775E+02  0.18636935570E+02 -0.28640427754E+01  0.54862161172E+02  0.00000000000E+00 0. -1.
<scales pt_clust_5="13000.00000" pt_clust_6="13000.00000" pt_clust_7="13000.00000" pt_clust_8="13000.00000" pt_clust_9="21.46385" pt_clust_10="62.04322"></scales>
<clustering>
<clus scale="   21.464">  1  9  2 -1</clus>
<clus scale="   62.043">  1 10  2 -1</clus>
<clus scale="   80.171">  5  6 -1 -1</clus>
<clus scale="   91.331">  7  8 -1 -1</clus>
<clus scale="  117.461">  2  5  1 -1</clus>
<clus scale="   21.464">  1  5  2 -1</clus>
</clustering>
</event>
<event>
10    4  0.3043429E-005  0.1516184E+03  0.7546771E-02  0.1201110E+00
          2   -1    0    0  502    0 -0.00000000000E+00  0.00000000000E+00  0.76679116256E+03  0.76679116256E+03  0.00000000000E+00 0. -1.
         21   -1    0    0  503  502  0.00000000000E+00 -0.00000000000E+00 -0.52062977553E+02  0.52062977553E+02  0.00000000000E+00 0.  1.
         24    2    1    2    0    0 -0.94568925722E+02  0.62925500571E+02  0.19725919676E+03  0.24141954563E+03  0.80431995935E+02 0.  0.
         23    2    1    2    0    0  0.79133647911E+02 -0.99190755319E+02  0.23875309506E+03  0.28642472889E+03  0.94525894566E+02 0.  0.
        -13    1    3    3    0    0 -0.60602064666E+02  0.65222449301E+02  0.81301269123E+02  0.12056730276E+03  0.00000000000E+00 0.  1.
         14    1    3    3    0    0 -0.33966861056E+02 -0.22969487292E+01  0.11595792764E+03  0.12085224286E+03  0.00000000000E+00 0. -1.
        -11    1    4    4    0    0  0.22595911455E+02 -0.98977536451E+02  0.15956467577E+03  0.18912433394E+03  0.00000000000E+00 0. -1.
         11    1    4    4    0    0  0.56537736456E+02 -0.21321886762E+00  0.79188419294E+02  0.97300394944E+02  0.00000000000E+00 0.  1.
         21    1    1    2  503  501 -0.21307806069E+02  0.24132756485E+01  0.27491106918E+02  0.34865562643E+02  0.00000000000E+00 0. -1.
          1    1    1    2  501    0  0.36743083880E+02  0.33851979099E+02  0.25122478627E+03  0.25614430296E+03  0.00000000000E+00 0. -1.
<scales pt_clust_5="13000.00000" pt_clust_6="13000.00000" pt_clust_7="13000.00000" pt_clust_8="13000.00000" pt_clust_9="21.44403" pt_clust_10="49.25335"></scales>
<clustering>
<clus scale="   21.444">  2  9  1 -1</clus>
<clus scale="   49.253">  2 10  1 -1</clus>
<clus scale="   80.432">  5  6 -1 -1</clus>
<clus scale="   94.526">  7  8 -1 -1</clus>
<clus scale="  143.256">  1  5  2 -1</clus>
<clus scale="   21.444">  2  5  1 -1</clus>
</clustering>
</event>
<event>
10    4  0.3043429E-005  0.1861241E+03  0.7546771E-02  0.1162896E+00
          2   -1    0    0  503    0 -0.00000000000E+00  0.00000000000E+00  0.98926649484E+03  0.98926649484E+03  0.00000000000E+00 0. -1.
         21   -1    0    0  501  502  0.00000000000E+00 -0.00000000000E+00 -0.12680602783E+03  0.12680602783E+03  0.00000000000E+00 0.  1.
         23    2    1    2    0    0  0.15599773586E+03 -0.68182447022E+02  0.57575364085E+03  0.60691832272E+03  0.88732495845E+02 0.  0.
         24    2    1    2    0    0 -0.13489580884E+03  0.76352376127E+02  0.33540459878E+03  0.37814473056E+03  0.80440212471E+02 0.  0.
        -11    1    4    4    0    0 -0.72571226795E+02  0.79624144142E+02  0.16896816074E+03  0.20039168304E+03  0.00000000000E+00 0.  1.
         12    1    4    4    0    0 -0.62324582045E+02 -0.32717680143E+01  0.16643643805E+03  0.17775304752E+03  0.00000000000E+00 0. -1.
        -11    1    3    3    0    0  0.82898830760E+02  0.10658174112E+02  0.28108128423E+03  0.29324478028E+03  0.00000000000E+00 0.  1.
         11    1    3    3    0    0  0.73098905099E+02 -0.78840621134E+02  0.29467235662E+03  0.31367354244E+03  0.00000000000E+00 0. -1.
         21    1    1    2  503  502  0.48665487542E+02 -0.10154980163E+02 -0.84078136388E+01  0.50419684945E+02  0.00000000000E+00 0.  1.
          1    1    1    2  501    0 -0.69767414561E+02  0.19850510575E+01 -0.40289958990E+02  0.80589784450E+02  0.00000000000E+00 0. -1.
<scales pt_clust_5="13000.00000" pt_clust_6="13000.00000" pt_clust_7="13000.00000" pt_clust_8="13000.00000" pt_clust_9="49.71371" pt_clust_10="39.80131"></scales>
<clustering>
<clus scale="   49.714">  2  9  1 -1</clus>
<clus scale="   39.801">  2 10  1 -1</clus>
<clus scale="   80.440">  5  6 -1 -1</clus>
<clus scale="   88.732">  7  8 -1 -1</clus>
<clus scale="  182.317">  2  5  1 -1</clus>
<clus scale="   49.714">  2  5  1 -1</clus>
</clustering>
</event>
<event>
10    4  0.3043429E-005  0.1287514E+03  0.7546771E-02  0.1234394E+00
         21   -1    0    0  501  502  0.00000000000E+00  0.00000000000E+00  0.19274363982E+03  0.19274363982E+03  0.00000000000E+00 0. -1.
          2   -1    0    0  503    0 -0.00000000000E+00 -0.00000000000E+00 -0.17181268311E+03  0.17181268311E+03  0.00000000000E+00 0. -1.
         24    2    1    2    0    0 -0.13529406414E+02  0.82788065350E+02 -0.74337396601E+02  0.13756029930E+03  0.79748848309E+02 0.  0.
         23    2    1    2    0    0  0.39654425794E+01 -0.85815600056E+02  0.83990443453E+02  0.15465850614E+03  0.97390025070E+02 0.  0.
        -11    1    3    3    0    0 -0.26118023712E+02  0.76664925351E+00 -0.39948726734E+02  0.47735099051E+02  0.00000000000E+00 0.  1.
         12    1    3    3    0    0  0.12588617298E+02  0.82021416096E+02 -0.34388669867E+02  0.89825200245E+02  0.00000000000E+00 0. -1.
        -13    1    4    4    0    0 -0.40610052448E+02 -0.30456145616E+02  0.62270175171E+02  0.80338831716E+02  0.00000000000E+00 0.  1.
         13    1    4    4    0    0  0.44575495027E+02 -0.55359454440E+02  0.21720268282E+02  0.74319674428E+02  0.00000000000E+00 0. -1.
         21    1    1    2  503  502  0.30623599315E+02  0.24241770731E+02  0.15748451309E+02  0.42112729688E+02  0.00000000000E+00 0. -1.
          1    1    1    2  501    0 -0.21059635480E+02 -0.21214236024E+02 -0.44705414485E+01  0.30224787799E+02  0.00000000000E+00 0. -1.
<scales pt_clust_5="13000.00000" pt_clust_6="13000.00000" pt_clust_7="13000.00000" pt_clust_8="13000.00000" pt_clust_9="34.28827" pt_clust_10="29.89236"></scales>
<clustering>
<clus scale="   29.892">  1 10  2 -1</clus>
<clus scale="   34.288">  1  9  2 -1</clus>
<clus scale="   79.749">  5  6 -1 -1</clus>
<clus scale="   97.390">  7  8 -1 -1</clus>
<clus scale="  115.983">  2  5  1 -1</clus>
<clus scale="   29.892">  1  5  2 -1</clus>
</clustering>
</event>
<event>
10    4  0.3043429E-005  0.1263202E+03  0.7546771E-02  0.1252885E+00
         -1   -1    0    0    0  501 -0.00000000000E+00  0.00000000000E+00  0.35341566310E+03  0.35341566310E+03  0.00000000000E+00 0.  1.
         21   -1    0    0  503  502  0.00000000000E+00 -0.00000000000E+00 -0.13406734341E+03  0.13406734341E+03  0.00000000000E+00 0.  1.
         23    2    1    2    0    0  0.63870110787E+00  0.22885416255E+02  0.19086007410E+03  0.20888651434E+03  0.81742631288E+02 0.  0.
         24    2    1    2    0    0 -0.59261473095E+02  0.52209240221E+02  0.43426627135E+02  0.12597528955E+03  0.88012355236E+02 0.  0.
        -11    1    4    4    0    0 -0.75480489226E+02  0.62619831576E+02  0.41876139433E+02  0.10664032358E+03  0.00000000000E+00 0.  1.
         12    1    4    4    0    0  0.16219016132E+02 -0.10410591355E+02  0.15504877026E+01  0.19334965962E+02  0.00000000000E+00 0. -1.
        -13    1    3    3    0    0 -0.11268462218E+02  0.45509273562E+02  0.16856885671E+03  0.17496723028E+03  0.00000000000E+00 0.  1.
         13    1    3    3    0    0  0.11907163325E+02 -0.22623857307E+02  0.22291217391E+02  0.33919284054E+02  0.00000000000E+00 0. -1.
         21    1    1    2  503  501 -0.19118624582E+02 -0.12941664329E+02 -0.43348767823E+02  0.49113380593E+02  0.00000000000E+00 0.  1.
         -2    1    1    2    0  502  0.77741396569E+02 -0.62152992147E+02  0.28410386286E+02  0.10350782203E+03  0.00000000000E+00 0.  1.
<scales pt_clust_5="13000.00000" pt_clust_6="13000.00000" pt_clust_7="13000.00000" pt_clust_8="13000.00000" pt_clust_9="23.08698" pt_clust_10="90.61243"></scales>
<clustering>
<clus scale="   23.087">  2  9  1 -1</clus>
<clus scale="   81.743">  7  8 -1 -1</clus>
<clus scale="   84.548">  1  7  2 -1</clus>
<clus scale="   88.012">  5  6 -1 -1</clus>
<clus scale="   90.612">  2 10  1 -1</clus>
<clus scale="   23.087">  2  5  1 -1</clus>
</clustering>
</event>
<event>
10    4  0.3043429E-005  0.1603032E+03  0.7546771E-02  0.1214483E+00
         21   -1    0    0  501  502  0.00000000000E+00  0.00000000000E+00  0.51255612522E+03  0.51255612522E+03  0.00000000000E+00 0.  1.
          4   -1    0    0  503    0 -0.00000000000E+00 -0.00000000000E+00 -0.10653206521E+03  0.10653206521E+03  0.00000000000E+00 0. -1.
         24    2    1    2    0    0  0.25822644156E+02 -0.92171107152E+01  0.26340735927E+02  0.95512465489E+02  0.87618677309E+02 0.  0.
         23    2    1    2    0    0 -0.17666461883E+02  0.14906781542E+03  0.19586758346E+03  0.26263454313E+03  0.89885902794E+02 0.  0.
        -13    1    3    3    0    0  0.20978623346E+02 -0.31337964033E+02  0.50088918121E+02  0.62698248347E+02  0.00000000000E+00 0.  1.
         14    1    3    3    0    0  0.48440208102E+01  0.22120853318E+02 -0.23748182194E+02  0.32814217142E+02  0.00000000000E+00 0. -1.
        -11    1    4    4    0    0  0.28733274740E+02  0.10649547464E+03  0.10663986561E+03  0.15342407938E+03  0.00000000000E+00 0. -1.
         11    1    4    4    0    0 -0.46399736623E+02  0.42572340781E+02  0.89227717853E+02  0.10921046375E+03  0.00000000000E+00 0.  1.
         21    1    1    2  503  502 -0.30674489739E+02 -0.22488128197E+02  0.11912946133E+03  0.12505386354E+03  0.00000000000E+00 0.  1.
          3    1    1    2  501    0  0.22518307466E+02 -0.11736257651E+03  0.64686279296E+02  0.13588731827E+03  0.00000000000E+00 0. -1.
<scales pt_clust_5="13000.00000" pt_clust_6="13000.00000" pt_clust_7="13000.00000" pt_clust_8="13000.00000" pt_clust_9="38.03472" pt_clust_10="132.73151"></scales>
<clustering>
<clus scale="   38.035">  1  9  2 -1</clus>
<clus scale="   87.619">  5  6 -1 -1</clus>
<clus scale="   89.886">  7  8 -1 -1</clus>
<clus scale="   91.003">  2  5  1 -1</clus>
<clus scale="  132.732">  1 10  2 -1</clus>
<clus scale="   38.035">  1  5  2 -1</clus>
</clustering>
</event>
<event>
10    4  0.3043429E-005  0.2056885E+03  0.7546771E-02  0.1162720E+00
         21   -1    0    0  503  502  0.00000000000E+00  0.00000000000E+00  0.15604857085E+03  0.15604857085E+03  0.00000000000E+00 0. -1.
          2   -1    0    0  502    0 -0.00000000000E+00 -0.00000000000E+00 -0.16830081182E+04  0.16830081182E+04  0.00000000000E+00 0. -1.
         24    2    1    2    0    0 -0.48508537624E+02  0.88047591816E+02 -0.15789224873E+03  0.20386786869E+03  0.80787926251E+02 0.  0.
         23    2    1    2    0    0  0.68033671504E+02 -0.27702340277E+03 -0.13793793268E+04  0.14111791785E+04  0.85841717195E+02 0.  0.
        -13    1    3    3    0    0 -0.29732713806E+02  0.96350214492E+02 -0.15218681022E+03  0.18256019092E+03  0.00000000000E+00 0.  1.
         14    1    3    3    0    0 -0.18775823819E+02 -0.83026226761E+01 -0.57054385075E+01  0.21307677770E+02  0.00000000000E+00 0. -1.
        -13    1    4    4    0    0  0.81648259094E+02 -0.20038936600E+03 -0.11042953362E+04  0.11252957504E+04  0.00000000000E+00 0. -1.
         13    1    4    4    0    0 -0.13614587589E+02 -0.76634036771E+02 -0.27508399063E+03  0.28588342814E+03  0.00000000000E+00 0.  1.
         21    1    1    2  503  501 -0.24989750027E+02  0.29193071386E+02  0.46262820628E+02  0.60141263670E+02  0.00000000000E+00 0. -1.
          1    1    1    2  501    0  0.54646161473E+01  0.15978273957E+03 -0.35950792427E+02  0.16386837819E+03  0.00000000000E+00 0. -1.
<scales pt_clust_5="13000.00000" pt_clust_6="13000.00000" pt_clust_7="13000.00000" pt_clust_8="13000.00000" pt_clust_9="38.42815" pt_clust_10="186.91968"></scales>
<clustering>
<clus scale="   38.428">  1  9  2 -1</clus>
<clus scale="   80.788">  5  6 -1 -1</clus>
<clus scale="   85.842">  7  8 -1 -1</clus>
<clus scale="  135.635">  2  5  1 -1</clus>
<clus scale="  186.920">  1 10  2 -1</clus>
<clus scale="   38.428">  1  5  2 -1</clus>
</clustering>
</event>
<event>
10    4  0.3043429E-005  0.1333208E+03  0.7546771E-02  0.1246902E+00
          4   -1    0    0  502    0 -0.00000000000E+00  0.00000000000E+00  0.25112605300E+03  0.25112605300E+03  0.00000000000E+00 0. -1.
         21   -1    0    0  503  502  0.00000000000E+00 -0.00000000000E+00 -0.19052639533E+03  0.19052639533E+03  0.00000000000E+00 0. -1.
         24    2    1    2    0    0 -0.15190962177E+02  0.29201238400E+02 -0.51289288792E+02  0.10064662767E+03  0.80097907967E+02 0.  0.
         23    2    1    2    0    0  0.91305015900E+02  0.12987721107E+02  0.66551214576E+00  0.13013758865E+03  0.91815370416E+02 0.  0.
        -13    1    3    3    0    0 -0.16491211642E+02  0.19006888291E+02  0.17783470064E+02  0.30813530655E+02  0.00000000000E+00 0.  1.
         14    1    3    3    0    0  0.13002494650E+01  0.10194350109E+02 -0.69072758856E+02  0.69833097015E+02  0.00000000000E+00 0. -1.
        -13    1    4    4    0    0  0.10977925033E+03  0.47911730101E+01 -0.62489612104E+00  0.10988552969E+03  0.00000000000E+00 0. -1.
         13    1    4    4    0    0 -0.18474234427E+02  0.81965480969E+01  0.12904082668E+01  0.20252058954E+02  0.00000000000E+00 0.  1.
         21    1    1    2  503  501  0.18153435601E+02 -0.38066199098E+02 -0.22037301570E+02  0.47583877505E+02  0.00000000000E+00 0.  1.
          3    1    1    2  501    0 -0.94267489323E+02 -0.41227604087E+01  0.13326073589E+03  0.16328435450E+03  0.00000000000E+00 0. -1.
<scales pt_clust_5="13000.00000" pt_clust_6="13000.00000" pt_clust_7="13000.00000" pt_clust_8="13000.00000" pt_clust_9="42.17325" pt_clust_10="96.66639"></scales>
<clustering>
<clus scale="   42.173">  2  9  1 -1</clus>
<clus scale="   80.098">  5  6 -1 -1</clus>
<clus scale="   81.048">  1  5  2 -1</clus>
<clus scale="   91.815">  7  8 -1 -1</clus>
<clus scale="   96.666">  2 10  1 -1</clus>
<clus scale="   42.173">  2  5  1 -1</clus>
</clustering>
</event>
<event>
10    4  0.3043429E-005  0.2991445E+03  0.7546771E-02  0.1132599E+00
         -3   -1    0    0    0  501 -0.00000000000E+00  0.00000000000E+00  0.12669191481E+04  0.12669191481E+04  0.00000000000E+00 0.  1.
         21   -1    0    0  501  502  0.00000000000E+00 -0.00000000000E+00 -0.19933174207E+03  0.19933174207E+03  0.00000000000E+00 0. -1.
         24    2    1    2    0    0  0.35546924107E+02 -0.26489035258E+02 -0.60695772621E+02  0.10904467935E+03  0.79003243464E+02 0.  0.
         23    2    1    2    0    0  0.29205367983E+03  0.84363975023E+02  0.25315927654E+03  0.40607699646E+03  0.91631193205E+02 0.  0.
        -11    1    3    3    0    0  0.49410428703E+02 -0.31402700279E+02 -0.14150706294E+02  0.60230910154E+02  0.00000000000E+00 0.  1.
         12    1    3    3    0    0 -0.13863504595E+02  0.49136650212E+01 -0.46545066327E+02  0.48813769195E+02  0.00000000000E+00 0. -1.
        -11    1    4    4    0    0  0.13803656944E+03  0.40547798963E+02  0.17888696068E+03  0.22956211186E+03  0.00000000000E+00 0.  1.
         11    1    4    4    0    0  0.15401711040E+03  0.43816176060E+02  0.74272315857E+02  0.17651488459E+03  0.00000000000E+00 0. -1.
         21    1    1    2  503  502 -0.43320340507E+02 -0.31230768774E+02  0.35101335992E+02  0.63907093568E+02  0.00000000000E+00 0.  1.
         -4    1    1    2    0  503 -0.28428026343E+03 -0.26644170991E+02  0.84002256611E+03  0.88722212078E+03  0.00000000000E+00 0.  1.
<scales pt_clust_5="13000.00000" pt_clust_6="13000.00000" pt_clust_7="13000.00000" pt_clust_8="13000.00000" pt_clust_9="53.40424" pt_clust_10="284.76526"></scales>
<clustering>
<clus scale="   53.404">  2  9  1 -1</clus>
<clus scale="   79.003">  5  6 -1 -1</clus>
<clus scale="   90.296">  1  5  2 -1</clus>
<clus scale="   91.631">  7  8 -1 -1</clus>
<clus scale="  284.765">  2 10  1 -1</clus>
<clus scale="   53.404">  2  5  1 -1</clus>
</clustering>
</event>
<event>
10    4  0.3043429E-005  0.2061185E+03  0.7546771E-02  0.1144682E+00
          2   -1    0    0  502    0 -0.00000000000E+00  0.00000000000E+00  0.16071159149E+04  0.16071159149E+04  0.00000000000E+00 0. -1.
         21   -1    0    0  503  502  0.00000000000E+00 -0.00000000000E+00 -0.32299401062E+03  0.32299401062E+03  0.00000000000E+00 0. -1.
         23    2    1    2    0    0 -0.23799663903E+03  0.87443739179E+02  0.93912233205E+03  0.97627306902E+03  0.82882706517E+02 0.  0.
         24    2    1    2    0    0  0.66260015408E+02 -0.88859397106E+02  0.15593834156E+03  0.20852628445E+03  0.82946144237E+02 0.  0.
        -11    1    4    4    0    0  0.18354735357E+02 -0.34406840881E+02  0.12269777390E+03  0.12874576005E+03  0.00000000000E+00 0.  1.
         12    1    4    4    0    0  0.47905280051E+02 -0.54452556226E+02  0.33240567653E+02  0.79780524404E+02  0.00000000000E+00 0. -1.
        -11    1    3    3    0    0 -0.65147613801E+02 -0.74709195278E+01  0.31446440898E+03  0.32122872029E+03  0.00000000000E+00 0.  1.
         11    1    3    3    0    0 -0.17284902523E+03  0.94914658707E+02  0.62465792307E+03  0.65504434874E+03  0.00000000000E+00 0. -1.
         21    1    1    2  503  501  0.68468418729E+02  0.74097217568E+01 -0.26799120612E+03  0.27669859938E+03  0.00000000000E+00 0. -1.
          1    1    1    2  501    0  0.10326820489E+03 -0.59940638294E+01  0.45705243682E+03  0.46861197268E+03  0.00000000000E+00 0. -1.
<scales pt_clust_5="13000.00000" pt_clust_6="13000.00000" pt_clust_7="13000.00000" pt_clust_8="13000.00000" pt_clust_9="68.86820" pt_clust_10="111.20071"></scales>
<clustering>
<clus scale="   68.868">  2  9  1 -1</clus>
<clus scale="   82.883">  7  8 -1 -1</clus>
<clus scale="   82.946">  5  6 -1 -1</clus>
<clus scale="  111.201">  2 10  1 -1</clus>
<clus scale="  206.093">  1  7  2 -1</clus>
<clus scale="   68.868">  2  5  1 -1</clus>
</clustering>
</event>
<event>
10    4  0.3043429E-005  0.1466354E+03  0.7546771E-02  0.1217274E+00
         21   -1    0    0  501  502  0.00000000000E+00  0.00000000000E+00  0.31892756978E+03  0.31892756978E+03  0.00000000000E+00 0.  1.
          2   -1    0    0  503    0 -0.00000000000E+00 -0.00000000000E+00 -0.52105908365E+03  0.52105908365E+03  0.00000000000E+00 0. -1.
         23    2    1    2    0    0 -0.35960545778E+02  0.48643431737E+02 -0.23571506391E+03  0.26092127279E+03  0.94122127770E+02 0.  0.
         24    2    1    2    0    0 -0.79524183137E+02 -0.65556968584E+02  0.23168190938E+03  0.26614638534E+03  0.80842930811E+02 0.  0.
        -13    1    4    4    0    0 -0.91626056614E+02 -0.38205044589E+02  0.19501128344E+03  0.21882495367E+03  0.00000000000E+00 0.  1.
         14    1    4    4    0    0  0.12101873477E+02 -0.27351923995E+02  0.36670625940E+02  0.47321431664E+02  0.00000000000E+00 0. -1.
        -11    1    3    3    0    0  0.38152764296E+01  0.67313404758E+02 -0.15481107001E+03  0.16885531733E+03  0.00000000000E+00 0.  1.
         11    1    3    3    0    0 -0.39775822207E+02 -0.18669973021E+02 -0.80903993904E+02  0.92065955459E+02  0.00000000000E+00 0. -1.
         21    1    1    2  503  502 -0.22068372611E+02 -0.64294255599E+01  0.34635617656E+02  0.41568937840E+02  0.00000000000E+00 0. -1.
          1    1    1    2  501    0  0.13755310152E+03  0.23342962407E+02 -0.23273397699E+03  0.27135005745E+03  0.00000000000E+00 0. -1.
<scales pt_clust_5="13000.00000" pt_clust_6="13000.00000" pt_clust_7="13000.00000" pt_clust_8="13000.00000" pt_clust_9="22.98588" pt_clust_10="122.33718"></scales>
<clustering>
<clus scale="   22.986">  1  9  2 -1</clus>
<clus scale="   80.843">  5  6 -1 -1</clus>
<clus scale="   94.122">  7  8 -1 -1</clus>
<clus scale="  112.083">  2  7  1 -1</clus>
<clus scale="  122.337">  1 10  2 -1</clus>
<clus scale="   22.986">  1  5  2 -1</clus>
</clustering>
</event>
<event>
10    4  0.3043429E-005  0.1531066E+03  0.7546771E-02  0.1222944E+00
         21   -1    0    0  501  502  0.00000000000E+00  0.00000000000E+00  0.64397495707E+03  0.64397495707E+03  0.00000000000E+00 0.  1.
         -1   -1    0    0    0  501 -0.00000000000E+00 -0.00000000000E+00 -0.57319460581E+03  0.57319460581E+03  0.00000000000E+00 0.  1.
         23    2    1    2    0    0  0.93704066934E+01  0.41313409052E+01 -0.85861564065E+02  0.12241378561E+03  0.86649028984E+02 0.  0.
         24    2    1    2    0    0 -0.91771386681E+01  0.12037345064E+03 -0.41966922641E+03  0.44388125687E+03  0.79588460929E+02 0.  0.
        -13    1    4    4    0    0 -0.11314543107E+02  0.11951906202E+03 -0.42307047274E+03  0.43977431710E+03  0.00000000000E+00 0.  1.
         14    1    4    4    0    0  0.21374044393E+01  0.85438861114E+00  0.34012463351E+01  0.41069397692E+01  0.00000000000E+00 0. -1.
        -11    1    3    3    0    0  0.31479111197E+02  0.36197940514E+02 -0.52654807833E+02  0.71230289394E+02  0.00000000000E+00 0. -1.
         11    1    3    3    0    0 -0.22108704503E+02 -0.32066599609E+02 -0.33206756232E+02  0.51183496214E+02  0.00000000000E+00 0.  1.
         21    1    1    2  503  502 -0.20180293519E+02  0.67284739384E+02  0.33346082085E+03  0.34077939996E+03  0.00000000000E+00 0.  1.
         -2    1    1    2    0  503  0.19987025494E+02 -0.19178953093E+03  0.24285032089E+03  0.31009512043E+03  0.00000000000E+00 0.  1.
<scales pt_clust_5="13000.00000" pt_clust_6="13000.00000" pt_clust_7="13000.00000" pt_clust_8="13000.00000" pt_clust_9="70.24586" pt_clust_10="130.79493"></scales>
<clustering>
<clus scale="   70.246">  1  9  2 -1</clus>
<clus scale="   79.588">  5  6 -1 -1</clus>
<clus scale="   86.649">  7  8 -1 -1</clus>
<clus scale="   87.413">  2  7  1 -1</clus>
<clus scale="  130.795">  1 10  2 -1</clus>
<clus scale="   70.246">  1  5  2 -1</clus>
</clustering>
</event>
<event>
10    4  0.3043429E-005  0.1027569E+03  0.7546771E-02  0.1279532E+00
         -1   -1    0    0    0  501 -0.00000000000E+00  0.00000000000E+00  0.79219687293E+02  0.79219687293E+02  0.00000000000E+00 0.  1.
         21   -1    0    0  501  502  0.00000000000E+00 -0.00000000000E+00 -0.53696617604E+03  0.53696617604E+03  0.00000000000E+00 0. -1.
         24    2    1    2    0    0 -0.32742493927E+02  0.29905484899E+02  0.73967646126E+01  0.91847161872E+02  0.80092322239E+02 0.  0.
         23    2    1    2    0    0  0.78307225954E+02 -0.33077044390E+02 -0.34084025155E+03  0.36280398823E+03  0.90711323989E+02 0.  0.
        -11    1    3    3    0    0 -0.56395254073E+02  0.36146269582E+02  0.73307723336E+01  0.67384847775E+02  0.00000000000E+00 0.  1.
         12    1    3    3    0    0  0.23652760147E+02 -0.62407846826E+01  0.65992278926E-01  0.24462314097E+02  0.00000000000E+00 0. -1.
        -11    1    4    4    0    0  0.96490496838E+02 -0.20229164818E+02 -0.30570083535E+03  0.32120497478E+03  0.00000000000E+00 0. -1.
         11    1    4    4    0    0 -0.18183270884E+02 -0.12847879572E+02 -0.35139416200E+02  0.41599013455E+02  0.00000000000E+00 0.  1.
         21    1    1    2  503  502 -0.20924214819E+02 -0.45236956599E+01 -0.13267952818E+03  0.13439547532E+03  0.00000000000E+00 0. -1.
         -2    1    1    2    0  503 -0.24640517208E+02  0.76952551507E+01  0.83765263704E+01  0.27139237907E+02  0.00000000000E+00 0.  1.
<scales pt_clust_5="13000.00000" pt_clust_6="13000.00000" pt_clust_7="13000.00000" pt_clust_8="13000.00000" pt_clust_9="21.40763" pt_clust_10="26.24844"></scales>
<clustering>
<clus scale="   21.408">  2  9  1 -1</clus>
<clus scale="   26.248">  2 10  1 -1</clus>
<clus scale="   80.092">  5  6 -1 -1</clus>
<clus scale="   90.711">  7  8 -1 -1</clus>
<clus scale="   93.516">  1  5  2 -1</clus>
<clus scale="   21.408">  2  5  1 -1</clus>
</clustering>
</event>
<event>
10    4  0.3043429E-005  0.1262154E+03  0.7546771E-02  0.1236687E+00
          2   -1    0    0  503    0 -0.00000000000E+00  0.00000000000E+00  0.11032878513E+04  0.11032878513E+04  0.00000000000E+00 0. -1.
         21   -1    0    0  501  502  0.00000000000E+00 -0.00000000000E+00 -0.89651902646E+02  0.89651902646E+02  0.00000000000E+00 0.  1.
         24    2    1    2    0    0 -0.57607322639E+02  0.99230093396E+02  0.17723538009E+03  0.22514669964E+03  0.78188498804E+02 0.  0.
         23    2    1    2    0    0  0.94367999260E+02  0.20592691365E+02  0.10419950267E+03  0.16861378693E+03  0.90794793700E+02 0.  0.
        -13    1    3    3    0    0 -0.52072246832E+02  0.10078574156E+03  0.11117610034E+03  0.15883768406E+03  0.00000000000E+00 0.  1.
         14    1    3    3    0    0 -0.55350758065E+01 -0.15556481602E+01  0.66059279757E+02  0.66309015582E+02  0.00000000000E+00 0. -1.
        -13    1    4    4    0    0  0.76631018128E+01 -0.21139499922E+02  0.57327720105E+02  0.61579778164E+02  0.00000000000E+00 0.  1.
         13    1    4    4    0    0  0.86704897448E+02  0.41732191287E+02  0.46871782566E+02  0.10703400876E+03  0.00000000000E+00 0. -1.
         21    1    1    2  503  502 -0.51853162283E+02 -0.20336177714E+02 -0.42736691210E+01  0.55862105317E+02  0.00000000000E+00 0.  1.
          1    1    1    2  501    0  0.15092485661E+02 -0.99486607048E+02  0.73647473502E+03  0.74331716207E+03  0.00000000000E+00 0. -1.
<scales pt_clust_5="13000.00000" pt_clust_6="13000.00000" pt_clust_7="13000.00000" pt_clust_8="13000.00000" pt_clust_9="55.69839" pt_clust_10="101.38082"></scales>
<clustering>
<clus scale="   55.698">  2  9  1 -1</clus>
<clus scale="   78.188">  5  6 -1 -1</clus>
<clus scale="   90.795">  7  8 -1 -1</clus>
<clus scale="  101.381">  2 10  1 -1</clus>
<clus scale="  117.474">  1  5  2 -1</clus>
<clus scale="   55.698">  2  5  1 -1</clus>
</clustering>
</event>
<event>
10    4  0.3043429E-005  0.2098238E+03  0.7546771E-02  0.1163965E+00
         21   -1    0    0  503  502  0.00000000000E+00  0.00000000000E+00  0.32030626287E+03  0.32030626287E+03  0.00000000000E+00 0. -1.
          2   -1    0    0  502    0 -0.00000000000E+00 -0.00000000000E+00 -0.10926847926E+04  0.10926847926E+04  0.00000000000E+00 0. -1.
         24    2    1    2    0    0  0.83245149974E+02  0.10480864233E+03 -0.12394579638E+03  0.19875310752E+03  0.78902666682E+02 0.  0.
         23    2    1    2    0    0 -0.10596205472E+03  0.12680201588E+03 -0.44980819372E+03  0.48884078648E+03  0.96598111361E+02 0.  0.
        -11    1    3    3    0    0  0.38518200175E+02  0.57520577979E+01 -0.63219451058E+02  0.74252521208E+02  0.00000000000E+00 0.  1.
         12    1    3    3    0    0  0.44726949799E+02  0.99056584527E+02 -0.60726345317E+02  0.12450058631E+03  0.00000000000E+00 0. -1.
        -13    1    4    4    0    0 -0.35160424534E+01  0.77057165861E+02 -0.16654435727E+03  0.18354071020E+03  0.00000000000E+00 0.  1.
         13    1    4    4    0    0 -0.10244601226E+03  0.49744850019E+02 -0.28326383646E+03  0.30530007628E+03  0.00000000000E+00 0. -1.
         21    1    1    2  503  501 -0.75361965587E+02 -0.47711859371E+02  0.23114465874E+03  0.24775734227E+03  0.00000000000E+00 0. -1.
          1    1    1    2  501    0  0.98078870329E+02 -0.18389879883E+03 -0.42976919837E+03  0.47763981920E+03  0.00000000000E+00 0. -1.
<scales pt_clust_5="13000.00000" pt_clust_6="13000.00000" pt_clust_7="13000.00000" pt_clust_8="13000.00000" pt_clust_9="89.19556" pt_clust_10="186.26558"></scales>
<clustering>
<clus scale="   78.903">  5  6 -1 -1</clus>
<clus scale="   89.196">  1  9  2 -1</clus>
<clus scale="   96.598">  7  8 -1 -1</clus>
<clus scale="  124.145">  2  5  1 -1</clus>
<clus scale="  186.266">  1 10  2 -1</clus>
<clus scale="   89.196">  1  5  2 -1</clus>
</clustering>
</event>
<event>
10    4  0.3043429E-005  0.1208866E+03  0.7546771E-02  0.1245592E+00
         21   -1    0    0  501  502  0.00000000000E+00  0.00000000000E+00  0.11151770219E+03  0.11151770219E+03  0.00000000000E+00 0.  1.
          2   -1    0    0  503    0 -0.00000000000E+00 -0.00000000000E+00 -0.63458294492E+03  0.63458294492E+03  0.00000000000E+00 0. -1.
         23    2    1    2    0    0 -0.15978431287E+02  0.84128654879E+02 -0.51464505410E+03  0.52992322310E+03  0.92877068398E+02 0.  0.
         24    2    1    2    0    0 -0.47746792602E+02 -0.32694457543E+02 -0.35387719296E+01  0.99160744413E+02  0.80446544785E+02 0.  0.
        -13    1    4    4    0    0 -0.68645588679E+02 -0.12570723277E+02  0.10065562654E+01  0.69794362840E+02  0.00000000000E+00 0.  1.
         14    1    4    4    0    0  0.20898796077E+02 -0.20123734266E+02 -0.45453281950E+01  0.29366381573E+02  0.00000000000E+00 0. -1.
        -11    1    3    3    0    0 -0.35481410363E+02 -0.42867944076E+01 -0.13909483126E+03  0.14361294917E+03  0.00000000000E+00 0.  1.
         11    1    3    3    0    0  0.19502979076E+02  0.88415449286E+02 -0.37555022284E+03  0.38631027393E+03  0.00000000000E+00 0. -1.
         21    1    1    2  503  502 -0.17199551112E+02 -0.16246524055E+02 -0.15276120277E+02  0.28162633986E+02  0.00000000000E+00 0.  1.
          1    1    1    2  501    0  0.80924775000E+02 -0.35187673281E+02  0.10394703578E+02  0.88854045615E+02  0.00000000000E+00 0. -1.
<scales pt_clust_5="13000.00000" pt_clust_6="13000.00000" pt_clust_7="13000.00000" pt_clust_8="13000.00000" pt_clust_9="23.65955" pt_clust_10="84.48153"></scales>
<clustering>
<clus scale="   23.660">  1  9  2 -1</clus>
<clus scale="   80.447">  5  6 -1 -1</clus>
<clus scale="   84.482">  1 10  2 -1</clus>
<clus scale="   92.877">  7  8 -1 -1</clus>
<clus scale="  111.620">  1  5  2 -1</clus>
<clus scale="   23.660">  1  5  2 -1</clus>
</clustering>
</event>
<event>
10    4  0.3043429E-005  0.1300184E+03  0.7546771E-02  0.1247491E+00
         21   -1    0    0  501  502  0.00000000000E+00  0.00000000000E+00  0.14417089733E+03  0.14417089733E+03  0.00000000000E+00 0. -1.
          2   -1    0    0  503    0 -0.00000000000E+00 -0.00000000000E+00 -0.69633220142E+03  0.69633220142E+03  0.00000000000E+00 0. -1.
         24    2    1    2    0    0  0.24808137041E+00  0.41879796421E+02 -0.13850136048E+03  0.16397640442E+03  0.77146973104E+02 0.  0.
         23    2    1    2    0    0  0.70429215753E+02  0.23308771410E+02 -0.38217120725E+03  0.39955924429E+03  0.89939895415E+02 0.  0.
        -13    1    3    3    0    0  0.68989503641E+01 -0.22158478019E+02 -0.32059571365E+02  0.39577895097E+02  0.00000000000E+00 0.  1.
         14    1    3    3    0    0 -0.66508689937E+01  0.64038274440E+02 -0.10644178912E+03  0.12439850932E+03  0.00000000000E+00 0. -1.
        -13    1    4    4    0    0  0.59691603188E+01  0.25478818192E+02 -0.23615754035E+02  0.35249182828E+02  0.00000000000E+00 0.  1.
         13    1    4    4    0    0  0.64460055435E+02 -0.21700467821E+01 -0.35855545322E+03  0.36431006146E+03  0.00000000000E+00 0. -1.
         21    1    1    2  503  502  0.20468655029E+02 -0.11477032867E+02  0.10312196954E+03  0.10575835062E+03  0.00000000000E+00 0. -1.
          1    1    1    2  501    0 -0.91145952153E+02 -0.53711534964E+02 -0.13461070591E+03  0.17120909943E+03  0.00000000000E+00 0. -1.
<scales pt_clust_5="13000.00000" pt_clust_6="13000.00000" pt_clust_7="13000.00000" pt_clust_8="13000.00000" pt_clust_9="23.46675" pt_clust_10="93.89143"></scales>
<clustering>
<clus scale="   23.467">  1  9  2 -1</clus>
<clus scale="   77.147">  5  6 -1 -1</clus>
<clus scale="   86.356">  2  5  1 -1</clus>
<clus scale="   89.940">  7  8 -1 -1</clus>
<clus scale="   93.891">  1 10  2 -1</clus>
<clus scale="   23.467">  1  5  2 -1</clus>
</clustering>
</event>
<event>
10    4  0.3043429E-005  0.2112172E+03  0.7546771E-02  0.1141784E+00
          2   -1    0    0  503    0 -0.00000000000E+00  0.00000000000E+00  0.95854668747E+03  0.95854668747E+03  0.00000000000E+00 0. -1.
         21   -1    0    0  501  502  0.00000000000E+00 -0.00000000000E+00 -0.91302347473E+02  0.91302347473E+02  0.00000000000E+00 0. -1.
         23    2    1    2    0    0  0.15087030056E+03 -0.64452586170E+02  0.38415389094E+03  0.42753071374E+03  0.91062153592E+02 0.  0.
         24    2    1    2    0    0 -0.19666256136E+03  0.12307908757E+03  0.42345671881E+03  0.48884764259E+03  0.76366223659E+02 0.  0.
        -13    1    4    4    0    0 -0.50418166184E+02 -0.23345898427E+01  0.10804468567E+03  0.11925223643E+03  0.00000000000E+00 0.  1.
         14    1    4    4    0    0 -0.14624439518E+03  0.12541367742E+03  0.31541203314E+03  0.36959540616E+03  0.00000000000E+00 0. -1.
        -13    1    3    3    0    0  0.24765462423E+02  0.22447784531E+02  0.52695717505E+02  0.62402482344E+02  0.00000000000E+00 0.  1.
         13    1    3    3    0    0  0.12610483814E+03 -0.86900370701E+02  0.33145817343E+03  0.36512823140E+03  0.00000000000E+00 0. -1.
         21    1    1    2  503  502 -0.22192374860E+02  0.69648000761E+01  0.33297787630E+01  0.23496752300E+02  0.00000000000E+00 0. -1.
          1    1    1    2  501    0  0.67984635663E+02 -0.65591301479E+02  0.56303951484E+02  0.10997392631E+03  0.00000000000E+00 0. -1.
<scales pt_clust_5="13000.00000" pt_clust_6="13000.00000" pt_clust_7="13000.00000" pt_clust_8="13000.00000" pt_clust_9="23.25962" pt_clust_10="87.66029"></scales>
<clustering>
<clus scale="   23.260">  2  9  1 -1</clus>
<clus scale="   76.366">  5  6 -1 -1</clus>
<clus scale="   87.660">  2 10  1 -1</clus>
<clus scale="   91.062">  7  8 -1 -1</clus>
<clus scale="  205.310">  2  5  1 -1</clus>
<clus scale="   23.260">  2  5  1 -1</clus>
</clustering>
</event>
<event>
10    4  0.3043429E-005  0.2404352E+03  0.7546771E-02  0.1119662E+00
         -1   -1    0    0    0  501 -0.00000000000E+00  0.00000000000E+00  0.13320791641E+04  0.13320791641E+04  0.00000000000E+00 0.  1.
         21   -1    0    0  503  502  0.00000000000E+00 -0.00000000000E+00 -0.12292841420E+03  0.12292841420E+03  0.00000000000E+00 0.  1.
         23    2    1    2    0    0 -0.15739268902E+02 -0.20959791336E+03  0.67834118710E+03  0.71544330301E+03  0.86794837581E+02 0.  0.
         24    2    1    2    0    0  0.65810253684E+02  0.23890207996E+03  0.58969774510E+03  0.64515430742E+03  0.84115732783E+02 0.  0.
        -11    1    4    4    0    0  0.51078814347E+02  0.51559873370E+02  0.13789540439E+03  0.15582877902E+03  0.00000000000E+00 0.  1.
         12    1    4    4    0    0  0.14731439337E+02  0.18734220659E+03  0.45180234071E+03  0.48932552840E+03  0.00000000000E+00 0. -1.
        -11    1    3    3    0    0 -0.50377774855E+02 -0.99810006991E+02  0.31105796207E+03  0.33054048688E+03  0.00000000000E+00 0.  1.
         11    1    3    3    0    0  0.34638505954E+02 -0.10978790637E+03  0.36728322503E+03  0.38490281613E+03  0.00000000000E+00 0. -1.
         21    1    1    2  503  501 -0.20615558986E+02 -0.27187621711E+02 -0.71862724905E+01  0.34868475145E+02  0.00000000000E+00 0.  1.
         -2    1    1    2    0  502 -0.29455425796E+02 -0.21165448820E+01 -0.51701909845E+02  0.59541492697E+02  0.00000000000E+00 0.  1.
<scales pt_clust_5="13000.00000" pt_clust_6="13000.00000" pt_clust_7="13000.00000" pt_clust_8="13000.00000" pt_clust_9="40.80022" pt_clust_10="29.53137"></scales>
<clustering>
<clus scale="   29.531">  2 10  1 -1</clus>
<clus scale="   40.800">  2  9  1 -1</clus>
<clus scale="   84.116">  5  6 -1 -1</clus>
<clus scale="   86.795">  7  8 -1 -1</clus>
<clus scale="  239.481">  2  5  1 -1</clus>
<clus scale="   29.531">  2  5  1 -1</clus>
</clustering>
</event>
<event>
10    4  0.3043429E-005  0.1835752E+03  0.7546771E-02  0.1189745E+00
         21   -1    0    0  503  502  0.00000000000E+00  0.00000000000E+00  0.77910799769E+02  0.77910799769E+02  0.00000000000E+00 0.  1.
          2   -1    0    0  502    0 -0.00000000000E+00 -0.00000000000E+00 -0.10289469138E+04  0.10289469138E+04  0.00000000000E+00 0. -1.
         24    2    1    2    0    0 -0.20689528364E+02 -0.62380169671E+02 -0.28173748691E+03  0.30093856337E+03  0.82877410944E+02 0.  0.
         23    2    1    2    0    0  0.94199605951E+02  0.13472150600E+03 -0.16983252923E+03  0.25337335763E+03  0.91277162726E+02 0.  0.
        -13    1    3    3    0    0 -0.48280657847E+02 -0.61474031423E+02 -0.20856055151E+03  0.22272759619E+03  0.00000000000E+00 0.  1.
         14    1    3    3    0    0  0.27591129483E+02 -0.90613824825E+00 -0.73176935401E+02  0.78210967181E+02  0.00000000000E+00 0. -1.
        -13    1    4    4    0    0  0.11057573011E+03  0.10190432421E+03 -0.12569618164E+03  0.19598727882E+03  0.00000000000E+00 0.  1.
         13    1    4    4    0    0 -0.16376124157E+02  0.32817181785E+02 -0.44136347588E+02  0.57386078810E+02  0.00000000000E+00 0. -1.
         21    1    1    2  503  501  0.29008536782E+01  0.22925840117E+02  0.12460323490E+02  0.26253928441E+02  0.00000000000E+00 0.  1.
          1    1    1    2  501    0 -0.76410931266E+02 -0.95267176443E+02 -0.51192642136E+03  0.52629186409E+03  0.00000000000E+00 0. -1.
<scales pt_clust_5="13000.00000" pt_clust_6="13000.00000" pt_clust_7="13000.00000" pt_clust_8="13000.00000" pt_clust_9="23.10864" pt_clust_10="159.27451"></scales>
<clustering>
<clus scale="   23.109">  1  9  2 -1</clus>
<clus scale="   82.877">  5  6 -1 -1</clus>
<clus scale="   91.277">  7  8 -1 -1</clus>
<clus scale="  103.507">  2  5  1 -1</clus>
<clus scale="  159.275">  1 10  2 -1</clus>
<clus scale="   23.109">  1  5  2 -1</clus>
</clustering>
</event>
<event>
10    4  0.3043429E-005  0.1243114E+03  0.7546771E-02  0.1241762E+00
          4   -1    0    0  503    0 -0.00000000000E+00  0.00000000000E+00  0.72229930116E+03  0.72229930116E+03  0.00000000000E+00 0. -1.
         21   -1    0    0  501  502  0.00000000000E+00 -0.00000000000E+00 -0.47894796938E+02  0.47894796938E+02  0.00000000000E+00 0.  1.
         24    2    1    2    0    0  0.42945103492E+02  0.47229107374E+02  0.29611140318E+03  0.31347999175E+03  0.80702364502E+02 0.  0.
         23    2    1    2    0    0 -0.88969568132E+02 -0.74262905618E+02  0.17996202118E+03  0.23555237355E+03  0.98326132922E+02 0.  0.
        -13    1    3    3    0    0  0.73901825347E+01  0.48194056479E+02  0.25268855112E+03  0.25734954001E+03  0.00000000000E+00 0.  1.
         14    1    3    3    0    0  0.35554920958E+02 -0.96494910465E+00  0.43422852061E+02  0.56130451737E+02  0.00000000000E+00 0. -1.
        -13    1    4    4    0    0 -0.74347001161E+02 -0.44794073192E+02  0.47254225785E+02  0.98827867675E+02  0.00000000000E+00 0.  1.
         13    1    4    4    0    0 -0.14622566971E+02 -0.29468832427E+02  0.13270779539E+03  0.13672450588E+03  0.00000000000E+00 0. -1.
         21    1    1    2  503  502  0.25711524474E+02  0.25287996792E+01  0.64096365248E+01  0.26618804612E+02  0.00000000000E+00 0.  1.
          3    1    1    2  501    0  0.20312940165E+02  0.24504998565E+02  0.19192144334E+03  0.19454292818E+03  0.00000000000E+00 0. -1.
<scales pt_clust_5="13000.00000" pt_clust_6="13000.00000" pt_clust_7="13000.00000" pt_clust_8="13000.00000" pt_clust_9="25.83558" pt_clust_10="32.47219"></scales>
<clustering>
<clus scale="   25.836">  2  9  1 -1</clus>
<clus scale="   32.472">  2 10  1 -1</clus>
<clus scale="   80.702">  5  6 -1 -1</clus>
<clus scale="   98.326">  7  8 -1 -1</clus>
<clus scale="  110.897">  1  5  2 -1</clus>
<clus scale="   25.836">  2  5  1 -1</clus>
</clustering>
</event>
<event>
10    4  0.3043429E-005  0.1501722E+03  0.7546771E-02  0.1228696E+00
         21   -1    0    0  501  502  0.00000000000E+00  0.00000000000E+00  0.24049526866E+03  0.24049526866E+03  0.00000000000E+00 0. -1.
          2   -1    0    0  503    0 -0.00000000000E+00 -0.00000000000E+00 -0.60269050779E+03  0.60269050779E+03  0.00000000000E+00 0. -1.
         24    2    1    2    0    0 -0.16438895834E+02  0.88934288479E+00 -0.17566188732E+03  0.19374201600E+03  0.80048996754E+02 0.  0.
         23    2    1    2    0    0  0.40951729043E+02  0.10503086691E+03  0.14136108571E+02  0.14717953552E+03  0.93559921940E+02 0.  0.
        -11    1    3    3    0    0 -0.14247468910E+02 -0.29880954772E+02 -0.15001763589E+03  0.15362666731E+03  0.00000000000E+00 0.  1.
         12    1    3    3    0    0 -0.21914269240E+01  0.30770297656E+02 -0.25644251422E+02  0.40115348694E+02  0.00000000000E+00 0. -1.
        -13    1    4    4    0    0  0.37767292373E+02  0.34283363903E+02 -0.34223135472E+02  0.61424265688E+02  0.00000000000E+00 0.  1.
         13    1    4    4    0    0  0.31844366699E+01  0.70747503011E+02  0.48359244043E+02  0.85755269830E+02  0.00000000000E+00 0. -1.
         21    1    1    2  503  502 -0.23285060586E+02  0.13046202858E+02  0.13942694269E+03  0.14195869048E+03  0.00000000000E+00 0. -1.
          1    1    1    2  501    0 -0.12277726228E+01 -0.11896641266E+03 -0.34009640308E+03  0.36030553444E+03  0.00000000000E+00 0. -1.
<scales pt_clust_5="13000.00000" pt_clust_6="13000.00000" pt_clust_7="13000.00000" pt_clust_8="13000.00000" pt_clust_9="26.69077" pt_clust_10="117.46587"></scales>
<clustering>
<clus scale="   26.691">  1  9  2 -1</clus>
<clus scale="   80.049">  5  6 -1 -1</clus>
<clus scale="   82.196">  2  5  1 -1</clus>
<clus scale="   93.560">  7  8 -1 -1</clus>
<clus scale="  117.466">  1 10  2 -1</clus>
<clus scale="   26.691">  1  5  2 -1</clus>
</clustering>
</event>
<event>
10    4  0.3043429E-005  0.4416691E+03  0.7546771E-02  0.1030236E+00
          2   -1    0    0  502    0 -0.00000000000E+00  0.00000000000E+00  0.98615993048E+03  0.98615993048E+03  0.00000000000E+00 0. -1.
         21   -1    0    0  503  502  0.00000000000E+00 -0.00000000000E+00 -0.20031438891E+03  0.20031438891E+03  0.00000000000E+00 0. -1.
         24    2    1    2    0    0 -0.21095915173E+03 -0.44883036764E+02  0.33017688038E+03  0.40249466996E+03  0.80417263827E+02 0.  0.
         23    2    1    2    0    0 -0.18895361373E+03  0.40545424434E+02  0.18617410316E+03  0.28331129057E+03  0.90868537434E+02 0.  0.
        -13    1    3    3    0    0 -0.16886505911E+03 -0.45513955755E+02  0.20001151222E+03  0.26569067235E+03  0.00000000000E+00 0.  1.
         14    1    3    3    0    0 -0.42094092624E+02  0.63091899151E+00  0.13016536817E+03  0.13680399761E+03  0.00000000000E+00 0. -1.
        -11    1    4    4    0    0 -0.17533901373E+03  0.79476659526E+01  0.13646397017E+03  0.22232712449E+03  0.00000000000E+00 0. -1.
         11    1    4    4    0    0 -0.13614600002E+02  0.32597758481E+02  0.49710132986E+02  0.60984166082E+02  0.00000000000E+00 0.  1.
         21    1    1    2  503  501  0.23359155220E+02 -0.12229414898E+02 -0.13229486586E+02  0.29499627738E+02  0.00000000000E+00 0. -1.
          1    1    1    2  501    0  0.37655361024E+03  0.16567027228E+02  0.28272404462E+03  0.47116873112E+03  0.00000000000E+00 0. -1.
<scales pt_clust_5="13000.00000" pt_clust_6="13000.00000" pt_clust_7="13000.00000" pt_clust_8="13000.00000" pt_clust_9="26.36681" pt_clust_10="388.98476"></scales>
<clustering>
<clus scale="   26.367">  2  9  1 -1</clus>
<clus scale="   80.417">  5  6 -1 -1</clus>
<clus scale="   90.869">  7  8 -1 -1</clus>
<clus scale="  143.148">  5  7 -1 -1</clus>
<clus scale="  388.985">  2 10  1 -1</clus>
<clus scale="   26.367">  2  5  1 -1</clus>
</clustering>
</event>
<event>
10    4  0.3043429E-005  0.1089656E+03  0.7546771E-02  0.1266177E+00
          4   -1    0    0  502    0 -0.00000000000E+00  0.00000000000E+00  0.13775063621E+03  0.13775063621E+03  0.00000000000E+00 0. -1.
         21   -1    0    0  503  502  0.00000000000E+00 -0.00000000000E+00 -0.48586199967E+03  0.48586199967E+03  0.00000000000E+00 0.  1.
         24    2    1    2    0    0  0.32181654894E+02  0.62406694318E+02  0.25746591777E+02  0.11005967152E+03  0.80746454408E+02 0.  0.
         23    2    1    2    0    0 -0.73633036118E+02  0.19762482709E+01 -0.33115680358E+02  0.12095742152E+03  0.90046210188E+02 0.  0.
        -11    1    3    3    0    0 -0.42927235535E+01  0.68342108189E+02  0.76207279199E+01  0.68899540792E+02  0.00000000000E+00 0.  1.
         12    1    3    3    0    0  0.36474378448E+02 -0.59354138715E+01  0.18125863857E+02  0.41160130728E+02  0.00000000000E+00 0. -1.
        -13    1    4    4    0    0 -0.29433078367E+02  0.20212361257E+02 -0.57193042107E+02  0.67423213474E+02  0.00000000000E+00 0.  1.
         13    1    4    4    0    0 -0.44199957751E+02 -0.18236112986E+02  0.24077361749E+02  0.53534208043E+02  0.00000000000E+00 0. -1.
         21    1    1    2  503  501  0.43600147435E+02 -0.74324882458E+00 -0.32377428681E+03  0.32669758811E+03  0.00000000000E+00 0.  1.
          3    1    1    2  501    0 -0.21487662110E+01 -0.63639693764E+02 -0.16967988073E+02  0.65897954732E+02  0.00000000000E+00 0. -1.
<scales pt_clust_5="13000.00000" pt_clust_6="13000.00000" pt_clust_7="13000.00000" pt_clust_8="13000.00000" pt_clust_9="43.60648" pt_clust_10="64.47649"></scales>
<clustering>
<clus scale="   43.606">  2  9  1 -1</clus>
<clus scale="   64.476">  2 10  1 -1</clus>
<clus scale="   80.746">  5  6 -1 -1</clus>
<clus scale="   90.046">  7  8 -1 -1</clus>
<clus scale="  101.416">  1  5  2 -1</clus>
<clus scale="   43.606">  2  5  1 -1</clus>
</clustering>
</event>
<event>
10    4  0.3043429E-005  0.1789419E+03  0.7546771E-02  0.1189333E+00
         21   -1    0    0  501  502  0.00000000000E+00  0.00000000000E+00  0.20444687431E+03  0.20444687431E+03  0.00000000000E+00 0.  1.
          2   -1    0    0  503    0 -0.00000000000E+00 -0.00000000000E+00 -0.45044481337E+03  0.45044481337E+03  0.00000000000E+00 0. -1.
         24    2    1    2    0    0  0.31285492988E+02  0.65214183716E+02 -0.42566854889E+02  0.12158426768E+03  0.87972297821E+02 0.  0.
         23    2    1    2    0    0  0.16603361136E+03 -0.17886990667E+02 -0.10980312144E+03  0.21983466878E+03  0.91561190375E+02 0.  0.
        -13    1    3    3    0    0  0.58126502243E+01  0.55208885192E+02  0.15290054597E+02  0.57581192037E+02  0.00000000000E+00 0.  1.
         14    1    3    3    0    0  0.25472842764E+02  0.10005298524E+02 -0.57856909486E+02  0.64003075647E+02  0.00000000000E+00 0. -1.
        -13    1    4    4    0    0  0.72245862282E+02  0.31733817737E+02 -0.73088854721E+02  0.10755687095E+03  0.00000000000E+00 0. -1.
         13    1    4    4    0    0  0.93787749074E+02 -0.49620808404E+02 -0.36714266720E+02  0.11227779782E+03  0.00000000000E+00 0.  1.
         21    1    1    2  503  502 -0.11756098139E+03 -0.65663675648E+02  0.53677165505E+02  0.14496047993E+03  0.00000000000E+00 0. -1.
          1    1    1    2  501    0 -0.79758122951E+02  0.18336482599E+02 -0.14730512823E+03  0.16851227129E+03  0.00000000000E+00 0. -1.
<scales pt_clust_5="13000.00000" pt_clust_6="13000.00000" pt_clust_7="13000.00000" pt_clust_8="13000.00000" pt_clust_9="153.74244" pt_clust_10="81.83881"></scales>
<clustering>
<clus scale="   81.839">  1 10  2 -1</clus>
<clus scale="   87.972">  5  6 -1 -1</clus>
<clus scale="   91.561">  7  8 -1 -1</clus>
<clus scale="  112.780">  2  5  1 -1</clus>
<clus scale="  153.742">  1  9  2 -1</clus>
<clus scale="   81.839">  1  5  2 -1</clus>
</clustering>
</event>
<event>
10    4  0.3043429E-005  0.1681010E+03  0.7546771E-02  0.1183953E+00
          2   -1    0    0  503    0 -0.00000000000E+00  0.00000000000E+00  0.21401760677E+04  0.21401760677E+04  0.00000000000E+00 0. -1.
         21   -1    0    0  501  502  0.00000000000E+00 -0.00000000000E+00 -0.29229723399E+02  0.29229723399E+02  0.00000000000E+00 0.  1.
         24    2    1    2    0    0  0.31353266743E+02  0.13858141138E+03  0.80629496704E+03  0.82268568452E+03  0.80698988348E+02 0.  0.
         23    2    1    2    0    0 -0.98200831456E+02 -0.84199392270E+02  0.57261550873E+03  0.59656247434E+03  0.10613823056E+03 0.  0.
        -13    1    3    3    0    0  0.23482665171E+02  0.14864909173E+03  0.75148484986E+03  0.76640555035E+03  0.00000000000E+00 0.  1.
         14    1    3    3    0    0  0.78706015720E+01 -0.10067680352E+02  0.54810117175E+02  0.56280134164E+02  0.00000000000E+00 0. -1.
        -11    1    4    4    0    0  0.10439132783E+02 -0.18688408017E+02  0.19080454198E+02  0.28675700861E+02  0.00000000000E+00 0. -1.
         11    1    4    4    0    0 -0.10863996424E+03 -0.65510984253E+02  0.55353505454E+03  0.56788677347E+03  0.00000000000E+00 0.  1.
         21    1    1    2  503  502  0.16044890300E+02  0.25419277387E+02  0.32561202063E+02  0.44314896450E+02  0.00000000000E+00 0. -1.
          1    1    1    2  501    0  0.50802674414E+02 -0.79801296496E+02  0.69947466647E+03  0.70584273580E+03  0.00000000000E+00 0. -1.
<scales pt_clust_5="13000.00000" pt_clust_6="13000.00000" pt_clust_7="13000.00000" pt_clust_8="13000.00000" pt_clust_9="30.05958" pt_clust_10="92.92520"></scales>
<clustering>
<clus scale="   30.060">  2  9  1 -1</clus>
<clus scale="   80.699">  5  6 -1 -1</clus>
<clus scale="   92.925">  2 10  1 -1</clus>
<clus scale="  106.138">  7  8 -1 -1</clus>
<clus scale="  153.313">  1  5  2 -1</clus>
<clus scale="   30.060">  2  5  1 -1</clus>
</clustering>
</event>
<event>
10    4  0.3043429E-005  0.2342845E+03  0.7546771E-02  0.1141051E+00
          2   -1    0    0  503    0 -0.00000000000E+00  0.00000000000E+00  0.18067012058E+04  0.18067012058E+04  0.00000000000E+00 0. -1.
         21   -1    0    0  501  502  0.00000000000E+00 -0.00000000000E+00 -0.19701625913E+03  0.19701625913E+03  0.00000000000E+00 0.  1.
         24    2    1    2    0    0 -0.12953520995E+03  0.26107781576E+02 -0.34878746791E+02  0.15835079811E+03  0.79984132226E+02 0.  0.
         23    2    1    2    0    0 -0.81585845669E+02 -0.19693347288E+03  0.54415725717E+03  0.59162524116E+03  0.92055757558E+02 0.  0.
        -11    1    3    3    0    0 -0.11996941048E+03  0.39602773694E+02 -0.50065127724E+02  0.13589538679E+03  0.00000000000E+00 0.  1.
         12    1    3    3    0    0 -0.95657994659E+01 -0.13494992118E+02  0.15186380933E+02  0.22455411320E+02  0.00000000000E+00 0. -1.
        -11    1    4    4    0    0 -0.96919866487E+02 -0.12632220365E+03  0.35214002223E+03  0.38646261774E+03  0.00000000000E+00 0.  1.
         11    1    4    4    0    0  0.15334020817E+02 -0.70611269231E+02  0.19201723494E+03  0.20516262342E+03  0.00000000000E+00 0. -1.
         21    1    1    2  503  502  0.83610736884E+01  0.22538945370E+02 -0.60954816621E+02  0.65524051164E+02  0.00000000000E+00 0.  1.
          1    1    1    2  501    0  0.20275998193E+03  0.14828674594E+03  0.11613612529E+04  0.11882173745E+04  0.00000000000E+00 0. -1.
<scales pt_clust_5="13000.00000" pt_clust_6="13000.00000" pt_clust_7="13000.00000" pt_clust_8="13000.00000" pt_clust_9="24.03979" pt_clust_10="215.44148"></scales>
<clustering>
<clus scale="   24.040">  2  9  1 -1</clus>
<clus scale="   79.984">  5  6 -1 -1</clus>
<clus scale="   92.056">  7  8 -1 -1</clus>
<clus scale="  153.119">  1  5  2 -1</clus>
<clus scale="  215.441">  2 10  1 -1</clus>
<clus scale="   24.040">  2  5  1 -1</clus>
</clustering>
</event>
<event>
10    4  0.3043429E-005  0.1355705E+03  0.7546771E-02  0.1242573E+00
         21   -1    0    0  503  502  0.00000000000E+00  0.00000000000E+00  0.25204271079E+03  0.25204271079E+03  0.00000000000E+00 0.  1.
         -3   -1    0    0    0  501 -0.00000000000E+00 -0.00000000000E+00 -0.42484912386E+03  0.42484912386E+03  0.00000000000E+00 0.  1.
         24    2    1    2    0    0  0.23592062103E+02  0.12958555449E+02 -0.32984903745E+03  0.34036189113E+03  0.79506728471E+02 0.  0.
         23    2    1    2    0    0  0.75913183635E+02 -0.14388257862E+02  0.81754386618E+00  0.11932017771E+03  0.90921961140E+02 0.  0.
        -13    1    3    3    0    0  0.28085548009E+02  0.42654721341E+02 -0.24731318857E+03  0.25253125846E+03  0.00000000000E+00 0.  1.
         14    1    3    3    0    0 -0.44934859054E+01 -0.29696165892E+02 -0.82535848878E+02  0.87830632665E+02  0.00000000000E+00 0. -1.
        -11    1    4    4    0    0  0.41437627368E+02  0.36414208869E+02 -0.12346644912E+02  0.56528852898E+02  0.00000000000E+00 0.  1.
         11    1    4    4    0    0  0.34475556267E+02 -0.50802466731E+02  0.13164188778E+02  0.62791324815E+02  0.00000000000E+00 0. -1.
         21    1    1    2  503  501  0.24873967315E+02  0.16655827496E+01  0.15315873094E+02  0.29258577965E+02  0.00000000000E+00 0.  1.
         -4    1    1    2    0  502 -0.12437921305E+03 -0.23588033699E+00  0.14090920742E+03  0.18795118785E+03  0.00000000000E+00 0.  1.
<scales pt_clust_5="13000.00000" pt_clust_6="13000.00000" pt_clust_7="13000.00000" pt_clust_8="13000.00000" pt_clust_9="24.92967" pt_clust_10="100.56117"></scales>
<clustering>
<clus scale="   24.930">  1  9  2 -1</clus>
<clus scale="   79.507">  5  6 -1 -1</clus>
<clus scale="   84.107">  2  5  1 -1</clus>
<clus scale="   90.922">  7  8 -1 -1</clus>
<clus scale="  100.561">  1 10  2 -1</clus>
<clus scale="   24.930">  1  5  2 -1</clus>
</clustering>
</event>
<event>
10    4  0.3043429E-005  0.1758706E+03  0.7546771E-02  0.1202302E+00
          2   -1    0    0  502    0 -0.00000000000E+00  0.00000000000E+00  0.11408169916E+04  0.11408169916E+04  0.00000000000E+00 0. -1.
         21   -1    0    0  503  502  0.00000000000E+00 -0.00000000000E+00 -0.58914380561E+02  0.58914380561E+02  0.00000000000E+00 0. -1.
         24    2    1    2    0    0 -0.29574234164E+01 -0.37904418554E+02  0.50322454194E+03  0.51120405002E+03  0.81542319338E+02 0.  0.
         23    2    1    2    0    0 -0.12786829233E+03  0.82079179316E+02  0.36112862211E+03  0.40231138450E+03  0.91396261001E+02 0.  0.
        -13    1    3    3    0    0  0.78710186890E+00 -0.48151250666E+02  0.14449761970E+03  0.15231127525E+03  0.00000000000E+00 0.  1.
         14    1    3    3    0    0 -0.37445252853E+01  0.10246832111E+02  0.35872692224E+03  0.35889277476E+03  0.00000000000E+00 0. -1.
        -11    1    4    4    0    0 -0.10021137638E+03  0.85424488873E+02  0.34685417116E+03  0.37100873212E+03  0.00000000000E+00 0. -1.
         11    1    4    4    0    0 -0.27656915949E+02 -0.33453095572E+01  0.14274450950E+02  0.31302652376E+02  0.00000000000E+00 0.  1.
         21    1    1    2  503  501 -0.11989622685E+02  0.16756317305E+02  0.21912096175E+01  0.20720198391E+02  0.00000000000E+00 0. -1.
          1    1    1    2  501    0  0.14281533843E+03 -0.60931078066E+02  0.21535823740E+03  0.26549573929E+03  0.00000000000E+00 0. -1.
<scales pt_clust_5="13000.00000" pt_clust_6="13000.00000" pt_clust_7="13000.00000" pt_clust_8="13000.00000" pt_clust_9="20.60401" pt_clust_10="150.25709"></scales>
<clustering>
<clus scale="   20.604">  2  9  1 -1</clus>
<clus scale="   81.542">  5  6 -1 -1</clus>
<clus scale="   89.448">  1  5  2 -1</clus>
<clus scale="   91.396">  7  8 -1 -1</clus>
<clus scale="  150.257">  2 10  1 -1</clus>
<clus scale="   20.604">  2  5  1 -1</clus>
</clustering>
</event>
<event>
10    4  0.3043429E-005  0.1003983E+03  0.7546771E-02  0.1285353E+00
         21   -1    0    0  503  502  0.00000000000E+00  0.00000000000E+00  0.25107642646E+03  0.25107642646E+03  0.00000000000E+00 0.  1.
          2   -1    0    0  502    0 -0.00000000000E+00 -0.00000000000E+00 -0.34526351346E+03  0.34526351346E+03  0.00000000000E+00 0. -1.
         24    2    1    2    0    0 -0.26045105229E+02 -0.80130946569E+01 -0.10964438878E+03  0.13854629927E+03  0.80191195647E+02 0.  0.
         23    2    1    2    0    0  0.50088046607E+02  0.81298555782E+02 -0.44770028429E+02  0.13989761672E+03  0.91916919727E+02 0.  0.
        -11    1    3    3    0    0  0.15171750046E+02 -0.33067124187E+02 -0.50118404562E+02  0.61931180978E+02  0.00000000000E+00 0.  1.
         12    1    3    3    0    0 -0.41216855275E+02  0.25054029530E+02 -0.59525984218E+02  0.76615118296E+02  0.00000000000E+00 0. -1.
        -11    1    4    4    0    0  0.71715921855E+02  0.84317661972E+02 -0.38067617728E+02  0.11705462437E+03  0.00000000000E+00 0.  1.
         11    1    4    4    0    0 -0.21627875248E+02 -0.30191061897E+01 -0.67024107012E+01  0.22842992342E+02  0.00000000000E+00 0. -1.
         21    1    1    2  503  501  0.28342083967E+02 -0.10356480855E+02  0.17462630388E+03  0.17721421056E+03  0.00000000000E+00 0.  1.
          1    1    1    2  501    0 -0.52385025346E+02 -0.62928980271E+02 -0.11439897367E+03  0.14068181337E+03  0.00000000000E+00 0. -1.
<scales pt_clust_5="13000.00000" pt_clust_6="13000.00000" pt_clust_7="13000.00000" pt_clust_8="13000.00000" pt_clust_9="30.17500" pt_clust_10="80.25455"></scales>
<clustering>
<clus scale="   30.175">  1  9  2 -1</clus>
<clus scale="   80.191">  5  6 -1 -1</clus>
<clus scale="   80.255">  1 10  2 -1</clus>
<clus scale="   89.787">  2  5  1 -1</clus>
<clus scale="   91.917">  7  8 -1 -1</clus>
<clus scale="   30.175">  1  5  2 -1</clus>
</clustering>
</event>
<event>
10    4  0.3043429E-005  0.2061969E+03  0.7546771E-02  0.1171925E+00
          2   -1    0    0  502    0 -0.00000000000E+00  0.00000000000E+00  0.17533448591E+04  0.17533448591E+04  0.00000000000E+00 0. -1.
         21   -1    0    0  503  502  0.00000000000E+00 -0.00000000000E+00 -0.70681491232E+02  0.70681491232E+02  0.00000000000E+00 0.  1.
         24    2    1    2    0    0  0.35887291840E+02 -0.76137232457E+02  0.16567712214E+03  0.20263286436E+03  0.80786094319E+02 0.  0.
         23    2    1    2    0    0 -0.12951041170E+03 -0.97893028490E+02  0.93659832749E+03  0.95503365599E+03  0.92286863904E+02 0.  0.
        -11    1    3    3    0    0  0.47219261414E+01 -0.47655377548E+02  0.21668357881E+02  0.52562813176E+02  0.00000000000E+00 0.  1.
         12    1    3    3    0    0  0.31165365699E+02 -0.28481854909E+02  0.14400876426E+03  0.15007005118E+03  0.00000000000E+00 0. -1.
        -13    1    4    4    0    0 -0.74274356699E+02 -0.38894190163E+01  0.29465358623E+03  0.30389561287E+03  0.00000000000E+00 0.  1.
         13    1    4    4    0    0 -0.55236055005E+02 -0.94003609474E+02  0.64194474126E+03  0.65113804312E+03  0.00000000000E+00 0. -1.
         21    1    1    2  503  501 -0.32729836574E+02  0.15640732370E+02 -0.13619600871E+02  0.38747493327E+02  0.00000000000E+00 0.  1.
          1    1    1    2  501    0  0.12635295644E+03  0.15838952858E+03  0.59400751905E+03  0.62761233660E+03  0.00000000000E+00 0. -1.
<scales pt_clust_5="13000.00000" pt_clust_6="13000.00000" pt_clust_7="13000.00000" pt_clust_8="13000.00000" pt_clust_9="36.27499" pt_clust_10="184.39170"></scales>
<clustering>
<clus scale="   36.275">  2  9  1 -1</clus>
<clus scale="   80.786">  5  6 -1 -1</clus>
<clus scale="   92.287">  7  8 -1 -1</clus>
<clus scale="  108.966">  1  5  2 -1</clus>
<clus scale="  184.392">  2 10  1 -1</clus>
<clus scale="   36.275">  2  5  1 -1</clus>
</clustering>
</event>
<event>
10    4  0.3043429E-005  0.1502094E+03  0.7546771E-02  0.1201913E+00
         21   -1    0    0  501  502  0.00000000000E+00  0.00000000000E+00  0.94836125236E+02  0.94836125236E+02  0.00000000000E+00 0. -1.
          2   -1    0    0  503    0 -0.00000000000E+00 -0.00000000000E+00 -0.61992759344E+03  0.61992759344E+03  0.00000000000E+00 0. -1.
         24    2    1    2    0    0 -0.92815082018E+02 -0.83675822341E+02 -0.25716987117E+03  0.29699136750E+03  0.80319655337E+02 0.  0.
         23    2    1    2    0    0 -0.39374226353E+01  0.14501462283E+03 -0.14385322347E+03  0.22313865509E+03  0.89734972910E+02 0.  0.
        -13    1    3    3    0    0  0.52666947530E+01 -0.40079950377E+02 -0.57299181676E+02  0.70123724350E+02  0.00000000000E+00 0.  1.
         14    1    3    3    0    0 -0.98081776771E+02 -0.43595871964E+02 -0.19987068950E+03  0.22686764315E+03  0.00000000000E+00 0. -1.
        -13    1    4    4    0    0  0.38690067754E+02  0.58844033117E+02 -0.37544599808E+02  0.79806882855E+02  0.00000000000E+00 0.  1.
         13    1    4    4    0    0 -0.42627490389E+02  0.86170589709E+02 -0.10630862367E+03  0.14333177224E+03  0.00000000000E+00 0. -1.
         21    1    1    2  503  502  0.14448291902E+02 -0.54122983210E+02 -0.15348162600E+02  0.58082842093E+02  0.00000000000E+00 0. -1.
          1    1    1    2  501    0  0.82304212751E+02 -0.72158172744E+01 -0.10872021096E+03  0.13655085399E+03  0.00000000000E+00 0. -1.
<scales pt_clust_5="13000.00000" pt_clust_6="13000.00000" pt_clust_7="13000.00000" pt_clust_8="13000.00000" pt_clust_9="56.01830" pt_clust_10="86.81611"></scales>
<clustering>
<clus scale="   56.018">  1  9  2 -1</clus>
<clus scale="   80.320">  5  6 -1 -1</clus>
<clus scale="   86.816">  1 10  2 -1</clus>
<clus scale="   89.735">  7  8 -1 -1</clus>
<clus scale="  144.782">  2  5  1 -1</clus>
<clus scale="   56.018">  1  5  2 -1</clus>
</clustering>
</event>
<event>
10    4  0.3043429E-005  0.3645388E+03  0.7546771E-02  0.1057049E+00
         21   -1    0    0  503  502  0.00000000000E+00  0.00000000000E+00  0.73711245402E+03  0.73711245402E+03  0.00000000000E+00 0.  1.
          2   -1    0    0  502    0 -0.00000000000E+00 -0.00000000000E+00 -0.38937874661E+03  0.38937874661E+03  0.00000000000E+00 0. -1.
         23    2    1    2    0    0  0.43599559737E+02 -0.33078147717E+03 -0.61248710032E+02  0.35142496400E+03  0.91819353051E+02 0.  0.
         24    2    1    2    0    0 -0.14219866603E+03  0.39861536209E+03  0.38559978372E+03  0.57826617019E+03  0.81178216699E+02 0.  0.
        -11    1    4    4    0    0 -0.18259464496E+02  0.16797616633E+03  0.15841167803E+03  0.23161101060E+03  0.00000000000E+00 0.  1.
         12    1    4    4    0    0 -0.12393920154E+03  0.23063919576E+03  0.22718810570E+03  0.34665515959E+03  0.00000000000E+00 0. -1.
        -11    1    3    3    0    0 -0.22517274652E+02 -0.76132437934E+02 -0.35843941461E+02  0.87108919768E+02  0.00000000000E+00 0.  1.
         11    1    3    3    0    0  0.66116834389E+02 -0.25464903924E+03 -0.25404768571E+02  0.26431604424E+03  0.00000000000E+00 0. -1.
         21    1    1    2  503  501  0.28367095146E+02 -0.46733165392E+02  0.84968890526E+02  0.10103659333E+03  0.00000000000E+00 0.  1.
          1    1    1    2  501    0  0.70232011150E+02 -0.21100719523E+02 -0.61586256808E+02  0.95763473111E+02  0.00000000000E+00 0. -1.
<scales pt_clust_5="13000.00000" pt_clust_6="13000.00000" pt_clust_7="13000.00000" pt_clust_8="13000.00000" pt_clust_9="54.66883" pt_clust_10="74.41721"></scales>
<clustering>
<clus scale="   54.669">  1  9  2 -1</clus>
<clus scale="   74.417">  1 10  2 -1</clus>
<clus scale="   81.178">  5  6 -1 -1</clus>
<clus scale="   91.819">  7  8 -1 -1</clus>
<clus scale="  362.005">  1  5  2 -1</clus>
<clus scale="   54.669">  1  5  2 -1</clus>
</clustering>
</event>
<event>
10    4  0.3043429E-005  0.1474503E+03  0.7546771E-02  0.1216880E+00
          2   -1    0    0  502    0 -0.00000000000E+00  0.00000000000E+00  0.12238050824E+04  0.12238050824E+04  0.00000000000E+00 0. -1.
         21   -1    0    0  503  502  0.00000000000E+00 -0.00000000000E+00 -0.14846620251E+03  0.14846620251E+03  0.00000000000E+00 0. -1.
         24    2    1    2    0    0  0.17047562775E+02 -0.77299898566E+02  0.72559682342E+03  0.73431578140E+03  0.80392928417E+02 0.  0.
         23    2    1    2    0    0  0.74629690534E+02  0.42581325111E+02  0.75579433163E+02  0.14645484387E+03  0.91400276901E+02 0.  0.
        -11    1    3    3    0    0 -0.21335134876E+02 -0.33535979494E+01  0.65189759203E+02  0.68674153103E+02  0.00000000000E+00 0.  1.
         12    1    3    3    0    0  0.38382697650E+02 -0.73946300617E+02  0.66040706422E+03  0.66564162830E+03  0.00000000000E+00 0. -1.
        -13    1    4    4    0    0  0.88617413490E+02  0.14208572113E+02  0.38345851634E+02  0.97597816742E+02  0.00000000000E+00 0. -1.
         13    1    4    4    0    0 -0.13987722956E+02  0.28372752998E+02  0.37233581529E+02  0.48857027126E+02  0.00000000000E+00 0.  1.
         21    1    1    2  503  501  0.36772235243E+02  0.37794728318E+02 -0.90567744756E+02  0.10480054944E+03  0.00000000000E+00 0. -1.
          1    1    1    2  501    0 -0.12844948855E+03 -0.30761548627E+01  0.36473036809E+03  0.38670011022E+03  0.00000000000E+00 0. -1.
<scales pt_clust_5="13000.00000" pt_clust_6="13000.00000" pt_clust_7="13000.00000" pt_clust_8="13000.00000" pt_clust_9="52.73176" pt_clust_10="115.70471"></scales>
<clustering>
<clus scale="   52.732">  2  9  1 -1</clus>
<clus scale="   80.393">  5  6 -1 -1</clus>
<clus scale="   91.400">  7  8 -1 -1</clus>
<clus scale="  111.155">  1  5  2 -1</clus>
<clus scale="  115.705">  2 10  1 -1</clus>
<clus scale="   52.732">  2  5  1 -1</clus>
</clustering>
</event>
<event>
10    4  0.3043429E-005  0.2955033E+03  0.7546771E-02  0.1104794E+00
         21   -1    0    0  501  502  0.00000000000E+00  0.00000000000E+00  0.41093245780E+03  0.41093245780E+03  0.00000000000E+00 0.  1.
         -3   -1    0    0    0  501 -0.00000000000E+00 -0.00000000000E+00 -0.41053292003E+03  0.41053292003E+03  0.00000000000E+00 0.  1.
         24    2    1    2    0    0 -0.12251567247E+03  0.12553734039E+03 -0.17184808485E+02  0.19304894389E+03  0.78758258365E+02 0.  0.
         23    2    1    2    0    0  0.15403344811E+03 -0.33015600034E+03  0.32439641703E+02  0.37718453177E+03  0.92122488872E+02 0.  0.
        -13    1    3    3    0    0 -0.13167014598E+03  0.10321016604E+03 -0.21018153597E+02  0.16861532699E+03  0.00000000000E+00 0.  1.
         14    1    3    3    0    0  0.91544735123E+01  0.22327174352E+02  0.38333451119E+01  0.24433616895E+02  0.00000000000E+00 0. -1.
        -13    1    4    4    0    0  0.14215921747E+03 -0.26209431549E+03  0.57558425380E+02  0.30367029103E+03  0.00000000000E+00 0.  1.
         13    1    4    4    0    0  0.11874230643E+02 -0.68061684853E+02 -0.25118783677E+02  0.73514240741E+02  0.00000000000E+00 0. -1.
         21    1    1    2  503  502  0.11661654400E+02 -0.17363993084E+02  0.10970224737E+02  0.23618811781E+02  0.00000000000E+00 0. -1.
         -4    1    1    2    0  503 -0.43179430045E+02  0.22198265303E+03 -0.25825520187E+02  0.22761309039E+03  0.00000000000E+00 0.  1.
<scales pt_clust_5="13000.00000" pt_clust_6="13000.00000" pt_clust_7="13000.00000" pt_clust_8="13000.00000" pt_clust_9="20.91656" pt_clust_10="280.77688"></scales>
<clustering>
<clus scale="   20.917">  1  9  2 -1</clus>
<clus scale="   78.758">  5  6 -1 -1</clus>
<clus scale="   92.122">  7  8 -1 -1</clus>
<clus scale="  188.102">  2  5  1 -1</clus>
<clus scale="  280.777">  1 10  2 -1</clus>
<clus scale="   20.917">  1  5  2 -1</clus>
</clustering>
</event>
<event>
10    4  0.3043429E-005  0.3585322E+03  0.7546771E-02  0.1059498E+00
         21   -1    0    0  501  502  0.00000000000E+00  0.00000000000E+00  0.19544658142E+03  0.19544658142E+03  0.00000000000E+00 0.  1.
          2   -1    0    0  503    0 -0.00000000000E+00 -0.00000000000E+00 -0.15563176294E+04  0.15563176294E+04  0.00000000000E+00 0. -1.
         23    2    1    2    0    0  0.28888594001E+03  0.19166055932E+03 -0.11761443275E+04  0.12295917314E+04  0.91605079225E+02 0.  0.
         24    2    1    2    0    0 -0.27982374742E+03 -0.20475877305E+03 -0.23697022426E+03  0.42709445627E+03  0.77635704635E+02 0.  0.
        -11    1    4    4    0    0 -0.19154498457E+03 -0.16932231685E+03 -0.14096408058E+03  0.29194246028E+03  0.00000000000E+00 0.  1.
         12    1    4    4    0    0 -0.88278762849E+02 -0.35436456194E+02 -0.96006143679E+02  0.13515199600E+03  0.00000000000E+00 0. -1.
        -13    1    3    3    0    0  0.21367190329E+03  0.15203819275E+03 -0.10028127956E+04  0.10365349957E+04  0.00000000000E+00 0. -1.
         13    1    3    3    0    0  0.75214036723E+02  0.39622366562E+02 -0.17333153184E+03  0.19305673566E+03  0.00000000000E+00 0.  1.
         21    1    1    2  503  502 -0.25931389000E+02  0.30994767944E+02  0.57154946789E+02  0.69998575113E+02  0.00000000000E+00 0. -1.
          1    1    1    2  501    0  0.16869196412E+02 -0.17896554213E+02 -0.49114430254E+01  0.25079448018E+02  0.00000000000E+00 0. -1.
<scales pt_clust_5="13000.00000" pt_clust_6="13000.00000" pt_clust_7="13000.00000" pt_clust_8="13000.00000" pt_clust_9="31.99510" pt_clust_10="24.59383"></scales>
<clustering>
<clus scale="   24.594">  1 10  2 -1</clus>
<clus scale="   31.995">  1  9  2 -1</clus>
<clus scale="   77.636">  5  6 -1 -1</clus>
<clus scale="   91.605">  7  8 -1 -1</clus>
<clus scale="  355.220">  1  5  2 -1</clus>
<clus scale="   24.594">  1  5  2 -1</clus>
</clustering>
</event>
<event>
10    4  0.3043429E-005  0.1468931E+03  0.7546771E-02  0.1230236E+00
          2   -1    0    0  503    0 -0.00000000000E+00  0.00000000000E+00  0.60133939265E+03  0.60133939265E+03  0.00000000000E+00 0. -1.
         21   -1    0    0  501  502  0.00000000000E+00 -0.00000000000E+00 -0.13585686223E+03  0.13585686223E+03  0.00000000000E+00 0. -1.
         24    2    1    2    0    0  0.25017398584E+02 -0.10258031455E+02 -0.21833274019E+02  0.87774807489E+02  0.80601659624E+02 0.  0.
         23    2    1    2    0    0 -0.10773538361E+03 -0.25028739998E+02  0.17072924147E+01  0.15121507923E+03  0.10310060443E+03 0.  0.
        -11    1    3    3    0    0  0.18980247905E+02 -0.35951810084E+02  0.14240647710E+02  0.43076426338E+02  0.00000000000E+00 0.  1.
         12    1    3    3    0    0  0.60371506782E+01  0.25693778629E+02 -0.36073921729E+02  0.44698381151E+02  0.00000000000E+00 0. -1.
        -11    1    4    4    0    0 -0.39783585767E+02  0.40123814768E+02 -0.56661132695E+01  0.56786961950E+02  0.00000000000E+00 0.  1.
         11    1    4    4    0    0 -0.67951797841E+02 -0.65152554765E+02  0.73734056842E+01  0.94428117283E+02  0.00000000000E+00 0. -1.
         21    1    1    2  503  502  0.12497746115E+02  0.25108279891E+02  0.54453222853E+02  0.61251717169E+02  0.00000000000E+00 0.  1.
          1    1    1    2  501    0  0.70220238909E+02  0.10178491561E+02  0.43115528917E+03  0.43695465099E+03  0.00000000000E+00 0. -1.
<scales pt_clust_5="13000.00000" pt_clust_6="13000.00000" pt_clust_7="13000.00000" pt_clust_8="13000.00000" pt_clust_9="28.04674" pt_clust_10="104.63207"></scales>
<clustering>
<clus scale="   28.047">  1  9  2 -1</clus>
<clus scale="   80.602">  5  6 -1 -1</clus>
<clus scale="   85.072">  1  5  2 -1</clus>
<clus scale="  103.101">  7  8 -1 -1</clus>
<clus scale="  104.632">  2 10  1 -1</clus>
<clus scale="  104.632">  2  5  1 -1</clus>
</clustering>
</event>
<event>
10    4  0.3043429E-005  0.1636954E+03  0.7546771E-02  0.1206139E+00
         21   -1    0    0  503  502  0.00000000000E+00  0.00000000000E+00  0.28467694271E+03  0.28467694271E+03  0.00000000000E+00 0.  1.
         -1   -1    0    0    0  501 -0.00000000000E+00 -0.00000000000E+00 -0.21212189006E+03  0.21212189006E+03  0.00000000000E+00 0.  1.
         24    2    1    2    0    0  0.55077823438E+02 -0.10209827982E+02 -0.51441953107E+02  0.11164352891E+03  0.81732464696E+02 0.  0.
         23    2    1    2    0    0  0.11140867989E+03 -0.44788605118E+02  0.58936705132E+02  0.15402928195E+03  0.76377819965E+02 0.  0.
        -13    1    3    3    0    0  0.18763559026E+02 -0.45023641721E+02 -0.25717505006E+02  0.55141540828E+02  0.00000000000E+00 0.  1.
         14    1    3    3    0    0  0.36314264412E+02  0.34813813739E+02 -0.25724448100E+02  0.56501988079E+02  0.00000000000E+00 0. -1.
        -11    1    4    4    0    0  0.81212101181E+01 -0.36174541427E+02  0.25973200905E+02  0.45267633763E+02  0.00000000000E+00 0. -1.
         11    1    4    4    0    0  0.10328746977E+03 -0.86140636912E+01  0.32963504228E+02  0.10876164819E+03  0.00000000000E+00 0.  1.
         21    1    1    2  503  501  0.14100952876E+02  0.36076907569E+02  0.15583688235E+01  0.38766075957E+02  0.00000000000E+00 0.  1.
         -2    1    1    2    0  502 -0.18058745621E+03  0.18921525532E+02  0.63501931800E+02  0.19235994596E+03  0.00000000000E+00 0.  1.
<scales pt_clust_5="13000.00000" pt_clust_6="13000.00000" pt_clust_7="13000.00000" pt_clust_8="13000.00000" pt_clust_9="38.73474" pt_clust_10="144.78483"></scales>
<clustering>
<clus scale="   38.735">  2  9  1 -1</clus>
<clus scale="   76.378">  7  8 -1 -1</clus>
<clus scale="   81.732">  5  6 -1 -1</clus>
<clus scale="  102.120">  2  5  1 -1</clus>
<clus scale="  144.785">  1 10  2 -1</clus>
<clus scale="  144.785">  1  5  2 -1</clus>
</clustering>
</event>
<event>
10    4  0.3043429E-005  0.1809597E+03  0.7546771E-02  0.1188321E+00
          2   -1    0    0  503    0 -0.00000000000E+00  0.00000000000E+00  0.18264387605E+03  0.18264387605E+03  0.00000000000E+00 0. -1.
         21   -1    0    0  501  502  0.00000000000E+00 -0.00000000000E+00 -0.36793813969E+03  0.36793813969E+03  0.00000000000E+00 0.  1.
         24    2    1    2    0    0  0.72879567240E+02  0.16142855902E+02 -0.79107901987E+01  0.10967870557E+03  0.79967585532E+02 0.  0.
         23    2    1    2    0    0 -0.40540408678E+02 -0.14512092666E+03 -0.11433900059E+03  0.21029339902E+03  0.91903745971E+02 0.  0.
        -13    1    3    3    0    0  0.21016743729E+01  0.30963670836E+02 -0.19193978347E+02  0.36490748849E+02  0.00000000000E+00 0.  1.
         14    1    3    3    0    0  0.70777892867E+02 -0.14820814933E+02  0.11283188148E+02  0.73187956719E+02  0.00000000000E+00 0. -1.
        -11    1    4    4    0    0 -0.36766499611E+02 -0.12512831924E+03 -0.13035935156E+03  0.18439748455E+03  0.00000000000E+00 0.  1.
         11    1    4    4    0    0 -0.37739090675E+01 -0.19992607415E+02  0.16020350966E+02  0.25895914465E+02  0.00000000000E+00 0. -1.
         21    1    1    2  503  502  0.15528294081E+02 -0.41719278082E+02 -0.11200478500E+02  0.45902906219E+02  0.00000000000E+00 0. -1.
          1    1    1    2  501    0 -0.47867452643E+02  0.17069734884E+03 -0.51843994344E+02  0.18470700494E+03  0.00000000000E+00 0. -1.
<scales pt_clust_5="13000.00000" pt_clust_6="13000.00000" pt_clust_7="13000.00000" pt_clust_8="13000.00000" pt_clust_9="44.51546" pt_clust_10="155.88501"></scales>
<clustering>
<clus scale="   44.515">  1  9  2 -1</clus>
<clus scale="   79.968">  5  6 -1 -1</clus>
<clus scale="   91.904">  7  8 -1 -1</clus>
<clus scale="  111.520">  1  5  2 -1</clus>
<clus scale="  155.885">  2 10  1 -1</clus>
<clus scale="  155.885">  2  5  1 -1</clus>
</clustering>
</event>
<event>
10    4  0.3043429E-005  0.1802349E+03  0.7546771E-02  0.1170680E+00
          2   -1    0    0  503    0 -0.00000000000E+00  0.00000000000E+00  0.10588885884E+04  0.10588885884E+04  0.00000000000E+00 0. -1.
         21   -1    0    0  501  502  0.00000000000E+00 -0.00000000000E+00 -0.21744032500E+03  0.21744032500E+03  0.00000000000E+00 0. -1.
         24    2    1    2    0    0  0.12582205801E+03  0.75328251567E+02  0.85233600477E+03  0.86848903780E+03  0.79315874768E+02 0.  0.
         23    2    1    2    0    0 -0.20490924234E+03  0.29991302352E+02  0.25148706274E+02  0.23263034039E+03  0.10294242096E+03 0.  0.
        -13    1    3    3    0    0  0.50288242062E+02 -0.11552522250E+02  0.26468783670E+03  0.26967020405E+03  0.00000000000E+00 0.  1.
         14    1    3    3    0    0  0.75533815949E+02  0.86880773818E+02  0.58764816807E+03  0.59881883374E+03  0.00000000000E+00 0. -1.
        -13    1    4    4    0    0 -0.11070437724E+03 -0.35812492532E+02  0.13183856580E+02  0.11709742882E+03  0.00000000000E+00 0.  1.
         13    1    4    4    0    0 -0.94204865092E+02  0.65803794884E+02  0.11964849694E+02  0.11553291157E+03  0.00000000000E+00 0. -1.
         21    1    1    2  503  502 -0.89577904770E+01 -0.70946728516E+02 -0.37365020410E+02  0.80683486834E+02  0.00000000000E+00 0.  1.
          1    1    1    2  501    0  0.88044974801E+02 -0.34372825404E+02  0.13285727670E+01  0.94526048366E+02  0.00000000000E+00 0. -1.
<scales pt_clust_5="13000.00000" pt_clust_6="13000.00000" pt_clust_7="13000.00000" pt_clust_8="13000.00000" pt_clust_9="71.51000" pt_clust_10="101.71803"></scales>
<clustering>
<clus scale="   71.510">  2  9  1 -1</clus>
<clus scale="   79.316">  5  6 -1 -1</clus>
<clus scale="  101.718">  2 10  1 -1</clus>
<clus scale="  102.942">  7  8 -1 -1</clus>
<clus scale="  167.864">  1  5  2 -1</clus>
<clus scale="   71.510">  2  5  1 -1</clus>
</clustering>
</event>
<event>
10    4  0.3043429E-005  0.4193937E+03  0.7546771E-02  0.1037264E+00
          2   -1    0    0  503    0 -0.00000000000E+00  0.00000000000E+00  0.23826976924E+04  0.23826976924E+04  0.00000000000E+00 0. -1.
         21   -1    0    0  501  502  0.00000000000E+00 -0.00000000000E+00 -0.23285730688E+03  0.23285730688E+03  0.00000000000E+00 0. -1.
         24    2    1    2    0    0 -0.10428539847E+03  0.96978080038E+02  0.77769607919E+02  0.18075954510E+03  0.79659957871E+02 0.  0.
         23    2    1    2    0    0 -0.92293596214E+02  0.18190697752E+03 -0.88546345988E+02  0.24043490227E+03  0.91434295899E+02 0.  0.
        -11    1    3    3    0    0 -0.58476071320E+02  0.36591223621E+01  0.35722980828E+02  0.68621945854E+02  0.00000000000E+00 0.  1.
         12    1    3    3    0    0 -0.45809327151E+02  0.93318957676E+02  0.42046627090E+02  0.11213759925E+03  0.00000000000E+00 0. -1.
        -11    1    4    4    0    0 -0.30515045059E+02  0.40228577269E+01 -0.30630471157E+02  0.43423232521E+02  0.00000000000E+00 0.  1.
         11    1    4    4    0    0 -0.61778551155E+02  0.17788411980E+03 -0.57915874830E+02  0.19701166975E+03  0.00000000000E+00 0. -1.
         21    1    1    2  503  502 -0.15088760320E+02 -0.38848708429E+02  0.90293432049E+02  0.99447457010E+02  0.00000000000E+00 0.  1.
          1    1    1    2  501    0  0.21166775500E+03 -0.24003634913E+03  0.20703236915E+04  0.20949130949E+04  0.00000000000E+00 0. -1.
<scales pt_clust_5="13000.00000" pt_clust_6="13000.00000" pt_clust_7="13000.00000" pt_clust_8="13000.00000" pt_clust_9="41.67605" pt_clust_10="339.15008"></scales>
<clustering>
<clus scale="   41.676">  1  9  2 -1</clus>
<clus scale="   79.660">  5  6 -1 -1</clus>
<clus scale="   91.434">  7  8 -1 -1</clus>
<clus scale="  161.867">  5  7 -1 -1</clus>
<clus scale="  339.150">  2 10  1 -1</clus>
<clus scale="  339.150">  2  5  1 -1</clus>
</clustering>
</event>
<event>
10    4  0.3043429E-005  0.9255388E+02  0.7546771E-02  0.1304055E+00
         21   -1    0    0  501  502  0.00000000000E+00  0.00000000000E+00  0.97563726280E+02  0.97563726280E+02  0.00000000000E+00 0. -1.
          2   -1    0    0  503    0 -0.00000000000E+00 -0.00000000000E+00 -0.21432728732E+03  0.21432728732E+03  0.00000000000E+00 0. -1.
         24    2    1    2    0    0 -0.45740644088E+01 -0.12770930639E+02 -0.13346746350E+03  0.15639197162E+03  0.80379513806E+02 0.  0.
         23    2    1    2    0    0  0.18211669894E+02 -0.18958336501E+02 -0.13212848104E+02  0.96644927570E+02  0.92057477842E+02 0.  0.
        -13    1    3    3    0    0 -0.41692857257E+02 -0.11058628793E+01 -0.80580970638E+02  0.90734834038E+02  0.00000000000E+00 0.  1.
         14    1    3    3    0    0  0.37118792848E+02 -0.11665067760E+02 -0.52886492862E+02  0.65657137583E+02  0.00000000000E+00 0. -1.
        -11    1    4    4    0    0 -0.34039874065E+02 -0.99909714796E+01 -0.23617289926E+02  0.42618175945E+02  0.00000000000E+00 0.  1.
         11    1    4    4    0    0  0.52251543958E+02 -0.89673650213E+01  0.10404441822E+02  0.54026751624E+02  0.00000000000E+00 0. -1.
         21    1    1    2  503  502 -0.21829504045E+02  0.48225925671E+01  0.10658841603E+02  0.24766823580E+02  0.00000000000E+00 0.  1.
          1    1    1    2  501    0  0.81918985598E+01  0.26906674573E+02  0.19257908961E+02  0.34087290830E+02  0.00000000000E+00 0. -1.
<scales pt_clust_5="13000.00000" pt_clust_6="13000.00000" pt_clust_7="13000.00000" pt_clust_8="13000.00000" pt_clust_9="22.35586" pt_clust_10="28.53177"></scales>
<clustering>
<clus scale="   22.356">  1  9  2 -1</clus>
<clus scale="   28.532">  1 10  2 -1</clus>
<clus scale="   80.380">  5  6 -1 -1</clus>
<clus scale="   80.948">  2  5  1 -1</clus>
<clus scale="   92.057">  7  8 -1 -1</clus>
<clus scale="   22.356">  1  5  2 -1</clus>
</clustering>
</event>
<event>
10    4  0.3043429E-005  0.1682388E+03  0.7546771E-02  0.1207547E+00
          2   -1    0    0  503    0 -0.00000000000E+00  0.00000000000E+00  0.10096254106E+04  0.10096254106E+04  0.00000000000E+00 0. -1.
         21   -1    0    0  501  502  0.00000000000E+00 -0.00000000000E+00 -0.17914369086E+03  0.17914369086E+03  0.00000000000E+00 0. -1.
         24    2    1    2    0    0  0.10805753811E+02 -0.36964859697E+02  0.27918155964E+03  0.29355970159E+03  0.82169276442E+02 0.  0.
         23    2    1    2    0    0  0.22717365885E+02  0.17461450012E+03 -0.35605725553E+02  0.20100242693E+03  0.90154897678E+02 0.  0.
        -11    1    3    3    0    0  0.44521968618E+02 -0.35399638396E+02  0.18223642153E+03  0.19090692345E+03  0.00000000000E+00 0.  1.
         12    1    3    3    0    0 -0.33716214808E+02 -0.15652213013E+01  0.96945138106E+02  0.10265277815E+03  0.00000000000E+00 0. -1.
        -11    1    4    4    0    0  0.34669303509E+02  0.11171928488E+03 -0.61245202016E+02  0.13203838075E+03  0.00000000000E+00 0. -1.
         11    1    4    4    0    0 -0.11951937624E+02  0.62895215237E+02  0.25639476463E+02  0.68964046184E+02  0.00000000000E+00 0.  1.
         21    1    1    2  503  502 -0.34127774925E+02 -0.31521412850E+02 -0.38206007482E+02  0.60149842037E+02  0.00000000000E+00 0. -1.
          1    1    1    2  501    0  0.60465522921E+00 -0.10612822757E+03  0.62511189317E+03  0.63405713092E+03  0.00000000000E+00 0. -1.
<scales pt_clust_5="13000.00000" pt_clust_6="13000.00000" pt_clust_7="13000.00000" pt_clust_8="13000.00000" pt_clust_9="46.45756" pt_clust_10="142.04366"></scales>
<clustering>
<clus scale="   46.458">  2  9  1 -1</clus>
<clus scale="   82.169">  5  6 -1 -1</clus>
<clus scale="   90.155">  7  8 -1 -1</clus>
<clus scale="   91.267">  1  5  2 -1</clus>
<clus scale="  142.044">  2 10  1 -1</clus>
<clus scale="   46.458">  2  5  1 -1</clus>
</clustering>
</event>
<event>
10    4  0.3043429E-005  0.3213541E+03  0.7546771E-02  0.1075207E+00
         21   -1    0    0  503  502  0.00000000000E+00  0.00000000000E+00  0.15321173616E+03  0.15321173616E+03  0.00000000000E+00 0.  1.
          2   -1    0    0  502    0 -0.00000000000E+00 -0.00000000000E+00 -0.27158275166E+04  0.27158275166E+04  0.00000000000E+00 0. -1.
         24    2    1    2    0    0  0.21536082959E+03 -0.22155486967E+03 -0.16666481056E+04  0.16971532309E+04  0.84535992662E+02 0.  0.
         23    2    1    2    0    0 -0.26768293594E+03  0.16404458565E+03 -0.69303067374E+03  0.76616033161E+03  0.90251641080E+02 0.  0.
        -13    1    3    3    0    0  0.10276228360E+02 -0.54763938301E+02 -0.26476394367E+03  0.27056355201E+03  0.00000000000E+00 0.  1.
         14    1    3    3    0    0  0.20508460123E+03 -0.16679093137E+03 -0.14018841619E+04  0.14265896788E+04  0.00000000000E+00 0. -1.
        -13    1    4    4    0    0 -0.73836976114E+02  0.55561191007E+01 -0.19834822816E+03  0.21171865557E+03  0.00000000000E+00 0.  1.
         13    1    4    4    0    0 -0.19384595983E+03  0.15848846655E+03 -0.49468244557E+03  0.55444167604E+03  0.00000000000E+00 0. -1.
         21    1    1    2  503  501  0.72021074585E+02 -0.56003909670E+02  0.66362875677E+02  0.11281624152E+03  0.00000000000E+00 0.  1.
          1    1    1    2  501    0 -0.19698968233E+02  0.11351419369E+03 -0.26929987682E+03  0.29290944876E+03  0.00000000000E+00 0. -1.
<scales pt_clust_5="13000.00000" pt_clust_6="13000.00000" pt_clust_7="13000.00000" pt_clust_8="13000.00000" pt_clust_9="91.23307" pt_clust_10="103.31739"></scales>
<clustering>
<clus scale="   84.536">  5  6 -1 -1</clus>
<clus scale="   90.252">  7  8 -1 -1</clus>
<clus scale="   91.233">  1  9  2 -1</clus>
<clus scale="  103.317">  1 10  2 -1</clus>
<clus scale="  319.796">  2  5  1 -1</clus>
<clus scale="   91.233">  1  5  2 -1</clus>
</clustering>
</event>
<event>
10    4  0.3135181E-005  0.1514156E+03  0.7546771E-02  0.1204694E+00
         21   -1    0    0  501  502  0.00000000000E+00  0.00000000000E+00  0.42970820198E+03  0.42970820198E+03  0.00000000000E+00 0.  1.
          2   -1    0    0  503    0 -0.00000000000E+00 -0.00000000000E+00 -0.93793403925E+03  0.93793403925E+03  0.00000000000E+00 0. -1.
         24    2    1    2    0    0 -0.10169103241E+03 -0.22469425937E+02 -0.38180027678E+03  0.40392273472E+03  0.80846664128E+02 0.  0.
         23    2    1    2    0    0  0.28687769898E+02 -0.11330584518E+03 -0.34841685468E+03  0.38098376698E+03  0.10046453793E+03 0.  0.
        -11    1    3    3    0    0 -0.43083270028E+02  0.35776714726E+01 -0.50524720837E+02  0.66495979617E+02  0.00000000000E+00 0.  1.
         12    1    3    3    0    0 -0.58607762380E+02 -0.26047097409E+02 -0.33127555594E+03  0.33742675510E+03  0.00000000000E+00 0. -1.
        -11    1    4    4    0    0  0.45612365196E+02 -0.36315711219E+02 -0.23974217374E+03  0.24672986971E+03  0.00000000000E+00 0.  1.
         11    1    4    4    0    0 -0.16924595298E+02 -0.76990133957E+02 -0.10867468094E+03  0.13425389726E+03  0.00000000000E+00 0. -1.
         21    1    1    2  503  502 -0.14838144189E+02  0.44174077256E+02  0.37843154596E+03  0.38128985642E+03  0.00000000000E+00 0.  1.
          1    1    1    2  501    0  0.87841406699E+02  0.91601193856E+02 -0.15644025178E+03  0.20144588311E+03  0.00000000000E+00 0. -1.
<scales pt_clust_5="13000.00000" pt_clust_6="13000.00000" pt_clust_7="13000.00000" pt_clust_8="13000.00000" pt_clust_9="46.59957" pt_clust_10="113.28531"></scales>
<clustering>
<clus scale="   46.600">  1  9  2 -1</clus>
<clus scale="   80.847">  5  6 -1 -1</clus>
<clus scale="  100.465">  7  8 -1 -1</clus>
<clus scale="  133.110">  2  5  1 -1</clus>
<clus scale="  113.285">  1 10  2 -1</clus>
<clus scale="   46.600">  1  5  2 -1</clus>
</clustering>
</event>
<event>
10    4  0.3043429E-005  0.2452237E+03  0.7546771E-02  0.1144897E+00
         21   -1    0    0  503  502  0.00000000000E+00  0.00000000000E+00  0.22089464029E+03  0.22089464029E+03  0.00000000000E+00 0.  1.
         -1   -1    0    0    0  501 -0.00000000000E+00 -0.00000000000E+00 -0.55340156084E+03  0.55340156084E+03  0.00000000000E+00 0.  1.
         23    2    1    2    0    0  0.39781631253E+02  0.68239101299E+02 -0.13337482672E+03  0.17940342618E+03  0.90319387691E+02 0.  0.
         24    2    1    2    0    0  0.19783599990E+03 -0.11232361368E+03 -0.16697758577E+03  0.29303292304E+03  0.78937334581E+02 0.  0.
        -11    1    4    4    0    0  0.19530072513E+03 -0.12230816231E+03 -0.15841075111E+03  0.27963480805E+03  0.00000000000E+00 0.  1.
         12    1    4    4    0    0  0.25352747703E+01  0.99845486260E+01 -0.85668346544E+01  0.13398114995E+02  0.00000000000E+00 0. -1.
        -11    1    3    3    0    0  0.51896611356E+02  0.40320611743E+02 -0.13368794407E+03  0.14896803815E+03  0.00000000000E+00 0. -1.
         11    1    3    3    0    0 -0.12114980103E+02  0.27918489557E+02  0.31311735242E+00  0.30435388029E+02  0.00000000000E+00 0.  1.
         21    1    1    2  503  501  0.52729881343E+01  0.20562461365E+02  0.41792759358E+02  0.46874875530E+02  0.00000000000E+00 0.  1.
         -2    1    1    2    0  502 -0.24289061929E+03  0.23522051015E+02 -0.73947267415E+02  0.25498497638E+03  0.00000000000E+00 0.  1.
<scales pt_clust_5="13000.00000" pt_clust_6="13000.00000" pt_clust_7="13000.00000" pt_clust_8="13000.00000" pt_clust_9="21.22779" pt_clust_10="232.17135"></scales>
<clustering>
<clus scale="   21.228">  1  9  2 -1</clus>
<clus scale="   78.937">  5  6 -1 -1</clus>
<clus scale="   90.319">  7  8 -1 -1</clus>
<clus scale="  121.757">  2  7  1 -1</clus>
<clus scale="  232.171">  1 10  2 -1</clus>
<clus scale="   21.228">  1  5  2 -1</clus>
</clustering>
</event>
<event>
10    4  0.3043429E-005  0.1748107E+03  0.7546771E-02  0.1173234E+00
          2   -1    0    0  502    0 -0.00000000000E+00  0.00000000000E+00  0.21605118825E+03  0.21605118825E+03  0.00000000000E+00 0. -1.
         21   -1    0    0  503  502  0.00000000000E+00 -0.00000000000E+00 -0.40178830502E+03  0.40178830502E+03  0.00000000000E+00 0. -1.
         23    2    1    2    0    0  0.50617078116E+02 -0.13112341891E+03  0.46795326367E+02  0.17105936009E+03  0.85533984606E+02 0.  0.
         24    2    1    2    0    0  0.49852180138E+02  0.19617012774E+03 -0.83145776234E+02  0.23585569954E+03  0.88015521480E+02 0.  0.
        -11    1    4    4    0    0 -0.21739724998E+02  0.58945487550E+02 -0.65634666187E+01  0.63168546283E+02  0.00000000000E+00 0.  1.
         12    1    4    4    0    0  0.71591905136E+02  0.13722464019E+03 -0.76582309616E+02  0.17268715326E+03  0.00000000000E+00 0. -1.
        -11    1    3    3    0    0  0.35102128044E+02 -0.74406686429E+01 -0.47016207261E+01  0.36188785287E+02  0.00000000000E+00 0.  1.
         11    1    3    3    0    0  0.15514950072E+02 -0.12368275026E+03  0.51496947093E+02  0.13487057481E+03  0.00000000000E+00 0. -1.
         21    1    1    2  503  501 -0.54421128332E+02  0.71307402240E+01 -0.94324599607E+02  0.10913128221E+03  0.00000000000E+00 0. -1.
          1    1    1    2  501    0 -0.46048129922E+02 -0.72177449054E+02 -0.55062067305E+02  0.10179315143E+03  0.00000000000E+00 0. -1.
<scales pt_clust_5="13000.00000" pt_clust_6="13000.00000" pt_clust_7="13000.00000" pt_clust_8="13000.00000" pt_clust_9="54.88631" pt_clust_10="92.61083"></scales>
<clustering>
<clus scale="   54.886">  2  9  1 -1</clus>
<clus scale="   85.534">  7  8 -1 -1</clus>
<clus scale="   88.016">  5  6 -1 -1</clus>
<clus scale="   92.611">  2 10  1 -1</clus>
<clus scale="  173.574">  1  7  2 -1</clus>
<clus scale="   54.886">  2  5  1 -1</clus>
</clustering>
</event>
<event>
10    4  0.3043429E-005  0.4136971E+03  0.7546771E-02  0.1068970E+00
         21   -1    0    0  503  502  0.00000000000E+00  0.00000000000E+00  0.30312727298E+03  0.30312727298E+03  0.00000000000E+00 0. -1.
          2   -1    0    0  502    0 -0.00000000000E+00 -0.00000000000E+00 -0.14534392995E+04  0.14534392995E+04  0.00000000000E+00 0. -1.
         24    2    1    2    0    0 -0.14500790022E+03 -0.11425273487E+03  0.54422754789E+02  0.20555405770E+03  0.72177945720E+02 0.  0.
         23    2    1    2    0    0 -0.17928150238E+03 -0.25191708193E+03 -0.84480907424E+03  0.90465288565E+03  0.95343580505E+02 0.  0.
        -13    1    3    3    0    0 -0.52765395901E+02 -0.18173744264E+02 -0.11440425484E+02  0.56968020155E+02  0.00000000000E+00 0.  1.
         14    1    3    3    0    0 -0.92242504319E+02 -0.96078990604E+02  0.65863180272E+02  0.14858603755E+03  0.00000000000E+00 0. -1.
        -11    1    4    4    0    0 -0.15255418372E+03 -0.14018827729E+03 -0.58403270197E+03  0.61969325398E+03  0.00000000000E+00 0. -1.
         11    1    4    4    0    0 -0.26727318654E+02 -0.11172880464E+03 -0.26077637227E+03  0.28495963167E+03  0.00000000000E+00 0.  1.
         21    1    1    2  503  501  0.43544407714E+02  0.17406242272E+02  0.27432617885E+02  0.54329009168E+02  0.00000000000E+00 0.  1.
          1    1    1    2  501    0  0.28074499488E+03  0.34876357453E+03 -0.38735832500E+03  0.59203062000E+03  0.00000000000E+00 0. -1.
<scales pt_clust_5="13000.00000" pt_clust_6="13000.00000" pt_clust_7="13000.00000" pt_clust_8="13000.00000" pt_clust_9="46.89448" pt_clust_10="402.56045"></scales>
<clustering>
<clus scale="   46.894">  1  9  2 -1</clus>
<clus scale="   72.178">  5  6 -1 -1</clus>
<clus scale="   95.344">  7  8 -1 -1</clus>
<clus scale="  177.763">  2  5  1 -1</clus>
<clus scale="  402.560">  1 10  2 -1</clus>
<clus scale="   46.894">  1  5  2 -1</clus>
</clustering>
</event>
<event>
10    4  0.3043429E-005  0.3434279E+03  0.7546771E-02  0.1110872E+00
          2   -1    0    0  503    0 -0.00000000000E+00  0.00000000000E+00  0.13057784728E+04  0.13057784728E+04  0.00000000000E+00 0. -1.
         21   -1    0    0  501  502  0.00000000000E+00 -0.00000000000E+00 -0.16972950481E+03  0.16972950481E+03  0.00000000000E+00 0. -1.
         24    2    1    2    0    0 -0.63434974411E+02  0.46458982661E+01  0.17337447345E+03  0.20091189724E+03  0.79128389714E+02 0.  0.
         23    2    1    2    0    0  0.37211227103E+03  0.68395504284E+02  0.52692181947E+03  0.65519766326E+03  0.92151434388E+02 0.  0.
        -11    1    3    3    0    0 -0.43876903306E+02  0.38540402235E+02  0.12987290948E+03  0.14239914980E+03  0.00000000000E+00 0.  1.
         12    1    3    3    0    0 -0.19558071105E+02 -0.33894503968E+02  0.43501563976E+02  0.58512747440E+02  0.00000000000E+00 0. -1.
        -13    1    4    4    0    0  0.12285001248E+03  0.39559564221E+02  0.11498544113E+03  0.17285466832E+03  0.00000000000E+00 0. -1.
         13    1    4    4    0    0  0.24926225855E+03  0.28835940063E+02  0.41193637834E+03  0.48234299495E+03  0.00000000000E+00 0.  1.
         21    1    1    2  503  502 -0.13921519432E+02 -0.98226338409E+02  0.82914255725E+01  0.99553854765E+02  0.00000000000E+00 0. -1.
          1    1    1    2  501    0 -0.29475577719E+03  0.25184935859E+02  0.42746124949E+03  0.51984456234E+03  0.00000000000E+00 0. -1.
<scales pt_clust_5="13000.00000" pt_clust_6="13000.00000" pt_clust_7="13000.00000" pt_clust_8="13000.00000" pt_clust_9="99.20797" pt_clust_10="330.83351"></scales>
<clustering>
<clus scale="   79.128">  5  6 -1 -1</clus>
<clus scale="   92.151">  7  8 -1 -1</clus>
<clus scale="   99.208">  2  9  1 -1</clus>
<clus scale="  102.580">  1  5  2 -1</clus>
<clus scale="  330.834">  2 10  1 -1</clus>
<clus scale="   99.208">  2  5  1 -1</clus>
</clustering>
</event>
<event>
10    4  0.3043429E-005  0.3798987E+03  0.7546771E-02  0.1050971E+00
          2   -1    0    0  502    0 -0.00000000000E+00  0.00000000000E+00  0.31398724560E+04  0.31398724560E+04  0.00000000000E+00 0. -1.
         21   -1    0    0  503  502  0.00000000000E+00 -0.00000000000E+00 -0.69278878240E+02  0.69278878240E+02  0.00000000000E+00 0.  1.
         24    2    1    2    0    0  0.81213256645E+02  0.34861270472E+02  0.38014454570E+03  0.39833717221E+03  0.79697715798E+02 0.  0.
         23    2    1    2    0    0  0.22639441622E+03 -0.29079275477E+02  0.78153879259E+03  0.81937120611E+03  0.92012244380E+02 0.  0.
        -11    1    3    3    0    0  0.21842593630E+02  0.49717224637E+02  0.22726048882E+03  0.23365836407E+03  0.00000000000E+00 0.  1.
         12    1    3    3    0    0  0.59370663015E+02 -0.14855954165E+02  0.15288405688E+03  0.16467880814E+03  0.00000000000E+00 0. -1.
        -11    1    4    4    0    0  0.17890071728E+03  0.17247064185E+02  0.57608302285E+03  0.60346878717E+03  0.00000000000E+00 0.  1.
         11    1    4    4    0    0  0.47493698942E+02 -0.46326339663E+02  0.20545576974E+03  0.21590241895E+03  0.00000000000E+00 0. -1.
         21    1    1    2  503  501  0.26396644467E+02 -0.45231939001E+01 -0.20254153502E+02  0.33577862592E+02  0.00000000000E+00 0.  1.
          1    1    1    2  501    0 -0.33400431733E+03 -0.12588010944E+01  0.19291643930E+04  0.19578650933E+04  0.00000000000E+00 0. -1.
<scales pt_clust_5="13000.00000" pt_clust_6="13000.00000" pt_clust_7="13000.00000" pt_clust_8="13000.00000" pt_clust_9="26.78138" pt_clust_10="325.07464"></scales>
<clustering>
<clus scale="   26.781">  2  9  1 -1</clus>
<clus scale="   79.698">  5  6 -1 -1</clus>
<clus scale="   92.012">  7  8 -1 -1</clus>
<clus scale="  103.191">  5  7 -1 -1</clus>
<clus scale="  325.075">  2 10  1 -1</clus>
<clus scale="   26.781">  2  5  1 -1</clus>
</clustering>
</event>
<event>
10    4  0.3043429E-005  0.9874786E+02  0.7546771E-02  0.1285348E+00
          2   -1    0    0  503    0 -0.00000000000E+00  0.00000000000E+00  0.25747182078E+03  0.25747182078E+03  0.00000000000E+00 0. -1.
         21   -1    0    0  501  502  0.00000000000E+00 -0.00000000000E+00 -0.46492980562E+03  0.46492980562E+03  0.00000000000E+00 0. -1.
         24    2    1    2    0    0  0.23712976707E+01 -0.48516846632E+02  0.10918192976E+03  0.14639700003E+03  0.84568790761E+02 0.  0.
         23    2    1    2    0    0 -0.90184990303E+00  0.26137037674E+02  0.57669176119E+01  0.93347633441E+02  0.89423516251E+02 0.  0.
        -11    1    3    3    0    0  0.31466252484E+02 -0.37775484815E+01  0.78921564943E+02  0.85047094782E+02  0.00000000000E+00 0.  1.
         12    1    3    3    0    0 -0.29094954814E+02 -0.44739298151E+02  0.30260364820E+02  0.61349905246E+02  0.00000000000E+00 0. -1.
        -11    1    4    4    0    0 -0.43988530328E+02  0.17883269583E+02 -0.61663844110E+01  0.47883467169E+02  0.00000000000E+00 0.  1.
         11    1    4    4    0    0  0.43086680425E+02  0.82537680904E+01  0.11933302023E+02  0.45464166273E+02  0.00000000000E+00 0. -1.
         21    1    1    2  503  502 -0.69405959909E+02  0.28110354327E+02 -0.38372373713E+03  0.39096200037E+03  0.00000000000E+00 0. -1.
          1    1    1    2  501    0  0.67936512141E+02 -0.57305453680E+01  0.61316904918E+02  0.91694992562E+02  0.00000000000E+00 0. -1.
<scales pt_clust_5="13000.00000" pt_clust_6="13000.00000" pt_clust_7="13000.00000" pt_clust_8="13000.00000" pt_clust_9="25.60816" pt_clust_10="68.17781"></scales>
<clustering>
<clus scale="   68.178">  2 10  1 -1</clus>
<clus scale="   25.608">  2  9  1 -1</clus>
<clus scale="   84.569">  5  6 -1 -1</clus>
<clus scale="   89.424">  7  8 -1 -1</clus>
<clus scale="   94.374">  1  5  2 -1</clus>
<clus scale="   68.178">  2  5  1 -1</clus>
</clustering>
</event>
<event>
10    4  0.3043429E-005  0.3317291E+03  0.7546771E-02  0.1070374E+00
          2   -1    0    0  503    0 -0.00000000000E+00  0.00000000000E+00  0.20740256854E+04  0.20740256854E+04  0.00000000000E+00 0. -1.
         21   -1    0    0  501  502  0.00000000000E+00 -0.00000000000E+00 -0.10834368385E+03  0.10834368385E+03  0.00000000000E+00 0. -1.
         24    2    1    2    0    0  0.11365926635E+03  0.42800015077E+02  0.86030751596E+02  0.16925037112E+03  0.80586151320E+02 0.  0.
         23    2    1    2    0    0  0.33969101463E+02 -0.13131268434E+02  0.16033553984E+03  0.18802751495E+03  0.91216944567E+02 0.  0.
        -11    1    3    3    0    0  0.31759116516E+02 -0.18771835011E+02  0.46661944579E+02  0.59484118414E+02  0.00000000000E+00 0.  1.
         12    1    3    3    0    0  0.81900149837E+02  0.61571850088E+02  0.39368807017E+02  0.10976625270E+03  0.00000000000E+00 0. -1.
        -11    1    4    4    0    0 -0.17791650036E+02 -0.35981210234E+02  0.50823058201E+02  0.64762439313E+02  0.00000000000E+00 0.  1.
         11    1    4    4    0    0  0.51760751499E+02  0.22849941800E+02  0.10951248164E+03  0.12326507563E+03  0.00000000000E+00 0. -1.
         21    1    1    2  503  502  0.95402287795E+02  0.11134140985E+03  0.90686023889E+02  0.17240203303E+03  0.00000000000E+00 0. -1.
          1    1    1    2  501    0 -0.24303065561E+03 -0.14101015649E+03  0.16286296863E+04  0.16526894502E+04  0.00000000000E+00 0. -1.
<scales pt_clust_5="13000.00000" pt_clust_6="13000.00000" pt_clust_7="13000.00000" pt_clust_8="13000.00000" pt_clust_9="146.62369" pt_clust_10="256.45171"></scales>
<clustering>
<clus scale="   80.586">  5  6 -1 -1</clus>
<clus scale="   91.217">  7  8 -1 -1</clus>
<clus scale="   96.680">  5  7 -1 -1</clus>
<clus scale="  146.624">  2  9  1 -1</clus>
<clus scale="  256.452">  2 10  1 -1</clus>
<clus scale="  146.624">  2  5  1 -1</clus>
</clustering>
</event>
<event>
10    4  0.3043429E-005  0.3494816E+03  0.7546771E-02  0.1062828E+00
          2   -1    0    0  502    0 -0.00000000000E+00  0.00000000000E+00  0.74342978942E+03  0.74342978942E+03  0.00000000000E+00 0. -1.
         21   -1    0    0  503  502  0.00000000000E+00 -0.00000000000E+00 -0.29345838407E+03  0.29345838407E+03  0.00000000000E+00 0.  1.
         24    2    1    2    0    0  0.42265420092E+02  0.86499484342E+02  0.14389451404E+03  0.19151430719E+03  0.81875345239E+02 0.  0.
         23    2    1    2    0    0  0.39933999129E+01  0.20026926100E+03  0.12956470797E+03  0.25560520742E+03  0.91778452599E+02 0.  0.
        -11    1    3    3    0    0 -0.12344441894E+02  0.31421198349E+02  0.74591311688E+01  0.34573336390E+02  0.00000000000E+00 0.  1.
         12    1    3    3    0    0  0.54609861986E+02  0.55078285993E+02  0.13643538288E+03  0.15694097080E+03  0.00000000000E+00 0. -1.
        -11    1    4    4    0    0 -0.21635206286E+02  0.20632971154E+02  0.48254156864E+02  0.56765000699E+02  0.00000000000E+00 0.  1.
         11    1    4    4    0    0  0.25628606199E+02  0.17963628985E+03  0.81310551110E+02  0.19884020672E+03  0.00000000000E+00 0. -1.
         21    1    1    2  503  501  0.17406316517E+02 -0.11652641947E+02 -0.15378975079E+03  0.15520970127E+03  0.00000000000E+00 0.  1.
          1    1    1    2  501    0 -0.63665136522E+02 -0.27511610340E+03  0.33030193413E+03  0.43455895762E+03  0.00000000000E+00 0. -1.
<scales pt_clust_5="13000.00000" pt_clust_6="13000.00000" pt_clust_7="13000.00000" pt_clust_8="13000.00000" pt_clust_9="20.94669" pt_clust_10="285.26788"></scales>
<clustering>
<clus scale="   20.947">  2  9  1 -1</clus>
<clus scale="   81.875">  5  6 -1 -1</clus>
<clus scale="   91.778">  7  8 -1 -1</clus>
<clus scale="  111.932">  5  7 -1 -1</clus>
<clus scale="  285.268">  2 10  1 -1</clus>
<clus scale="   20.947">  2  5  1 -1</clus>
</clustering>
</event>
<event>
10    4  0.3043429E-005  0.1854585E+03  0.7546771E-02  0.1182776E+00
         21   -1    0    0  501  502  0.00000000000E+00  0.00000000000E+00  0.59281305770E+03  0.59281305770E+03  0.00000000000E+00 0. -1.
          2   -1    0    0  503    0 -0.00000000000E+00 -0.00000000000E+00 -0.39773708363E+03  0.39773708363E+03  0.00000000000E+00 0. -1.
         24    2    1    2    0    0  0.78832742098E+02  0.34047580411E+02 -0.25192785911E+03  0.27799533374E+03  0.80249114804E+02 0.  0.
         23    2    1    2    0    0  0.66697172417E+02 -0.15718078391E+03  0.83337756364E+02  0.21147047886E+03  0.92845409975E+02 0.  0.
        -13    1    3    3    0    0  0.94712936329E+02  0.25701900457E+02 -0.19491952473E+03  0.21823095362E+03  0.00000000000E+00 0.  1.
         14    1    3    3    0    0 -0.15880194232E+02  0.83456799540E+01 -0.57008334386E+02  0.59764380129E+02  0.00000000000E+00 0. -1.
        -13    1    4    4    0    0  0.20139844018E+02  0.28690635718E+01 -0.74512257352E+01  0.21664847284E+02  0.00000000000E+00 0.  1.
         13    1    4    4    0    0  0.46557328399E+02 -0.16004984748E+03  0.90788982099E+02  0.18980563157E+03  0.00000000000E+00 0. -1.
         21    1    1    2  503  502 -0.10452905001E+03  0.78199282885E+02  0.40633016481E+03  0.42678525393E+03  0.00000000000E+00 0. -1.
          1    1    1    2  501    0 -0.41000864506E+02  0.44933920611E+02 -0.42664087993E+02  0.74299074799E+02  0.00000000000E+00 0. -1.
<scales pt_clust_5="13000.00000" pt_clust_6="13000.00000" pt_clust_7="13000.00000" pt_clust_8="13000.00000" pt_clust_9="160.54462" pt_clust_10="60.82871"></scales>
<clustering>
<clus scale="   60.829">  1 10  2 -1</clus>
<clus scale="   80.249">  5  6 -1 -1</clus>
<clus scale="   92.845">  7  8 -1 -1</clus>
<clus scale="  117.212">  2  5  1 -1</clus>
<clus scale="  160.545">  1  9  2 -1</clus>
<clus scale="   60.829">  1  5  2 -1</clus>
</clustering>
</event>
<event>
10    4  0.3043429E-005  0.1070174E+03  0.7546771E-02  0.1272249E+00
         21   -1    0    0  501  502  0.00000000000E+00  0.00000000000E+00  0.27006590414E+03  0.27006590414E+03  0.00000000000E+00 0. -1.
          2   -1    0    0  503    0 -0.00000000000E+00 -0.00000000000E+00 -0.48557109671E+03  0.48557109671E+03  0.00000000000E+00 0. -1.
         23    2    1    2    0    0  0.51948068433E+02  0.31352143223E+02 -0.39423270191E+03  0.41001347636E+03  0.94921382420E+02 0.  0.
         24    2    1    2    0    0 -0.11174800914E+02 -0.74055648968E+01 -0.41990471964E+02  0.92516512608E+02  0.81341175320E+02 0.  0.
        -11    1    4    4    0    0 -0.42198840758E+02 -0.40056677917E+01 -0.28891401439E+01  0.42486876404E+02  0.00000000000E+00 0.  1.
         12    1    4    4    0    0  0.31024039844E+02 -0.33998971050E+01 -0.39101331820E+02  0.50029636204E+02  0.00000000000E+00 0. -1.
        -13    1    3    3    0    0 -0.80536000094E+01  0.41223004124E+02 -0.84444543432E+02  0.94313718289E+02  0.00000000000E+00 0.  1.
         13    1    3    3    0    0  0.60001668443E+02 -0.98708609011E+01 -0.30978815848E+03  0.31569975807E+03  0.00000000000E+00 0. -1.
         21    1    1    2  503  502  0.28829102501E+02 -0.14735896563E+02  0.15000517982E+03  0.15345949880E+03  0.00000000000E+00 0. -1.
          1    1    1    2  501    0 -0.69602370019E+02 -0.92106817634E+01  0.70712801485E+02  0.99647513089E+02  0.00000000000E+00 0. -1.
<scales pt_clust_5="13000.00000" pt_clust_6="13000.00000" pt_clust_7="13000.00000" pt_clust_8="13000.00000" pt_clust_9="32.37690" pt_clust_10="52.71722"></scales>
<clustering>
<clus scale="   32.377">  1  9  2 -1</clus>
<clus scale="   52.717">  1 10  2 -1</clus>
<clus scale="   81.341">  5  6 -1 -1</clus>
<clus scale="   94.921">  7  8 -1 -1</clus>
<clus scale="   95.179">  1  5  2 -1</clus>
<clus scale="   32.377">  1  5  2 -1</clus>
</clustering>
</event>
<event>
10    4  0.3043429E-005  0.2926933E+03  0.7546771E-02  0.1118670E+00
          4   -1    0    0  502    0 -0.00000000000E+00  0.00000000000E+00  0.55774925413E+03  0.55774925413E+03  0.00000000000E+00 0. -1.
         21   -1    0    0  503  502  0.00000000000E+00 -0.00000000000E+00 -0.36653011324E+03  0.36653011324E+03  0.00000000000E+00 0.  1.
         23    2    1    2    0    0  0.89828496008E+02  0.80760645048E+02 -0.29280124047E+02  0.15377044545E+03  0.90534986315E+02 0.  0.
         24    2    1    2    0    0 -0.28378948160E+03  0.66362592936E+02  0.86868848129E+02  0.31432264119E+03  0.79448488839E+02 0.  0.
        -13    1    4    4    0    0 -0.28759373085E+03  0.63512428706E+02  0.90748300537E+02  0.30818701575E+03  0.00000000000E+00 0.  1.
         14    1    4    4    0    0  0.38042492525E+01  0.28501642298E+01 -0.38794524084E+01  0.61356254368E+01  0.00000000000E+00 0. -1.
        -13    1    3    3    0    0  0.67765528737E+02  0.10058326212E+03 -0.22641037156E+02  0.12337656207E+03  0.00000000000E+00 0.  1.
         13    1    3    3    0    0  0.22062967271E+02 -0.19822617074E+02 -0.66390868908E+01  0.30393883385E+02  0.00000000000E+00 0. -1.
         21    1    1    2  503  501 -0.44191428328E+02 -0.34233027856E+02 -0.93055962151E+02  0.10855503040E+03  0.00000000000E+00 0. -1.
          3    1    1    2  501    0  0.23815241392E+03 -0.11289021013E+03  0.22668637895E+03  0.34763125032E+03  0.00000000000E+00 0. -1.
<scales pt_clust_5="13000.00000" pt_clust_6="13000.00000" pt_clust_7="13000.00000" pt_clust_8="13000.00000" pt_clust_9="55.89975" pt_clust_10="281.70446"></scales>
<clustering>
<clus scale="   55.900">  2  9  1 -1</clus>
<clus scale="   79.448">  5  6 -1 -1</clus>
<clus scale="   90.535">  7  8 -1 -1</clus>
<clus scale="  136.087">  1  7  2 -1</clus>
<clus scale="  281.704">  2 10  1 -1</clus>
<clus scale="   55.900">  2  5  1 -1</clus>
</clustering>
</event>
<event>
10    4  0.3043429E-005  0.1313613E+03  0.7546771E-02  0.1227841E+00
         21   -1    0    0  501  502  0.00000000000E+00  0.00000000000E+00  0.42815047861E+03  0.42815047861E+03  0.00000000000E+00 0.  1.
          2   -1    0    0  503    0 -0.00000000000E+00 -0.00000000000E+00 -0.21453511148E+03  0.21453511148E+03  0.00000000000E+00 0. -1.
         24    2    1    2    0    0  0.87720893143E+02  0.17622231428E+02 -0.11299051062E+03  0.16540105161E+03  0.81148963324E+02 0.  0.
         23    2    1    2    0    0 -0.96753717772E+02 -0.71522888925E+02  0.10322997777E+02  0.15099540668E+03  0.90643494044E+02 0.  0.
        -13    1    3    3    0    0  0.24352547778E+02  0.13771267872E+02  0.77128793090E+01  0.29020387822E+02  0.00000000000E+00 0.  1.
         14    1    3    3    0    0  0.63368345365E+02  0.38509635562E+01 -0.12070338993E+03  0.13638066378E+03  0.00000000000E+00 0. -1.
        -11    1    4    4    0    0 -0.54720129736E+02  0.12897559690E+02  0.98554621894E+00  0.56228204182E+02  0.00000000000E+00 0.  1.
         11    1    4    4    0    0 -0.42033588036E+02 -0.84420448615E+02  0.93374515584E+01  0.94767202498E+02  0.00000000000E+00 0. -1.
         21    1    1    2  503  502 -0.15260827416E+02  0.52983833774E+02  0.23875002024E+03  0.24503418467E+03  0.00000000000E+00 0.  1.
          1    1    1    2  501    0  0.24293652045E+02  0.91682372297E+00  0.77532859732E+02  0.81254947134E+02  0.00000000000E+00 0. -1.
<scales pt_clust_5="13000.00000" pt_clust_6="13000.00000" pt_clust_7="13000.00000" pt_clust_8="13000.00000" pt_clust_9="53.64326" pt_clust_10="24.31095"></scales>
<clustering>
<clus scale="   24.311">  1 10  2 -1</clus>
<clus scale="   53.643">  1  9  2 -1</clus>
<clus scale="   81.149">  5  6 -1 -1</clus>
<clus scale="   90.643">  7  8 -1 -1</clus>
<clus scale="  124.999">  2  5  1 -1</clus>
<clus scale="   24.311">  1  5  2 -1</clus>
</clustering>
</event>
<event>
10    4  0.3043429E-005  0.5294445E+03  0.7546771E-02  0.1006367E+00
         21   -1    0    0  503  502  0.00000000000E+00  0.00000000000E+00  0.52146207354E+03  0.52146207354E+03  0.00000000000E+00 0. -1.
          2   -1    0    0  502    0 -0.00000000000E+00 -0.00000000000E+00 -0.13505616824E+04  0.13505616824E+04  0.00000000000E+00 0. -1.
         24    2    1    2    0    0 -0.23140275587E+02  0.35467179677E+03 -0.90149250609E+03  0.97229191279E+03  0.79594405336E+02 0.  0.
         23    2    1    2    0    0  0.31741947323E+01  0.83597698686E+02 -0.11551769245E+03  0.16843482468E+03  0.89595212810E+02 0.  0.
        -13    1    3    3    0    0 -0.52691031624E+02  0.20693673542E+03 -0.52262040464E+03  0.56456287925E+03  0.00000000000E+00 0.  1.
         14    1    3    3    0    0  0.29550756038E+02  0.14773506134E+03 -0.37887210145E+03  0.40772903354E+03  0.00000000000E+00 0. -1.
        -11    1    4    4    0    0 -0.31472698235E+02  0.20325113630E+02 -0.69779999437E+01  0.38109493062E+02  0.00000000000E+00 0. -1.
         11    1    4    4    0    0  0.34646892967E+02  0.63272585056E+02 -0.10853969251E+03  0.13032533162E+03  0.00000000000E+00 0.  1.
         21    1    1    2  503  501 -0.83743178982E+02  0.74930071466E+02  0.17449995963E+03  0.20755161177E+03  0.00000000000E+00 0. -1.
          1    1    1    2  501    0  0.10370925984E+03 -0.51319956692E+03  0.13410630045E+02  0.52374540672E+03  0.00000000000E+00 0. -1.
<scales pt_clust_5="13000.00000" pt_clust_6="13000.00000" pt_clust_7="13000.00000" pt_clust_8="13000.00000" pt_clust_9="112.37186" pt_clust_10="453.69878"></scales>
<clustering>
<clus scale="   79.594">  5  6 -1 -1</clus>
<clus scale="   89.595">  7  8 -1 -1</clus>
<clus scale="  106.159">  5  7 -1 -1</clus>
<clus scale="  112.372">  1  9  2 -1</clus>
<clus scale="  453.699">  1 10  2 -1</clus>
<clus scale="  112.372">  1  5  2 -1</clus>
</clustering>
</event>
<event>
10    4  0.3043429E-005  0.2201275E+03  0.7546771E-02  0.1135878E+00
          2   -1    0    0  503    0 -0.00000000000E+00  0.00000000000E+00  0.18032654457E+03  0.18032654457E+03  0.00000000000E+00 0. -1.
         21   -1    0    0  501  502  0.00000000000E+00 -0.00000000000E+00 -0.62760708306E+03  0.62760708306E+03  0.00000000000E+00 0.  1.
         23    2    1    2    0    0 -0.97027184539E+02  0.17938090151E+03 -0.67454985632E+02  0.23323575945E+03  0.90867827268E+02 0.  0.
         24    2    1    2    0    0  0.14403803193E+03 -0.13913152076E+03 -0.23970245688E+03  0.31801145402E+03  0.59745144904E+02 0.  0.
        -11    1    4    4    0    0  0.11986246894E+03 -0.12464992874E+03 -0.23091956294E+03  0.28849343276E+03  0.00000000000E+00 0.  1.
         12    1    4    4    0    0  0.24175562984E+02 -0.14481592014E+02 -0.87828939430E+01  0.29518021256E+02  0.00000000000E+00 0. -1.
        -11    1    3    3    0    0 -0.48474637620E+02  0.33216499375E+02 -0.51959915125E+02  0.78440799989E+02  0.00000000000E+00 0.  1.
         11    1    3    3    0    0 -0.48552546919E+02  0.14616440214E+03 -0.15495070507E+02  0.15479495946E+03  0.00000000000E+00 0. -1.
         21    1    1    2  503  502  0.72594918615E+02  0.27217613412E+02 -0.56108831834E+02  0.95702777903E+02  0.00000000000E+00 0.  1.
          1    1    1    2  501    0 -0.11960576600E+03 -0.67466994168E+02 -0.84014264142E+02  0.16098363626E+03  0.00000000000E+00 0. -1.
<scales pt_clust_5="13000.00000" pt_clust_6="13000.00000" pt_clust_7="13000.00000" pt_clust_8="13000.00000" pt_clust_9="77.52948" pt_clust_10="120.34285"></scales>
<clustering>
<clus scale="   59.745">  5  6 -1 -1</clus>
<clus scale="   77.529">  2  9  1 -1</clus>
<clus scale="   90.868">  7  8 -1 -1</clus>
<clus scale="  120.343">  2 10  1 -1</clus>
<clus scale="  209.210">  2  5  1 -1</clus>
<clus scale="   77.529">  2  5  1 -1</clus>
</clustering>
</event>
<event>
10    4  0.3043429E-005  0.1314371E+03  0.7546771E-02  0.1228020E+00
         21   -1    0    0  503  502  0.00000000000E+00  0.00000000000E+00  0.52336342071E+03  0.52336342071E+03  0.00000000000E+00 0.  1.
         -1   -1    0    0    0  501 -0.00000000000E+00 -0.00000000000E+00 -0.80957230873E+02  0.80957230873E+02  0.00000000000E+00 0.  1.
         24    2    1    2    0    0  0.84500793239E+02 -0.13174074629E+02  0.74908639670E+02  0.13949501047E+03  0.80830769808E+02 0.  0.
         23    2    1    2    0    0 -0.12316745604E+03 -0.27819049673E+01  0.31126101458E+03  0.34700911046E+03  0.91399903312E+02 0.  0.
        -13    1    3    3    0    0  0.51513250599E+02  0.13269797768E+02 -0.32481841572E+00  0.53195939950E+02  0.00000000000E+00 0.  1.
         14    1    3    3    0    0  0.32987542640E+02 -0.26443872397E+02  0.75233458086E+02  0.86299070518E+02  0.00000000000E+00 0. -1.
        -13    1    4    4    0    0 -0.39343235006E+02  0.16488952618E+01  0.20541124448E+02  0.44413362740E+02  0.00000000000E+00 0. -1.
         13    1    4    4    0    0 -0.83824221030E+02 -0.44308002290E+01  0.29071989013E+03  0.30259574772E+03  0.00000000000E+00 0.  1.
         21    1    1    2  503  501  0.19794340549E+02  0.92975257991E+01  0.82186369006E+02  0.85046217753E+02  0.00000000000E+00 0. -1.
         -2    1    1    2    0  502  0.18872322247E+02  0.66584537969E+01 -0.25949833411E+02  0.32770312907E+02  0.00000000000E+00 0.  1.
<scales pt_clust_5="13000.00000" pt_clust_6="13000.00000" pt_clust_7="13000.00000" pt_clust_8="13000.00000" pt_clust_9="25.07346" pt_clust_10="20.01249"></scales>
<clustering>
<clus scale="   20.012">  1 10  2 -1</clus>
<clus scale="   25.073">  1  9  2 -1</clus>
<clus scale="   80.831">  5  6 -1 -1</clus>
<clus scale="   91.400">  7  8 -1 -1</clus>
<clus scale="  124.320">  2  5  1 -1</clus>
<clus scale="   20.012">  1  5  2 -1</clus>
</clustering>
</event>
<event>
10    4  0.3043429E-005  0.1805463E+03  0.7546771E-02  0.1202207E+00
         21   -1    0    0  501  502  0.00000000000E+00  0.00000000000E+00  0.19720752382E+03  0.19720752382E+03  0.00000000000E+00 0. -1.
          2   -1    0    0  503    0 -0.00000000000E+00 -0.00000000000E+00 -0.40286482582E+03  0.40286482582E+03  0.00000000000E+00 0. -1.
         24    2    1    2    0    0 -0.22002985569E+02  0.16233095644E+02 -0.20379317876E+03  0.22007218043E+03  0.78437619297E+02 0.  0.
         23    2    1    2    0    0  0.13327300901E+03 -0.84666023413E+02  0.16415928646E+02  0.18330096944E+03  0.91650053106E+02 0.  0.
        -11    1    3    3    0    0 -0.49930526294E+02 -0.10407190794E+01 -0.13175587427E+03  0.14090333906E+03  0.00000000000E+00 0.  1.
         12    1    3    3    0    0  0.27927540726E+02  0.17273814724E+02 -0.72037304490E+02  0.79168841373E+02  0.00000000000E+00 0. -1.
        -11    1    4    4    0    0  0.24644789503E+02 -0.19399476510E+02 -0.34591655972E+02  0.46693554174E+02  0.00000000000E+00 0.  1.
         11    1    4    4    0    0  0.10862821951E+03 -0.65266546902E+02  0.51007584618E+02  0.13660741527E+03  0.00000000000E+00 0. -1.
         21    1    1    2  503  502  0.35520422241E+02  0.21448988482E+02 -0.12594069331E-01  0.41494091889E+02  0.00000000000E+00 0. -1.
          1    1    1    2  501    0 -0.14679044568E+03  0.46983939286E+02 -0.18267457817E+02  0.15520510787E+03  0.00000000000E+00 0. -1.
<scales pt_clust_5="13000.00000" pt_clust_6="13000.00000" pt_clust_7="13000.00000" pt_clust_8="13000.00000" pt_clust_9="41.49409" pt_clust_10="155.55465"></scales>
<clustering>
<clus scale="   41.494">  1  9  2 -1</clus>
<clus scale="   78.438">  5  6 -1 -1</clus>
<clus scale="   82.848">  2  5  1 -1</clus>
<clus scale="   91.650">  7  8 -1 -1</clus>
<clus scale="  155.555">  1 10  2 -1</clus>
<clus scale="   41.494">  1  5  2 -1</clus>
</clustering>
</event>
<event>
10    4  0.3043429E-005  0.1707469E+03  0.7546771E-02  0.1199035E+00
          2   -1    0    0  503    0 -0.00000000000E+00  0.00000000000E+00  0.61495840860E+03  0.61495840860E+03  0.00000000000E+00 0. -1.
         21   -1    0    0  501  502  0.00000000000E+00 -0.00000000000E+00 -0.34141617060E+03  0.34141617060E+03  0.00000000000E+00 0. -1.
         23    2    1    2    0    0 -0.28541452013E+02  0.24909155928E+02  0.38680547568E+03  0.40074143909E+03  0.97673663049E+02 0.  0.
         24    2    1    2    0    0 -0.43573287597E+02 -0.15747638290E+03  0.15097625283E+03  0.23782170916E+03  0.84070767025E+02 0.  0.
        -13    1    4    4    0    0  0.20601427262E+02 -0.80960008308E+02  0.76077306949E+02  0.11298981540E+03  0.00000000000E+00 0.  1.
         14    1    4    4    0    0 -0.64174714859E+02 -0.76516374588E+02  0.74898945884E+02  0.12483189377E+03  0.00000000000E+00 0. -1.
        -13    1    3    3    0    0  0.83133544902E+01 -0.32861107001E+02  0.17066005420E+03  0.17399373068E+03  0.00000000000E+00 0.  1.
         13    1    3    3    0    0 -0.36854806503E+02  0.57770262929E+02  0.21614542148E+03  0.22674770841E+03  0.00000000000E+00 0. -1.
         21    1    1    2  503  502 -0.31773716392E+01  0.27558330686E+02 -0.50459738499E+01  0.28196083643E+02  0.00000000000E+00 0. -1.
          1    1    1    2  501    0  0.75292111249E+02  0.10500889628E+03 -0.25919351667E+03  0.28961534731E+03  0.00000000000E+00 0. -1.
<scales pt_clust_5="13000.00000" pt_clust_6="13000.00000" pt_clust_7="13000.00000" pt_clust_8="13000.00000" pt_clust_9="27.74090" pt_clust_10="148.61569"></scales>
<clustering>
<clus scale="   27.741">  2  9  1 -1</clus>
<clus scale="   84.071">  5  6 -1 -1</clus>
<clus scale="   97.674">  7  8 -1 -1</clus>
<clus scale="  104.923">  1  7  2 -1</clus>
<clus scale="  148.616">  2 10  1 -1</clus>
<clus scale="   27.741">  2  5  1 -1</clus>
</clustering>
</event>
<event>
10    4  0.3043429E-005  0.9918999E+02  0.7546771E-02  0.1288065E+00
          2   -1    0    0  503    0 -0.00000000000E+00  0.00000000000E+00  0.33372256724E+03  0.33372256724E+03  0.00000000000E+00 0. -1.
         21   -1    0    0  501  502  0.00000000000E+00 -0.00000000000E+00 -0.17690810015E+03  0.17690810015E+03  0.00000000000E+00 0.  1.
         23    2    1    2    0    0 -0.28775593450E+02 -0.12786653950E+02  0.11247580856E+03  0.14926935694E+03  0.92946221614E+02 0.  0.
         24    2    1    2    0    0  0.73124293762E+02 -0.45369933861E+02 -0.10679804018E+03  0.15949695372E+03  0.81411692178E+02 0.  0.
        -13    1    4    4    0    0  0.49141517944E+02 -0.17044593766E+01 -0.96961878472E+02  0.10871706326E+03  0.00000000000E+00 0.  1.
         14    1    4    4    0    0  0.23982775817E+02 -0.43665474485E+02 -0.98361617094E+01  0.50779890459E+02  0.00000000000E+00 0. -1.
        -13    1    3    3    0    0  0.17565368236E+02  0.29925078372E+02  0.33520423643E+02  0.48245945716E+02  0.00000000000E+00 0. -1.
         13    1    3    3    0    0 -0.46340961686E+02 -0.42711732322E+02  0.78955384912E+02  0.10102341122E+03  0.00000000000E+00 0.  1.
         21    1    1    2  503  502  0.21763857615E+02 -0.78382892410E+01 -0.12042043909E+01  0.23163643598E+02  0.00000000000E+00 0.  1.
          1    1    1    2  501    0 -0.66112557927E+02  0.65994877052E+02  0.15234090311E+03  0.17870071313E+03  0.00000000000E+00 0. -1.
<scales pt_clust_5="13000.00000" pt_clust_6="13000.00000" pt_clust_7="13000.00000" pt_clust_8="13000.00000" pt_clust_9="23.13232" pt_clust_10="91.74201"></scales>
<clustering>
<clus scale="   23.132">  2  9  1 -1</clus>
<clus scale="   81.412">  5  6 -1 -1</clus>
<clus scale="   91.742">  2 10  1 -1</clus>
<clus scale="   88.473">  2  5  1 -1</clus>
<clus scale="   92.946">  7  8 -1 -1</clus>
<clus scale="   23.132">  2  5  1 -1</clus>
</clustering>
</event>
<event>
10    4  0.3043429E-005  0.1720343E+03  0.7546771E-02  0.1210541E+00
          2   -1    0    0  502    0 -0.00000000000E+00  0.00000000000E+00  0.19878771863E+03  0.19878771863E+03  0.00000000000E+00 0. -1.
         21   -1    0    0  503  502  0.00000000000E+00 -0.00000000000E+00 -0.43479179938E+03  0.43479179938E+03  0.00000000000E+00 0. -1.
         24    2    1    2    0    0 -0.15070662985E+02 -0.18333100704E+02  0.58171573342E+02  0.98183307665E+02  0.75450662653E+02 0.  0.
         23    2    1    2    0    0  0.16682530499E+03  0.28271744529E+02 -0.12027012926E+02  0.19220444038E+03  0.90376567433E+02 0.  0.
        -13    1    3    3    0    0 -0.29928418966E+02  0.20013520768E+02  0.38107265963E+02  0.52425327796E+02  0.00000000000E+00 0.  1.
         14    1    3    3    0    0  0.14857755981E+02 -0.38346621472E+02  0.20064307379E+02  0.45757979870E+02  0.00000000000E+00 0. -1.
        -13    1    4    4    0    0  0.56059597797E+02  0.39650121570E+02  0.27615339845E+02  0.74009578032E+02  0.00000000000E+00 0.  1.
         13    1    4    4    0    0  0.11076570719E+03 -0.11378377041E+02 -0.39642352772E+02  0.11819486235E+03  0.00000000000E+00 0. -1.
         21    1    1    2  503  501 -0.23423894081E+02 -0.35325165709E+02 -0.15527148309E+03  0.16095272476E+03  0.00000000000E+00 0. -1.
          1    1    1    2  501    0 -0.12833074792E+03  0.25386521884E+02 -0.12687715808E+03  0.18223904520E+03  0.00000000000E+00 0. -1.
<scales pt_clust_5="13000.00000" pt_clust_6="13000.00000" pt_clust_7="13000.00000" pt_clust_8="13000.00000" pt_clust_9="42.38568" pt_clust_10="146.38265"></scales>
<clustering>
<clus scale="   42.386">  2  9  1 -1</clus>
<clus scale="   75.451">  5  6 -1 -1</clus>
<clus scale="   80.063">  1  5  2 -1</clus>
<clus scale="   90.377">  7  8 -1 -1</clus>
<clus scale="  146.383">  2 10  1 -1</clus>
<clus scale="   42.386">  2  5  1 -1</clus>
</clustering>
</event>
<event>
10    4  0.3043429E-005  0.4682524E+03  0.7546771E-02  0.1080427E+00
         21   -1    0    0  501  502  0.00000000000E+00  0.00000000000E+00  0.23001126589E+03  0.23001126589E+03  0.00000000000E+00 0. -1.
          2   -1    0    0  503    0 -0.00000000000E+00 -0.00000000000E+00 -0.15027372064E+04  0.15027372064E+04  0.00000000000E+00 0. -1.
         24    2    1    2    0    0  0.35154051828E+02  0.65738315775E+01 -0.38520232644E+03  0.39555720352E+03  0.82496341359E+02 0.  0.
         23    2    1    2    0    0  0.34371175301E+03 -0.28914443121E+03 -0.36312720779E+03  0.58492026106E+03  0.92347558185E+02 0.  0.
        -13    1    3    3    0    0  0.27248021093E+00  0.40925999866E+02 -0.17025033853E+03  0.17510051251E+03  0.00000000000E+00 0.  1.
         14    1    3    3    0    0  0.34881571617E+02 -0.34352168289E+02 -0.21495198791E+03  0.22045669101E+03  0.00000000000E+00 0. -1.
        -13    1    4    4    0    0  0.18156504333E+03 -0.20692227997E+03 -0.24131892024E+03  0.36608402885E+03  0.00000000000E+00 0.  1.
         13    1    4    4    0    0  0.16214670968E+03 -0.82222151233E+02 -0.12180828755E+03  0.21883623221E+03  0.00000000000E+00 0. -1.
         21    1    1    2  503  502 -0.13308242758E+02 -0.16325198757E+02  0.21763487605E+02  0.30286479368E+02  0.00000000000E+00 0.  1.
          1    1    1    2  501    0 -0.36555756208E+03  0.29889579839E+03 -0.54615989386E+03  0.72198452833E+03  0.00000000000E+00 0. -1.
<scales pt_clust_5="13000.00000" pt_clust_6="13000.00000" pt_clust_7="13000.00000" pt_clust_8="13000.00000" pt_clust_9="21.06232" pt_clust_10="459.05602"></scales>
<clustering>
<clus scale="   21.062">  1  9  2 -1</clus>
<clus scale="   82.496">  5  6 -1 -1</clus>
<clus scale="   89.754">  2  5  1 -1</clus>
<clus scale="   92.348">  7  8 -1 -1</clus>
<clus scale="  459.056">  1 10  2 -1</clus>
<clus scale="   21.062">  1  5  2 -1</clus>
</clustering>
</event>
<event>
10    4  0.3043429E-005  0.2536856E+03  0.7546771E-02  0.1144624E+00
         21   -1    0    0  501  502  0.00000000000E+00  0.00000000000E+00  0.36499256410E+03  0.36499256410E+03  0.00000000000E+00 0. -1.
          2   -1    0    0  503    0 -0.00000000000E+00 -0.00000000000E+00 -0.12642649624E+04  0.12642649624E+04  0.00000000000E+00 0. -1.
         24    2    1    2    0    0  0.41138644582E+02 -0.65203417999E+02 -0.10392216051E+04  0.10450877505E+04  0.79265300857E+02 0.  0.
         23    2    1    2    0    0 -0.22267070392E+03 -0.56781328373E+02  0.17904691488E+03  0.30641247012E+03  0.94997065657E+02 0.  0.
        -13    1    3    3    0    0  0.14484316283E+02 -0.46545020094E+02 -0.22516590556E+03  0.23038211593E+03  0.00000000000E+00 0.  1.
         14    1    3    3    0    0  0.26654328299E+02 -0.18658397906E+02 -0.81405569956E+03  0.81470563458E+03  0.00000000000E+00 0. -1.
        -13    1    4    4    0    0 -0.12146425398E+03  0.18036646519E+02  0.89166231753E+02  0.15175474456E+03  0.00000000000E+00 0.  1.
         13    1    4    4    0    0 -0.10120644994E+03 -0.74817974891E+02  0.89880683125E+02  0.15465772556E+03  0.00000000000E+00 0. -1.
         21    1    1    2  503  502 -0.74960424802E+01 -0.29528638533E+02 -0.15977165177E+02  0.34400595250E+02  0.00000000000E+00 0.  1.
          1    1    1    2  501    0  0.18902810182E+03  0.15151338491E+03 -0.23120542847E+02  0.24335671058E+03  0.00000000000E+00 0. -1.
<scales pt_clust_5="13000.00000" pt_clust_6="13000.00000" pt_clust_7="13000.00000" pt_clust_8="13000.00000" pt_clust_9="30.46524" pt_clust_10="235.22758"></scales>
<clustering>
<clus scale="   30.465">  1  9  2 -1</clus>
<clus scale="   79.265">  5  6 -1 -1</clus>
<clus scale="   94.997">  7  8 -1 -1</clus>
<clus scale="  110.696">  2  5  1 -1</clus>
<clus scale="  235.228">  1 10  2 -1</clus>
<clus scale="   30.465">  1  5  2 -1</clus>
</clustering>
</event>
<event>
10    4  0.3043429E-005  0.1661291E+03  0.7546771E-02  0.1183872E+00
         21   -1    0    0  503  502  0.00000000000E+00  0.00000000000E+00  0.19156316751E+03  0.19156316751E+03  0.00000000000E+00 0.  1.
          2   -1    0    0  502    0 -0.00000000000E+00 -0.00000000000E+00 -0.98107885080E+03  0.98107885080E+03  0.00000000000E+00 0. -1.
         23    2    1    2    0    0  0.12546472230E+03  0.51922170745E+02 -0.27390966934E+03  0.31872534159E+03  0.90122295011E+02 0.  0.
         24    2    1    2    0    0 -0.10425858444E+03 -0.15172988139E+03  0.39394946296E+02  0.20319327048E+03  0.76444319865E+02 0.  0.
        -13    1    4    4    0    0 -0.10730789494E+03 -0.14764239177E+03  0.51844631521E+02  0.18973962681E+03  0.00000000000E+00 0.  1.
         14    1    4    4    0    0  0.30493105016E+01 -0.40874896233E+01 -0.12449685224E+02  0.13453643675E+02  0.00000000000E+00 0. -1.
        -13    1    3    3    0    0  0.99993106761E+02 -0.51131982027E+01 -0.15791941038E+03  0.18698477577E+03  0.00000000000E+00 0.  1.
         13    1    3    3    0    0  0.25471615541E+02  0.57035368947E+02 -0.11599025895E+03  0.13174056581E+03  0.00000000000E+00 0. -1.
         21    1    1    2  503  501 -0.13401916839E+02 -0.40905218383E+02  0.27723210901E+02  0.51199850474E+02  0.00000000000E+00 0.  1.
          1    1    1    2  501    0 -0.78042210252E+01  0.14071292903E+03 -0.58272417116E+03  0.59952355576E+03  0.00000000000E+00 0. -1.
<scales pt_clust_5="13000.00000" pt_clust_6="13000.00000" pt_clust_7="13000.00000" pt_clust_8="13000.00000" pt_clust_9="43.04472" pt_clust_10="138.71744"></scales>
<clustering>
<clus scale="   43.045">  1  9  2 -1</clus>
<clus scale="   76.444">  5  6 -1 -1</clus>
<clus scale="   90.122">  7  8 -1 -1</clus>
<clus scale="  138.717">  1 10  2 -1</clus>
<clus scale="  159.124">  1  5  2 -1</clus>
<clus scale="   43.045">  1  5  2 -1</clus>
</clustering>
</event>
<event>
10    4  0.3043429E-005  0.1113399E+03  0.7546771E-02  0.1261480E+00
          2   -1    0    0  503    0 -0.00000000000E+00  0.00000000000E+00  0.35667048177E+03  0.35667048177E+03  0.00000000000E+00 0. -1.
         21   -1    0    0  501  502  0.00000000000E+00 -0.00000000000E+00 -0.15723583760E+03  0.15723583760E+03  0.00000000000E+00 0.  1.
         24    2    1    2    0    0  0.24391720264E+02  0.60099225124E+02  0.10286290709E+03  0.14682697988E+03  0.82283117883E+02 0.  0.
         23    2    1    2    0    0  0.33243970969E+02 -0.72730946991E+02 -0.53739433806E+02  0.13263711392E+03  0.91157692960E+02 0.  0.
        -13    1    3    3    0    0  0.43453896538E+02  0.48969023843E+02  0.32518042927E+02  0.73100133627E+02  0.00000000000E+00 0.  1.
         14    1    3    3    0    0 -0.19062176274E+02  0.11130201281E+02  0.70344864159E+02  0.73726846253E+02  0.00000000000E+00 0. -1.
        -11    1    4    4    0    0  0.76626362370E+01 -0.79939401505E+02 -0.65445268426E+02  0.10359588344E+03  0.00000000000E+00 0.  1.
         11    1    4    4    0    0  0.25581334732E+02  0.72084545140E+01  0.11705834620E+02  0.29041230472E+02  0.00000000000E+00 0. -1.
         21    1    1    2  503  502 -0.70453619422E+02  0.46386342157E+02  0.47682590651E+01  0.84487522883E+02  0.00000000000E+00 0.  1.
          1    1    1    2  501    0  0.12817928188E+02 -0.33754620290E+02  0.14554291183E+03  0.14995470269E+03  0.00000000000E+00 0. -1.
<scales pt_clust_5="13000.00000" pt_clust_6="13000.00000" pt_clust_7="13000.00000" pt_clust_8="13000.00000" pt_clust_9="77.01994" pt_clust_10="36.10644"></scales>
<clustering>
<clus scale="   36.106">  2 10  1 -1</clus>
<clus scale="   77.020">  2  9  1 -1</clus>
<clus scale="   82.283">  5  6 -1 -1</clus>
<clus scale="   91.158">  7  8 -1 -1</clus>
<clus scale="  104.199">  1  5  2 -1</clus>
<clus scale="   36.106">  2  5  1 -1</clus>
</clustering>
</event>
<event>
10    4  0.3043429E-005  0.1504715E+03  0.7546771E-02  0.1205424E+00
         21   -1    0    0  503  502  0.00000000000E+00  0.00000000000E+00  0.70621831585E+02  0.70621831585E+02  0.00000000000E+00 0. -1.
          2   -1    0    0  502    0 -0.00000000000E+00 -0.00000000000E+00 -0.18779811882E+04  0.18779811882E+04  0.00000000000E+00 0. -1.
         24    2    1    2    0    0 -0.11109802281E+03 -0.23786408091E+02 -0.98140966261E+03  0.99142125850E+03  0.82720142936E+02 0.  0.
         23    2    1    2    0    0 -0.14060376441E+03  0.50450152239E+02 -0.19838559365E+03  0.26440247350E+03  0.90758954366E+02 0.  0.
        -11    1    3    3    0    0 -0.63130078779E+02 -0.10645613894E+02 -0.24150001075E+03  0.24984193230E+03  0.00000000000E+00 0.  1.
         12    1    3    3    0    0 -0.47967944033E+02 -0.13140794197E+02 -0.73990965187E+03  0.74157932620E+03  0.00000000000E+00 0. -1.
        -11    1    4    4    0    0 -0.38463371740E+02  0.57907195188E+02 -0.57434591596E+02  0.90174311930E+02  0.00000000000E+00 0.  1.
         11    1    4    4    0    0 -0.10214039267E+03 -0.74570429488E+01 -0.14095100205E+03  0.17422816157E+03  0.00000000000E+00 0. -1.
         21    1    1    2  503  501  0.88610218813E+02  0.10751052738E+02 -0.78782942186E+02  0.11905506286E+03  0.00000000000E+00 0. -1.
          1    1    1    2  501    0  0.16309156841E+03 -0.37414796887E+02 -0.54878115813E+03  0.57372422490E+03  0.00000000000E+00 0. -1.
<scales pt_clust_5="13000.00000" pt_clust_6="13000.00000" pt_clust_7="13000.00000" pt_clust_8="13000.00000" pt_clust_9="89.26005" pt_clust_10="120.01871"></scales>
<clustering>
<clus scale="   82.720">  5  6 -1 -1</clus>
<clus scale="   89.260">  1  9  2 -1</clus>
<clus scale="   90.759">  7  8 -1 -1</clus>
<clus scale="  133.516">  2  5  1 -1</clus>
<clus scale="  120.019">  1 10  2 -1</clus>
<clus scale="   89.260">  1  5  2 -1</clus>
</clustering>
</event>
<event>
10    4  0.3043429E-005  0.9669223E+02  0.7546771E-02  0.1292317E+00
          2   -1    0    0  502    0 -0.00000000000E+00  0.00000000000E+00  0.11159433783E+04  0.11159433783E+04  0.00000000000E+00 0. -1.
         21   -1    0    0  503  502  0.00000000000E+00 -0.00000000000E+00 -0.51531514875E+02  0.51531514875E+02  0.00000000000E+00 0. -1.
         24    2    1    2    0    0 -0.40592320938E+02 -0.19465495406E+02  0.72266703288E+03  0.72883086218E+03  0.83187398225E+02 0.  0.
         23    2    1    2    0    0 -0.57411518299E+02 -0.20822661139E+02  0.15537380935E+03  0.19068554247E+03  0.92142768713E+02 0.  0.
        -13    1    3    3    0    0  0.18776627476E+02 -0.24975694898E+02  0.16069675344E+03  0.16370642517E+03  0.00000000000E+00 0.  1.
         14    1    3    3    0    0 -0.59368948414E+02  0.55101994929E+01  0.56197027944E+03  0.56512443701E+03  0.00000000000E+00 0. -1.
        -13    1    4    4    0    0 -0.26879041652E+02 -0.54896436558E+02  0.11225160390E+03  0.12781441313E+03  0.00000000000E+00 0.  1.
         13    1    4    4    0    0 -0.30532476646E+02  0.34073775419E+02  0.43122205452E+02  0.62871129340E+02  0.00000000000E+00 0. -1.
         21    1    1    2  503  501  0.34051082464E+02  0.28397648867E+02 -0.61335026293E+01  0.44760725337E+02  0.00000000000E+00 0.  1.
          1    1    1    2  501    0  0.63952756773E+02  0.11890507677E+02  0.19250452386E+03  0.20319776323E+03  0.00000000000E+00 0. -1.
<scales pt_clust_5="13000.00000" pt_clust_6="13000.00000" pt_clust_7="13000.00000" pt_clust_8="13000.00000" pt_clust_9="44.33850" pt_clust_10="73.11013"></scales>
<clustering>
<clus scale="   44.339">  2  9  1 -1</clus>
<clus scale="   73.110">  2 10  1 -1</clus>
<clus scale="   83.187">  5  6 -1 -1</clus>
<clus scale="   88.200">  1  5  2 -1</clus>
<clus scale="   92.143">  7  8 -1 -1</clus>
<clus scale="   44.339">  2  5  1 -1</clus>
</clustering>
</event>
<event>
10    4  0.3043429E-005  0.1925120E+03  0.7546771E-02  0.1156872E+00
         21   -1    0    0  503  502  0.00000000000E+00  0.00000000000E+00  0.44820614197E+02  0.44820614197E+02  0.00000000000E+00 0. -1.
          2   -1    0    0  502    0 -0.00000000000E+00 -0.00000000000E+00 -0.23722491834E+04  0.23722491834E+04  0.00000000000E+00 0. -1.
         24    2    1    2    0    0  0.35608473046E+02  0.15723602598E+03 -0.97337062981E+03  0.98990547710E+03  0.80444635561E+02 0.  0.
         23    2    1    2    0    0 -0.15957407231E+03 -0.14391791184E+03 -0.84671880363E+03  0.87789738596E+03  0.87148367381E+02 0.  0.
        -13    1    3    3    0    0  0.11173642885E+02  0.15510951701E+03 -0.85338013383E+03  0.86743383919E+03  0.00000000000E+00 0.  1.
         14    1    3    3    0    0  0.24434830161E+02  0.21265089764E+01 -0.11999049598E+03  0.12247163791E+03  0.00000000000E+00 0. -1.
        -11    1    4    4    0    0 -0.14256404896E+03 -0.75547356283E+02 -0.57816872024E+03  0.60025909419E+03  0.00000000000E+00 0. -1.
         11    1    4    4    0    0 -0.17010023351E+02 -0.68370555560E+02 -0.26855008340E+03  0.27763829176E+03  0.00000000000E+00 0.  1.
         21    1    1    2  503  501  0.13184437806E+02 -0.79866914522E+02 -0.20976370838E+03  0.22484075873E+03  0.00000000000E+00 0. -1.
          1    1    1    2  501    0  0.11078116146E+03  0.66548800384E+02 -0.29757542735E+03  0.32442617578E+03  0.00000000000E+00 0. -1.
<scales pt_clust_5="13000.00000" pt_clust_6="13000.00000" pt_clust_7="13000.00000" pt_clust_8="13000.00000" pt_clust_9="80.94784" pt_clust_10="121.55205"></scales>
<clustering>
<clus scale="   80.445">  5  6 -1 -1</clus>
<clus scale="   80.948">  1  9  2 -1</clus>
<clus scale="   87.148">  7  8 -1 -1</clus>
<clus scale="  121.552">  1 10  2 -1</clus>
<clus scale="  189.572">  2  5  1 -1</clus>
<clus scale="   80.948">  1  5  2 -1</clus>
</clustering>
</event>
<event>
10    4  0.3043429E-005  0.2930078E+03  0.7546771E-02  0.1089720E+00
         21   -1    0    0  503  502  0.00000000000E+00  0.00000000000E+00  0.18537506427E+03  0.18537506427E+03  0.00000000000E+00 0. -1.
          2   -1    0    0  502    0 -0.00000000000E+00 -0.00000000000E+00 -0.89395482800E+03  0.89395482800E+03  0.00000000000E+00 0. -1.
         24    2    1    2    0    0 -0.61728435416E+02 -0.23710364685E+03 -0.24606593143E+03  0.35648528424E+03  0.80652192617E+02 0.  0.
         23    2    1    2    0    0  0.18030995180E+03  0.28080265692E+03 -0.22741476056E+03  0.41678914945E+03  0.10312085594E+03 0.  0.
        -11    1    3    3    0    0 -0.20586534579E+02 -0.29349597738E+02 -0.78934434985E+02  0.86693998176E+02  0.00000000000E+00 0.  1.
         12    1    3    3    0    0 -0.41141900837E+02 -0.20775404912E+03 -0.16713149645E+03  0.26979128606E+03  0.00000000000E+00 0. -1.
        -11    1    4    4    0    0  0.37498574763E+02  0.38627718758E+02 -0.87539333774E+02  0.10276856875E+03  0.00000000000E+00 0.  1.
         11    1    4    4    0    0  0.14281137703E+03  0.24217493816E+03 -0.13987542678E+03  0.31402058070E+03  0.00000000000E+00 0. -1.
         21    1    1    2  503  501 -0.22506485969E+02  0.74778374087E+01  0.18501615911E+02  0.30079390856E+02  0.00000000000E+00 0. -1.
          1    1    1    2  501    0 -0.96075030411E+02 -0.51176847475E+02 -0.25360068765E+03  0.27597606773E+03  0.00000000000E+00 0. -1.
<scales pt_clust_5="13000.00000" pt_clust_6="13000.00000" pt_clust_7="13000.00000" pt_clust_8="13000.00000" pt_clust_9="23.71624" pt_clust_10="109.99729"></scales>
<clustering>
<clus scale="   23.716">  1  9  2 -1</clus>
<clus scale="   80.652">  5  6 -1 -1</clus>
<clus scale="  103.121">  7  8 -1 -1</clus>
<clus scale="  109.997">  1 10  2 -1</clus>
<clus scale="  285.875">  2  5  1 -1</clus>
<clus scale="   23.716">  1  5  2 -1</clus>
</clustering>
</event>
<event>
10    4  0.3043429E-005  0.1981826E+03  0.7546771E-02  0.1151983E+00
         -1   -1    0    0    0  501 -0.00000000000E+00  0.00000000000E+00  0.86080617316E+03  0.86080617316E+03  0.00000000000E+00 0.  1.
         21   -1    0    0  501  502  0.00000000000E+00 -0.00000000000E+00 -0.13763939724E+03  0.13763939724E+03  0.00000000000E+00 0.  1.
         23    2    1    2    0    0 -0.21167283883E+03  0.45402093189E+02  0.36734544124E+03  0.43638434943E+03  0.92854113863E+02 0.  0.
         24    2    1    2    0    0  0.84110705007E+02 -0.25655151193E+01 -0.29833951993E+02  0.12374633002E+03  0.85684869947E+02 0.  0.
        -11    1    4    4    0    0  0.24002209699E+02 -0.88704433394E+01 -0.53132109030E+02  0.58972975551E+02  0.00000000000E+00 0.  1.
         12    1    4    4    0    0  0.60108495308E+02  0.63049282200E+01  0.23298157036E+02  0.64773354471E+02  0.00000000000E+00 0. -1.
        -13    1    3    3    0    0 -0.68204986401E+02  0.56968183833E+02  0.10885758768E+03  0.14052497477E+03  0.00000000000E+00 0. -1.
         13    1    3    3    0    0 -0.14346785243E+03 -0.11566090644E+02  0.25848785356E+03  0.29585937466E+03  0.00000000000E+00 0.  1.
         21    1    1    2  503  502  0.44616683375E+02 -0.74011488334E+01  0.31689519473E+01  0.45337266083E+02  0.00000000000E+00 0. -1.
         -2    1    1    2    0  503  0.82945450450E+02 -0.35435429236E+02  0.38248633473E+03  0.39297762487E+03  0.00000000000E+00 0.  1.
<scales pt_clust_5="13000.00000" pt_clust_6="13000.00000" pt_clust_7="13000.00000" pt_clust_8="13000.00000" pt_clust_9="45.22638" pt_clust_10="92.17638"></scales>
<clustering>
<clus scale="   45.226">  2  9  1 -1</clus>
<clus scale="   85.685">  5  6 -1 -1</clus>
<clus scale="   92.176">  2 10  1 -1</clus>
<clus scale="   92.854">  7  8 -1 -1</clus>
<clus scale="  194.927">  2  5  1 -1</clus>
<clus scale="   45.226">  2  5  1 -1</clus>
</clustering>
</event>
<event>
10    4  0.3803152E-005  0.4207338E+03  0.7546771E-02  0.1069968E+00
         21   -1    0    0  501  502  0.00000000000E+00  0.00000000000E+00  0.38722090201E+03  0.38722090201E+03  0.00000000000E+00 0. -1.
          2   -1    0    0  503    0 -0.00000000000E+00 -0.00000000000E+00 -0.16546417200E+04  0.16546417200E+04  0.00000000000E+00 0. -1.
         24    2    1    2    0    0  0.14296180620E+03  0.18153349241E+02 -0.76856577743E+03  0.78584456688E+03  0.78042981352E+02 0.  0.
         23    2    1    2    0    0 -0.42927895815E+03  0.14948669995E+03  0.13658938076E+03  0.48352002386E+03  0.92240214481E+02 0.  0.
        -13    1    3    3    0    0  0.12365654801E+03  0.38405174504E+02 -0.69848070578E+03  0.71038102145E+03  0.00000000000E+00 0.  1.
         14    1    3    3    0    0  0.19305258189E+02 -0.20251825263E+02 -0.70085071657E+02  0.75463545434E+02  0.00000000000E+00 0. -1.
        -13    1    4    4    0    0 -0.28446159907E+03  0.13978419385E+03  0.11289319496E+03  0.33645638004E+03  0.00000000000E+00 0. -1.
         13    1    4    4    0    0 -0.14481735908E+03  0.97025060983E+01  0.23696185805E+02  0.14706364383E+03  0.00000000000E+00 0.  1.
         21    1    1    2  503  502  0.24968950874E+02  0.11909559072E+01  0.29316381386E+02  0.38526836119E+02  0.00000000000E+00 0.  1.
          1    1    1    2  501    0  0.26134820108E+03 -0.16883100510E+03 -0.66476080271E+03  0.73397119515E+03  0.00000000000E+00 0. -1.
<scales pt_clust_5="13000.00000" pt_clust_6="13000.00000" pt_clust_7="13000.00000" pt_clust_8="13000.00000" pt_clust_9="24.99734" pt_clust_10="410.49831"></scales>
<clustering>
<clus scale="   24.997">  1  9  2 -1</clus>
<clus scale="   78.043">  5  6 -1 -1</clus>
<clus scale="   92.240">  7  8 -1 -1</clus>
<clus scale="  164.421">  2  5  1 -1</clus>
<clus scale="  410.498">  1 10  2 -1</clus>
<clus scale="   24.997">  1  5  2 -1</clus>
</clustering>
</event>
<event>
10    4  0.3043429E-005  0.2870482E+03  0.7546771E-02  0.1131451E+00
         21   -1    0    0  503  502  0.00000000000E+00  0.00000000000E+00  0.27919897239E+03  0.27919897239E+03  0.00000000000E+00 0.  1.
          2   -1    0    0  502    0 -0.00000000000E+00 -0.00000000000E+00 -0.14501765256E+04  0.14501765256E+04  0.00000000000E+00 0. -1.
         24    2    1    2    0    0  0.41601872620E+02  0.47730411250E+02 -0.57657777956E+03  0.58600619837E+03  0.83381177050E+02 0.  0.
         23    2    1    2    0    0  0.10540235171E+03  0.22335296695E+03 -0.29538442215E+02  0.26493885837E+03  0.91235275600E+02 0.  0.
        -13    1    3    3    0    0 -0.23982651653E+02  0.25173801615E+02 -0.16470026435E+03  0.16833022588E+03  0.00000000000E+00 0.  1.
         14    1    3    3    0    0  0.65584524273E+02  0.22556609635E+02 -0.41187751521E+03  0.41767597249E+03  0.00000000000E+00 0. -1.
        -11    1    4    4    0    0  0.48300460789E+02  0.32154550518E+02  0.16153763863E+02  0.60231168994E+02  0.00000000000E+00 0. -1.
         11    1    4    4    0    0  0.57101890923E+02  0.19119841643E+03 -0.45692206079E+02  0.20470768938E+03  0.00000000000E+00 0.  1.
         21    1    1    2  503  501  0.28564287566E+02  0.56373164657E+01  0.11771311828E+03  0.12126036482E+03  0.00000000000E+00 0.  1.
          1    1    1    2  501    0 -0.17556851190E+03 -0.27672069467E+03 -0.68257444972E+03  0.75717007643E+03  0.00000000000E+00 0. -1.
<scales pt_clust_5="13000.00000" pt_clust_6="13000.00000" pt_clust_7="13000.00000" pt_clust_8="13000.00000" pt_clust_9="29.11525" pt_clust_10="272.16334"></scales>
<clustering>
<clus scale="   29.115">  1  9  2 -1</clus>
<clus scale="   83.381">  5  6 -1 -1</clus>
<clus scale="   91.235">  7  8 -1 -1</clus>
<clus scale="  105.110">  2  5  1 -1</clus>
<clus scale="  272.163">  1 10  2 -1</clus>
<clus scale="   29.115">  1  5  2 -1</clus>
</clustering>
</event>
<event>
10    4  0.3043429E-005  0.2200872E+03  0.7546771E-02  0.1160427E+00
          2   -1    0    0  503    0 -0.00000000000E+00  0.00000000000E+00  0.72208372127E+03  0.72208372127E+03  0.00000000000E+00 0. -1.
         21   -1    0    0  501  502  0.00000000000E+00 -0.00000000000E+00 -0.34318337716E+03  0.34318337716E+03  0.00000000000E+00 0.  1.
         23    2    1    2    0    0  0.72310981494E+02  0.14095917768E+02  0.24905467890E+03  0.27617280882E+03  0.93891502848E+02 0.  0.
         24    2    1    2    0    0 -0.65868350540E+02 -0.22009172886E+03  0.21607963792E+03  0.32535033400E+03  0.79896315307E+02 0.  0.
        -11    1    4    4    0    0 -0.29215543040E+02 -0.13889171776E+03  0.80648804356E+02  0.16324425522E+03  0.00000000000E+00 0.  1.
         12    1    4    4    0    0 -0.36652807500E+02 -0.81200011092E+02  0.13543083356E+03  0.16210607878E+03  0.00000000000E+00 0. -1.
        -13    1    3    3    0    0  0.68871016855E+02 -0.26874943693E+02  0.19285276448E+03  0.20653732914E+03  0.00000000000E+00 0.  1.
         13    1    3    3    0    0  0.34399646383E+01  0.40970861461E+02  0.56201914419E+02  0.69635479677E+02  0.00000000000E+00 0. -1.
         21    1    1    2  503  502 -0.41943314362E+02  0.23321430633E+02 -0.22598191882E+03  0.23102155393E+03  0.00000000000E+00 0.  1.
          1    1    1    2  501    0  0.35500683409E+02  0.18267438046E+03  0.13974794612E+03  0.23272240168E+03  0.00000000000E+00 0. -1.
<scales pt_clust_5="13000.00000" pt_clust_6="13000.00000" pt_clust_7="13000.00000" pt_clust_8="13000.00000" pt_clust_9="47.99094" pt_clust_10="205.07301"></scales>
<clustering>
<clus scale="   47.991">  2  9  1 -1</clus>
<clus scale="   79.896">  5  6 -1 -1</clus>
<clus scale="   93.892">  7  8 -1 -1</clus>
<clus scale="  116.773">  1  7  2 -1</clus>
<clus scale="  205.073">  2 10  1 -1</clus>
<clus scale="   47.991">  2  5  1 -1</clus>
</clustering>
</event>
<event>
10    4  0.3043429E-005  0.1757057E+03  0.7546771E-02  0.1198427E+00
         21   -1    0    0  501  502  0.00000000000E+00  0.00000000000E+00  0.41474639617E+03  0.41474639617E+03  0.00000000000E+00 0. -1.
          2   -1    0    0  503    0 -0.00000000000E+00 -0.00000000000E+00 -0.11107889783E+04  0.11107889783E+04  0.00000000000E+00 0. -1.
         23    2    1    2    0    0 -0.98874852198E+01 -0.29034188837E+02 -0.12899721709E+02  0.98420832364E+02  0.92625649459E+02 0.  0.
         24    2    1    2    0    0 -0.13362904280E+03  0.22198014936E+02 -0.94354432469E+03  0.95643483736E+03  0.78372396385E+02 0.  0.
        -13    1    4    4    0    0 -0.64594315416E+02  0.14882601395E+02 -0.22545320982E+03  0.23499588768E+03  0.00000000000E+00 0.  1.
         14    1    4    4    0    0 -0.69034727379E+02  0.73154135417E+01 -0.71809111487E+03  0.72143894968E+03  0.00000000000E+00 0. -1.
        -11    1    3    3    0    0  0.39477133591E+02 -0.14294341901E+02 -0.19840333099E+02  0.46437173734E+02  0.00000000000E+00 0.  1.
         11    1    3    3    0    0 -0.49364618811E+02 -0.14739846936E+02  0.69406113895E+01  0.51983658630E+02  0.00000000000E+00 0. -1.
         21    1    1    2  503  502 -0.10625126917E+03 -0.45137230422E+02  0.14505077673E+02  0.11634903974E+03  0.00000000000E+00 0. -1.
          1    1    1    2  501    0  0.24976779718E+03  0.51973404323E+02  0.24589638656E+03  0.35433066504E+03  0.00000000000E+00 0. -1.
<scales pt_clust_5="13000.00000" pt_clust_6="13000.00000" pt_clust_7="13000.00000" pt_clust_8="13000.00000" pt_clust_9="116.43363" pt_clust_10="157.25856"></scales>
<clustering>
<clus scale="   78.372">  5  6 -1 -1</clus>
<clus scale="   92.626">  7  8 -1 -1</clus>
<clus scale="   97.572">  2  7  1 -1</clus>
<clus scale="  116.434">  1  9  2 -1</clus>
<clus scale="  157.259">  1 10  2 -1</clus>
<clus scale="  116.434">  1  5  2 -1</clus>
</clustering>
</event>
<event>
10    4  0.3043429E-005  0.9408457E+02  0.7546771E-02  0.1300288E+00
         21   -1    0    0  503  502  0.00000000000E+00  0.00000000000E+00  0.11309158018E+03  0.11309158018E+03  0.00000000000E+00 0. -1.
         -1   -1    0    0    0  501 -0.00000000000E+00 -0.00000000000E+00 -0.37049377551E+03  0.37049377551E+03  0.00000000000E+00 0.  1.
         24    2    1    2    0    0  0.14207552306E+02  0.58346718006E+01 -0.29459384583E+03  0.30588562911E+03  0.80898616551E+02 0.  0.
         23    2    1    2    0    0 -0.19089958967E+02 -0.38358576579E+02  0.45565859040E+02  0.11175197030E+03  0.92609116313E+02 0.  0.
        -11    1    3    3    0    0  0.22397450101E+02 -0.32701852794E+02 -0.19063475577E+03  0.19471175376E+03  0.00000000000E+00 0.  1.
         12    1    3    3    0    0 -0.81898977947E+01  0.38536524595E+02 -0.10395909006E+03  0.11117387535E+03  0.00000000000E+00 0. -1.
        -13    1    4    4    0    0 -0.36877578248E+02 -0.25493466970E+02 -0.15044517686E+02  0.47288583696E+02  0.00000000000E+00 0.  1.
         13    1    4    4    0    0  0.17787619281E+02 -0.12865109610E+02  0.60610376726E+02  0.64463386599E+02  0.00000000000E+00 0. -1.
         21    1    1    2  503  501  0.24743500286E+02  0.11734782978E+02  0.12811560448E+02  0.30233789360E+02  0.00000000000E+00 0. -1.
         -2    1    1    2    0  502 -0.19861093626E+02  0.20789121801E+02 -0.21185768992E+02  0.35713966918E+02  0.00000000000E+00 0.  1.
<scales pt_clust_5="13000.00000" pt_clust_6="13000.00000" pt_clust_7="13000.00000" pt_clust_8="13000.00000" pt_clust_9="27.38514" pt_clust_10="28.14437"></scales>
<clustering>
<clus scale="   27.385">  1  9  2 -1</clus>
<clus scale="   28.144">  1 10  2 -1</clus>
<clus scale="   80.899">  5  6 -1 -1</clus>
<clus scale="   82.584">  2  5  1 -1</clus>
<clus scale="   92.609">  7  8 -1 -1</clus>
<clus scale="   27.385">  1  5  2 -1</clus>
</clustering>
</event>
<event>
10    4  0.3043429E-005  0.1174458E+03  0.7546771E-02  0.1262501E+00
          2   -1    0    0  502    0 -0.00000000000E+00  0.00000000000E+00  0.11101458451E+03  0.11101458451E+03  0.00000000000E+00 0. -1.
         21   -1    0    0  503  502  0.00000000000E+00 -0.00000000000E+00 -0.51955054660E+03  0.51955054660E+03  0.00000000000E+00 0.  1.
         23    2    1    2    0    0  0.27892275772E+02 -0.27196663424E+01 -0.30220904096E+02  0.11932890131E+03  0.11198530266E+03 0.  0.
         24    2    1    2    0    0  0.33565445443E+02 -0.92602160066E+02 -0.77620931246E+02  0.14848031138E+03  0.79495878656E+02 0.  0.
        -11    1    4    4    0    0  0.49629282245E+02 -0.43585119610E+02 -0.70163214442E+02  0.96361843945E+02  0.00000000000E+00 0.  1.
         12    1    4    4    0    0 -0.16063836802E+02 -0.49017040456E+02 -0.74577168039E+01  0.52118467435E+02  0.00000000000E+00 0. -1.
        -13    1    3    3    0    0  0.57220161220E+02 -0.23960794247E+02  0.12546005287E+02  0.63290352816E+02  0.00000000000E+00 0. -1.
         13    1    3    3    0    0 -0.29327885447E+02  0.21241127904E+02 -0.42766909383E+02  0.56038548497E+02  0.00000000000E+00 0.  1.
         21    1    1    2  503  501 -0.18535304840E+02  0.45221310032E+02 -0.29217636497E+03  0.29623563704E+03  0.00000000000E+00 0.  1.
          1    1    1    2  501    0 -0.42922416376E+02  0.50100516377E+02 -0.85177617808E+01  0.66520281377E+02  0.00000000000E+00 0. -1.
<scales pt_clust_5="13000.00000" pt_clust_6="13000.00000" pt_clust_7="13000.00000" pt_clust_8="13000.00000" pt_clust_9="48.87253" pt_clust_10="73.74257"></scales>
<clustering>
<clus scale="   48.873">  2  9  1 -1</clus>
<clus scale="   73.743">  2 10  1 -1</clus>
<clus scale="   79.496">  5  6 -1 -1</clus>
<clus scale="   87.019">  2  5  1 -1</clus>
<clus scale="  111.985">  7  8 -1 -1</clus>
<clus scale="   48.873">  2  5  1 -1</clus>
</clustering>
</event>
<event>
10    4  0.3043429E-005  0.1282151E+03  0.7546771E-02  0.1232154E+00
          2   -1    0    0  503    0 -0.00000000000E+00  0.00000000000E+00  0.73051525960E+03  0.73051525960E+03  0.00000000000E+00 0. -1.
         21   -1    0    0  501  502  0.00000000000E+00 -0.00000000000E+00 -0.14695417240E+03  0.14695417240E+03  0.00000000000E+00 0. -1.
         23    2    1    2    0    0 -0.85711488176E+02 -0.30293385468E+02  0.32195227799E+03  0.34609543121E+03  0.88682748019E+02 0.  0.
         24    2    1    2    0    0  0.49406967868E+02  0.13428532310E+03  0.39133372369E+02  0.16897544205E+03  0.80917752750E+02 0.  0.
        -13    1    4    4    0    0  0.27313189164E+02  0.72448535482E+02  0.62263425801E+02  0.99355597669E+02  0.00000000000E+00 0.  1.
         14    1    4    4    0    0  0.22093778704E+02  0.61836787617E+02 -0.23130053431E+02  0.69619844383E+02  0.00000000000E+00 0. -1.
        -11    1    3    3    0    0 -0.77305101135E+02 -0.58879871173E+02  0.24941734074E+03  0.26767877718E+03  0.00000000000E+00 0. -1.
         11    1    3    3    0    0 -0.84063870407E+01  0.28586485706E+02  0.72534937242E+02  0.78416654027E+02  0.00000000000E+00 0.  1.
         21    1    1    2  503  502 -0.26279711417E+02 -0.12868511582E+03  0.14383934766E+01  0.13134896741E+03  0.00000000000E+00 0. -1.
          1    1    1    2  501    0  0.62584231725E+02  0.24693178186E+02  0.22103704337E+03  0.23104959133E+03  0.00000000000E+00 0. -1.
<scales pt_clust_5="13000.00000" pt_clust_6="13000.00000" pt_clust_7="13000.00000" pt_clust_8="13000.00000" pt_clust_9="117.40923" pt_clust_10="67.27959"></scales>
<clustering>
<clus scale="   67.280">  2 10  1 -1</clus>
<clus scale="   80.918">  5  6 -1 -1</clus>
<clus scale="   88.683">  7  8 -1 -1</clus>
<clus scale="  117.409">  2  9  1 -1</clus>
<clus scale="  122.972">  2  5  1 -1</clus>
<clus scale="   67.280">  2  5  1 -1</clus>
</clustering>
</event>
<event>
10    4  0.3043429E-005  0.3128825E+03  0.7546771E-02  0.1091531E+00
         21   -1    0    0  503  502  0.00000000000E+00  0.00000000000E+00  0.40075981401E+03  0.40075981401E+03  0.00000000000E+00 0. -1.
          2   -1    0    0  502    0 -0.00000000000E+00 -0.00000000000E+00 -0.70100655083E+03  0.70100655083E+03  0.00000000000E+00 0. -1.
         23    2    1    2    0    0  0.18836653756E+03  0.76538714420E+02 -0.25250024948E+02  0.22465757389E+03  0.92159288572E+02 0.  0.
         24    2    1    2    0    0  0.83993033386E+02 -0.27017062918E+03 -0.40464437450E+03  0.50042129045E+03  0.81470237428E+02 0.  0.
        -13    1    4    4    0    0 -0.22998809197E+01 -0.21338698201E+02 -0.53972496169E+01  0.22130517314E+02  0.00000000000E+00 0.  1.
         14    1    4    4    0    0  0.86292914306E+02 -0.24883193098E+03 -0.39924712489E+03  0.47829077313E+03  0.00000000000E+00 0. -1.
        -11    1    3    3    0    0  0.17525772425E+03  0.50244950327E+02  0.51362075440E+01  0.18239025624E+03  0.00000000000E+00 0. -1.
         11    1    3    3    0    0  0.13108813308E+02  0.26293764093E+02 -0.30386232492E+02  0.42267317653E+02  0.00000000000E+00 0.  1.
         21    1    1    2  503  501 -0.98036050731E+01  0.28483632054E+02  0.46766457545E+02  0.55628495564E+02  0.00000000000E+00 0.  1.
          1    1    1    2  501    0 -0.26255596587E+03  0.16514828271E+03  0.82881205078E+02  0.32105900494E+03  0.00000000000E+00 0. -1.
<scales pt_clust_5="13000.00000" pt_clust_6="13000.00000" pt_clust_7="13000.00000" pt_clust_8="13000.00000" pt_clust_9="30.12355" pt_clust_10="302.08944"></scales>
<clustering>
<clus scale="   30.124">  1  9  2 -1</clus>
<clus scale="   81.470">  5  6 -1 -1</clus>
<clus scale="   92.159">  7  8 -1 -1</clus>
<clus scale="  223.825">  2  7  1 -1</clus>
<clus scale="  302.089">  1 10  2 -1</clus>
<clus scale="   30.124">  1  5  2 -1</clus>
</clustering>
</event>
<event>
10    4  0.3043429E-005  0.1880409E+03  0.7546771E-02  0.1161651E+00
         21   -1    0    0  503  502  0.00000000000E+00  0.00000000000E+00  0.15604817282E+03  0.15604817282E+03  0.00000000000E+00 0. -1.
          4   -1    0    0  502    0 -0.00000000000E+00 -0.00000000000E+00 -0.13288798267E+04  0.13288798267E+04  0.00000000000E+00 0. -1.
         23    2    1    2    0    0  0.13884251252E+03 -0.62593499740E+02 -0.54610445399E+03  0.57431357050E+03  0.91710485250E+02 0.  0.
         24    2    1    2    0    0 -0.29645540514E+03 -0.83135731117E+02 -0.14302557689E+03  0.34845393402E+03  0.78526883732E+02 0.  0.
        -11    1    4    4    0    0 -0.73219531969E+02 -0.36568930005E+02 -0.73624410748E+02  0.11008605889E+03  0.00000000000E+00 0.  1.
         12    1    4    4    0    0 -0.22323587317E+03 -0.46566801112E+02 -0.69401166139E+02  0.23836787513E+03  0.00000000000E+00 0. -1.
        -13    1    3    3    0    0  0.82989546554E+02  0.87739635812E+01 -0.20400253355E+03  0.22041161713E+03  0.00000000000E+00 0. -1.
         13    1    3    3    0    0  0.55852965966E+02 -0.71367463321E+02 -0.34210192044E+03  0.35390195337E+03  0.00000000000E+00 0.  1.
         21    1    1    2  503  501  0.18560343958E+02  0.94172185976E+02 -0.59854589998E+02  0.11311701430E+03  0.00000000000E+00 0. -1.
          3    1    1    2  501    0  0.13905254866E+03  0.51557044881E+02 -0.42384703301E+03  0.44904348070E+03  0.00000000000E+00 0. -1.
<scales pt_clust_5="13000.00000" pt_clust_6="13000.00000" pt_clust_7="13000.00000" pt_clust_8="13000.00000" pt_clust_9="95.98378" pt_clust_10="153.39106"></scales>
<clustering>
<clus scale="   78.527">  5  6 -1 -1</clus>
<clus scale="   91.710">  7  8 -1 -1</clus>
<clus scale="   95.984">  1  9  2 -1</clus>
<clus scale="  153.391">  1 10  2 -1</clus>
<clus scale="  181.975">  1  5  2 -1</clus>
<clus scale="   95.984">  1  5  2 -1</clus>
</clustering>
</event>
<event>
10    4  0.3043429E-005  0.1187452E+03  0.7546771E-02  0.1248960E+00
         21   -1    0    0  503  502  0.00000000000E+00  0.00000000000E+00  0.71451711385E+03  0.71451711385E+03  0.00000000000E+00 0. -1.
         -1   -1    0    0    0  501 -0.00000000000E+00 -0.00000000000E+00 -0.12671370645E+03  0.12671370645E+03  0.00000000000E+00 0.  1.
         24    2    1    2    0    0  0.66640474284E+02 -0.20284935227E+02  0.35190715751E+02  0.11235034935E+03  0.80819447617E+02 0.  0.
         23    2    1    2    0    0 -0.11789929363E+03 -0.60682430312E+02  0.40622746083E+03  0.43717235120E+03  0.92283876869E+02 0.  0.
        -13    1    3    3    0    0  0.58774775406E+02 -0.32098979253E+02  0.55907560939E+02  0.87238031061E+02  0.00000000000E+00 0.  1.
         14    1    3    3    0    0  0.78656988776E+01  0.11814044026E+02 -0.20716845188E+02  0.25112318285E+02  0.00000000000E+00 0. -1.
        -11    1    4    4    0    0 -0.92694074794E+02  0.23632155020E+01  0.21100570633E+03  0.23048033407E+03  0.00000000000E+00 0. -1.
         11    1    4    4    0    0 -0.25205218832E+02 -0.63045645814E+02  0.19522175450E+03  0.20669201713E+03  0.00000000000E+00 0.  1.
         21    1    1    2  503  501  0.13396903348E+02  0.61552060148E+02  0.20771876676E+03  0.21706040448E+03  0.00000000000E+00 0. -1.
         -2    1    1    2    0  502  0.37861915994E+02  0.19415305391E+02 -0.61333535937E+02  0.74647715281E+02  0.00000000000E+00 0.  1.
<scales pt_clust_5="13000.00000" pt_clust_6="13000.00000" pt_clust_7="13000.00000" pt_clust_8="13000.00000" pt_clust_9="71.78194" pt_clust_10="42.54974"></scales>
<clustering>
<clus scale="   42.550">  1 10  2 -1</clus>
<clus scale="   71.782">  1  9  2 -1</clus>
<clus scale="   80.819">  5  6 -1 -1</clus>
<clus scale="   92.284">  7  8 -1 -1</clus>
<clus scale="  110.072">  2  5  1 -1</clus>
<clus scale="   42.550">  1  5  2 -1</clus>
</clustering>
</event>
<event>
10    4  0.3043429E-005  0.1852052E+03  0.7546771E-02  0.1178391E+00
          2   -1    0    0  503    0 -0.00000000000E+00  0.00000000000E+00  0.68772885310E+03  0.68772885310E+03  0.00000000000E+00 0. -1.
         21   -1    0    0  501  502  0.00000000000E+00 -0.00000000000E+00 -0.22121419306E+03  0.22121419306E+03  0.00000000000E+00 0. -1.
         24    2    1    2    0    0  0.91132996181E+02  0.30093322578E+02 -0.20725835966E+02  0.12702461878E+03  0.80590709402E+02 0.  0.
         23    2    1    2    0    0 -0.22579239847E+03  0.39048317869E+02  0.53921505711E+03  0.59357643830E+03  0.95252989261E+02 0.  0.
        -11    1    3    3    0    0  0.38112629825E+02 -0.14334933606E+02 -0.38032764586E+02  0.55718525247E+02  0.00000000000E+00 0.  1.
         12    1    3    3    0    0  0.53020366356E+02  0.44428256184E+02  0.17306928619E+02  0.71306093529E+02  0.00000000000E+00 0. -1.
        -13    1    4    4    0    0 -0.12475470150E+03  0.52492961103E+02  0.21821451767E+03  0.25678166257E+03  0.00000000000E+00 0.  1.
         13    1    4    4    0    0 -0.10103769697E+03 -0.13444643234E+02  0.32100053943E+03  0.33679477573E+03  0.00000000000E+00 0. -1.
         21    1    1    2  503  502  0.91492817256E+01  0.19864634986E+02 -0.23060966781E+02  0.31782405008E+02  0.00000000000E+00 0. -1.
          1    1    1    2  501    0  0.12551012056E+03 -0.89006275433E+02 -0.28913594321E+02  0.15655958407E+03  0.00000000000E+00 0. -1.
<scales pt_clust_5="13000.00000" pt_clust_6="13000.00000" pt_clust_7="13000.00000" pt_clust_8="13000.00000" pt_clust_9="21.87037" pt_clust_10="158.83273"></scales>
<clustering>
<clus scale="   21.870">  2  9  1 -1</clus>
<clus scale="   80.591">  5  6 -1 -1</clus>
<clus scale="   95.253">  7  8 -1 -1</clus>
<clus scale="  129.872">  1  5  2 -1</clus>
<clus scale="  158.833">  2 10  1 -1</clus>
<clus scale="   21.870">  2  5  1 -1</clus>
</clustering>
</event>
<event>
10    4  0.3043429E-005  0.1481453E+03  0.7546771E-02  0.1216097E+00
         21   -1    0    0  501  502  0.00000000000E+00  0.00000000000E+00  0.48702586421E+03  0.48702586421E+03  0.00000000000E+00 0. -1.
          2   -1    0    0  503    0 -0.00000000000E+00 -0.00000000000E+00 -0.64331372218E+03  0.64331372218E+03  0.00000000000E+00 0. -1.
         24    2    1    2    0    0 -0.23217939675E+02  0.73976208651E+02 -0.38767198937E+03  0.40336687284E+03  0.80023187866E+02 0.  0.
         23    2    1    2    0    0  0.80460782640E+02 -0.17002721514E+02 -0.52417932115E+02  0.13375442824E+03  0.91540031603E+02 0.  0.
        -11    1    3    3    0    0 -0.18053017478E+02  0.83704761362E+02 -0.38096733781E+03  0.39047216417E+03  0.00000000000E+00 0.  1.
         12    1    3    3    0    0 -0.51649221971E+01 -0.97285527109E+01 -0.67046515562E+01  0.12894708668E+02  0.00000000000E+00 0. -1.
        -13    1    4    4    0    0  0.64376060479E+02  0.76696575437E+00  0.11581509023E+02  0.65414040928E+02  0.00000000000E+00 0. -1.
         13    1    4    4    0    0  0.16084722161E+02 -0.17769687268E+02 -0.63999441138E+02  0.68340387316E+02  0.00000000000E+00 0.  1.
         21    1    1    2  503  502 -0.11098395283E+03  0.98539809445E+02  0.37626650710E+03  0.40447993300E+03  0.00000000000E+00 0. -1.
          1    1    1    2  501    0  0.53741109867E+02 -0.15551329658E+03 -0.92464443590E+02  0.18873835231E+03  0.00000000000E+00 0. -1.
<scales pt_clust_5="13000.00000" pt_clust_6="13000.00000" pt_clust_7="13000.00000" pt_clust_8="13000.00000" pt_clust_9="13000.00000" pt_clust_10="148.14526"></scales>
<clustering>
<clus scale="   80.023">  5  6 -1 -1</clus>
<clus scale="   91.540">  7  8 -1 -1</clus>
<clus scale="  111.424">  2  5  1 -1</clus>
<clus scale="  116.801">  2  7  1 -1</clus>
<clus scale="  148.145">  2 10  1 -1</clus>
<clus scale="  148.145">  1  5  2 -1</clus>
</clustering>
</event>
<event>
10    4  0.3043429E-005  0.2766129E+03  0.7546771E-02  0.1099483E+00
          2   -1    0    0  503    0 -0.00000000000E+00  0.00000000000E+00  0.15326659211E+04  0.15326659211E+04  0.00000000000E+00 0. -1.
         21   -1    0    0  501  502  0.00000000000E+00 -0.00000000000E+00 -0.16395304474E+03  0.16395304474E+03  0.00000000000E+00 0.  1.
         24    2    1    2    0    0 -0.10785681331E+02  0.26293014138E+03  0.12622431010E+03  0.30270651708E+03  0.80312320685E+02 0.  0.
         23    2    1    2    0    0  0.25466495063E+03 -0.13459179810E+03  0.53476066715E+03  0.61435447019E+03  0.92158855876E+02 0.  0.
        -11    1    3    3    0    0  0.12364704472E+02  0.23831184368E+03  0.95494986678E+02  0.25703056868E+03  0.00000000000E+00 0.  1.
         12    1    3    3    0    0 -0.23150385803E+02  0.24618297707E+02  0.30729323421E+02  0.45675948406E+02  0.00000000000E+00 0. -1.
        -13    1    4    4    0    0  0.20294064123E+03 -0.72036396351E+02  0.43785045618E+03  0.48794176727E+03  0.00000000000E+00 0. -1.
         13    1    4    4    0    0  0.51724309394E+02 -0.62555401753E+02  0.96910210969E+02  0.12641270293E+03  0.00000000000E+00 0.  1.
         21    1    1    2  503  502  0.19230582429E+02 -0.21984135721E+02  0.19512291601E+02  0.35126159020E+02  0.00000000000E+00 0.  1.
          1    1    1    2  501    0 -0.26310985172E+03 -0.10635420756E+03  0.68821560746E+03  0.74443181950E+03  0.00000000000E+00 0. -1.
<scales pt_clust_5="13000.00000" pt_clust_6="13000.00000" pt_clust_7="13000.00000" pt_clust_8="13000.00000" pt_clust_9="29.20818" pt_clust_10="260.80939"></scales>
<clustering>
<clus scale="   29.208">  2  9  1 -1</clus>
<clus scale="   80.312">  5  6 -1 -1</clus>
<clus scale="   92.159">  7  8 -1 -1</clus>
<clus scale="  263.066">  1  5  2 -1</clus>
<clus scale="  260.809">  2 10  1 -1</clus>
<clus scale="   29.208">  2  5  1 -1</clus>
</clustering>
</event>
<event>
10    4  0.3043429E-005  0.1002394E+03  0.7546771E-02  0.1282017E+00
         21   -1    0    0  501  502  0.00000000000E+00  0.00000000000E+00  0.43042944765E+03  0.43042944765E+03  0.00000000000E+00 0.  1.
          2   -1    0    0  503    0 -0.00000000000E+00 -0.00000000000E+00 -0.15130191066E+03  0.15130191066E+03  0.00000000000E+00 0. -1.
         24    2    1    2    0    0  0.49349283791E+02  0.13742299291E+01  0.30652095454E+01  0.99256396544E+02  0.86053450986E+02 0.  0.
         23    2    1    2    0    0 -0.18860315146E+02  0.17618410743E+02  0.17011235446E+03  0.19448380538E+03  0.90662106371E+02 0.  0.
        -11    1    3    3    0    0  0.21753017930E+02 -0.39109475767E+02  0.17696079816E+02  0.48123758422E+02  0.00000000000E+00 0.  1.
         12    1    3    3    0    0  0.27596265862E+02  0.40483705696E+02 -0.14630870271E+02  0.51132638122E+02  0.00000000000E+00 0. -1.
        -13    1    4    4    0    0 -0.32722779173E+02  0.48491096744E+02  0.87990945945E+02  0.10566254449E+03  0.00000000000E+00 0.  1.
         13    1    4    4    0    0  0.13862464026E+02 -0.30872686001E+02  0.82121408512E+02  0.88821260888E+02  0.00000000000E+00 0. -1.
         21    1    1    2  503  502 -0.89074948028E+01  0.34397877460E+02  0.18600872886E+03  0.18937213272E+03  0.00000000000E+00 0.  1.
          1    1    1    2  501    0 -0.21581473842E+02 -0.53390518132E+02 -0.80058755873E+02  0.98619023679E+02  0.00000000000E+00 0. -1.
<scales pt_clust_5="13000.00000" pt_clust_6="13000.00000" pt_clust_7="13000.00000" pt_clust_8="13000.00000" pt_clust_9="35.53248" pt_clust_10="56.50160"></scales>
<clustering>
<clus scale="   35.532">  1  9  2 -1</clus>
<clus scale="   56.502">  1 10  2 -1</clus>
<clus scale="   86.053">  5  6 -1 -1</clus>
<clus scale="   90.662">  7  8 -1 -1</clus>
<clus scale="   96.091">  2  5  1 -1</clus>
<clus scale="   35.532">  1  5  2 -1</clus>
</clustering>
</event>
<event>
10    4  0.3043429E-005  0.1213931E+03  0.7546771E-02  0.1250350E+00
          2   -1    0    0  502    0 -0.00000000000E+00  0.00000000000E+00  0.11401660984E+04  0.11401660984E+04  0.00000000000E+00 0. -1.
         21   -1    0    0  503  502  0.00000000000E+00 -0.00000000000E+00 -0.43375111943E+03  0.43375111943E+03  0.00000000000E+00 0.  1.
         23    2    1    2    0    0  0.60824644645E+01 -0.41160389534E+02  0.38410877197E+02  0.10731163820E+03  0.91154913012E+02 0.  0.
         24    2    1    2    0    0 -0.32475316338E+02  0.75580764533E+02  0.39128206016E+03  0.40934859016E+03  0.87735508909E+02 0.  0.
        -11    1    4    4    0    0 -0.34503280284E+02  0.88925650837E+02  0.37990189032E+03  0.39169336731E+03  0.00000000000E+00 0.  1.
         12    1    4    4    0    0  0.20279639459E+01 -0.13344886304E+02  0.11380169841E+02  0.17655222848E+02  0.00000000000E+00 0. -1.
        -11    1    3    3    0    0  0.46112477900E+02 -0.31856234902E+02  0.89750398313E+01  0.56760300036E+02  0.00000000000E+00 0.  1.
         11    1    3    3    0    0 -0.40030013435E+02 -0.93041546321E+01  0.29435837366E+02  0.50551338167E+02  0.00000000000E+00 0. -1.
         21    1    1    2  503  501  0.90052248654E+02  0.49196045007E+02 -0.37926691803E+03  0.39290336400E+03  0.00000000000E+00 0.  1.
          1    1    1    2  501    0 -0.63659396780E+02 -0.83616420005E+02  0.65598895960E+03  0.66435362542E+03  0.00000000000E+00 0. -1.
<scales pt_clust_5="13000.00000" pt_clust_6="13000.00000" pt_clust_7="13000.00000" pt_clust_8="13000.00000" pt_clust_9="102.52246" pt_clust_10="83.89736"></scales>
<clustering>
<clus scale="   87.736">  5  6 -1 -1</clus>
<clus scale="   91.155">  7  8 -1 -1</clus>
<clus scale="  100.202">  1  7  2 -1</clus>
<clus scale="  102.522">  2  9  1 -1</clus>
<clus scale="   83.897">  2 10  1 -1</clus>
<clus scale="  102.522">  2  5  1 -1</clus>
</clustering>
</event>
<event>
10    4  0.3043429E-005  0.1501766E+03  0.7546771E-02  0.1218441E+00
         21   -1    0    0  501  502  0.00000000000E+00  0.00000000000E+00  0.49520440658E+03  0.49520440658E+03  0.00000000000E+00 0. -1.
          2   -1    0    0  503    0 -0.00000000000E+00 -0.00000000000E+00 -0.74512852133E+03  0.74512852133E+03  0.00000000000E+00 0. -1.
         23    2    1    2    0    0  0.40910013693E+02 -0.19231101850E+02 -0.47701001539E+01  0.10220775522E+03  0.91543469858E+02 0.  0.
         24    2    1    2    0    0  0.27833465201E+02  0.12052925954E+03 -0.66311532284E+03  0.67937266141E+03  0.80766809364E+02 0.  0.
        -11    1    4    4    0    0 -0.28244914237E+02  0.51898333549E+02 -0.25993266686E+03  0.26656369503E+03  0.00000000000E+00 0.  1.
         12    1    4    4    0    0  0.56078379438E+02  0.68630925989E+02 -0.40318265598E+03  0.41280896638E+03  0.00000000000E+00 0. -1.
        -13    1    3    3    0    0  0.58297264199E+01 -0.46009075388E+02  0.21208928087E+02  0.50996464180E+02  0.00000000000E+00 0.  1.
         13    1    3    3    0    0  0.35080287273E+02  0.26777973539E+02 -0.25979028241E+02  0.51211291044E+02  0.00000000000E+00 0. -1.
         21    1    1    2  503  502  0.67816220099E+01  0.28902604412E+02  0.13523319221E+03  0.13845348394E+03  0.00000000000E+00 0. -1.
          1    1    1    2  501    0 -0.75525100904E+02 -0.13020076210E+03  0.28272811603E+03  0.32029902733E+03  0.00000000000E+00 0. -1.
<scales pt_clust_5="13000.00000" pt_clust_6="13000.00000" pt_clust_7="13000.00000" pt_clust_8="13000.00000" pt_clust_9="29.68756" pt_clust_10="126.60857"></scales>
<clustering>
<clus scale="   29.688">  1  9  2 -1</clus>
<clus scale="   80.767">  5  6 -1 -1</clus>
<clus scale="   91.543">  7  8 -1 -1</clus>
<clus scale="  101.805">  2  7  1 -1</clus>
<clus scale="  126.609">  1 10  2 -1</clus>
<clus scale="   29.688">  1  5  2 -1</clus>
</clustering>
</event>
<event>
10    4  0.3043429E-005  0.3360093E+03  0.7546771E-02  0.1085114E+00
         21   -1    0    0  503  502  0.00000000000E+00  0.00000000000E+00  0.40557542801E+03  0.40557542801E+03  0.00000000000E+00 0.  1.
          2   -1    0    0  502    0 -0.00000000000E+00 -0.00000000000E+00 -0.17722013051E+04  0.17722013051E+04  0.00000000000E+00 0. -1.
         24    2    1    2    0    0  0.21318204574E+03 -0.41138699057E+02 -0.54793067297E+03  0.59494990184E+03  0.81230450807E+02 0.  0.
         23    2    1    2    0    0 -0.20812756281E+03 -0.35997084847E+03 -0.35934404814E+03  0.55708390178E+03  0.91204355944E+02 0.  0.
        -13    1    3    3    0    0  0.97090306326E+02 -0.34235645843E+02 -0.16259185981E+03  0.19244406955E+03  0.00000000000E+00 0.  1.
         14    1    3    3    0    0  0.11609173942E+03 -0.69030532142E+01 -0.38533881316E+03  0.40250583229E+03  0.00000000000E+00 0. -1.
        -13    1    4    4    0    0 -0.15027809830E+03 -0.29316278364E+03 -0.32351082349E+03  0.46172196987E+03  0.00000000000E+00 0.  1.
         13    1    4    4    0    0 -0.57849464512E+02 -0.66808064829E+02 -0.35833224649E+02  0.95361931918E+02  0.00000000000E+00 0. -1.
         21    1    1    2  503  501 -0.94399905585E+02  0.16976220374E+03  0.22535038554E+03  0.29751192288E+03  0.00000000000E+00 0.  1.
          1    1    1    2  501    0  0.89345422657E+02  0.23134734379E+03 -0.68470154153E+03  0.72823100662E+03  0.00000000000E+00 0. -1.
<scales pt_clust_5="13000.00000" pt_clust_6="13000.00000" pt_clust_7="13000.00000" pt_clust_8="13000.00000" pt_clust_9="194.24353" pt_clust_10="323.39465"></scales>
<clustering>
<clus scale="   81.230">  5  6 -1 -1</clus>
<clus scale="   91.204">  7  8 -1 -1</clus>
<clus scale="  194.244">  1  9  2 -1</clus>
<clus scale="  214.239">  2  5  1 -1</clus>
<clus scale="  323.395">  1 10  2 -1</clus>
<clus scale="  194.244">  1  5  2 -1</clus>
</clustering>
</event>
<event>
10    4  0.3043429E-005  0.9718336E+02  0.7546771E-02  0.1291748E+00
          4   -1    0    0  503    0 -0.00000000000E+00  0.00000000000E+00  0.26148251660E+03  0.26148251660E+03  0.00000000000E+00 0. -1.
         21   -1    0    0  501  502  0.00000000000E+00 -0.00000000000E+00 -0.13158914066E+03  0.13158914066E+03  0.00000000000E+00 0. -1.
         23    2    1    2    0    0 -0.13179525854E+02 -0.20992719990E+02  0.67056188624E+02  0.11564847852E+03  0.90904587107E+02 0.  0.
         24    2    1    2    0    0 -0.68896371613E+02  0.65566071760E+02 -0.50712489598E+01  0.12489390950E+03  0.80790787075E+02 0.  0.
        -11    1    4    4    0    0 -0.19032580168E+02 -0.11639983763E+02  0.19638171341E+02  0.29721811915E+02  0.00000000000E+00 0.  1.
         12    1    4    4    0    0 -0.49863791445E+02  0.77206055524E+02 -0.24709420301E+02  0.95172097583E+02  0.00000000000E+00 0. -1.
        -11    1    3    3    0    0 -0.78663573603E+01 -0.57025077005E+02  0.45020821126E+02  0.73079500001E+02  0.00000000000E+00 0. -1.
         11    1    3    3    0    0 -0.53131684941E+01  0.36032357015E+02  0.22035367497E+02  0.42568978520E+02  0.00000000000E+00 0.  1.
         21    1    1    2  503  502  0.45636288463E+02  0.25731155766E+02  0.74855093687E+01  0.52922547673E+02  0.00000000000E+00 0. -1.
          3    1    1    2  501    0  0.36439609005E+02 -0.70304507536E+02  0.60422926907E+02  0.99606721562E+02  0.00000000000E+00 0. -1.
<scales pt_clust_5="13000.00000" pt_clust_6="13000.00000" pt_clust_7="13000.00000" pt_clust_8="13000.00000" pt_clust_9="52.39049" pt_clust_10="79.41598"></scales>
<clustering>
<clus scale="   52.390">  2  9  1 -1</clus>
<clus scale="   79.416">  2 10  1 -1</clus>
<clus scale="   80.791">  5  6 -1 -1</clus>
<clus scale="   87.796">  2  5  1 -1</clus>
<clus scale="   90.905">  7  8 -1 -1</clus>
<clus scale="   52.390">  2  5  1 -1</clus>
</clustering>
</event>
<event>
10    4  0.3043429E-005  0.1287249E+03  0.7546771E-02  0.1261409E+00
         21   -1    0    0  501  502  0.00000000000E+00  0.00000000000E+00  0.19750189834E+02  0.19750189834E+02  0.00000000000E+00 0. -1.
          2   -1    0    0  503    0 -0.00000000000E+00 -0.00000000000E+00 -0.22182262430E+04  0.22182262430E+04  0.00000000000E+00 0. -1.
         24    2    1    2    0    0  0.78432741539E+01  0.11981780941E+02 -0.74679016540E+03  0.74988601127E+03  0.66546214959E+02 0.  0.
         23    2    1    2    0    0  0.33628380019E+02  0.90646117308E+02 -0.75960925194E+03  0.77138275927E+03  0.93153417226E+02 0.  0.
        -11    1    3    3    0    0 -0.63504732933E+01 -0.21210233453E+02 -0.11791738835E+03  0.11997796877E+03  0.00000000000E+00 0.  1.
         12    1    3    3    0    0  0.14193747447E+02  0.33192014394E+02 -0.62887277705E+03  0.62990804250E+03  0.00000000000E+00 0. -1.
        -11    1    4    4    0    0 -0.21794957204E+02 -0.57063449753E+01 -0.10342772293E+03  0.10585308877E+03  0.00000000000E+00 0.  1.
         11    1    4    4    0    0  0.55423337223E+02  0.96352462283E+02 -0.65618152901E+03  0.66552967049E+03  0.00000000000E+00 0. -1.
         21    1    1    2  503  502 -0.42097557870E+00 -0.24029712594E+02 -0.57963482519E+01  0.24722499082E+02  0.00000000000E+00 0.  1.
          1    1    1    2  501    0 -0.41050678594E+02 -0.78598185654E+02 -0.68628028754E+03  0.69198516318E+03  0.00000000000E+00 0. -1.
<scales pt_clust_5="13000.00000" pt_clust_6="13000.00000" pt_clust_7="13000.00000" pt_clust_8="13000.00000" pt_clust_9="24.03340" pt_clust_10="88.84009"></scales>
<clustering>
<clus scale="   24.033">  1  9  2 -1</clus>
<clus scale="   66.546">  5  6 -1 -1</clus>
<clus scale="   67.520">  2  5  1 -1</clus>
<clus scale="   88.840">  1 10  2 -1</clus>
<clus scale="   93.153">  7  8 -1 -1</clus>
<clus scale="   24.033">  1  5  2 -1</clus>
</clustering>
</event>
<event>
10    4  0.3043429E-005  0.9394582E+02  0.7546771E-02  0.1297652E+00
         21   -1    0    0  501  502  0.00000000000E+00  0.00000000000E+00  0.58245722187E+02  0.58245722187E+02  0.00000000000E+00 0. -1.
          2   -1    0    0  503    0 -0.00000000000E+00 -0.00000000000E+00 -0.54087724825E+03  0.54087724825E+03  0.00000000000E+00 0. -1.
         24    2    1    2    0    0  0.43599138505E+02 -0.17586091537E+02 -0.12618526054E+03  0.15772393332E+03  0.82121639479E+02 0.  0.
         23    2    1    2    0    0  0.18261172201E+01  0.17049730006E+02 -0.87387714138E+02  0.12615973243E+03  0.89362394249E+02 0.  0.
        -11    1    3    3    0    0 -0.17618414094E+02 -0.17688512529E+02 -0.11000569141E+02  0.27281944801E+02  0.00000000000E+00 0.  1.
         12    1    3    3    0    0  0.61217552599E+02  0.10242099263E+00 -0.11518469140E+03  0.13044198852E+03  0.00000000000E+00 0. -1.
        -13    1    4    4    0    0  0.85359928111E+00 -0.27971622463E+02 -0.15010186786E+00  0.27985046462E+02  0.00000000000E+00 0. -1.
         13    1    4    4    0    0  0.97251793899E+00  0.45021352469E+02 -0.87237612270E+02  0.98174685963E+02  0.00000000000E+00 0.  1.
         21    1    1    2  503  502 -0.50713269142E+02  0.36776871649E+02 -0.23410716067E+02  0.66876270696E+02  0.00000000000E+00 0. -1.
          1    1    1    2  501    0  0.52880134168E+01 -0.36240510119E+02 -0.24564783531E+03  0.24836303399E+03  0.00000000000E+00 0. -1.
<scales pt_clust_5="13000.00000" pt_clust_6="13000.00000" pt_clust_7="13000.00000" pt_clust_8="13000.00000" pt_clust_9="53.82283" pt_clust_10="36.62430"></scales>
<clustering>
<clus scale="   36.624">  1 10  2 -1</clus>
<clus scale="   53.823">  1  9  2 -1</clus>
<clus scale="   82.122">  5  6 -1 -1</clus>
<clus scale="   87.087">  2  5  1 -1</clus>
<clus scale="   89.362">  7  8 -1 -1</clus>
<clus scale="   36.624">  1  5  2 -1</clus>
</clustering>
</event>
<event>
10    4  0.3043429E-005  0.1232232E+03  0.7546771E-02  0.1250442E+00
         21   -1    0    0  503  502  0.00000000000E+00  0.00000000000E+00  0.42685111638E+02  0.42685111638E+02  0.00000000000E+00 0.  1.
          2   -1    0    0  502    0 -0.00000000000E+00 -0.00000000000E+00 -0.22792754629E+04  0.22792754629E+04  0.00000000000E+00 0. -1.
         23    2    1    2    0    0 -0.29974812085E+01 -0.27607392687E+02 -0.37562913753E+03  0.38761047209E+03  0.91506699695E+02 0.  0.
         24    2    1    2    0    0 -0.54303665082E+02 -0.54016403393E+02 -0.11860389581E+04  0.11913248633E+04  0.81852671476E+02 0.  0.
        -13    1    4    4    0    0  0.72495657946E+01 -0.35119033970E+02 -0.20025766802E+03  0.20344295602E+03  0.00000000000E+00 0.  1.
         14    1    4    4    0    0 -0.61553230877E+02 -0.18897369423E+02 -0.98578129010E+03  0.98788190727E+03  0.00000000000E+00 0. -1.
        -11    1    3    3    0    0  0.43451278607E+02 -0.15575366383E+02 -0.21833028364E+03  0.22315626455E+03  0.00000000000E+00 0.  1.
         11    1    3    3    0    0 -0.46448759815E+02 -0.12032026304E+02 -0.15729885389E+03  0.16445420755E+03  0.00000000000E+00 0. -1.
         21    1    1    2  503  501 -0.60811998430E+02  0.81714969068E+02 -0.62912591889E+02  0.11972230177E+03  0.00000000000E+00 0.  1.
          1    1    1    2  501    0  0.11811314472E+03 -0.91172987424E-01 -0.61200966369E+03  0.62330293736E+03  0.00000000000E+00 0. -1.
<scales pt_clust_5="13000.00000" pt_clust_6="13000.00000" pt_clust_7="13000.00000" pt_clust_8="13000.00000" pt_clust_9="100.88433" pt_clust_10="92.10921"></scales>
<clustering>
<clus scale="   81.853">  5  6 -1 -1</clus>
<clus scale="   91.507">  7  8 -1 -1</clus>
<clus scale="   95.628">  2  7  1 -1</clus>
<clus scale="  100.884">  1  9  2 -1</clus>
<clus scale="   92.109">  1 10  2 -1</clus>
<clus scale="  100.884">  1  5  2 -1</clus>
</clustering>
</event>
<event>
10    4  0.3043429E-005  0.1510352E+03  0.7546771E-02  0.1225394E+00
          4   -1    0    0  503    0 -0.00000000000E+00  0.00000000000E+00  0.72033333036E+02  0.72033333036E+02  0.00000000000E+00 0. -1.
         21   -1    0    0  501  502  0.00000000000E+00 -0.00000000000E+00 -0.73476204702E+03  0.73476204702E+03  0.00000000000E+00 0. -1.
         24    2    1    2    0    0 -0.74189898991E+01 -0.27139720063E+02 -0.35225443896E+02  0.91831249168E+02  0.80003378740E+02 0.  0.
         23    2    1    2    0    0  0.69122343797E+02 -0.54468925092E+02 -0.19494129892E+03  0.23244269031E+03  0.91009516201E+02 0.  0.
        -13    1    3    3    0    0 -0.19964734598E+02 -0.45002655166E+02 -0.46097758257E+02  0.67445036258E+02  0.00000000000E+00 0.  1.
         14    1    3    3    0    0  0.12545744699E+02  0.17862935103E+02  0.10872314360E+02  0.24386212910E+02  0.00000000000E+00 0. -1.
        -13    1    4    4    0    0  0.61264356485E+02 -0.31038856357E+02 -0.48859040241E+02  0.84284860993E+02  0.00000000000E+00 0. -1.
         13    1    4    4    0    0  0.78579873118E+01 -0.23430068735E+02 -0.14608225868E+03  0.14815782931E+03  0.00000000000E+00 0.  1.
         21    1    1    2  503  502  0.59513093475E+02  0.24203734866E+01 -0.68788202308E+02  0.90991665989E+02  0.00000000000E+00 0. -1.
          3    1    1    2  501    0 -0.12121644737E+03  0.79188271669E+02 -0.36377376886E+03  0.39152977459E+03  0.00000000000E+00 0. -1.
<scales pt_clust_5="13000.00000" pt_clust_6="13000.00000" pt_clust_7="13000.00000" pt_clust_8="13000.00000" pt_clust_9="59.56229" pt_clust_10="120.53586"></scales>
<clustering>
<clus scale="   59.562">  1  9  2 -1</clus>
<clus scale="   80.003">  5  6 -1 -1</clus>
<clus scale="   86.524">  1  5  2 -1</clus>
<clus scale="   91.010">  7  8 -1 -1</clus>
<clus scale="  120.536">  2 10  1 -1</clus>
<clus scale="  120.536">  2  5  1 -1</clus>
</clustering>
</event>
<event>
10    4  0.3043429E-005  0.2093987E+03  0.7546771E-02  0.1163802E+00
         21   -1    0    0  501  502  0.00000000000E+00  0.00000000000E+00  0.10655736511E+03  0.10655736511E+03  0.00000000000E+00 0. -1.
          2   -1    0    0  503    0 -0.00000000000E+00 -0.00000000000E+00 -0.84605574312E+03  0.84605574312E+03  0.00000000000E+00 0. -1.
         24    2    1    2    0    0 -0.56901179558E+02 -0.81542182747E+02 -0.10514410586E+03  0.16546749662E+03  0.80233020873E+02 0.  0.
         23    2    1    2    0    0 -0.49763804352E+02  0.21678907971E+03 -0.28233072440E+03  0.37031305577E+03  0.89146957471E+02 0.  0.
        -11    1    3    3    0    0 -0.73582774707E+02 -0.49444830557E+02 -0.57578002402E+02  0.10570923499E+03  0.00000000000E+00 0.  1.
         12    1    3    3    0    0  0.16681595149E+02 -0.32097352189E+02 -0.47566103460E+02  0.59758261627E+02  0.00000000000E+00 0. -1.
        -11    1    4    4    0    0  0.23005698179E+02  0.74517041856E+02 -0.11484731389E+03  0.13882347490E+03  0.00000000000E+00 0.  1.
         11    1    4    4    0    0 -0.72769502530E+02  0.14227203786E+03 -0.16748341050E+03  0.23148958086E+03  0.00000000000E+00 0. -1.
         21    1    1    2  503  502  0.19936943218E+02 -0.19100773763E+01  0.92741536063E+01  0.22071248845E+02  0.00000000000E+00 0. -1.
          1    1    1    2  501    0  0.86728040692E+02 -0.13333681959E+03 -0.36129770136E+03  0.39476130700E+03  0.00000000000E+00 0. -1.
<scales pt_clust_5="13000.00000" pt_clust_6="13000.00000" pt_clust_7="13000.00000" pt_clust_8="13000.00000" pt_clust_9="20.02823" pt_clust_10="189.47472"></scales>
<clustering>
<clus scale="   20.028">  1  9  2 -1</clus>
<clus scale="   80.233">  5  6 -1 -1</clus>
<clus scale="   89.147">  7  8 -1 -1</clus>
<clus scale="  125.375">  2  5  1 -1</clus>
<clus scale="  189.475">  1 10  2 -1</clus>
<clus scale="   20.028">  1  5  2 -1</clus>
</clustering>
</event>
<event>
10    4  0.3043429E-005  0.1138809E+03  0.7546771E-02  0.1258028E+00
          2   -1    0    0  503    0 -0.00000000000E+00  0.00000000000E+00  0.60648504099E+03  0.60648504099E+03  0.00000000000E+00 0. -1.
         21   -1    0    0  501  502  0.00000000000E+00 -0.00000000000E+00 -0.23430340730E+03  0.23430340730E+03  0.00000000000E+00 0. -1.
         24    2    1    2    0    0 -0.53103450937E+02  0.62924796104E+02  0.26280455661E+03  0.28671463854E+03  0.79746739843E+02 0.  0.
         23    2    1    2    0    0  0.38860729573E+01 -0.29945759809E+02  0.40336412684E+02  0.10490933663E+03  0.92016806242E+02 0.  0.
        -11    1    3    3    0    0 -0.72891215006E+02  0.60250094328E+02  0.22115431920E+03  0.24052533337E+03  0.00000000000E+00 0.  1.
         12    1    3    3    0    0  0.19787764069E+02  0.26747017763E+01  0.41650237407E+02  0.46189305174E+02  0.00000000000E+00 0. -1.
        -11    1    4    4    0    0 -0.20482155514E+02 -0.98417197312E+01  0.62378544788E+02  0.66388711327E+02  0.00000000000E+00 0. -1.
         11    1    4    4    0    0  0.24368228471E+02 -0.20104040078E+02 -0.22042132104E+02  0.38520625306E+02  0.00000000000E+00 0.  1.
         21    1    1    2  503  502  0.53148412955E+02 -0.91606421825E+02 -0.17149191820E+03  0.20155884582E+03  0.00000000000E+00 0. -1.
          1    1    1    2  501    0 -0.39310349753E+01  0.58627385530E+02  0.24053258261E+03  0.24760562729E+03  0.00000000000E+00 0. -1.
<scales pt_clust_5="13000.00000" pt_clust_6="13000.00000" pt_clust_7="13000.00000" pt_clust_8="13000.00000" pt_clust_9="66.72634" pt_clust_10="58.75906"></scales>
<clustering>
<clus scale="   58.759">  2 10  1 -1</clus>
<clus scale="   66.726">  2  9  1 -1</clus>
<clus scale="   79.747">  5  6 -1 -1</clus>
<clus scale="   92.017">  7  8 -1 -1</clus>
<clus scale="  104.218">  1  5  2 -1</clus>
<clus scale="   58.759">  2  5  1 -1</clus>
</clustering>
</event>
<event>
10    4  0.3043429E-005  0.1126044E+03  0.7546771E-02  0.1260422E+00
         21   -1    0    0  501  502  0.00000000000E+00  0.00000000000E+00  0.91919904927E+02  0.91919904927E+02  0.00000000000E+00 0.  1.
          2   -1    0    0  503    0 -0.00000000000E+00 -0.00000000000E+00 -0.62801155872E+03  0.62801155872E+03  0.00000000000E+00 0. -1.
         24    2    1    2    0    0 -0.57781509196E+02  0.20335007268E+02 -0.51597257007E+03  0.52645024080E+03  0.84675543384E+02 0.  0.
         23    2    1    2    0    0  0.92167327928E+01 -0.50654787666E+02  0.44594406665E+01  0.10929001140E+03  0.96299347374E+02 0.  0.
        -13    1    3    3    0    0 -0.47966973863E+02 -0.27154707561E+02 -0.23988068315E+03  0.24613197857E+03  0.00000000000E+00 0.  1.
         14    1    3    3    0    0 -0.98145353322E+01  0.47489714829E+02 -0.27609188692E+03  0.28031826223E+03  0.00000000000E+00 0. -1.
        -13    1    4    4    0    0  0.41485467160E+02 -0.96488483203E+01 -0.24980513789E+02  0.49377832360E+02  0.00000000000E+00 0.  1.
         13    1    4    4    0    0 -0.32268734367E+02 -0.41005939346E+02  0.29439954456E+02  0.59912179043E+02  0.00000000000E+00 0. -1.
         21    1    1    2  503  502  0.47954068718E+02 -0.10261190814E+00 -0.54815894218E+01  0.48266458938E+02  0.00000000000E+00 0.  1.
          1    1    1    2  501    0  0.61070768435E+00  0.30422392306E+02 -0.19096934966E+02  0.35924752506E+02  0.00000000000E+00 0. -1.
<scales pt_clust_5="13000.00000" pt_clust_6="13000.00000" pt_clust_7="13000.00000" pt_clust_8="13000.00000" pt_clust_9="48.72138" pt_clust_10="30.42852"></scales>
<clustering>
<clus scale="   30.429">  1 10  2 -1</clus>
<clus scale="   48.721">  1  9  2 -1</clus>
<clus scale="   84.676">  5  6 -1 -1</clus>
<clus scale="   96.299">  7  8 -1 -1</clus>
<clus scale="  102.840">  2  5  1 -1</clus>
<clus scale="   30.429">  1  5  2 -1</clus>
</clustering>
</event>
<event>
10    4  0.3043429E-005  0.1637725E+03  0.7546771E-02  0.1213024E+00
          2   -1    0    0  502    0 -0.00000000000E+00  0.00000000000E+00  0.62071750891E+03  0.62071750891E+03  0.00000000000E+00 0. -1.
         21   -1    0    0  503  502  0.00000000000E+00 -0.00000000000E+00 -0.20696164717E+03  0.20696164717E+03  0.00000000000E+00 0.  1.
         24    2    1    2    0    0 -0.13574884298E+02 -0.32942593474E+02  0.12811910868E+03  0.15584336944E+03  0.81259816891E+02 0.  0.
         23    2    1    2    0    0  0.73299746365E+02 -0.54865504601E+02  0.35431740016E+02  0.13806207303E+03  0.97070342522E+02 0.  0.
        -13    1    3    3    0    0 -0.11510283582E+02 -0.57128794209E+02  0.11328411207E+03  0.12739495988E+03  0.00000000000E+00 0.  1.
         14    1    3    3    0    0 -0.20646007164E+01  0.24186200735E+02  0.14834996615E+02  0.28448409563E+02  0.00000000000E+00 0. -1.
        -11    1    4    4    0    0  0.71296808523E+02 -0.79420876039E+02  0.38000873540E+02  0.11329155682E+03  0.00000000000E+00 0. -1.
         11    1    4    4    0    0  0.20029378420E+01  0.24555371439E+02 -0.25691335233E+01  0.24770516215E+02  0.00000000000E+00 0.  1.
         21    1    1    2  503  501  0.63989238445E+02 -0.46406047636E+01 -0.11809835050E+03  0.13440006786E+03  0.00000000000E+00 0.  1.
          1    1    1    2  501    0 -0.12371410051E+03  0.92448702839E+02  0.36830336354E+03  0.39937364575E+03  0.00000000000E+00 0. -1.
<scales pt_clust_5="13000.00000" pt_clust_6="13000.00000" pt_clust_7="13000.00000" pt_clust_8="13000.00000" pt_clust_9="64.15729" pt_clust_10="131.90454"></scales>
<clustering>
<clus scale="   64.157">  2  9  1 -1</clus>
<clus scale="   81.260">  5  6 -1 -1</clus>
<clus scale="   88.024">  1  5  2 -1</clus>
<clus scale="   97.070">  7  8 -1 -1</clus>
<clus scale="  131.905">  2 10  1 -1</clus>
<clus scale="   64.157">  2  5  1 -1</clus>
</clustering>
</event>
<event>
10    4  0.3043429E-005  0.1696300E+03  0.7546771E-02  0.1180024E+00
         21   -1    0    0  503  502  0.00000000000E+00  0.00000000000E+00  0.38204361671E+03  0.38204361671E+03  0.00000000000E+00 0.  1.
         -1   -1    0    0    0  501 -0.00000000000E+00 -0.00000000000E+00 -0.35423934950E+03  0.35423934950E+03  0.00000000000E+00 0.  1.
         23    2    1    2    0    0  0.45194722630E+01 -0.14039040465E+03 -0.21124635503E+03  0.26983549334E+03  0.91958031758E+02 0.  0.
         24    2    1    2    0    0  0.13282544165E+03  0.14704916519E+03  0.78930268042E+02  0.22743133742E+03  0.78923830952E+02 0.  0.
        -11    1    4    4    0    0  0.14083500766E+03  0.12602416977E+03  0.79245078428E+02  0.20493016666E+03  0.00000000000E+00 0.  1.
         12    1    4    4    0    0 -0.80095660097E+01  0.21024995421E+02 -0.31481038646E+00  0.22501170763E+02  0.00000000000E+00 0. -1.
        -13    1    3    3    0    0 -0.85367197305E+01 -0.39058821099E+02 -0.13917587230E+03  0.14480466332E+03  0.00000000000E+00 0.  1.
         13    1    3    3    0    0  0.13056191993E+02 -0.10133158355E+03 -0.72070482739E+02  0.12503083003E+03  0.00000000000E+00 0. -1.
         21    1    1    2  503  501  0.18281482290E+02 -0.84802427633E+01  0.89605600027E+01  0.22054903028E+02  0.00000000000E+00 0. -1.
         -2    1    1    2    0  502 -0.15562639621E+03  0.18214822214E+01  0.15115979419E+03  0.21696123242E+03  0.00000000000E+00 0.  1.
<scales pt_clust_5="13000.00000" pt_clust_6="13000.00000" pt_clust_7="13000.00000" pt_clust_8="13000.00000" pt_clust_9="20.15260" pt_clust_10="146.46640"></scales>
<clustering>
<clus scale="   20.153">  1  9  2 -1</clus>
<clus scale="   78.924">  5  6 -1 -1</clus>
<clus scale="   91.958">  7  8 -1 -1</clus>
<clus scale="  146.466">  1 10  2 -1</clus>
<clus scale="  162.933">  1  5  2 -1</clus>
<clus scale="   20.153">  1  5  2 -1</clus>
</clustering>
</event>
<event>
10    4  0.3043429E-005  0.1089222E+03  0.7546771E-02  0.1264691E+00
          2   -1    0    0  502    0 -0.00000000000E+00  0.00000000000E+00  0.12067320661E+03  0.12067320661E+03  0.00000000000E+00 0. -1.
         21   -1    0    0  503  502  0.00000000000E+00 -0.00000000000E+00 -0.25752784642E+03  0.25752784642E+03  0.00000000000E+00 0.  1.
         23    2    1    2    0    0  0.20671132500E+00  0.72746524293E+02 -0.23220227115E+02  0.11512686053E+03  0.86156343593E+02 0.  0.
         24    2    1    2    0    0  0.73823013117E+02 -0.39528705902E+02 -0.42610075278E+02  0.12373725702E+03  0.80516671590E+02 0.  0.
        -13    1    4    4    0    0  0.83326710527E+02 -0.45226880911E+02 -0.52939690898E+02  0.10858831575E+03  0.00000000000E+00 0.  1.
         14    1    4    4    0    0 -0.95036974100E+01  0.56981750090E+01  0.10329615620E+02  0.15148941275E+02  0.00000000000E+00 0. -1.
        -11    1    3    3    0    0  0.30152206811E+02  0.41743927383E+02  0.18906794894E+02  0.54855974534E+02  0.00000000000E+00 0. -1.
         11    1    3    3    0    0 -0.29945495486E+02  0.31002596910E+02 -0.42127022009E+02  0.60270885993E+02  0.00000000000E+00 0.  1.
         21    1    1    2  503  501 -0.17848353196E+02 -0.19203223658E+02 -0.76795316987E+02  0.81147077716E+02  0.00000000000E+00 0. -1.
          1    1    1    2  501    0 -0.56181371246E+02 -0.14014594733E+02  0.57709795705E+01  0.58189857757E+02  0.00000000000E+00 0. -1.
<scales pt_clust_5="13000.00000" pt_clust_6="13000.00000" pt_clust_7="13000.00000" pt_clust_8="13000.00000" pt_clust_9="26.21693" pt_clust_10="61.16332"></scales>
<clustering>
<clus scale="   26.217">  2  9  1 -1</clus>
<clus scale="   61.163">  2 10  1 -1</clus>
<clus scale="   80.517">  5  6 -1 -1</clus>
<clus scale="   86.156">  7  8 -1 -1</clus>
<clus scale="  104.518">  2  5  1 -1</clus>
<clus scale="   26.217">  2  5  1 -1</clus>
</clustering>
</event>
<event>
10    4  0.3043429E-005  0.1225003E+03  0.7546771E-02  0.1255264E+00
         21   -1    0    0  501  502  0.00000000000E+00  0.00000000000E+00  0.49419756474E+03  0.49419756474E+03  0.00000000000E+00 0.  1.
         -1   -1    0    0    0  501 -0.00000000000E+00 -0.00000000000E+00 -0.14168671461E+03  0.14168671461E+03  0.00000000000E+00 0.  1.
         24    2    1    2    0    0 -0.24209284277E+02 -0.27503302669E+02 -0.82527514806E+02  0.12050019782E+03  0.79793394907E+02 0.  0.
         23    2    1    2    0    0 -0.66362393354E+02  0.39235270618E+02  0.28416381297E+03  0.30896360176E+03  0.93627244444E+02 0.  0.
        -13    1    3    3    0    0  0.22729686189E+02 -0.18893200981E+02 -0.61734051098E+02  0.68444756866E+02  0.00000000000E+00 0.  1.
         14    1    3    3    0    0 -0.46938970466E+02 -0.86101016883E+01 -0.20793463708E+02  0.52055440950E+02  0.00000000000E+00 0. -1.
        -11    1    4    4    0    0 -0.85848119912E+02  0.30909785273E+02  0.17087410578E+03  0.19370925260E+03  0.00000000000E+00 0.  1.
         11    1    4    4    0    0  0.19485726558E+02  0.83254853451E+01  0.11328970719E+03  0.11525434916E+03  0.00000000000E+00 0. -1.
         21    1    1    2  503  502 -0.15479413522E+01 -0.43358872062E+02  0.49993316759E+02  0.66194558912E+02  0.00000000000E+00 0. -1.
         -2    1    1    2    0  503  0.92119618983E+02  0.31626904113E+02  0.10088123521E+03  0.14022592086E+03  0.00000000000E+00 0.  1.
<scales pt_clust_5="13000.00000" pt_clust_6="13000.00000" pt_clust_7="13000.00000" pt_clust_8="13000.00000" pt_clust_9="43.38649" pt_clust_10="78.99531"></scales>
<clustering>
<clus scale="   43.386">  1  9  2 -1</clus>
<clus scale="   79.793">  5  6 -1 -1</clus>
<clus scale="   88.432">  2  5  1 -1</clus>
<clus scale="   78.995">  1 10  2 -1</clus>
<clus scale="   93.627">  7  8 -1 -1</clus>
<clus scale="   43.386">  1  5  2 -1</clus>
</clustering>
</event>
<event>
10    4  0.3043429E-005  0.1499220E+03  0.7546771E-02  0.1214793E+00
         21   -1    0    0  501  502  0.00000000000E+00  0.00000000000E+00  0.41956957418E+03  0.41956957418E+03  0.00000000000E+00 0. -1.
          4   -1    0    0  503    0 -0.00000000000E+00 -0.00000000000E+00 -0.15359396103E+03  0.15359396103E+03  0.00000000000E+00 0. -1.
         23    2    1    2    0    0 -0.42385093052E+02 -0.27221434607E+02  0.14160094191E+03  0.17667314403E+03  0.92871257421E+02 0.  0.
         24    2    1    2    0    0 -0.49214212977E+02 -0.38134453624E+02 -0.14933074227E+02  0.10169784706E+03  0.79013796758E+02 0.  0.
        -13    1    4    4    0    0 -0.28084010698E+02  0.17179082598E+02  0.14024283714E+02  0.35784257285E+02  0.00000000000E+00 0.  1.
         14    1    4    4    0    0 -0.21130202280E+02 -0.55313536222E+02 -0.28957357941E+02  0.65913589773E+02  0.00000000000E+00 0. -1.
        -13    1    3    3    0    0 -0.65785028901E+02  0.13665949548E+01  0.10941222512E+03  0.12767369586E+03  0.00000000000E+00 0. -1.
         13    1    3    3    0    0  0.23399935848E+02 -0.28588029562E+02  0.32188716798E+02  0.48999448171E+02  0.00000000000E+00 0.  1.
         21    1    1    2  503  502 -0.71597185426E+02 -0.80134859205E+01  0.72526170346E+01  0.72408379151E+02  0.00000000000E+00 0. -1.
          3    1    1    2  501    0  0.16319649146E+03  0.73369374152E+02  0.13205512843E+03  0.22238416497E+03  0.00000000000E+00 0. -1.
<scales pt_clust_5="13000.00000" pt_clust_6="13000.00000" pt_clust_7="13000.00000" pt_clust_8="13000.00000" pt_clust_9="72.04424" pt_clust_10="127.41047"></scales>
<clustering>
<clus scale="   72.044">  2  9  1 -1</clus>
<clus scale="   79.014">  5  6 -1 -1</clus>
<clus scale="   92.871">  7  8 -1 -1</clus>
<clus scale="  110.518">  2  7  1 -1</clus>
<clus scale="  127.410">  1 10  2 -1</clus>
<clus scale="  127.410">  1  5  2 -1</clus>
</clustering>
</event>
<event>
10    4  0.3043429E-005  0.2243849E+03  0.7546771E-02  0.1172216E+00
         -1   -1    0    0    0  501 -0.00000000000E+00  0.00000000000E+00  0.13830836123E+03  0.13830836123E+03  0.00000000000E+00 0.  1.
         21   -1    0    0  501  502  0.00000000000E+00 -0.00000000000E+00 -0.14777422601E+04  0.14777422601E+04  0.00000000000E+00 0.  1.
         24    2    1    2    0    0 -0.37338576832E+01 -0.31186897921E+02 -0.10307045184E+03  0.13396946061E+03  0.79609886557E+02 0.  0.
         23    2    1    2    0    0  0.20386253910E+03  0.39954996725E+02 -0.12501615175E+02  0.22682807888E+03  0.90212806042E+02 0.  0.
        -11    1    3    3    0    0  0.38347668836E+01  0.24585431278E+02 -0.53359775292E+02  0.58876264211E+02  0.00000000000E+00 0.  1.
         12    1    3    3    0    0 -0.75686245668E+01 -0.55772329199E+02 -0.49710676547E+02  0.75093196395E+02  0.00000000000E+00 0. -1.
        -13    1    4    4    0    0  0.26047362786E+02  0.39054143863E+02  0.87274264550E+01  0.47747871507E+02  0.00000000000E+00 0. -1.
         13    1    4    4    0    0  0.17781517631E+03  0.90085286200E+00 -0.21229041630E+02  0.17908020737E+03  0.00000000000E+00 0.  1.
         21    1    1    2  503  502  0.21153651141E+02  0.45964671347E+02 -0.24997306850E+03  0.25504266887E+03  0.00000000000E+00 0. -1.
         -2    1    1    2    0  503 -0.22128233256E+03 -0.54732770152E+02 -0.97388876340E+03  0.10002104130E+04  0.00000000000E+00 0.  1.
<scales pt_clust_5="13000.00000" pt_clust_6="13000.00000" pt_clust_7="13000.00000" pt_clust_8="13000.00000" pt_clust_9="50.59870" pt_clust_10="205.45127"></scales>
<clustering>
<clus scale="   50.599">  2  9  1 -1</clus>
<clus scale="   79.610">  5  6 -1 -1</clus>
<clus scale="   83.998">  1  5  2 -1</clus>
<clus scale="   90.213">  7  8 -1 -1</clus>
<clus scale="  205.451">  2 10  1 -1</clus>
<clus scale="   50.599">  2  5  1 -1</clus>
</clustering>
</event>
<event>
10    4  0.3043429E-005  0.1101794E+03  0.7546771E-02  0.1263545E+00
         21   -1    0    0  501  502  0.00000000000E+00  0.00000000000E+00  0.52090766764E+02  0.52090766764E+02  0.00000000000E+00 0. -1.
          2   -1    0    0  503    0 -0.00000000000E+00 -0.00000000000E+00 -0.12689715450E+04  0.12689715450E+04  0.00000000000E+00 0. -1.
         24    2    1    2    0    0 -0.33109288642E+02  0.48493790818E+02 -0.76741523766E+03  0.77401378341E+03  0.81995836321E+02 0.  0.
         23    2    1    2    0    0  0.47243572492E+02 -0.66419709880E+02 -0.22836092788E+03  0.25882660215E+03  0.90548128607E+02 0.  0.
        -13    1    3    3    0    0  0.25657465264E+02  0.40649142120E+01 -0.15189090993E+03  0.15409632562E+03  0.00000000000E+00 0.  1.
         14    1    3    3    0    0 -0.58766753906E+02  0.44428876606E+02 -0.61552432773E+03  0.61991745779E+03  0.00000000000E+00 0. -1.
        -13    1    4    4    0    0  0.42969409078E+02  0.10354730333E+02 -0.70032605887E+02  0.82813987008E+02  0.00000000000E+00 0.  1.
         13    1    4    4    0    0  0.42741634137E+01 -0.76774440213E+02 -0.15832832199E+03  0.17601261514E+03  0.00000000000E+00 0. -1.
         21    1    1    2  503  502 -0.45635888829E+02  0.24591266786E+02  0.11747418574E+02  0.53154177583E+02  0.00000000000E+00 0. -1.
          1    1    1    2  501    0  0.31501604980E+02 -0.66653477236E+01 -0.23285203129E+03  0.23506774864E+03  0.00000000000E+00 0. -1.
<scales pt_clust_5="13000.00000" pt_clust_6="13000.00000" pt_clust_7="13000.00000" pt_clust_8="13000.00000" pt_clust_9="32.69043" pt_clust_10="32.19905"></scales>
<clustering>
<clus scale="   32.199">  1 10  2 -1</clus>
<clus scale="   32.690">  1  9  2 -1</clus>
<clus scale="   81.996">  5  6 -1 -1</clus>
<clus scale="   90.548">  7  8 -1 -1</clus>
<clus scale="  103.266">  2  5  1 -1</clus>
<clus scale="   32.199">  1  5  2 -1</clus>
</clustering>
</event>
<event>
10    4  0.3043429E-005  0.1099726E+03  0.7546771E-02  0.1265686E+00
         21   -1    0    0  501  502  0.00000000000E+00  0.00000000000E+00  0.29094323844E+03  0.29094323844E+03  0.00000000000E+00 0. -1.
          4   -1    0    0  503    0 -0.00000000000E+00 -0.00000000000E+00 -0.10363535883E+03  0.10363535883E+03  0.00000000000E+00 0. -1.
         24    2    1    2    0    0  0.62091403903E+02  0.69867355136E+01 -0.25878062846E+02  0.10559802848E+03  0.81099399328E+02 0.  0.
         23    2    1    2    0    0 -0.41769618167E+02 -0.11463287128E+02  0.10691110613E+03  0.14851533048E+03  0.93545234087E+02 0.  0.
        -11    1    3    3    0    0  0.40530820973E+02 -0.27870957482E+02  0.11066337244E+02  0.50418265933E+02  0.00000000000E+00 0.  1.
         12    1    3    3    0    0  0.21560582930E+02  0.34857692996E+02 -0.36944400090E+02  0.55179762552E+02  0.00000000000E+00 0. -1.
        -13    1    4    4    0    0 -0.74153316447E+01  0.31830601443E+02  0.56703224308E+01  0.33171175561E+02  0.00000000000E+00 0.  1.
         13    1    4    4    0    0 -0.34354286523E+02 -0.43293888571E+02  0.10124078370E+03  0.11534415492E+03  0.00000000000E+00 0. -1.
         21    1    1    2  503  502 -0.12001818465E+02 -0.26500962547E+02  0.10435303852E+03  0.10833236502E+03  0.00000000000E+00 0. -1.
          3    1    1    2  501    0 -0.83199672709E+01  0.30977514162E+02  0.19217978051E+01  0.32132873289E+02  0.00000000000E+00 0. -1.
<scales pt_clust_5="13000.00000" pt_clust_6="13000.00000" pt_clust_7="13000.00000" pt_clust_8="13000.00000" pt_clust_9="29.09200" pt_clust_10="30.05007"></scales>
<clustering>
<clus scale="   29.092">  1  9  2 -1</clus>
<clus scale="   30.050">  1 10  2 -1</clus>
<clus scale="   81.099">  5  6 -1 -1</clus>
<clus scale="   93.545">  7  8 -1 -1</clus>
<clus scale="   99.601">  2  5  1 -1</clus>
<clus scale="   29.092">  1  5  2 -1</clus>
</clustering>
</event>
<event>
10    4  0.3043429E-005  0.9109340E+02  0.7546771E-02  0.1302539E+00
         21   -1    0    0  501  502  0.00000000000E+00  0.00000000000E+00  0.15613553338E+03  0.15613553338E+03  0.00000000000E+00 0. -1.
          2   -1    0    0  503    0 -0.00000000000E+00 -0.00000000000E+00 -0.18413480464E+03  0.18413480464E+03  0.00000000000E+00 0. -1.
         24    2    1    2    0    0 -0.10449305913E+02 -0.78920939389E+01 -0.53482775182E+02  0.10214101290E+03  0.86028519305E+02 0.  0.
         23    2    1    2    0    0  0.30173096968E+02 -0.51030563781E+02  0.69304050608E+02  0.12804491557E+03  0.89877220434E+02 0.  0.
        -13    1    3    3    0    0 -0.86601747308E+01 -0.41548798962E+02 -0.53686204806E+02  0.68436173972E+02  0.00000000000E+00 0.  1.
         14    1    3    3    0    0 -0.17891311824E+01  0.33656705023E+02  0.20342962398E+00  0.33704838926E+02  0.00000000000E+00 0. -1.
        -13    1    4    4    0    0 -0.52169851394E+01 -0.47217471035E+02 -0.28483986729E+01  0.47590123764E+02  0.00000000000E+00 0.  1.
         13    1    4    4    0    0  0.35390082108E+02 -0.38130927462E+01  0.72152449281E+02  0.80454791809E+02  0.00000000000E+00 0. -1.
         21    1    1    2  503  502 -0.22624424569E+02 -0.11204999293E+02  0.34227708593E+01  0.25478068149E+02  0.00000000000E+00 0. -1.
          1    1    1    2  501    0  0.29006335145E+01  0.70127657013E+02 -0.47243317543E+02  0.84606341402E+02  0.00000000000E+00 0. -1.
<scales pt_clust_5="13000.00000" pt_clust_6="13000.00000" pt_clust_7="13000.00000" pt_clust_8="13000.00000" pt_clust_9="25.24711" pt_clust_10="68.65034"></scales>
<clustering>
<clus scale="   25.247">  1  9  2 -1</clus>
<clus scale="   68.650">  1 10  2 -1</clus>
<clus scale="   86.029">  5  6 -1 -1</clus>
<clus scale="   87.298">  2  5  1 -1</clus>
<clus scale="   89.877">  7  8 -1 -1</clus>
<clus scale="   25.247">  1  5  2 -1</clus>
</clustering>
</event>
<event>
10    4  0.3043429E-005  0.2010685E+03  0.7546771E-02  0.1149806E+00
         21   -1    0    0  503  502  0.00000000000E+00  0.00000000000E+00  0.13716814115E+03  0.13716814115E+03  0.00000000000E+00 0. -1.
          2   -1    0    0  502    0 -0.00000000000E+00 -0.00000000000E+00 -0.69588470956E+03  0.69588470956E+03  0.00000000000E+00 0. -1.
         24    2    1    2    0    0 -0.15953052094E+01  0.18561659045E+03 -0.48139452117E+03  0.52220277854E+03  0.80616333657E+02 0.  0.
         23    2    1    2    0    0  0.47060634246E+01 -0.14928789067E+03  0.14885075705E+02  0.17561115882E+03  0.91152028455E+02 0.  0.
        -11    1    3    3    0    0  0.39113376708E+02  0.80775633966E+02 -0.22399108305E+03  0.24130181219E+03  0.00000000000E+00 0.  1.
         12    1    3    3    0    0 -0.40708681918E+02  0.10484095648E+03 -0.25740343812E+03  0.28090096635E+03  0.00000000000E+00 0. -1.
        -13    1    4    4    0    0 -0.27970802270E+02 -0.68677978360E+01  0.41149323290E+01  0.29094073191E+02  0.00000000000E+00 0.  1.
         13    1    4    4    0    0  0.32676865695E+02 -0.14242009283E+03  0.10770143376E+02  0.14651708563E+03  0.00000000000E+00 0. -1.
         21    1    1    2  503  501  0.33001876791E+02 -0.11937747853E+02 -0.21120553595E+01  0.35158135237E+02  0.00000000000E+00 0. -1.
          1    1    1    2  501    0 -0.36112635006E+02 -0.24390951926E+02 -0.90095067593E+02  0.10008077811E+03  0.00000000000E+00 0. -1.
<scales pt_clust_5="13000.00000" pt_clust_6="13000.00000" pt_clust_7="13000.00000" pt_clust_8="13000.00000" pt_clust_9="35.09464" pt_clust_10="42.73885"></scales>
<clustering>
<clus scale="   35.095">  1  9  2 -1</clus>
<clus scale="   42.739">  1 10  2 -1</clus>
<clus scale="   80.616">  5  6 -1 -1</clus>
<clus scale="   91.152">  7  8 -1 -1</clus>
<clus scale="  196.517">  2  5  1 -1</clus>
<clus scale="   35.095">  1  5  2 -1</clus>
</clustering>
</event>
<event>
10    4  0.3043429E-005  0.1271949E+03  0.7546771E-02  0.1237809E+00
          2   -1    0    0  502    0 -0.00000000000E+00  0.00000000000E+00  0.37985934663E+03  0.37985934663E+03  0.00000000000E+00 0. -1.
         21   -1    0    0  503  502  0.00000000000E+00 -0.00000000000E+00 -0.27095915696E+03  0.27095915696E+03  0.00000000000E+00 0. -1.
         24    2    1    2    0    0 -0.41499858698E+02 -0.59332125401E+02  0.15867447075E+03  0.19441185023E+03  0.85882713430E+02 0.  0.
         23    2    1    2    0    0 -0.34552902115E+02 -0.63941103833E+02 -0.17825010196E+03  0.21524672548E+03  0.96310363816E+02 0.  0.
        -13    1    3    3    0    0  0.26903456666E+02 -0.14891922734E+02  0.44591112844E+02  0.54165788907E+02  0.00000000000E+00 0.  1.
         14    1    3    3    0    0 -0.68403315364E+02 -0.44440202666E+02  0.11408335790E+03  0.14024606132E+03  0.00000000000E+00 0. -1.
        -11    1    4    4    0    0 -0.63235213406E+02 -0.48914713897E+02 -0.15794902895E+03  0.17702891627E+03  0.00000000000E+00 0. -1.
         11    1    4    4    0    0  0.28682311291E+02 -0.15026389936E+02 -0.20301073008E+02  0.38217809209E+02  0.00000000000E+00 0.  1.
         21    1    1    2  503  501  0.22220791811E+02 -0.11287461707E+02 -0.21269881805E+02  0.32765504001E+02  0.00000000000E+00 0.  1.
          1    1    1    2  501    0  0.53831969002E+02  0.13456069094E+03  0.14974570269E+03  0.20839442388E+03  0.00000000000E+00 0. -1.
<scales pt_clust_5="13000.00000" pt_clust_6="13000.00000" pt_clust_7="13000.00000" pt_clust_8="13000.00000" pt_clust_9="24.92329" pt_clust_10="83.08346"></scales>
<clustering>
<clus scale="   24.923">  2  9  1 -1</clus>
<clus scale="   85.883">  5  6 -1 -1</clus>
<clus scale="   96.310">  7  8 -1 -1</clus>
<clus scale="  112.182">  1  5  2 -1</clus>
<clus scale="   83.083">  2 10  1 -1</clus>
<clus scale="   24.923">  2  5  1 -1</clus>
</clustering>
</event>
<event>
10    4  0.3043429E-005  0.1080963E+03  0.7546771E-02  0.1268227E+00
         21   -1    0    0  501  502  0.00000000000E+00  0.00000000000E+00  0.35345550919E+03  0.35345550919E+03  0.00000000000E+00 0. -1.
          2   -1    0    0  503    0 -0.00000000000E+00 -0.00000000000E+00 -0.12286711298E+03  0.12286711298E+03  0.00000000000E+00 0. -1.
         23    2    1    2    0    0  0.38441264555E+02 -0.35328057933E+02 -0.64645895503E+01  0.10511226787E+03  0.90999974946E+02 0.  0.
         24    2    1    2    0    0 -0.81591485299E+02 -0.16790488319E+02  0.15315645180E+02  0.11719666957E+03  0.81002465386E+02 0.  0.
        -11    1    4    4    0    0 -0.45770028248E+01 -0.33170250889E+02  0.18764937189E+02  0.38384076993E+02  0.00000000000E+00 0.  1.
         12    1    4    4    0    0 -0.77014482475E+02  0.16379762570E+02 -0.34492920096E+01  0.78812592573E+02  0.00000000000E+00 0. -1.
        -13    1    3    3    0    0  0.54966732267E+02  0.10554695454E+02 -0.64755512208E+01  0.56344263380E+02  0.00000000000E+00 0. -1.
         13    1    3    3    0    0 -0.16525467712E+02 -0.45882753387E+02  0.10961670503E-01  0.48768004487E+02  0.00000000000E+00 0.  1.
         21    1    1    2  503  502 -0.57858635399E+01  0.32593326092E+02  0.18923274866E+03  0.19210630986E+03  0.00000000000E+00 0. -1.
          1    1    1    2  501    0  0.48936084285E+02  0.19525220160E+02  0.32504591920E+02  0.61907374870E+02  0.00000000000E+00 0. -1.
<scales pt_clust_5="13000.00000" pt_clust_6="13000.00000" pt_clust_7="13000.00000" pt_clust_8="13000.00000" pt_clust_9="33.10289" pt_clust_10="55.43467"></scales>
<clustering>
<clus scale="   33.103">  1  9  2 -1</clus>
<clus scale="   55.435">  1 10  2 -1</clus>
<clus scale="   81.002">  5  6 -1 -1</clus>
<clus scale="   91.000">  7  8 -1 -1</clus>
<clus scale="   99.826">  1  5  2 -1</clus>
<clus scale="   33.103">  1  5  2 -1</clus>
</clustering>
</event>
<event>
10    4  0.3043429E-005  0.2611171E+03  0.7546771E-02  0.1147489E+00
          2   -1    0    0  502    0 -0.00000000000E+00  0.00000000000E+00  0.18081367185E+04  0.18081367185E+04  0.00000000000E+00 0. -1.
         21   -1    0    0  503  502  0.00000000000E+00 -0.00000000000E+00 -0.76340391675E+02  0.76340391675E+02  0.00000000000E+00 0. -1.
         24    2    1    2    0    0  0.27710904481E+02 -0.45140856143E+02  0.19858183317E+03  0.22137907176E+03  0.82270029954E+02 0.  0.
         23    2    1    2    0    0 -0.11175597507E+03 -0.20374165965E+03  0.32762744797E+03  0.41201254133E+03  0.91730734829E+02 0.  0.
        -13    1    3    3    0    0  0.32891785178E+02 -0.67131359204E+02  0.16138969419E+03  0.17786265013E+03  0.00000000000E+00 0.  1.
         14    1    3    3    0    0 -0.51808806972E+01  0.21990503062E+02  0.37192138981E+02  0.43516421632E+02  0.00000000000E+00 0. -1.
        -13    1    4    4    0    0 -0.10737348273E+02 -0.64945149342E+02  0.15575540352E+03  0.16909437837E+03  0.00000000000E+00 0.  1.
         13    1    4    4    0    0 -0.10101862680E+03 -0.13879651030E+03  0.17187204445E+03  0.24291816296E+03  0.00000000000E+00 0. -1.
         21    1    1    2  503  501 -0.43494252904E+02  0.16449602053E+02  0.63961189043E+02  0.79078272282E+02  0.00000000000E+00 0.  1.
          1    1    1    2  501    0  0.12753932349E+03  0.23243291374E+03  0.11416258567E+04  0.11720072248E+04  0.00000000000E+00 0. -1.
<scales pt_clust_5="13000.00000" pt_clust_6="13000.00000" pt_clust_7="13000.00000" pt_clust_8="13000.00000" pt_clust_9="46.50096" pt_clust_10="244.47424"></scales>
<clustering>
<clus scale="   46.501">  2  9  1 -1</clus>
<clus scale="   82.270">  5  6 -1 -1</clus>
<clus scale="   91.731">  7  8 -1 -1</clus>
<clus scale="   94.804">  1  5  2 -1</clus>
<clus scale="  244.474">  2 10  1 -1</clus>
<clus scale="   46.501">  2  5  1 -1</clus>
</clustering>
</event>
<event>
10    4  0.3043429E-005  0.1447485E+03  0.7546771E-02  0.1226885E+00
          4   -1    0    0  503    0 -0.00000000000E+00  0.00000000000E+00  0.60851388812E+03  0.60851388812E+03  0.00000000000E+00 0. -1.
         21   -1    0    0  501  502  0.00000000000E+00 -0.00000000000E+00 -0.74385979260E+02  0.74385979260E+02  0.00000000000E+00 0. -1.
         24    2    1    2    0    0 -0.40848370041E+02  0.17622516004E+02  0.19335649833E+03  0.21398586902E+03  0.80150323066E+02 0.  0.
         23    2    1    2    0    0  0.13964289787E+03 -0.47796232419E+02  0.16022456972E+03  0.23627132568E+03  0.91474629453E+02 0.  0.
        -11    1    3    3    0    0  0.12209293219E+02  0.24733655180E+02  0.12026506406E+03  0.12338762568E+03  0.00000000000E+00 0.  1.
         12    1    3    3    0    0 -0.53057663261E+02 -0.71111391759E+01  0.73091434278E+02  0.90598243338E+02  0.00000000000E+00 0. -1.
        -13    1    4    4    0    0  0.96799751709E+02 -0.74396747111E+02  0.10071011679E+03  0.15826432174E+03  0.00000000000E+00 0. -1.
         13    1    4    4    0    0  0.42843146165E+02  0.26600514692E+02  0.59514452936E+02  0.78007003938E+02  0.00000000000E+00 0.  1.
         21    1    1    2  503  502 -0.26297917512E+02 -0.33132303804E+02  0.94519139189E+02  0.10355287390E+03  0.00000000000E+00 0. -1.
          3    1    1    2  501    0 -0.72496610320E+02  0.63306020219E+02  0.86027701616E+02  0.12908979878E+03  0.00000000000E+00 0. -1.
<scales pt_clust_5="13000.00000" pt_clust_6="13000.00000" pt_clust_7="13000.00000" pt_clust_8="13000.00000" pt_clust_9="42.30047" pt_clust_10="112.18071"></scales>
<clustering>
<clus scale="   42.300">  1  9  2 -1</clus>
<clus scale="   80.150">  5  6 -1 -1</clus>
<clus scale="   91.475">  7  8 -1 -1</clus>
<clus scale="   95.295">  1  5  2 -1</clus>
<clus scale="  112.181">  2 10  1 -1</clus>
<clus scale="  112.181">  2  5  1 -1</clus>
</clustering>
</event>
<event>
10    4  0.3043429E-005  0.1872462E+03  0.7546771E-02  0.1162442E+00
         21   -1    0    0  503  502  0.00000000000E+00  0.00000000000E+00  0.19329449230E+03  0.19329449230E+03  0.00000000000E+00 0.  1.
         -1   -1    0    0    0  501 -0.00000000000E+00 -0.00000000000E+00 -0.59833342067E+03  0.59833342067E+03  0.00000000000E+00 0.  1.
         23    2    1    2    0    0 -0.10500564473E+03 -0.11967611589E+03 -0.41542390876E+03  0.45389383769E+03  0.89966848220E+02 0.  0.
         24    2    1    2    0    0  0.11155756127E+03  0.14348385661E+03 -0.79513470648E+02  0.21244150661E+03  0.76001941653E+02 0.  0.
        -11    1    4    4    0    0  0.28447921699E+02  0.94274501159E+02 -0.55008354577E+02  0.11279576628E+03  0.00000000000E+00 0.  1.
         12    1    4    4    0    0  0.83109639567E+02  0.49209355450E+02 -0.24505116071E+02  0.99645740333E+02  0.00000000000E+00 0. -1.
        -11    1    3    3    0    0 -0.63318096527E+02 -0.10728693639E+03 -0.37253752403E+03  0.39281531905E+03  0.00000000000E+00 0.  1.
         11    1    3    3    0    0 -0.41687548200E+02 -0.12389179499E+02 -0.42886384732E+02  0.61078518638E+02  0.00000000000E+00 0. -1.
         21    1    1    2  503  501 -0.30928872729E+02 -0.28532408081E+02  0.91187692964E+02  0.10042852596E+03  0.00000000000E+00 0.  1.
         -2    1    1    2    0  502  0.24376956190E+02  0.47246673594E+01 -0.12892419193E+01  0.24864042702E+02  0.00000000000E+00 0.  1.
<scales pt_clust_5="13000.00000" pt_clust_6="13000.00000" pt_clust_7="13000.00000" pt_clust_8="13000.00000" pt_clust_9="31.68948" pt_clust_10="24.83060"></scales>
<clustering>
<clus scale="   24.831">  1 10  2 -1</clus>
<clus scale="   31.689">  1  9  2 -1</clus>
<clus scale="   76.002">  5  6 -1 -1</clus>
<clus scale="   89.967">  7  8 -1 -1</clus>
<clus scale="  180.951">  1  5  2 -1</clus>
<clus scale="   24.831">  1  5  2 -1</clus>
</clustering>
</event>
<event>
10    4  0.3043429E-005  0.1768560E+03  0.7546771E-02  0.1200893E+00
          2   -1    0    0  503    0 -0.00000000000E+00  0.00000000000E+00  0.12580758442E+04  0.12580758442E+04  0.00000000000E+00 0. -1.
         21   -1    0    0  501  502  0.00000000000E+00 -0.00000000000E+00 -0.55943207549E+02  0.55943207549E+02  0.00000000000E+00 0. -1.
         24    2    1    2    0    0  0.30364406573E+02 -0.14429252422E+02  0.58007870867E+02  0.10524713620E+03  0.81128577473E+02 0.  0.
         23    2    1    2    0    0  0.84310735265E+02 -0.65400086784E+02  0.87642181376E+03  0.88981758926E+03  0.11079113271E+03 0.  0.
        -11    1    3    3    0    0  0.44056687841E+02 -0.38080713144E+02  0.27855696958E+02  0.64552864460E+02  0.00000000000E+00 0.  1.
         12    1    3    3    0    0 -0.13692281267E+02  0.23651460722E+02  0.30152173910E+02  0.40694271735E+02  0.00000000000E+00 0. -1.
        -13    1    4    4    0    0  0.89636286126E+02 -0.14513960129E+01  0.50972702881E+03  0.51755039777E+03  0.00000000000E+00 0. -1.
         13    1    4    4    0    0 -0.53255508614E+01 -0.63948690771E+02  0.36669478495E+03  0.37226719148E+03  0.00000000000E+00 0.  1.
         21    1    1    2  503  502  0.19574305678E+02  0.89205679214E+01  0.30486261243E+02  0.37311420495E+02  0.00000000000E+00 0. -1.
          1    1    1    2  501    0 -0.13424944752E+03  0.70908771285E+02  0.23721669079E+03  0.28164290581E+03  0.00000000000E+00 0. -1.
<scales pt_clust_5="13000.00000" pt_clust_6="13000.00000" pt_clust_7="13000.00000" pt_clust_8="13000.00000" pt_clust_9="21.51116" pt_clust_10="137.85275"></scales>
<clustering>
<clus scale="   21.511">  2  9  1 -1</clus>
<clus scale="   81.129">  5  6 -1 -1</clus>
<clus scale="   90.688">  1  5  2 -1</clus>
<clus scale="  110.791">  7  8 -1 -1</clus>
<clus scale="  137.853">  2 10  1 -1</clus>
<clus scale="   21.511">  2  5  1 -1</clus>
</clustering>
</event>
<event>
10    4  0.3043429E-005  0.1035623E+03  0.7546771E-02  0.1278240E+00
          2   -1    0    0  502    0 -0.00000000000E+00  0.00000000000E+00  0.18265493481E+03  0.18265493481E+03  0.00000000000E+00 0. -1.
         21   -1    0    0  503  502  0.00000000000E+00 -0.00000000000E+00 -0.31914606885E+03  0.31914606885E+03  0.00000000000E+00 0. -1.
         24    2    1    2    0    0 -0.37725787985E+02 -0.31404022062E+02  0.12434169787E+03  0.15571899831E+03  0.79863013489E+02 0.  0.
         23    2    1    2    0    0  0.52547256789E+02  0.80540839870E+01 -0.18813393845E+03  0.21577139298E+03  0.91306258093E+02 0.  0.
        -13    1    3    3    0    0  0.18854296330E+02  0.12071483768E+02  0.29605241922E+02  0.37117052143E+02  0.00000000000E+00 0.  1.
         14    1    3    3    0    0 -0.56580084315E+02 -0.43475505830E+02  0.94736455947E+02  0.11860194616E+03  0.00000000000E+00 0. -1.
        -13    1    4    4    0    0  0.36144322386E+02  0.36411826121E+02 -0.42868035591E+02  0.66857322692E+02  0.00000000000E+00 0.  1.
         13    1    4    4    0    0  0.16402934403E+02 -0.28357742134E+02 -0.14526590286E+03  0.14891407029E+03  0.00000000000E+00 0. -1.
         21    1    1    2  503  501  0.15499300471E+02 -0.15065190829E+02 -0.78135596322E+02  0.81070091294E+02  0.00000000000E+00 0. -1.
          1    1    1    2  501    0 -0.30320769274E+02  0.38415128903E+02  0.54367028721E+01  0.49240521079E+02  0.00000000000E+00 0. -1.
<scales pt_clust_5="13000.00000" pt_clust_6="13000.00000" pt_clust_7="13000.00000" pt_clust_8="13000.00000" pt_clust_9="21.61454" pt_clust_10="46.98098"></scales>
<clustering>
<clus scale="   21.615">  2  9  1 -1</clus>
<clus scale="   46.981">  2 10  1 -1</clus>
<clus scale="   79.863">  5  6 -1 -1</clus>
<clus scale="   91.306">  7  8 -1 -1</clus>
<clus scale="   93.629">  1  5  2 -1</clus>
<clus scale="   21.615">  2  5  1 -1</clus>
</clustering>
</event>
<event>
10    4  0.3043429E-005  0.2143551E+03  0.7546771E-02  0.1174105E+00
         21   -1    0    0  501  502  0.00000000000E+00  0.00000000000E+00  0.37889813884E+03  0.37889813884E+03  0.00000000000E+00 0. -1.
          4   -1    0    0  503    0 -0.00000000000E+00 -0.00000000000E+00 -0.60587863809E+03  0.60587863809E+03  0.00000000000E+00 0. -1.
         24    2    1    2    0    0 -0.20319852790E+02 -0.53346195700E+02 -0.36228544151E+03  0.37637832570E+03  0.84564708435E+02 0.  0.
         23    2    1    2    0    0  0.51651565169E+02 -0.17022496852E+03 -0.11740481581E+03  0.23180489069E+03  0.91132828770E+02 0.  0.
        -13    1    3    3    0    0 -0.17452245842E+02 -0.74777383997E+02 -0.31740215930E+03  0.32655836963E+03  0.00000000000E+00 0.  1.
         14    1    3    3    0    0 -0.28676069484E+01  0.21431188298E+02 -0.44883282207E+02  0.49819956073E+02  0.00000000000E+00 0. -1.
        -13    1    4    4    0    0  0.20150892818E+02 -0.14180085287E+03 -0.49124795034E+02  0.15141593656E+03  0.00000000000E+00 0.  1.
         13    1    4    4    0    0  0.31500672350E+02 -0.28424115646E+02 -0.68280020777E+02  0.80388954130E+02  0.00000000000E+00 0. -1.
         21    1    1    2  503  502  0.81804226364E+01  0.30509066532E+02 -0.22013093615E+02  0.38500633056E+02  0.00000000000E+00 0. -1.
          3    1    1    2  501    0 -0.39512135015E+02  0.19306209768E+03  0.27472285170E+03  0.33809292749E+03  0.00000000000E+00 0. -1.
<scales pt_clust_5="13000.00000" pt_clust_6="13000.00000" pt_clust_7="13000.00000" pt_clust_8="13000.00000" pt_clust_9="31.58674" pt_clust_10="194.01782"></scales>
<clustering>
<clus scale="   31.587">  2  9  1 -1</clus>
<clus scale="   84.565">  5  6 -1 -1</clus>
<clus scale="   91.133">  7  8 -1 -1</clus>
<clus scale="   92.297">  2  5  1 -1</clus>
<clus scale="  194.018">  1 10  2 -1</clus>
<clus scale="  194.018">  1  5  2 -1</clus>
</clustering>
</event>
<event>
10    4  0.3043429E-005  0.1045470E+03  0.7546771E-02  0.1276486E+00
         -1   -1    0    0    0  501 -0.00000000000E+00  0.00000000000E+00  0.40238462578E+03  0.40238462578E+03  0.00000000000E+00 0.  1.
         21   -1    0    0  503  502  0.00000000000E+00 -0.00000000000E+00 -0.91485085384E+02  0.91485085384E+02  0.00000000000E+00 0. -1.
         23    2    1    2    0    0 -0.27789025658E+02  0.39536180272E+02  0.31236238981E+03  0.32945458569E+03  0.92923204670E+02 0.  0.
         24    2    1    2    0    0  0.13654414932E+02 -0.45475312910E+02 -0.94060267933E+01  0.94362663983E+02  0.81002418991E+02 0.  0.
        -13    1    4    4    0    0 -0.23025235627E+02  0.10502268466E+02  0.52645476183E+01  0.25849073102E+02  0.00000000000E+00 0.  1.
         14    1    4    4    0    0  0.36679650559E+02 -0.55977581376E+02 -0.14670574412E+02  0.68513590881E+02  0.00000000000E+00 0. -1.
        -11    1    3    3    0    0  0.31155004002E+02  0.31538881496E+02  0.11220783647E+03  0.12064797506E+03  0.00000000000E+00 0. -1.
         11    1    3    3    0    0 -0.58944029661E+02  0.79972987762E+01  0.20015455334E+03  0.20880661063E+03  0.00000000000E+00 0.  1.
         21    1    1    2  503  501  0.19480145387E+02 -0.23632048068E+02 -0.13158512519E+02  0.33333109844E+02  0.00000000000E+00 0. -1.
         -2    1    1    2    0  502 -0.53455346600E+01  0.29571180706E+02  0.21101689901E+02  0.36719351653E+02  0.00000000000E+00 0.  1.
<scales pt_clust_5="13000.00000" pt_clust_6="13000.00000" pt_clust_7="13000.00000" pt_clust_8="13000.00000" pt_clust_9="23.69615" pt_clust_10="30.05045"></scales>
<clustering>
<clus scale="   30.050">  2 10  1 -1</clus>
<clus scale="   23.696">  2  9  1 -1</clus>
<clus scale="   81.002">  5  6 -1 -1</clus>
<clus scale="   92.923">  7  8 -1 -1</clus>
<clus scale="   94.110">  2  5  1 -1</clus>
<clus scale="   30.050">  2  5  1 -1</clus>
</clustering>
</event>
<event>
10    4  0.3043429E-005  0.1468357E+03  0.7546771E-02  0.1228437E+00
         21   -1    0    0  501  502  0.00000000000E+00  0.00000000000E+00  0.29103176045E+02  0.29103176045E+02  0.00000000000E+00 0.  1.
         -3   -1    0    0    0  501 -0.00000000000E+00 -0.00000000000E+00 -0.13202879172E+04  0.13202879172E+04  0.00000000000E+00 0.  1.
         24    2    1    2    0    0 -0.36659260049E+02  0.58594421948E+01 -0.61448218659E+03  0.62080821773E+03  0.80226249768E+02 0.  0.
         23    2    1    2    0    0  0.40522724824E+02  0.10945841636E+03 -0.32530803321E+03  0.35760457674E+03  0.91828539646E+02 0.  0.
        -11    1    3    3    0    0 -0.52826396599E+02 -0.10559658896E+02 -0.25706889752E+03  0.26265291288E+03  0.00000000000E+00 0.  1.
         12    1    3    3    0    0  0.16167136550E+02  0.16419101091E+02 -0.35741328907E+03  0.35815530485E+03  0.00000000000E+00 0. -1.
        -13    1    4    4    0    0  0.69748508932E+02  0.75251803915E+02 -0.20709276834E+03  0.23111707680E+03  0.00000000000E+00 0.  1.
         13    1    4    4    0    0 -0.29225784108E+02  0.34206612443E+02 -0.11821526487E+03  0.12648749994E+03  0.00000000000E+00 0. -1.
         21    1    1    2  503  502 -0.14186585279E+02 -0.38939416798E+02 -0.10832032270E+03  0.11597771205E+03  0.00000000000E+00 0. -1.
         -4    1    1    2    0  503  0.10323120505E+02 -0.76378441755E+02 -0.24307419870E+03  0.25500058678E+03  0.00000000000E+00 0.  1.
<scales pt_clust_5="13000.00000" pt_clust_6="13000.00000" pt_clust_7="13000.00000" pt_clust_8="13000.00000" pt_clust_9="21.17232" pt_clust_10="118.16057"></scales>
<clustering>
<clus scale="   21.172">  9 10 -1 -1</clus>
<clus scale="   80.226">  5  6 -1 -1</clus>
<clus scale="   88.400">  2  5  1 -1</clus>
<clus scale="   91.829">  7  8 -1 -1</clus>
<clus scale="  118.161">  1  9  2 -1</clus>
<clus scale="  118.161">  1  5  2 -1</clus>
</clustering>
</event>
<event>
10    4  0.3043429E-005  0.1846253E+03  0.7546771E-02  0.1164411E+00
          2   -1    0    0  503    0 -0.00000000000E+00  0.00000000000E+00  0.70293368471E+03  0.70293368471E+03  0.00000000000E+00 0. -1.
         21   -1    0    0  501  502  0.00000000000E+00 -0.00000000000E+00 -0.24807514634E+03  0.24807514634E+03  0.00000000000E+00 0. -1.
         24    2    1    2    0    0  0.66828933551E+01 -0.10962423040E+03  0.48673353511E+03  0.50509083163E+03  0.78390567286E+02 0.  0.
         23    2    1    2    0    0 -0.87082008025E+02  0.14571907682E+03 -0.95241419481E+02  0.21351666417E+03  0.87755982249E+02 0.  0.
        -13    1    3    3    0    0 -0.24740266405E+02 -0.77265028042E+01  0.62497955298E+02  0.67659249507E+02  0.00000000000E+00 0.  1.
         14    1    3    3    0    0  0.31423159761E+02 -0.10189772759E+03  0.42423557982E+03  0.43743158212E+03  0.00000000000E+00 0. -1.
        -13    1    4    4    0    0 -0.13035404369E+02  0.75004615397E+02 -0.79241331816E+02  0.10988540743E+03  0.00000000000E+00 0. -1.
         13    1    4    4    0    0 -0.74046603657E+02  0.70714461423E+02 -0.16000087666E+02  0.10363125674E+03  0.00000000000E+00 0.  1.
         21    1    1    2  503  502  0.11938054374E+03 -0.11648708518E+02  0.11294979634E+03  0.16475758898E+03  0.00000000000E+00 0. -1.
          1    1    1    2  501    0 -0.38981429075E+02 -0.24446137905E+02 -0.49583373603E+02  0.67643746267E+02  0.00000000000E+00 0. -1.
<scales pt_clust_5="13000.00000" pt_clust_6="13000.00000" pt_clust_7="13000.00000" pt_clust_8="13000.00000" pt_clust_9="115.03187" pt_clust_10="46.01267"></scales>
<clustering>
<clus scale="   46.013">  2 10  1 -1</clus>
<clus scale="   78.391">  5  6 -1 -1</clus>
<clus scale="   87.756">  7  8 -1 -1</clus>
<clus scale="  115.032">  1  9  2 -1</clus>
<clus scale="  180.362">  1  5  2 -1</clus>
<clus scale="   46.013">  2  5  1 -1</clus>
</clustering>
</event>
<event>
10    4  0.3043429E-005  0.1878768E+03  0.7546771E-02  0.1160800E+00
          2   -1    0    0  502    0 -0.00000000000E+00  0.00000000000E+00  0.75929355245E+03  0.75929355245E+03  0.00000000000E+00 0. -1.
         21   -1    0    0  503  502  0.00000000000E+00 -0.00000000000E+00 -0.10079771973E+03  0.10079771973E+03  0.00000000000E+00 0.  1.
         23    2    1    2    0    0  0.15459081356E+03  0.31885239902E+02  0.22013978113E+03  0.28120491576E+03  0.75496312836E+02 0.  0.
         24    2    1    2    0    0 -0.19906625523E+03  0.31832593846E+02  0.14115364529E+03  0.25870855112E+03  0.79781419157E+02 0.  0.
        -13    1    4    4    0    0 -0.20627440769E+03  0.29959384419E+02  0.14019440157E+03  0.25119945504E+03  0.00000000000E+00 0.  1.
         14    1    4    4    0    0  0.72081524584E+01  0.18732094268E+01  0.95924371975E+00  0.75090960797E+01  0.00000000000E+00 0. -1.
        -13    1    3    3    0    0  0.10595551516E+02 -0.18641288498E+02  0.18435910126E+02  0.28278014976E+02  0.00000000000E+00 0. -1.
         13    1    3    3    0    0  0.14399526205E+03  0.50526528400E+02  0.20170387100E+03  0.25292690079E+03  0.00000000000E+00 0.  1.
         21    1    1    2  503  501 -0.88763695742E+01 -0.27470175076E+02  0.18915248871E+02  0.34513578421E+02  0.00000000000E+00 0.  1.
          1    1    1    2  501    0  0.53351811240E+02 -0.36247658671E+02  0.27828715744E+03  0.28566422688E+03  0.00000000000E+00 0. -1.
<scales pt_clust_5="13000.00000" pt_clust_6="13000.00000" pt_clust_7="13000.00000" pt_clust_8="13000.00000" pt_clust_9="28.86868" pt_clust_10="64.83089"></scales>
<clustering>
<clus scale="   28.869">  2  9  1 -1</clus>
<clus scale="   64.831">  2 10  1 -1</clus>
<clus scale="   75.496">  7  8 -1 -1</clus>
<clus scale="   79.781">  5  6 -1 -1</clus>
<clus scale="  186.098">  1  7  2 -1</clus>
<clus scale="   28.869">  2  5  1 -1</clus>
</clustering>
</event>
<event>
10    4  0.3043429E-005  0.9449427E+02  0.7546771E-02  0.1297996E+00
         21   -1    0    0  501  502  0.00000000000E+00  0.00000000000E+00  0.10305000737E+03  0.10305000737E+03  0.00000000000E+00 0. -1.
          2   -1    0    0  503    0 -0.00000000000E+00 -0.00000000000E+00 -0.53205342613E+03  0.53205342613E+03  0.00000000000E+00 0. -1.
         24    2    1    2    0    0 -0.30548831998E+02 -0.23449844280E+02 -0.19217281231E+03  0.21173718493E+03  0.80119406892E+02 0.  0.
         23    2    1    2    0    0 -0.75161495482E+02  0.15244068696E+02  0.19746395585E+02  0.11995258366E+03  0.90094784275E+02 0.  0.
        -11    1    3    3    0    0 -0.13644194916E+02 -0.51458476199E+02 -0.91247154887E+02  0.10564176306E+03  0.00000000000E+00 0.  1.
         12    1    3    3    0    0 -0.16904637082E+02  0.28008631919E+02 -0.10092565742E+03  0.10609542187E+03  0.00000000000E+00 0. -1.
        -13    1    4    4    0    0  0.12236240561E+02  0.25027900739E+02  0.15558956514E+02  0.31909285894E+02  0.00000000000E+00 0.  1.
         13    1    4    4    0    0 -0.87397736042E+02 -0.97838320435E+01  0.41874390718E+01  0.88043297762E+02  0.00000000000E+00 0. -1.
         21    1    1    2  503  502  0.55087272804E+02  0.26193033967E+02 -0.25397046537E+02  0.66073388184E+02  0.00000000000E+00 0. -1.
          1    1    1    2  501    0  0.50623054676E+02 -0.17987258383E+02 -0.23117995550E+03  0.23734027672E+03  0.00000000000E+00 0. -1.
<scales pt_clust_5="13000.00000" pt_clust_6="13000.00000" pt_clust_7="13000.00000" pt_clust_8="13000.00000" pt_clust_9="69.16009" pt_clust_10="53.72372"></scales>
<clustering>
<clus scale="   53.724">  1 10  2 -1</clus>
<clus scale="   69.160">  1  9  2 -1</clus>
<clus scale="   80.119">  5  6 -1 -1</clus>
<clus scale="   85.037">  2  5  1 -1</clus>
<clus scale="   90.095">  7  8 -1 -1</clus>
<clus scale="   53.724">  1  5  2 -1</clus>
</clustering>
</event>
<event>
10    4  0.3043429E-005  0.1207935E+03  0.7546771E-02  0.1246956E+00
         21   -1    0    0  501  502  0.00000000000E+00  0.00000000000E+00  0.69685319525E+03  0.69685319525E+03  0.00000000000E+00 0.  1.
          2   -1    0    0  503    0 -0.00000000000E+00 -0.00000000000E+00 -0.84629406662E+02  0.84629406662E+02  0.00000000000E+00 0. -1.
         23    2    1    2    0    0 -0.47048732556E+02 -0.52496081477E+02  0.15042659699E+03  0.19212471553E+03  0.96510742564E+02 0.  0.
         24    2    1    2    0    0  0.55367541607E+02  0.54687758323E+02  0.39767366982E+03  0.41324652540E+03  0.81068042514E+02 0.  0.
        -13    1    4    4    0    0  0.66465839899E+02  0.67877224775E+02  0.34365492607E+03  0.35654415397E+03  0.00000000000E+00 0.  1.
         14    1    4    4    0    0 -0.11098298292E+02 -0.13189466451E+02  0.54018743744E+02  0.56702371431E+02  0.00000000000E+00 0. -1.
        -13    1    3    3    0    0  0.25296285294E+02 -0.49544247251E+01  0.67466631072E+02  0.72223228135E+02  0.00000000000E+00 0.  1.
         13    1    3    3    0    0 -0.72345017850E+02 -0.47541656752E+02  0.82959965914E+02  0.11990148739E+03  0.00000000000E+00 0. -1.
         21    1    1    2  503  502  0.13482833563E+02  0.16007089187E+02  0.11551476565E+03  0.11739537806E+03  0.00000000000E+00 0. -1.
          1    1    1    2  501    0 -0.21801642614E+02 -0.18198766034E+02 -0.51391243863E+02  0.58715982931E+02  0.00000000000E+00 0. -1.
<scales pt_clust_5="13000.00000" pt_clust_6="13000.00000" pt_clust_7="13000.00000" pt_clust_8="13000.00000" pt_clust_9="20.92878" pt_clust_10="28.26904"></scales>
<clustering>
<clus scale="   20.929">  1  9  2 -1</clus>
<clus scale="   28.269">  1 10  2 -1</clus>
<clus scale="   81.068">  5  6 -1 -1</clus>
<clus scale="   96.511">  7  8 -1 -1</clus>
<clus scale="  108.852">  1  5  2 -1</clus>
<clus scale="   20.929">  1  5  2 -1</clus>
</clustering>
</event>
<event>
10    4  0.3043429E-005  0.1172152E+03  0.7546771E-02  0.1251459E+00
         -1   -1    0    0    0  501 -0.00000000000E+00  0.00000000000E+00  0.11530667299E+03  0.11530667299E+03  0.00000000000E+00 0.  1.
         21   -1    0    0  501  502  0.00000000000E+00 -0.00000000000E+00 -0.29165949302E+03  0.29165949302E+03  0.00000000000E+00 0.  1.
         23    2    1    2    0    0 -0.57296534508E+02 -0.19784517071E+01 -0.39780388804E+02  0.11425727501E+03  0.90473412789E+02 0.  0.
         24    2    1    2    0    0  0.61729964377E+02  0.98497964453E+02 -0.43048330181E+02  0.14718524766E+03  0.79359315099E+02 0.  0.
        -11    1    4    4    0    0  0.69982908942E+02  0.52687353931E+02 -0.62008415508E+01  0.87818080395E+02  0.00000000000E+00 0.  1.
         12    1    4    4    0    0 -0.82529445647E+01  0.45810610521E+02 -0.36847488631E+02  0.59367167262E+02  0.00000000000E+00 0. -1.
        -11    1    3    3    0    0 -0.71423888084E+02  0.16461615388E+02 -0.63805893024E+01  0.73573558362E+02  0.00000000000E+00 0.  1.
         11    1    3    3    0    0  0.14127353577E+02 -0.18440067095E+02 -0.33399799502E+02  0.40683716648E+02  0.00000000000E+00 0. -1.
         21    1    1    2  503  502 -0.22047011383E+02 -0.39011995981E+02 -0.65021941016E+02  0.78967457568E+02  0.00000000000E+00 0.  1.
         -2    1    1    2    0  503  0.17613581513E+02 -0.57507516765E+02 -0.28502160037E+02  0.66556185775E+02  0.00000000000E+00 0.  1.
<scales pt_clust_5="13000.00000" pt_clust_6="13000.00000" pt_clust_7="13000.00000" pt_clust_8="13000.00000" pt_clust_9="44.81079" pt_clust_10="67.18758"></scales>
<clustering>
<clus scale="   44.811">  2  9  1 -1</clus>
<clus scale="   67.188">  2 10  1 -1</clus>
<clus scale="   79.359">  5  6 -1 -1</clus>
<clus scale="   90.473">  7  8 -1 -1</clus>
<clus scale="  108.866">  2  5  1 -1</clus>
<clus scale="   44.811">  2  5  1 -1</clus>
</clustering>
</event>
<event>
10    4  0.3043429E-005  0.1944074E+03  0.7546771E-02  0.1188169E+00
         21   -1    0    0  503  502  0.00000000000E+00  0.00000000000E+00  0.14816036837E+03  0.14816036837E+03  0.00000000000E+00 0. -1.
          2   -1    0    0  502    0 -0.00000000000E+00 -0.00000000000E+00 -0.75652488547E+03  0.75652488547E+03  0.00000000000E+00 0. -1.
         24    2    1    2    0    0  0.19749990878E+02  0.23860575730E+02 -0.37205241738E+03  0.38284610122E+03  0.84786477257E+02 0.  0.
         23    2    1    2    0    0  0.11109009137E+03  0.11031070167E+03 -0.18289495991E+03  0.25663972014E+03  0.88903994796E+02 0.  0.
        -11    1    3    3    0    0 -0.28496630117E+02  0.25369160529E+02 -0.22098119685E+03  0.22425062229E+03  0.00000000000E+00 0.  1.
         12    1    3    3    0    0  0.48246620995E+02 -0.15085847998E+01 -0.15107122053E+03  0.15859547893E+03  0.00000000000E+00 0. -1.
        -13    1    4    4    0    0  0.76815626137E+02  0.16136577996E+02 -0.65052662004E+02  0.10194546779E+03  0.00000000000E+00 0.  1.
         13    1    4    4    0    0  0.34274465237E+02  0.94174123672E+02 -0.11784229791E+03  0.15469425236E+03  0.00000000000E+00 0. -1.
         21    1    1    2  503  501 -0.30719545573E+02  0.22192002285E+02  0.41896431246E+02  0.56493242045E+02  0.00000000000E+00 0.  1.
          1    1    1    2  501    0 -0.10012053668E+03 -0.15636327968E+03 -0.95313571050E+02  0.20870619043E+03  0.00000000000E+00 0. -1.
<scales pt_clust_5="13000.00000" pt_clust_6="13000.00000" pt_clust_7="13000.00000" pt_clust_8="13000.00000" pt_clust_9="37.89691" pt_clust_10="172.88821"></scales>
<clustering>
<clus scale="   37.897">  1  9  2 -1</clus>
<clus scale="   84.786">  5  6 -1 -1</clus>
<clus scale="   88.904">  7  8 -1 -1</clus>
<clus scale="   90.244">  2  5  1 -1</clus>
<clus scale="  172.888">  1 10  2 -1</clus>
<clus scale="   37.897">  1  5  2 -1</clus>
</clustering>
</event>
<event>
10    4  0.3043429E-005  0.3653195E+03  0.7546771E-02  0.1056943E+00
          2   -1    0    0  503    0 -0.00000000000E+00  0.00000000000E+00  0.21514787570E+04  0.21514787570E+04  0.00000000000E+00 0. -1.
         21   -1    0    0  501  502  0.00000000000E+00 -0.00000000000E+00 -0.95864769245E+02  0.95864769245E+02  0.00000000000E+00 0. -1.
         23    2    1    2    0    0  0.46697231914E+02  0.30081348903E+03  0.65499256404E+03  0.72791728263E+03  0.90437407871E+02 0.  0.
         24    2    1    2    0    0 -0.51614143461E+02 -0.40206836239E+03  0.10810197397E+04  0.11566328017E+04  0.69805247213E+02 0.  0.
        -11    1    4    4    0    0 -0.71351739584E+01 -0.16317179304E+03  0.52532169957E+03  0.55012619715E+03  0.00000000000E+00 0.  1.
         12    1    4    4    0    0 -0.44478969503E+02 -0.23889656936E+03  0.55569804016E+03  0.60650660459E+03  0.00000000000E+00 0. -1.
        -13    1    3    3    0    0  0.72416995531E+02  0.17956579084E+03  0.40067239467E+03  0.44500164307E+03  0.00000000000E+00 0. -1.
         13    1    3    3    0    0 -0.25719763616E+02  0.12124769820E+03  0.25432016937E+03  0.28291563956E+03  0.00000000000E+00 0.  1.
         21    1    1    2  503  502  0.63814743067E+02  0.23488783531E+02  0.85965142498E+02  0.10960862242E+03  0.00000000000E+00 0. -1.
          1    1    1    2  501    0 -0.58897831520E+02  0.77766089828E+02  0.23363654148E+03  0.25318481945E+03  0.00000000000E+00 0. -1.
<scales pt_clust_5="13000.00000" pt_clust_6="13000.00000" pt_clust_7="13000.00000" pt_clust_8="13000.00000" pt_clust_9="68.00033" pt_clust_10="95.54947"></scales>
<clustering>
<clus scale="   68.000">  2  9  1 -1</clus>
<clus scale="   69.805">  5  6 -1 -1</clus>
<clus scale="   90.437">  7  8 -1 -1</clus>
<clus scale="   95.549">  2 10  1 -1</clus>
<clus scale="  360.766">  2  5  1 -1</clus>
<clus scale="   68.000">  2  5  1 -1</clus>
</clustering>
</event>
<event>
10    4  0.3073099E-005  0.1947047E+03  0.7546771E-02  0.1182912E+00
          2   -1    0    0  503    0 -0.00000000000E+00  0.00000000000E+00  0.17599998076E+04  0.17599998076E+04  0.00000000000E+00 0. -1.
         21   -1    0    0  501  502  0.00000000000E+00 -0.00000000000E+00 -0.72522490091E+02  0.72522490091E+02  0.00000000000E+00 0. -1.
         24    2    1    2    0    0  0.27788677171E+02 -0.27764948529E+02  0.57869702835E+03  0.58752411407E+03  0.93548014625E+02 0.  0.
         23    2    1    2    0    0  0.18116204734E+03  0.15226202441E+02  0.21994144410E+03  0.30053170481E+03  0.94305578454E+02 0.  0.
        -13    1    3    3    0    0 -0.34535789331E+02 -0.11686355427E+02  0.17868002848E+03  0.18236184969E+03  0.00000000000E+00 0.  1.
         14    1    3    3    0    0  0.62324466502E+02 -0.16078593103E+02  0.40001699987E+03  0.40516226437E+03  0.00000000000E+00 0. -1.
        -13    1    4    4    0    0  0.28411761071E+02 -0.64681709556E+01  0.10270764542E+03  0.10676106889E+03  0.00000000000E+00 0.  1.
         13    1    4    4    0    0  0.15275028627E+03  0.21694373396E+02  0.11723379867E+03  0.19377063591E+03  0.00000000000E+00 0. -1.
         21    1    1    2  503  502 -0.21879242499E+02  0.93309966171E-01 -0.11566702102E+02  0.24748708181E+02  0.00000000000E+00 0. -1.
          1    1    1    2  501    0 -0.18707148201E+03  0.12445436122E+02  0.90040554719E+03  0.91971777067E+03  0.00000000000E+00 0. -1.
<scales pt_clust_5="13000.00000" pt_clust_6="13000.00000" pt_clust_7="13000.00000" pt_clust_8="13000.00000" pt_clust_9="21.87944" pt_clust_10="170.34205"></scales>
<clustering>
<clus scale="   21.879">  2  9  1 -1</clus>
<clus scale="   93.548">  5  6 -1 -1</clus>
<clus scale="   94.306">  7  8 -1 -1</clus>
<clus scale="  100.987">  1  5  2 -1</clus>
<clus scale="  170.342">  2 10  1 -1</clus>
<clus scale="   21.879">  2  5  1 -1</clus>
</clustering>
</event>
<event>
10    4  0.3043429E-005  0.2205648E+03  0.7546771E-02  0.1166579E+00
         21   -1    0    0  503  502  0.00000000000E+00  0.00000000000E+00  0.11533006677E+03  0.11533006677E+03  0.00000000000E+00 0. -1.
          2   -1    0    0  502    0 -0.00000000000E+00 -0.00000000000E+00 -0.79295460608E+03  0.79295460608E+03  0.00000000000E+00 0. -1.
         23    2    1    2    0    0 -0.97253649093E+01  0.45047263738E+02 -0.62212657440E+02  0.11943081276E+03  0.90936602080E+02 0.  0.
         24    2    1    2    0    0 -0.14416036396E+03  0.12647344836E+03 -0.43936126886E+03  0.48560375058E+03  0.77426961206E+02 0.  0.
        -13    1    4    4    0    0 -0.54825125078E+02  0.16272793385E+02 -0.19324248110E+03  0.20152730496E+03  0.00000000000E+00 0.  1.
         14    1    4    4    0    0 -0.89335238882E+02  0.11020065498E+03 -0.24611878777E+03  0.28407644562E+03  0.00000000000E+00 0. -1.
        -11    1    3    3    0    0 -0.46229887753E+02  0.24372047820E+02 -0.56710578152E+02  0.77118667720E+02  0.00000000000E+00 0.  1.
         11    1    3    3    0    0  0.36504522844E+02  0.20675215919E+02 -0.55020792879E+01  0.42312145040E+02  0.00000000000E+00 0. -1.
         21    1    1    2  503  501  0.25407137533E+02 -0.70649879919E+01  0.51505487466E+01  0.26869403516E+02  0.00000000000E+00 0. -1.
          1    1    1    2  501    0  0.12847859134E+03 -0.16445572411E+03 -0.18120116176E+03  0.27638070600E+03  0.00000000000E+00 0. -1.
<scales pt_clust_5="13000.00000" pt_clust_6="13000.00000" pt_clust_7="13000.00000" pt_clust_8="13000.00000" pt_clust_9="26.37113" pt_clust_10="206.52825"></scales>
<clustering>
<clus scale="   26.371">  1  9  2 -1</clus>
<clus scale="   77.427">  5  6 -1 -1</clus>
<clus scale="   90.937">  7  8 -1 -1</clus>
<clus scale="  100.625">  2  7  1 -1</clus>
<clus scale="  206.528">  1 10  2 -1</clus>
<clus scale="   26.371">  1  5  2 -1</clus>
</clustering>
</event>
<event>
10    4  0.3043429E-005  0.3447848E+03  0.7546771E-02  0.1065096E+00
         21   -1    0    0  501  502  0.00000000000E+00  0.00000000000E+00  0.32875698289E+03  0.32875698289E+03  0.00000000000E+00 0. -1.
          2   -1    0    0  503    0 -0.00000000000E+00 -0.00000000000E+00 -0.60497707212E+03  0.60497707212E+03  0.00000000000E+00 0. -1.
         24    2    1    2    0    0  0.10024394495E+03 -0.26670926517E+03 -0.79223391952E+02  0.30640527460E+03  0.80157132217E+02 0.  0.
         23    2    1    2    0    0 -0.15409187130E+03  0.35639680542E+03 -0.16247554308E+03  0.43090277332E+03  0.92281689597E+02 0.  0.
        -13    1    3    3    0    0  0.50640968805E+01 -0.12524283271E+03 -0.38161018146E+02  0.13102547664E+03  0.00000000000E+00 0.  1.
         14    1    3    3    0    0  0.95179848065E+02 -0.14146643245E+03 -0.41062373806E+02  0.17537979796E+03  0.00000000000E+00 0. -1.
        -13    1    4    4    0    0 -0.40489032984E+02  0.38864746339E+02 -0.50663462420E+02  0.75608311213E+02  0.00000000000E+00 0.  1.
         13    1    4    4    0    0 -0.11360283832E+03  0.31753205908E+03 -0.11181208066E+03  0.35529446210E+03  0.00000000000E+00 0. -1.
         21    1    1    2  503  502 -0.40421382443E+02 -0.23016144686E+02  0.38011403941E+02  0.60070774129E+02  0.00000000000E+00 0.  1.
          1    1    1    2  501    0  0.94269308798E+02 -0.66671395573E+02 -0.72532558128E+02  0.13635523297E+03  0.00000000000E+00 0. -1.
<scales pt_clust_5="13000.00000" pt_clust_6="13000.00000" pt_clust_7="13000.00000" pt_clust_8="13000.00000" pt_clust_9="46.51485" pt_clust_10="113.31656"></scales>
<clustering>
<clus scale="   46.515">  1  9  2 -1</clus>
<clus scale="   80.157">  5  6 -1 -1</clus>
<clus scale="   92.282">  7  8 -1 -1</clus>
<clus scale="  113.317">  1 10  2 -1</clus>
<clus scale="  341.739">  2  5  1 -1</clus>
<clus scale="   46.515">  1  5  2 -1</clus>
</clustering>
</event>
<event>
10    4  0.3043429E-005  0.9329500E+02  0.7546771E-02  0.1300961E+00
         21   -1    0    0  501  502  0.00000000000E+00  0.00000000000E+00  0.18777059529E+03  0.18777059529E+03  0.00000000000E+00 0.  1.
         -3   -1    0    0    0  501 -0.00000000000E+00 -0.00000000000E+00 -0.38735937280E+03  0.38735937280E+03  0.00000000000E+00 0.  1.
         24    2    1    2    0    0 -0.14634118451E+02  0.45719404805E+02 -0.21482425736E+03  0.23407124452E+03  0.79595631529E+02 0.  0.
         23    2    1    2    0    0 -0.37439074502E+02  0.15877439897E+02 -0.10195677478E+03  0.14174003822E+03  0.89673168310E+02 0.  0.
        -11    1    3    3    0    0  0.24604419573E+01  0.51973610725E+02 -0.20835419965E+03  0.21475284049E+03  0.00000000000E+00 0.  1.
         12    1    3    3    0    0 -0.17094560408E+02 -0.62542059198E+01 -0.64700577109E+01  0.19318404023E+02  0.00000000000E+00 0. -1.
        -11    1    4    4    0    0 -0.22022770963E+02  0.49117887896E+02 -0.31613840520E+02  0.62425990298E+02  0.00000000000E+00 0.  1.
         11    1    4    4    0    0 -0.15416303538E+02 -0.33240447999E+02 -0.70342934258E+02  0.79314047923E+02  0.00000000000E+00 0. -1.
         21    1    1    2  503  502  0.34576212872E+02  0.35228985484E+02  0.80254320836E+02  0.94219700316E+02  0.00000000000E+00 0.  1.
         -4    1    1    2    0  503  0.17496980080E+02 -0.96825830186E+02  0.36937933796E+02  0.10509898504E+03  0.00000000000E+00 0.  1.
<scales pt_clust_5="13000.00000" pt_clust_6="13000.00000" pt_clust_7="13000.00000" pt_clust_8="13000.00000" pt_clust_9="49.36189" pt_clust_10="83.26322"></scales>
<clustering>
<clus scale="   49.362">  1  9  2 -1</clus>
<clus scale="   79.596">  5  6 -1 -1</clus>
<clus scale="   83.263">  1 10  2 -1</clus>
<clus scale="   83.655">  2  5  1 -1</clus>
<clus scale="   89.673">  7  8 -1 -1</clus>
<clus scale="   49.362">  1  5  2 -1</clus>
</clustering>
</event>
<event>
10    4  0.3043429E-005  0.6870818E+03  0.7546771E-02  0.1008187E+00
         21   -1    0    0  503  502  0.00000000000E+00  0.00000000000E+00  0.74605219327E+03  0.74605219327E+03  0.00000000000E+00 0. -1.
          2   -1    0    0  502    0 -0.00000000000E+00 -0.00000000000E+00 -0.93558871331E+03  0.93558871331E+03  0.00000000000E+00 0. -1.
         23    2    1    2    0    0 -0.14312821883E+03 -0.15294311697E+03 -0.12181315331E+03  0.25819037384E+03  0.89143372023E+02 0.  0.
         24    2    1    2    0    0  0.43179891400E+03 -0.51176828177E+03 -0.10815878614E+03  0.68288782973E+03  0.79248902948E+02 0.  0.
        -11    1    4    4    0    0  0.35054278098E+03 -0.37353871222E+03 -0.61787924367E+02  0.51597399006E+03  0.00000000000E+00 0.  1.
         12    1    4    4    0    0  0.81256133021E+02 -0.13822956955E+03 -0.46370861770E+02  0.16691383967E+03  0.00000000000E+00 0. -1.
        -11    1    3    3    0    0 -0.13402411725E+03 -0.11401046165E+03 -0.62637658812E+02  0.18677346083E+03  0.00000000000E+00 0.  1.
         11    1    3    3    0    0 -0.91041015788E+01 -0.38932655312E+02 -0.59175494495E+02  0.71416913010E+02  0.00000000000E+00 0. -1.
         21    1    1    2  503  501 -0.27871319142E+02  0.59721336491E+01  0.13563049997E+02  0.31566329154E+02  0.00000000000E+00 0.  1.
          1    1    1    2  501    0 -0.26079937603E+03  0.65873926508E+03  0.26872369407E+02  0.70899637385E+03  0.00000000000E+00 0. -1.
<scales pt_clust_5="13000.00000" pt_clust_6="13000.00000" pt_clust_7="13000.00000" pt_clust_8="13000.00000" pt_clust_9="28.50398" pt_clust_10="682.49613"></scales>
<clustering>
<clus scale="   28.504">  1  9  2 -1</clus>
<clus scale="   79.249">  5  6 -1 -1</clus>
<clus scale="   89.143">  7  8 -1 -1</clus>
<clus scale="  228.934">  2  7  1 -1</clus>
<clus scale="  682.496">  1 10  2 -1</clus>
<clus scale="   28.504">  1  5  2 -1</clus>
</clustering>
</event>
<event>
10    4  0.3043429E-005  0.1391872E+03  0.7546771E-02  0.1228730E+00
          2   -1    0    0  503    0 -0.00000000000E+00  0.00000000000E+00  0.84837896436E+02  0.84837896436E+02  0.00000000000E+00 0. -1.
         21   -1    0    0  501  502  0.00000000000E+00 -0.00000000000E+00 -0.11320370997E+04  0.11320370997E+04  0.00000000000E+00 0. -1.
         23    2    1    2    0    0  0.98417405163E+01 -0.46378547013E+02 -0.41883264153E+02  0.10972352969E+03  0.89650519641E+02 0.  0.
         24    2    1    2    0    0  0.10337849758E+03  0.57485334854E+02 -0.17746945210E+03  0.22974015919E+03  0.85401737861E+02 0.  0.
        -13    1    4    4    0    0  0.32827416633E+02 -0.21676884639E+02 -0.56907286472E+02  0.69180675511E+02  0.00000000000E+00 0.  1.
         14    1    4    4    0    0  0.70551080944E+02  0.79162219493E+02 -0.12056216563E+03  0.16055948368E+03  0.00000000000E+00 0. -1.
        -13    1    3    3    0    0 -0.36298787239E+02 -0.45646458744E+00 -0.14083227505E+02  0.38937740201E+02  0.00000000000E+00 0.  1.
         13    1    3    3    0    0  0.46140527755E+02 -0.45922082426E+02 -0.27800036648E+02  0.70785789488E+02  0.00000000000E+00 0. -1.
         21    1    1    2  503  502 -0.10994671387E+03  0.43072769839E+02 -0.81245724960E+03  0.82099349926E+03  0.00000000000E+00 0. -1.
          1    1    1    2  501    0 -0.32735242276E+01 -0.54179557680E+02 -0.15389237402E+02  0.56417807996E+02  0.00000000000E+00 0. -1.
<scales pt_clust_5="13000.00000" pt_clust_6="13000.00000" pt_clust_7="13000.00000" pt_clust_8="13000.00000" pt_clust_9="109.90727" pt_clust_10="54.27839"></scales>
<clustering>
<clus scale="   54.278">  2 10  1 -1</clus>
<clus scale="   85.402">  5  6 -1 -1</clus>
<clus scale="   89.651">  7  8 -1 -1</clus>
<clus scale="  103.161">  1  7  2 -1</clus>
<clus scale="  109.907">  2  9  1 -1</clus>
<clus scale="   54.278">  2  5  1 -1</clus>
</clustering>
</event>
<event>
10    4  0.3043429E-005  0.1815138E+03  0.7546771E-02  0.1167586E+00
          2   -1    0    0  503    0 -0.00000000000E+00  0.00000000000E+00  0.97141361652E+03  0.97141361652E+03  0.00000000000E+00 0. -1.
         21   -1    0    0  501  502  0.00000000000E+00 -0.00000000000E+00 -0.30340183637E+03  0.30340183637E+03  0.00000000000E+00 0. -1.
         23    2    1    2    0    0  0.10982094231E+03  0.23277836904E+02  0.23306216788E+03  0.27289016091E+03  0.86882499743E+02 0.  0.
         24    2    1    2    0    0 -0.29883897273E+03  0.41964780786E+02  0.37400664756E+03  0.48648698991E+03  0.75649484321E+02 0.  0.
        -13    1    4    4    0    0 -0.84780467432E+02  0.46249681526E+02  0.10459125340E+03  0.14235902145E+03  0.00000000000E+00 0.  1.
         14    1    4    4    0    0 -0.21405850530E+03 -0.42849007406E+01  0.26941539416E+03  0.34412796846E+03  0.00000000000E+00 0. -1.
        -11    1    3    3    0    0  0.96760805826E+02  0.52123480895E+02  0.18894637381E+03  0.21858692317E+03  0.00000000000E+00 0. -1.
         11    1    3    3    0    0  0.13060136483E+02 -0.28845643991E+02  0.44115794070E+02  0.54303237736E+02  0.00000000000E+00 0.  1.
         21    1    1    2  503  502  0.70505690185E+02 -0.22878613060E+02 -0.20674953874E+03  0.21963573265E+03  0.00000000000E+00 0. -1.
          1    1    1    2  501    0  0.11851234024E+03 -0.42364004630E+02  0.26769250345E+03  0.29580256942E+03  0.00000000000E+00 0. -1.
<scales pt_clust_5="13000.00000" pt_clust_6="13000.00000" pt_clust_7="13000.00000" pt_clust_8="13000.00000" pt_clust_9="74.12478" pt_clust_10="137.40106"></scales>
<clustering>
<clus scale="   74.125">  2  9  1 -1</clus>
<clus scale="   75.649">  5  6 -1 -1</clus>
<clus scale="   86.882">  7  8 -1 -1</clus>
<clus scale="  137.401">  2 10  1 -1</clus>
<clus scale="  176.413">  2  5  1 -1</clus>
<clus scale="   74.125">  2  5  1 -1</clus>
</clustering>
</event>
<event>
10    4  0.3043429E-005  0.1552811E+03  0.7546771E-02  0.1195604E+00
         21   -1    0    0  501  502  0.00000000000E+00  0.00000000000E+00  0.10444176453E+03  0.10444176453E+03  0.00000000000E+00 0.  1.
          2   -1    0    0  503    0 -0.00000000000E+00 -0.00000000000E+00 -0.79767779836E+03  0.79767779836E+03  0.00000000000E+00 0. -1.
         24    2    1    2    0    0 -0.48578923876E+02 -0.96263971758E+02 -0.28882347767E+03  0.31880080000E+03  0.81168249506E+02 0.  0.
         23    2    1    2    0    0  0.62569376357E+02  0.18856816870E+03 -0.15363019738E+03  0.26678000507E+03  0.89980289264E+02 0.  0.
        -11    1    3    3    0    0 -0.62729748958E+02 -0.10178231565E+03 -0.26159897366E+03  0.28762594494E+03  0.00000000000E+00 0.  1.
         12    1    3    3    0    0  0.14150825082E+02  0.55183438904E+01 -0.27224504008E+02  0.31174855064E+02  0.00000000000E+00 0. -1.
        -11    1    4    4    0    0  0.38587599319E+02  0.43539922956E+02 -0.88707736770E+02  0.10608388320E+03  0.00000000000E+00 0. -1.
         11    1    4    4    0    0  0.23981777038E+02  0.14502824574E+03 -0.64922460609E+02  0.16069612187E+03  0.00000000000E+00 0.  1.
         21    1    1    2  503  502 -0.17838082414E+01  0.23236379671E+02  0.14140383283E+02  0.27259159038E+02  0.00000000000E+00 0.  1.
          1    1    1    2  501    0 -0.12206644239E+02 -0.11554057661E+03 -0.26492274207E+03  0.28927959878E+03  0.00000000000E+00 0. -1.
<scales pt_clust_5="13000.00000" pt_clust_6="13000.00000" pt_clust_7="13000.00000" pt_clust_8="13000.00000" pt_clust_9="23.30475" pt_clust_10="112.85205"></scales>
<clustering>
<clus scale="   23.305">  1  9  2 -1</clus>
<clus scale="   81.168">  5  6 -1 -1</clus>
<clus scale="   89.980">  7  8 -1 -1</clus>
<clus scale="  112.852">  1 10  2 -1</clus>
<clus scale="  150.346">  2  5  1 -1</clus>
<clus scale="   23.305">  1  5  2 -1</clus>
</clustering>
</event>
<event>
10    4  0.3043429E-005  0.1032142E+03  0.7546771E-02  0.1277437E+00
         21   -1    0    0  503  502  0.00000000000E+00  0.00000000000E+00  0.61588978858E+02  0.61588978858E+02  0.00000000000E+00 0. -1.
         -1   -1    0    0    0  501 -0.00000000000E+00 -0.00000000000E+00 -0.46190064067E+03  0.46190064067E+03  0.00000000000E+00 0.  1.
         23    2    1    2    0    0  0.23691958487E+02  0.30547366709E+02 -0.18015908823E+03  0.20550768761E+03  0.91003637750E+02 0.  0.
         24    2    1    2    0    0  0.40321423846E+02 -0.29502233988E+02 -0.66244886397E+02  0.12882351470E+03  0.98543969556E+02 0.  0.
        -13    1    4    4    0    0  0.59520542812E+02 -0.27774386177E+02 -0.81190365648E+02  0.10443173377E+03  0.00000000000E+00 0.  1.
         14    1    4    4    0    0 -0.19199118966E+02 -0.17278478108E+01  0.14945479251E+02  0.24391780935E+02  0.00000000000E+00 0. -1.
        -11    1    3    3    0    0 -0.30284546309E+02  0.82867547487E+01 -0.26350305332E+02  0.40989787026E+02  0.00000000000E+00 0. -1.
         11    1    3    3    0    0  0.53976504795E+02  0.22260611960E+02 -0.15380878290E+03  0.16451790058E+03  0.00000000000E+00 0.  1.
         21    1    1    2  503  501  0.20585187882E+02  0.97595332623E+00 -0.11756840651E+02  0.23726056290E+02  0.00000000000E+00 0. -1.
         -2    1    1    2    0  502 -0.84598570214E+02 -0.20210860469E+01 -0.14215084654E+03  0.16543236093E+03  0.00000000000E+00 0.  1.
<scales pt_clust_5="13000.00000" pt_clust_6="13000.00000" pt_clust_7="13000.00000" pt_clust_8="13000.00000" pt_clust_9="20.60831" pt_clust_10="80.30966"></scales>
<clustering>
<clus scale="   20.608">  1  9  2 -1</clus>
<clus scale="   80.310">  1 10  2 -1</clus>
<clus scale="   91.004">  7  8 -1 -1</clus>
<clus scale="   96.041">  2  7  1 -1</clus>
<clus scale="   98.544">  5  6 -1 -1</clus>
<clus scale="   20.608">  1  5  2 -1</clus>
</clustering>
</event>
<event>
10    4  0.3043429E-005  0.1955037E+03  0.7546771E-02  0.1154855E+00
         21   -1    0    0  501  502  0.00000000000E+00  0.00000000000E+00  0.27266888249E+03  0.27266888249E+03  0.00000000000E+00 0. -1.
          2   -1    0    0  503    0 -0.00000000000E+00 -0.00000000000E+00 -0.77909159591E+03  0.77909159591E+03  0.00000000000E+00 0. -1.
         24    2    1    2    0    0 -0.83358660711E+02 -0.18051569802E+03 -0.50721139998E+03  0.55063500674E+03  0.80005767477E+02 0.  0.
         23    2    1    2    0    0  0.91510543911E+02  0.10272397664E+03 -0.18884078729E+03  0.25139262469E+03  0.92795548270E+02 0.  0.
        -11    1    3    3    0    0 -0.54746372612E+02 -0.39141949110E+02 -0.12245087985E+03  0.13972643082E+03  0.00000000000E+00 0.  1.
         12    1    3    3    0    0 -0.28612288099E+02 -0.14137374891E+03 -0.38476052013E+03  0.41090857592E+03  0.00000000000E+00 0. -1.
        -13    1    4    4    0    0  0.32762488312E+02  0.94154815796E+02 -0.15116186898E+03  0.18107573170E+03  0.00000000000E+00 0.  1.
         13    1    4    4    0    0  0.58748055600E+02  0.85691608453E+01 -0.37678918319E+02  0.70316892992E+02  0.00000000000E+00 0. -1.
         21    1    1    2  503  502  0.23356572582E+02 -0.31184707594E+02  0.92577577309E+02  0.10044213902E+03  0.00000000000E+00 0. -1.
          1    1    1    2  501    0 -0.31508455782E+02  0.10897642897E+03  0.97051896548E+02  0.14929070795E+03  0.00000000000E+00 0. -1.
<scales pt_clust_5="13000.00000" pt_clust_6="13000.00000" pt_clust_7="13000.00000" pt_clust_8="13000.00000" pt_clust_9="38.96172" pt_clust_10="88.48332"></scales>
<clustering>
<clus scale="   38.962">  1  9  2 -1</clus>
<clus scale="   80.006">  5  6 -1 -1</clus>
<clus scale="   88.483">  1 10  2 -1</clus>
<clus scale="   92.796">  7  8 -1 -1</clus>
<clus scale="  189.767">  2  5  1 -1</clus>
<clus scale="   38.962">  1  5  2 -1</clus>
</clustering>
</event>
<event>
10    4  0.3043429E-005  0.3169239E+03  0.7546771E-02  0.1077074E+00
          2   -1    0    0  503    0 -0.00000000000E+00  0.00000000000E+00  0.55048990659E+03  0.55048990659E+03  0.00000000000E+00 0. -1.
         21   -1    0    0  501  502  0.00000000000E+00 -0.00000000000E+00 -0.21256225478E+03  0.21256225478E+03  0.00000000000E+00 0. -1.
         24    2    1    2    0    0 -0.30481871646E+00  0.12879047457E+03  0.17599689071E+03  0.23228139321E+03  0.79954117069E+02 0.  0.
         23    2    1    2    0    0 -0.38246932389E+02  0.12620530991E+03  0.94089464442E+02  0.18573003829E+03  0.90841684902E+02 0.  0.
        -13    1    3    3    0    0  0.20390431192E+02  0.12250792773E+03  0.16864123529E+03  0.20943693151E+03  0.00000000000E+00 0.  1.
         14    1    3    3    0    0 -0.20695249909E+02  0.62825468405E+01  0.73556554228E+01  0.22844461698E+02  0.00000000000E+00 0. -1.
        -11    1    4    4    0    0 -0.28722290758E+02  0.40106901514E+01 -0.32931535290E+01  0.29187334275E+02  0.00000000000E+00 0.  1.
         11    1    4    4    0    0 -0.95246416306E+01  0.12219461976E+03  0.97382617971E+02  0.15654270401E+03  0.00000000000E+00 0. -1.
         21    1    1    2  503  502 -0.20848458021E+02 -0.90790333473E+01 -0.58133345670E+02  0.62422535411E+02  0.00000000000E+00 0.  1.
          1    1    1    2  501    0  0.59400209126E+02 -0.24591675113E+03  0.12597464233E+03  0.28261819446E+03  0.00000000000E+00 0. -1.
<scales pt_clust_5="13000.00000" pt_clust_6="13000.00000" pt_clust_7="13000.00000" pt_clust_8="13000.00000" pt_clust_9="22.73955" pt_clust_10="255.27036"></scales>
<clustering>
<clus scale="   22.740">  2  9  1 -1</clus>
<clus scale="   79.954">  5  6 -1 -1</clus>
<clus scale="   90.842">  7  8 -1 -1</clus>
<clus scale="  118.429">  5  7 -1 -1</clus>
<clus scale="  255.270">  2 10  1 -1</clus>
<clus scale="   22.740">  2  5  1 -1</clus>
</clustering>
</event>
<event>
10    4  0.3043429E-005  0.1304162E+03  0.7546771E-02  0.1239240E+00
         21   -1    0    0  503  502  0.00000000000E+00  0.00000000000E+00  0.14140643513E+03  0.14140643513E+03  0.00000000000E+00 0.  1.
         -3   -1    0    0    0  501 -0.00000000000E+00 -0.00000000000E+00 -0.22800726509E+03  0.22800726509E+03  0.00000000000E+00 0.  1.
         24    2    1    2    0    0 -0.58413231929E+02 -0.19959861319E+02 -0.44867905165E+02  0.11077957107E+03  0.80302445323E+02 0.  0.
         23    2    1    2    0    0 -0.37934132562E+02  0.59933571996E+02 -0.15443900068E+02  0.11691524178E+03  0.91649485787E+02 0.  0.
        -13    1    3    3    0    0 -0.75379187134E+02 -0.12640350768E+02 -0.50326526257E+02  0.91512619707E+02  0.00000000000E+00 0.  1.
         14    1    3    3    0    0  0.16965955205E+02 -0.73195105511E+01  0.54586210913E+01  0.19266951366E+02  0.00000000000E+00 0. -1.
        -11    1    4    4    0    0 -0.12895972109E+02  0.80610721850E+02 -0.20196521853E+02  0.84096932577E+02  0.00000000000E+00 0.  1.
         11    1    4    4    0    0 -0.25038160453E+02 -0.20677149854E+02  0.47526217855E+01  0.32818309201E+02  0.00000000000E+00 0. -1.
         21    1    1    2  503  501 -0.46023370493E+01  0.20250137849E+02  0.18502739266E+01  0.20848815382E+02  0.00000000000E+00 0.  1.
         -4    1    1    2    0  502  0.10094970154E+03 -0.60223848526E+02 -0.28139298658E+02  0.12087007198E+03  0.00000000000E+00 0.  1.
<scales pt_clust_5="13000.00000" pt_clust_6="13000.00000" pt_clust_7="13000.00000" pt_clust_8="13000.00000" pt_clust_9="20.76655" pt_clust_10="92.78345"></scales>
<clustering>
<clus scale="   20.767">  1  9  2 -1</clus>
<clus scale="   80.302">  5  6 -1 -1</clus>
<clus scale="   91.649">  7  8 -1 -1</clus>
<clus scale="  101.085">  2  5  1 -1</clus>
<clus scale="   92.783">  1 10  2 -1</clus>
<clus scale="   20.767">  1  5  2 -1</clus>
</clustering>
</event>
<event>
10    4  0.3043429E-005  0.1268655E+03  0.7546771E-02  0.1236806E+00
          2   -1    0    0  503    0 -0.00000000000E+00  0.00000000000E+00  0.52161276843E+03  0.52161276843E+03  0.00000000000E+00 0. -1.
         21   -1    0    0  501  502  0.00000000000E+00 -0.00000000000E+00 -0.93539607033E+02  0.93539607033E+02  0.00000000000E+00 0.  1.
         24    2    1    2    0    0  0.32588469222E+00  0.10180776513E+03  0.24703231144E+03  0.27900178994E+03  0.80325018845E+02 0.  0.
         23    2    1    2    0    0 -0.70805039549E+01 -0.22553839981E+02  0.39930948550E+01  0.99023185242E+02  0.96077245874E+02 0.  0.
        -13    1    3    3    0    0 -0.75401498174E+01  0.11372338445E+03  0.20421519249E+03  0.23386685715E+03  0.00000000000E+00 0.  1.
         14    1    3    3    0    0  0.78660345097E+01 -0.11915619319E+02  0.42817118951E+02  0.45134932790E+02  0.00000000000E+00 0. -1.
        -13    1    4    4    0    0 -0.44381790144E+02 -0.35774143166E+02 -0.82484351392E+01  0.57598344575E+02  0.00000000000E+00 0.  1.
         13    1    4    4    0    0  0.37301286189E+02  0.13220303184E+02  0.12241529994E+02  0.41424840666E+02  0.00000000000E+00 0. -1.
         21    1    1    2  503  502 -0.41945806173E+02  0.59010159672E+01  0.11115889679E+03  0.11895618093E+03  0.00000000000E+00 0. -1.
          1    1    1    2  501    0  0.48700425435E+02 -0.85154941118E+02  0.65888858315E+02  0.11817121936E+03  0.00000000000E+00 0. -1.
<scales pt_clust_5="13000.00000" pt_clust_6="13000.00000" pt_clust_7="13000.00000" pt_clust_8="13000.00000" pt_clust_9="42.35886" pt_clust_10="92.53491"></scales>
<clustering>
<clus scale="   42.359">  1  9  2 -1</clus>
<clus scale="   80.325">  5  6 -1 -1</clus>
<clus scale="   92.535">  2 10  1 -1</clus>
<clus scale="   96.077">  7  8 -1 -1</clus>
<clus scale="  115.396">  1  5  2 -1</clus>
<clus scale="   92.535">  2  5  1 -1</clus>
</clustering>
</event>
<event>
10    4  0.3043429E-005  0.2265706E+03  0.7546771E-02  0.1154029E+00
         21   -1    0    0  501  502  0.00000000000E+00  0.00000000000E+00  0.18644006421E+03  0.18644006421E+03  0.00000000000E+00 0.  1.
          2   -1    0    0  503    0 -0.00000000000E+00 -0.00000000000E+00 -0.21067032580E+04  0.21067032580E+04  0.00000000000E+00 0. -1.
         23    2    1    2    0    0 -0.50739842312E+02  0.64699121852E+02 -0.29057818793E+03  0.31605177533E+03  0.93233756865E+02 0.  0.
         24    2    1    2    0    0 -0.17607534321E+03 -0.10211981993E+03 -0.16372020655E+04  0.16518819581E+04  0.82779323071E+02 0.  0.
        -11    1    4    4    0    0 -0.11477418004E+02 -0.41495026481E+02 -0.25748994952E+03  0.26106444118E+03  0.00000000000E+00 0.  1.
         12    1    4    4    0    0 -0.16459792521E+03 -0.60624793447E+02 -0.13797121160E+04  0.13908175170E+04  0.00000000000E+00 0. -1.
        -11    1    3    3    0    0 -0.12162157269E+02 -0.24039334760E+02 -0.51167978224E+02  0.57827067024E+02  0.00000000000E+00 0.  1.
         11    1    3    3    0    0 -0.38577685042E+02  0.88738456613E+02 -0.23941020971E+03  0.25822470830E+03  0.00000000000E+00 0. -1.
         21    1    1    2  503  502  0.10393381242E+03  0.12577160879E+03  0.45079399777E+02  0.16927163739E+03  0.00000000000E+00 0.  1.
          1    1    1    2  501    0  0.12288137311E+03 -0.88350910715E+02 -0.37562340186E+02  0.15593795138E+03  0.00000000000E+00 0. -1.
<scales pt_clust_5="13000.00000" pt_clust_6="13000.00000" pt_clust_7="13000.00000" pt_clust_8="13000.00000" pt_clust_9="210.90712" pt_clust_10="147.11503"></scales>
<clustering>
<clus scale="   82.779">  5  6 -1 -1</clus>
<clus scale="   93.234">  7  8 -1 -1</clus>
<clus scale="  124.310">  2  7  1 -1</clus>
<clus scale="  147.115">  1 10  2 -1</clus>
<clus scale="  210.907">  1  9  2 -1</clus>
<clus scale="  147.115">  1  5  2 -1</clus>
</clustering>
</event>
<event>
10    4  0.3043429E-005  0.1625709E+03  0.7546771E-02  0.1206133E+00
         21   -1    0    0  501  502  0.00000000000E+00  0.00000000000E+00  0.87832030838E+03  0.87832030838E+03  0.00000000000E+00 0. -1.
          2   -1    0    0  503    0 -0.00000000000E+00 -0.00000000000E+00 -0.10542545128E+04  0.10542545128E+04  0.00000000000E+00 0. -1.
         24    2    1    2    0    0  0.42987747226E+02  0.26548271868E+02 -0.77548502138E+03  0.78246322199E+03  0.91208103976E+02 0.  0.
         23    2    1    2    0    0  0.10558454811E+03 -0.39568933507E+02 -0.16762601122E+03  0.22140930525E+03  0.90607966078E+02 0.  0.
        -13    1    3    3    0    0  0.30086198204E+02  0.28065661916E+02 -0.12015148330E+03  0.12700094346E+03  0.00000000000E+00 0.  1.
         14    1    3    3    0    0  0.12901549022E+02 -0.15173900484E+01 -0.65533353808E+03  0.65546227852E+03  0.00000000000E+00 0. -1.
        -11    1    4    4    0    0  0.91228046921E+02 -0.88245086262E+01 -0.16322035213E+03  0.18719324733E+03  0.00000000000E+00 0. -1.
         11    1    4    4    0    0  0.14356501188E+02 -0.30744424881E+02 -0.44056590905E+01  0.34216057921E+02  0.00000000000E+00 0.  1.
         21    1    1    2  503  502 -0.54112119984E+02 -0.14179496811E+03  0.72735994866E+03  0.74302518761E+03  0.00000000000E+00 0. -1.
          1    1    1    2  501    0 -0.94460175351E+02  0.15481562975E+03  0.39816879470E+02  0.18567710638E+03  0.00000000000E+00 0. -1.
<scales pt_clust_5="13000.00000" pt_clust_6="13000.00000" pt_clust_7="13000.00000" pt_clust_8="13000.00000" pt_clust_9="150.63004" pt_clust_10="134.97958"></scales>
<clustering>
<clus scale="   90.608">  7  8 -1 -1</clus>
<clus scale="   91.208">  5  6 -1 -1</clus>
<clus scale="  104.267">  2  5  1 -1</clus>
<clus scale="  150.630">  1  9  2 -1</clus>
<clus scale="  134.980">  1 10  2 -1</clus>
<clus scale="  150.630">  1  5  2 -1</clus>
</clustering>
</event>
<event>
10    4  0.3043429E-005  0.1512336E+03  0.7546771E-02  0.1200749E+00
         21   -1    0    0  501  502  0.00000000000E+00  0.00000000000E+00  0.12981111666E+03  0.12981111666E+03  0.00000000000E+00 0.  1.
          2   -1    0    0  503    0 -0.00000000000E+00 -0.00000000000E+00 -0.67634120651E+03  0.67634120651E+03  0.00000000000E+00 0. -1.
         24    2    1    2    0    0  0.12953079399E+03  0.20132575857E+02 -0.49769410227E+03  0.52087749423E+03  0.80189758425E+02 0.  0.
         23    2    1    2    0    0 -0.59574293258E+02 -0.95725710865E+02 -0.52958851301E+02  0.15379633780E+03  0.90200695402E+02 0.  0.
        -11    1    3    3    0    0  0.29392283262E+02 -0.24787804430E+02 -0.76499490489E+02  0.85618418631E+02  0.00000000000E+00 0.  1.
         12    1    3    3    0    0  0.10013851073E+03  0.44920380287E+02 -0.42119461178E+03  0.43525907560E+03  0.00000000000E+00 0. -1.
        -11    1    4    4    0    0 -0.34436299090E+02 -0.10910422090E+03 -0.33176437960E+02  0.11912290187E+03  0.00000000000E+00 0.  1.
         11    1    4    4    0    0 -0.25137994168E+02  0.13378510037E+02 -0.19782413341E+02  0.34673435930E+02  0.00000000000E+00 0. -1.
         21    1    1    2  503  502 -0.74948616687E+02  0.42040291316E+02 -0.21950986961E+02  0.88693444322E+02  0.00000000000E+00 0.  1.
          1    1    1    2  501    0  0.49921159529E+01  0.33552843692E+02  0.26073850683E+02  0.42785046815E+02  0.00000000000E+00 0. -1.
<scales pt_clust_5="13000.00000" pt_clust_6="13000.00000" pt_clust_7="13000.00000" pt_clust_8="13000.00000" pt_clust_9="90.83372" pt_clust_10="33.92218"></scales>
<clustering>
<clus scale="   33.922">  1 10  2 -1</clus>
<clus scale="   80.190">  5  6 -1 -1</clus>
<clus scale="   90.201">  7  8 -1 -1</clus>
<clus scale="   90.834">  1  9  2 -1</clus>
<clus scale="  145.485">  2  5  1 -1</clus>
<clus scale="   33.922">  1  5  2 -1</clus>
</clustering>
</event>
<event>
10    4  0.3043429E-005  0.1043876E+03  0.7546771E-02  0.1279327E+00
         -3   -1    0    0    0  501 -0.00000000000E+00  0.00000000000E+00  0.12584294577E+03  0.12584294577E+03  0.00000000000E+00 0.  1.
         21   -1    0    0  503  502  0.00000000000E+00 -0.00000000000E+00 -0.32484529210E+03  0.32484529210E+03  0.00000000000E+00 0. -1.
         23    2    1    2    0    0 -0.25043876067E+02  0.23903264854E+02  0.71223824505E+02  0.12684898620E+03  0.99092231396E+02 0.  0.
         24    2    1    2    0    0  0.34423317253E+02  0.11724755685E+02 -0.21127993478E+03  0.23000713006E+03  0.83316471179E+02 0.  0.
        -11    1    4    4    0    0  0.61989554732E+02  0.93429789919E+01 -0.13445244125E+03  0.14834909879E+03  0.00000000000E+00 0.  1.
         12    1    4    4    0    0 -0.27566237479E+02  0.23817766927E+01 -0.76827493532E+02  0.81658031273E+02  0.00000000000E+00 0. -1.
        -11    1    3    3    0    0 -0.27083693405E+02 -0.21723544078E+02  0.73323741211E+02  0.81128354112E+02  0.00000000000E+00 0.  1.
         11    1    3    3    0    0  0.20398173386E+01  0.45626808932E+02 -0.20999167057E+01  0.45720632085E+02  0.00000000000E+00 0. -1.
         21    1    1    2  503  501 -0.22916068038E+02 -0.17220308383E+02 -0.64268457304E+02  0.70371299543E+02  0.00000000000E+00 0. -1.
         -4    1    1    2    0  502  0.13536626852E+02 -0.18407712155E+02  0.53222212478E+01  0.23460822073E+02  0.00000000000E+00 0.  1.
<scales pt_clust_5="13000.00000" pt_clust_6="13000.00000" pt_clust_7="13000.00000" pt_clust_8="13000.00000" pt_clust_9="29.12567" pt_clust_10="22.84917"></scales>
<clustering>
<clus scale="   22.849">  2 10  1 -1</clus>
<clus scale="   29.126">  2  9  1 -1</clus>
<clus scale="   83.316">  5  6 -1 -1</clus>
<clus scale="   89.550">  2  5  1 -1</clus>
<clus scale="   99.092">  7  8 -1 -1</clus>
<clus scale="   22.849">  2  5  1 -1</clus>
</clustering>
</event>
<event>
10    4  0.3043429E-005  0.1105209E+03  0.7546771E-02  0.1262196E+00
          2   -1    0    0  503    0 -0.00000000000E+00  0.00000000000E+00  0.13736103663E+03  0.13736103663E+03  0.00000000000E+00 0. -1.
         21   -1    0    0  501  502  0.00000000000E+00 -0.00000000000E+00 -0.33018347617E+03  0.33018347617E+03  0.00000000000E+00 0. -1.
         23    2    1    2    0    0  0.57377887190E+02  0.59254998912E+02 -0.64817143443E+02  0.13564277420E+03  0.85990251040E+02 0.  0.
         24    2    1    2    0    0 -0.37361383776E+02 -0.42066402736E+02 -0.78217995133E+02  0.12449176204E+03  0.78833297632E+02 0.  0.
        -11    1    4    4    0    0  0.72826544416E+01 -0.36511485745E+02 -0.69242138000E+02  0.78616787786E+02  0.00000000000E+00 0.  1.
         12    1    4    4    0    0 -0.44644038218E+02 -0.55549169910E+01 -0.89758571328E+01  0.45874974250E+02  0.00000000000E+00 0. -1.
        -13    1    3    3    0    0  0.52853665505E+02  0.16063952800E+02 -0.72904019898E+02  0.91468883530E+02  0.00000000000E+00 0.  1.
         13    1    3    3    0    0  0.45242216844E+01  0.43191046112E+02  0.80868764551E+01  0.44173890669E+02  0.00000000000E+00 0. -1.
         21    1    1    2  503  502  0.23358343579E+02  0.20304837027E+02 -0.11586431156E+03  0.11992679982E+03  0.00000000000E+00 0.  1.
          1    1    1    2  501    0 -0.43374846993E+02 -0.37493433203E+02  0.66077010596E+02  0.87483176750E+02  0.00000000000E+00 0. -1.
<scales pt_clust_5="13000.00000" pt_clust_6="13000.00000" pt_clust_7="13000.00000" pt_clust_8="13000.00000" pt_clust_9="30.94994" pt_clust_10="55.77315"></scales>
<clustering>
<clus scale="   30.950">  2  9  1 -1</clus>
<clus scale="   55.773">  2 10  1 -1</clus>
<clus scale="   78.833">  5  6 -1 -1</clus>
<clus scale="   85.990">  7  8 -1 -1</clus>
<clus scale="  105.049">  2  5  1 -1</clus>
<clus scale="   30.950">  2  5  1 -1</clus>
</clustering>
</event>
<event>
10    4  0.3043429E-005  0.1760499E+03  0.7546771E-02  0.1199313E+00
          2   -1    0    0  503    0 -0.00000000000E+00  0.00000000000E+00  0.93994252714E+03  0.93994252714E+03  0.00000000000E+00 0. -1.
         21   -1    0    0  501  502  0.00000000000E+00 -0.00000000000E+00 -0.79052341793E+03  0.79052341793E+03  0.00000000000E+00 0. -1.
         23    2    1    2    0    0  0.96168055965E+01  0.11693164616E+02  0.10757245235E+03  0.14361413050E+03  0.93936004419E+02 0.  0.
         24    2    1    2    0    0 -0.51400884472E+02  0.14650940236E+03  0.76118518598E+03  0.78113197825E+03  0.81591814408E+02 0.  0.
        -13    1    4    4    0    0 -0.66410225933E+01  0.26034458049E+02  0.37550349999E+02  0.46172773060E+02  0.00000000000E+00 0.  1.
         14    1    4    4    0    0 -0.44759861879E+02  0.12047494431E+03  0.72363483598E+03  0.73495920519E+03  0.00000000000E+00 0. -1.
        -13    1    3    3    0    0 -0.34727510710E+02 -0.10016964689E+01  0.85882094018E+02  0.92643064872E+02  0.00000000000E+00 0.  1.
         13    1    3    3    0    0  0.44344316307E+02  0.12694861085E+02  0.21690358330E+02  0.50971065627E+02  0.00000000000E+00 0. -1.
         21    1    1    2  503  502 -0.12304954448E+03 -0.11474952671E+03 -0.50237102286E+03  0.52979740363E+03  0.00000000000E+00 0. -1.
          1    1    1    2  501    0  0.16483362335E+03 -0.43453040267E+02 -0.21696750625E+03  0.27592243270E+03  0.00000000000E+00 0. -1.
<scales pt_clust_5="13000.00000" pt_clust_6="13000.00000" pt_clust_7="13000.00000" pt_clust_8="13000.00000" pt_clust_9="167.99901" pt_clust_10="156.00105"></scales>
<clustering>
<clus scale="   81.592">  5  6 -1 -1</clus>
<clus scale="   93.936">  7  8 -1 -1</clus>
<clus scale="   95.148">  1  7  2 -1</clus>
<clus scale="  167.999">  2  9  1 -1</clus>
<clus scale="  156.001">  2 10  1 -1</clus>
<clus scale="  167.999">  2  5  1 -1</clus>
</clustering>
</event>
<event>
10    4  0.3043429E-005  0.1374885E+03  0.7546771E-02  0.1217820E+00
          2   -1    0    0  502    0 -0.00000000000E+00  0.00000000000E+00  0.33623750211E+03  0.33623750211E+03  0.00000000000E+00 0. -1.
         21   -1    0    0  503  502  0.00000000000E+00 -0.00000000000E+00 -0.18313075358E+03  0.18313075358E+03  0.00000000000E+00 0. -1.
         24    2    1    2    0    0 -0.65322570861E+02 -0.83404320867E+02  0.65051750519E+02  0.14734744024E+03  0.79096263473E+02 0.  0.
         23    2    1    2    0    0  0.41497264015E+01  0.13034361819E+03 -0.12461360249E+02  0.15573453795E+03  0.84209748712E+02 0.  0.
        -11    1    3    3    0    0 -0.30284199893E+02  0.26548926908E+01  0.41583645313E+02  0.51510977237E+02  0.00000000000E+00 0.  1.
         12    1    3    3    0    0 -0.35038370968E+02 -0.86059213558E+02  0.23468105205E+02  0.95836462999E+02  0.00000000000E+00 0. -1.
        -13    1    4    4    0    0 -0.14604761921E+02  0.27995763032E+02  0.29809307683E+02  0.43424148156E+02  0.00000000000E+00 0.  1.
         13    1    4    4    0    0  0.18754488322E+02  0.10234785516E+03 -0.42270667932E+02  0.11231038979E+03  0.00000000000E+00 0. -1.
         21    1    1    2  503  501  0.16995698255E+02  0.26043730557E+02 -0.40748181455E+02  0.51259574251E+02  0.00000000000E+00 0.  1.
          1    1    1    2  501    0  0.44177146204E+02 -0.72983027880E+02  0.14126453972E+03  0.16502670326E+03  0.00000000000E+00 0. -1.
<scales pt_clust_5="13000.00000" pt_clust_6="13000.00000" pt_clust_7="13000.00000" pt_clust_8="13000.00000" pt_clust_9="31.09871" pt_clust_10="84.17923"></scales>
<clustering>
<clus scale="   31.099">  2  9  1 -1</clus>
<clus scale="   79.096">  5  6 -1 -1</clus>
<clus scale="   84.179">  2 10  1 -1</clus>
<clus scale="   84.210">  7  8 -1 -1</clus>
<clus scale="  134.417">  1  5  2 -1</clus>
<clus scale="   31.099">  2  5  1 -1</clus>
</clustering>
</event>
<event>
10    4  0.3043429E-005  0.1100385E+03  0.7546771E-02  0.1264680E+00
         21   -1    0    0  501  502  0.00000000000E+00  0.00000000000E+00  0.24511535507E+03  0.24511535507E+03  0.00000000000E+00 0. -1.
          2   -1    0    0  503    0 -0.00000000000E+00 -0.00000000000E+00 -0.13266838987E+03  0.13266838987E+03  0.00000000000E+00 0. -1.
         24    2    1    2    0    0  0.20365683071E+02 -0.75080860588E+02  0.35238130848E+02  0.11824150638E+03  0.81776716067E+02 0.  0.
         23    2    1    2    0    0  0.44151889865E+02  0.35303238995E+02  0.98816420198E+02  0.14654703739E+03  0.92280231930E+02 0.  0.
        -13    1    3    3    0    0  0.39771545894E+02 -0.24541150116E+02 -0.98816897693E+01  0.47767056686E+02  0.00000000000E+00 0.  1.
         14    1    3    3    0    0 -0.19405862823E+02 -0.50539710472E+02  0.45119820617E+02  0.70474449689E+02  0.00000000000E+00 0. -1.
        -13    1    4    4    0    0  0.63716589727E+02  0.27069734070E+02  0.10377682133E+03  0.12474855893E+03  0.00000000000E+00 0. -1.
         13    1    4    4    0    0 -0.19564699862E+02  0.82335049247E+01 -0.49604011289E+01  0.21798478465E+02  0.00000000000E+00 0.  1.
         21    1    1    2  503  502  0.72713376960E+01  0.24268910269E+02  0.16518245993E+02  0.30244087161E+02  0.00000000000E+00 0.  1.
          1    1    1    2  501    0 -0.71788910632E+02  0.15508711324E+02 -0.38125831839E+02  0.82751114011E+02  0.00000000000E+00 0. -1.
<scales pt_clust_5="13000.00000" pt_clust_6="13000.00000" pt_clust_7="13000.00000" pt_clust_8="13000.00000" pt_clust_9="25.33481" pt_clust_10="73.28960"></scales>
<clustering>
<clus scale="   25.335">  1  9  2 -1</clus>
<clus scale="   73.290">  1 10  2 -1</clus>
<clus scale="   81.777">  5  6 -1 -1</clus>
<clus scale="   92.280">  7  8 -1 -1</clus>
<clus scale="  101.392">  2  5  1 -1</clus>
<clus scale="   25.335">  1  5  2 -1</clus>
</clustering>
</event>
<event>
10    4  0.3043429E-005  0.4243492E+03  0.7546771E-02  0.1035817E+00
          2   -1    0    0  502    0 -0.00000000000E+00  0.00000000000E+00  0.41709541768E+03  0.41709541768E+03  0.00000000000E+00 0. -1.
         21   -1    0    0  503  502  0.00000000000E+00 -0.00000000000E+00 -0.67106353547E+03  0.67106353547E+03  0.00000000000E+00 0. -1.
         24    2    1    2    0    0  0.39356884547E+03 -0.20800515164E+03  0.13762230338E+03  0.47292620859E+03  0.80973583009E+02 0.  0.
         23    2    1    2    0    0 -0.28736899871E+03  0.19632448783E+03 -0.28720077797E+03  0.46023451130E+03  0.90593998607E+02 0.  0.
        -13    1    3    3    0    0  0.31776322880E+02 -0.44440242761E+02  0.25890187308E+02  0.60456361710E+02  0.00000000000E+00 0.  1.
         14    1    3    3    0    0  0.36179252259E+03 -0.16356490888E+03  0.11173211607E+03  0.41246984688E+03  0.00000000000E+00 0. -1.
        -11    1    4    4    0    0 -0.68077698311E+02  0.60567398360E+01 -0.42031665847E+02  0.80236637757E+02  0.00000000000E+00 0.  1.
         11    1    4    4    0    0 -0.21929130040E+03  0.19026774800E+03 -0.24516911212E+03  0.37999787354E+03  0.00000000000E+00 0. -1.
         21    1    1    2  503  501 -0.15640092503E+02  0.15376224839E+02 -0.33001340978E+02  0.39624856973E+02  0.00000000000E+00 0.  1.
          1    1    1    2  501    0 -0.90559754260E+02 -0.36955610311E+01 -0.71388302226E+02  0.11537337630E+03  0.00000000000E+00 0. -1.
<scales pt_clust_5="13000.00000" pt_clust_6="13000.00000" pt_clust_7="13000.00000" pt_clust_8="13000.00000" pt_clust_9="20.35640" pt_clust_10="114.57423"></scales>
<clustering>
<clus scale="   20.356">  9 10 -1 -1</clus>
<clus scale="   80.974">  5  6 -1 -1</clus>
<clus scale="   90.594">  7  8 -1 -1</clus>
<clus scale="  114.574">  2  9  1 -1</clus>
<clus scale="  422.400">  1  5  2 -1</clus>
<clus scale="  114.574">  2  5  1 -1</clus>
</clustering>
</event>
<event>
10    4  0.3043429E-005  0.2976797E+03  0.7546771E-02  0.1121581E+00
          2   -1    0    0  502    0 -0.00000000000E+00  0.00000000000E+00  0.30350615061E+04  0.30350615061E+04  0.00000000000E+00 0. -1.
         21   -1    0    0  503  502  0.00000000000E+00 -0.00000000000E+00 -0.89965934733E+02  0.89965934733E+02  0.00000000000E+00 0. -1.
         23    2    1    2    0    0  0.72190649061E+02  0.29644144293E+02  0.17579254752E+03  0.21300458629E+03  0.91529606762E+02 0.  0.
         24    2    1    2    0    0  0.29614250512E+03 -0.63417543678E+02  0.20794018440E+04  0.21028971448E+04  0.80883897715E+02 0.  0.
        -13    1    4    4    0    0  0.19878976346E+03 -0.43184559970E+02  0.11170370357E+04  0.11354091842E+04  0.00000000000E+00 0.  1.
         14    1    4    4    0    0  0.97352741658E+02 -0.20232983707E+02  0.96236480821E+03  0.96748796066E+03  0.00000000000E+00 0. -1.
        -13    1    3    3    0    0  0.53172308419E+02  0.46370449622E+02  0.17382978285E+03  0.18760145624E+03  0.00000000000E+00 0.  1.
         13    1    3    3    0    0  0.19018340641E+02 -0.16726305329E+02  0.19627646689E+01  0.25403130040E+02  0.00000000000E+00 0. -1.
         21    1    1    2  503  501 -0.19007171904E+03 -0.42457701178E+02  0.50483826857E+03  0.54110220124E+03  0.00000000000E+00 0.  1.
          1    1    1    2  501    0 -0.17826143514E+03  0.76231100563E+02  0.18506291134E+03  0.26802350850E+03  0.00000000000E+00 0. -1.
<scales pt_clust_5="13000.00000" pt_clust_6="13000.00000" pt_clust_7="13000.00000" pt_clust_8="13000.00000" pt_clust_9="180.61186" pt_clust_10="286.48036"></scales>
<clustering>
<clus scale="   80.884">  5  6 -1 -1</clus>
<clus scale="   91.530">  7  8 -1 -1</clus>
<clus scale="  120.283">  1  7  2 -1</clus>
<clus scale="  180.612">  2  9  1 -1</clus>
<clus scale="  286.480">  2 10  1 -1</clus>
<clus scale="  180.612">  2  5  1 -1</clus>
</clustering>
</event>
<event>
10    4  0.3043429E-005  0.3519982E+03  0.7546771E-02  0.1102631E+00
         -1   -1    0    0    0  501 -0.00000000000E+00  0.00000000000E+00  0.13429196037E+04  0.13429196037E+04  0.00000000000E+00 0.  1.
         21   -1    0    0  501  502  0.00000000000E+00 -0.00000000000E+00 -0.25252124088E+03  0.25252124088E+03  0.00000000000E+00 0.  1.
         24    2    1    2    0    0 -0.74207487274E+02 -0.38930184640E+02  0.61367268071E+02  0.13126729234E+03  0.80267365750E+02 0.  0.
         23    2    1    2    0    0  0.13933402721E+02  0.37543269685E+03  0.10174440783E+04  0.10883083528E+04  0.89881971180E+02 0.  0.
        -11    1    3    3    0    0 -0.59194707699E+02 -0.54795176142E+02  0.70939710072E+02  0.10741958487E+03  0.00000000000E+00 0.  1.
         12    1    3    3    0    0 -0.15012779575E+02  0.15864991501E+02 -0.95724420008E+01  0.23847707474E+02  0.00000000000E+00 0. -1.
        -11    1    4    4    0    0  0.10862365890E+02  0.33841633268E+03  0.97387235954E+03  0.10310533342E+04  0.00000000000E+00 0.  1.
         11    1    4    4    0    0  0.30710368317E+01  0.37016364170E+02  0.43571718748E+02  0.57255018629E+02  0.00000000000E+00 0. -1.
         21    1    1    2  503  502 -0.41571260067E+01 -0.20052179405E+02 -0.43666025099E+02  0.48229589916E+02  0.00000000000E+00 0.  1.
         -2    1    1    2    0  503  0.64431210559E+02 -0.31645033280E+03  0.55253041553E+02  0.32763560952E+03  0.00000000000E+00 0.  1.
<scales pt_clust_5="13000.00000" pt_clust_6="13000.00000" pt_clust_7="13000.00000" pt_clust_8="13000.00000" pt_clust_9="20.47856" pt_clust_10="340.32922"></scales>
<clustering>
<clus scale="   20.479">  2  9  1 -1</clus>
<clus scale="   80.267">  5  6 -1 -1</clus>
<clus scale="   89.882">  7  8 -1 -1</clus>
<clus scale="  117.668">  1  5  2 -1</clus>
<clus scale="  340.329">  2 10  1 -1</clus>
<clus scale="   20.479">  2  5  1 -1</clus>
</clustering>
</event>
<event>
10    4  0.3043429E-005  0.9453639E+03  0.7546771E-02  0.1004228E+00
         21   -1    0    0  503  502  0.00000000000E+00  0.00000000000E+00  0.56442331317E+03  0.56442331317E+03  0.00000000000E+00 0. -1.
          2   -1    0    0  502    0 -0.00000000000E+00 -0.00000000000E+00 -0.28042888389E+04  0.28042888389E+04  0.00000000000E+00 0. -1.
         24    2    1    2    0    0  0.48727254249E+01  0.58897431153E+02 -0.28629105859E+03  0.30313289293E+03  0.80214273650E+02 0.  0.
         23    2    1    2    0    0 -0.53484808003E+03  0.71730036229E+03 -0.12431147858E+04  0.15343381090E+04  0.90976830257E+02 0.  0.
        -11    1    3    3    0    0 -0.50745732074E+01 -0.19702423801E+02 -0.54290139898E+02  0.57977203166E+02  0.00000000000E+00 0.  1.
         12    1    3    3    0    0  0.99472986323E+01  0.78599854953E+02 -0.23200091869E+03  0.24515568976E+03  0.00000000000E+00 0. -1.
        -13    1    4    4    0    0 -0.19981736403E+02  0.49161928291E+02 -0.10581638045E+03  0.11837766409E+03  0.00000000000E+00 0.  1.
         13    1    4    4    0    0 -0.51486634363E+03  0.66813843400E+03 -0.11372984054E+04  0.14159604449E+04  0.00000000000E+00 0. -1.
         21    1    1    2  503  501 -0.98880864438E+02 -0.10247383563E+02  0.17565083516E+03  0.20183074621E+03  0.00000000000E+00 0. -1.
          1    1    1    2  501    0  0.62885621904E+03 -0.76595040988E+03 -0.88611051651E+03  0.13294104039E+04  0.00000000000E+00 0. -1.
<scales pt_clust_5="13000.00000" pt_clust_6="13000.00000" pt_clust_7="13000.00000" pt_clust_8="13000.00000" pt_clust_9="99.41043" pt_clust_10="940.97617"></scales>
<clustering>
<clus scale="   80.214">  5  6 -1 -1</clus>
<clus scale="   90.977">  7  8 -1 -1</clus>
<clus scale="   99.410">  1  9  2 -1</clus>
<clus scale="   99.415">  2  5  1 -1</clus>
<clus scale="  940.976">  1 10  2 -1</clus>
<clus scale="   99.410">  1  5  2 -1</clus>
</clustering>
</event>
<event>
10    4  0.3043429E-005  0.2212583E+03  0.7546771E-02  0.1133679E+00
         -1   -1    0    0    0  501 -0.00000000000E+00  0.00000000000E+00  0.32260995063E+03  0.32260995063E+03  0.00000000000E+00 0.  1.
         21   -1    0    0  503  502  0.00000000000E+00 -0.00000000000E+00 -0.29960872135E+03  0.29960872135E+03  0.00000000000E+00 0.  1.
         24    2    1    2    0    0  0.79414340172E+02  0.23037894706E+03  0.10677500139E+02  0.25697570024E+03  0.80878951716E+02 0.  0.
         23    2    1    2    0    0 -0.80783883140E+02 -0.14466924032E+03 -0.77887043648E+02  0.20440043286E+03  0.90873101177E+02 0.  0.
        -13    1    3    3    0    0  0.90856704555E+02  0.15107236474E+03  0.13437851057E+02  0.17680038459E+03  0.00000000000E+00 0.  1.
         14    1    3    3    0    0 -0.11442364383E+02  0.79306582321E+02 -0.27603509182E+01  0.80175315648E+02  0.00000000000E+00 0. -1.
        -13    1    4    4    0    0 -0.79805742157E+02 -0.86617214671E+02 -0.85920631103E+02  0.14578701317E+03  0.00000000000E+00 0.  1.
         13    1    4    4    0    0 -0.97814098320E+00 -0.58052025645E+02  0.80335874545E+01  0.58613419698E+02  0.00000000000E+00 0. -1.
         21    1    1    2  503  501  0.66291888947E+01 -0.57398296446E+02 -0.81513720324E+01  0.58351996079E+02  0.00000000000E+00 0.  1.
         -2    1    1    2    0  502 -0.52596459274E+01 -0.28311410300E+02  0.98362144819E+02  0.10249054279E+03  0.00000000000E+00 0.  1.
<scales pt_clust_5="13000.00000" pt_clust_6="13000.00000" pt_clust_7="13000.00000" pt_clust_8="13000.00000" pt_clust_9="60.86278" pt_clust_10="28.79584"></scales>
<clustering>
<clus scale="   28.796">  2 10  1 -1</clus>
<clus scale="   60.863">  1  9  2 -1</clus>
<clus scale="   80.879">  5  6 -1 -1</clus>
<clus scale="   90.873">  7  8 -1 -1</clus>
<clus scale="  217.345">  1  5  2 -1</clus>
<clus scale="   28.796">  2  5  1 -1</clus>
</clustering>
</event>
<event>
10    4  0.3043429E-005  0.1888851E+03  0.7546771E-02  0.1180736E+00
          2   -1    0    0  503    0 -0.00000000000E+00  0.00000000000E+00  0.10328052876E+04  0.10328052876E+04  0.00000000000E+00 0. -1.
         21   -1    0    0  501  502  0.00000000000E+00 -0.00000000000E+00 -0.40066031578E+03  0.40066031578E+03  0.00000000000E+00 0. -1.
         24    2    1    2    0    0  0.19361693822E+02  0.76024913589E+02  0.25188294607E+03  0.27688429009E+03  0.84054915986E+02 0.  0.
         23    2    1    2    0    0 -0.16859561765E+03 -0.11267526782E+03  0.42299420107E+02  0.22642078579E+03  0.91416262385E+02 0.  0.
        -13    1    3    3    0    0  0.45530956782E+02  0.71840130296E+02  0.15931237056E+03  0.18059486083E+03  0.00000000000E+00 0.  1.
         14    1    3    3    0    0 -0.26169262961E+02  0.41847832935E+01  0.92570575518E+02  0.96289429258E+02  0.00000000000E+00 0. -1.
        -13    1    4    4    0    0 -0.10758528420E+03 -0.92656356473E+02  0.67786653081E+02  0.15733665850E+03  0.00000000000E+00 0. -1.
         13    1    4    4    0    0 -0.61010333457E+02 -0.20018911344E+02 -0.25487232974E+02  0.69084127298E+02  0.00000000000E+00 0.  1.
         21    1    1    2  503  502  0.82396156427E+02 -0.12753475578E+01 -0.28796965993E+03  0.29952842627E+03  0.00000000000E+00 0. -1.
          1    1    1    2  501    0  0.66837767405E+02  0.37925701785E+02  0.62593226555E+03  0.63063210120E+03  0.00000000000E+00 0. -1.
<scales pt_clust_5="13000.00000" pt_clust_6="13000.00000" pt_clust_7="13000.00000" pt_clust_8="13000.00000" pt_clust_9="165.28962" pt_clust_10="76.84824"></scales>
<clustering>
<clus scale="   76.848">  2 10  1 -1</clus>
<clus scale="   84.055">  5  6 -1 -1</clus>
<clus scale="   91.416">  7  8 -1 -1</clus>
<clus scale="  116.137">  1  5  2 -1</clus>
<clus scale="  165.290">  2  9  1 -1</clus>
<clus scale="   76.848">  2  5  1 -1</clus>
</clustering>
</event>
<event>
10    4  0.3043429E-005  0.1053121E+03  0.7546771E-02  0.1277864E+00
         21   -1    0    0  503  502  0.00000000000E+00  0.00000000000E+00  0.68315768175E+02  0.68315768175E+02  0.00000000000E+00 0.  1.
         -3   -1    0    0    0  501 -0.00000000000E+00 -0.00000000000E+00 -0.31195177599E+03  0.31195177599E+03  0.00000000000E+00 0.  1.
         23    2    1    2    0    0  0.41297645981E+02  0.18239646373E+02 -0.79945750040E+02  0.13398692660E+03  0.97585825242E+02 0.  0.
         24    2    1    2    0    0 -0.31958276877E+02 -0.13899203267E+02 -0.60182217258E+02  0.10635348293E+03  0.80465177225E+02 0.  0.
        -13    1    4    4    0    0 -0.46824895258E+01  0.30074627195E+02 -0.41226055043E+02  0.51244477980E+02  0.00000000000E+00 0.  1.
         14    1    4    4    0    0 -0.27275787351E+02 -0.43973830462E+02 -0.18956162215E+02  0.55109004954E+02  0.00000000000E+00 0. -1.
        -13    1    3    3    0    0  0.49607239214E+02 -0.26096400799E+02 -0.66385805760E+02  0.86884840585E+02  0.00000000000E+00 0.  1.
         13    1    3    3    0    0 -0.83095932329E+01  0.44336047172E+02 -0.13559944280E+02  0.47102086019E+02  0.00000000000E+00 0. -1.
         21    1    1    2  503  501  0.29019418867E+02 -0.70854093531E+01 -0.39326920134E+00  0.29874476694E+02  0.00000000000E+00 0. -1.
         -4    1    1    2    0  502 -0.38358787971E+02  0.27449662471E+01 -0.10311477131E+03  0.11005265793E+03  0.00000000000E+00 0.  1.
<scales pt_clust_5="13000.00000" pt_clust_6="13000.00000" pt_clust_7="13000.00000" pt_clust_8="13000.00000" pt_clust_9="29.87189" pt_clust_10="36.55139"></scales>
<clustering>
<clus scale="   29.872">  1  9  2 -1</clus>
<clus scale="   36.551">  1 10  2 -1</clus>
<clus scale="   80.465">  5  6 -1 -1</clus>
<clus scale="   89.679">  1  5  2 -1</clus>
<clus scale="   97.586">  7  8 -1 -1</clus>
<clus scale="   29.872">  1  5  2 -1</clus>
</clustering>
</event>
<event>
10    4  0.3043429E-005  0.1074563E+03  0.7546771E-02  0.1274212E+00
         21   -1    0    0  503  502  0.00000000000E+00  0.00000000000E+00  0.38530855052E+03  0.38530855052E+03  0.00000000000E+00 0.  1.
         -1   -1    0    0    0  501 -0.00000000000E+00 -0.00000000000E+00 -0.14166658077E+03  0.14166658077E+03  0.00000000000E+00 0.  1.
         24    2    1    2    0    0 -0.12154093546E+02  0.66764032408E+02 -0.55039227824E+02  0.11826463463E+03  0.79699743992E+02 0.  0.
         23    2    1    2    0    0 -0.30004113370E+02  0.32380232541E+01  0.17628637240E+02  0.10451799608E+03  0.98501325062E+02 0.  0.
        -11    1    3    3    0    0 -0.93282655495E+01  0.71321609202E+02 -0.71217271725E+02  0.10122098730E+03  0.00000000000E+00 0.  1.
         12    1    3    3    0    0 -0.28258279969E+01 -0.45575767941E+01  0.16178043901E+02  0.17043647338E+02  0.00000000000E+00 0. -1.
        -13    1    4    4    0    0 -0.64274847351E+02  0.13674500674E+02  0.19788807269E+02  0.68628309492E+02  0.00000000000E+00 0.  1.
         13    1    4    4    0    0  0.34270733980E+02 -0.10436477420E+02 -0.21601700294E+01  0.35889686583E+02  0.00000000000E+00 0. -1.
         21    1    1    2  503  501  0.38713438600E+02 -0.36437121686E+02  0.25777656334E+03  0.26320173019E+03  0.00000000000E+00 0.  1.
         -2    1    1    2    0  502  0.34447683169E+01 -0.33564933975E+02  0.23275996995E+02  0.40990770395E+02  0.00000000000E+00 0.  1.
<scales pt_clust_5="13000.00000" pt_clust_6="13000.00000" pt_clust_7="13000.00000" pt_clust_8="13000.00000" pt_clust_9="73.80067" pt_clust_10="33.74124"></scales>
<clustering>
<clus scale="   33.741">  1 10  2 -1</clus>
<clus scale="   73.801">  1  9  2 -1</clus>
<clus scale="   79.700">  5  6 -1 -1</clus>
<clus scale="   90.534">  2  5  1 -1</clus>
<clus scale="   98.501">  7  8 -1 -1</clus>
<clus scale="   33.741">  1  5  2 -1</clus>
</clustering>
</event>
<event>
10    4  0.3043429E-005  0.1043741E+03  0.7546771E-02  0.1276572E+00
          2   -1    0    0  503    0 -0.00000000000E+00  0.00000000000E+00  0.39076356843E+03  0.39076356843E+03  0.00000000000E+00 0. -1.
         21   -1    0    0  501  502  0.00000000000E+00 -0.00000000000E+00 -0.11195538677E+03  0.11195538677E+03  0.00000000000E+00 0.  1.
         23    2    1    2    0    0 -0.33577229417E+02  0.17950652981E+02  0.22303892863E+03  0.24440740693E+03  0.92406496537E+02 0.  0.
         24    2    1    2    0    0  0.55077185916E+02 -0.88076485201E+02  0.43277608943E+02  0.13865322395E+03  0.80998774209E+02 0.  0.
        -11    1    4    4    0    0 -0.12340647701E+02 -0.51451049645E+02  0.29891656194E+02  0.60770167066E+02  0.00000000000E+00 0.  1.
         12    1    4    4    0    0  0.67417833617E+02 -0.36625435557E+02  0.13385952749E+02  0.77883056888E+02  0.00000000000E+00 0. -1.
        -13    1    3    3    0    0 -0.41091103656E+02  0.47359016821E+02  0.10293941376E+03  0.12053164804E+03  0.00000000000E+00 0. -1.
         13    1    3    3    0    0  0.75138742395E+01 -0.29408363839E+02  0.12009951487E+03  0.12387575889E+03  0.00000000000E+00 0.  1.
         21    1    1    2  503  502  0.27488231277E+02  0.41809830119E+02 -0.20597645737E+02  0.54110329542E+02  0.00000000000E+00 0.  1.
          1    1    1    2  501    0 -0.48988187776E+02  0.28316002101E+02  0.33089289829E+02  0.65547994767E+02  0.00000000000E+00 0. -1.
<scales pt_clust_5="13000.00000" pt_clust_6="13000.00000" pt_clust_7="13000.00000" pt_clust_8="13000.00000" pt_clust_9="50.03663" pt_clust_10="57.00293"></scales>
<clustering>
<clus scale="   50.037">  2  9  1 -1</clus>
<clus scale="   57.003">  2 10  1 -1</clus>
<clus scale="   80.999">  5  6 -1 -1</clus>
<clus scale="   92.406">  7  8 -1 -1</clus>
<clus scale="   94.423">  2  5  1 -1</clus>
<clus scale="   50.037">  2  5  1 -1</clus>
</clustering>
</event>
<event>
10    4  0.3043429E-005  0.2274717E+03  0.7546771E-02  0.1129252E+00
         -3   -1    0    0    0  501 -0.00000000000E+00  0.00000000000E+00  0.16620574250E+04  0.16620574250E+04  0.00000000000E+00 0.  1.
         21   -1    0    0  501  502  0.00000000000E+00 -0.00000000000E+00 -0.66425464596E+02  0.66425464596E+02  0.00000000000E+00 0.  1.
         23    2    1    2    0    0  0.25640038768E+03 -0.76451811970E+02  0.10787120950E+04  0.11152096382E+04  0.92123368226E+02 0.  0.
         24    2    1    2    0    0 -0.12105112897E+03  0.34556426102E+02  0.19640354798E+03  0.24670309160E+03  0.80252970906E+02 0.  0.
        -11    1    4    4    0    0 -0.25960212883E+02  0.31633320913E+02  0.18393625648E+02  0.44865633946E+02  0.00000000000E+00 0.  1.
         12    1    4    4    0    0 -0.95090916084E+02  0.29231051896E+01  0.17800992233E+03  0.20183745766E+03  0.00000000000E+00 0. -1.
        -13    1    3    3    0    0  0.18378136929E+03 -0.27977397519E+02  0.58469063864E+03  0.61353196281E+03  0.00000000000E+00 0.  1.
         13    1    3    3    0    0  0.72619018388E+02 -0.48474414451E+02  0.49402145634E+03  0.50167767542E+03  0.00000000000E+00 0. -1.
         21    1    1    2  503  502 -0.29998266408E+02 -0.12021713404E+02  0.93265860676E+01  0.33636331374E+02  0.00000000000E+00 0. -1.
         -4    1    1    2    0  503 -0.10535099230E+03  0.53917099272E+02  0.31118973135E+03  0.33293382836E+03  0.00000000000E+00 0.  1.
<scales pt_clust_5="13000.00000" pt_clust_6="13000.00000" pt_clust_7="13000.00000" pt_clust_8="13000.00000" pt_clust_9="32.31745" pt_clust_10="122.69614"></scales>
<clustering>
<clus scale="   32.317">  2  9  1 -1</clus>
<clus scale="   80.253">  5  6 -1 -1</clus>
<clus scale="   92.123">  7  8 -1 -1</clus>
<clus scale="  122.696">  2 10  1 -1</clus>
<clus scale="  222.929">  2  5  1 -1</clus>
<clus scale="   32.317">  2  5  1 -1</clus>
</clustering>
</event>
<event>
10    4  0.3043429E-005  0.1147960E+03  0.7546771E-02  0.1258064E+00
         -1   -1    0    0    0  501 -0.00000000000E+00  0.00000000000E+00  0.82770335492E+02  0.82770335492E+02  0.00000000000E+00 0.  1.
         21   -1    0    0  501  502  0.00000000000E+00 -0.00000000000E+00 -0.28046044340E+03  0.28046044340E+03  0.00000000000E+00 0. -1.
         23    2    1    2    0    0 -0.64900286883E+02 -0.47039375131E+02 -0.40296884244E+02  0.13191992551E+03  0.96717515556E+02 0.  0.
         24    2    1    2    0    0  0.71172018762E+01  0.52508432285E+02 -0.65288692574E+02  0.11655056899E+03  0.80707073607E+02 0.  0.
        -13    1    4    4    0    0  0.33186870644E+02  0.23369149322E+02 -0.16304510252E+00  0.40589556623E+02  0.00000000000E+00 0.  1.
         14    1    4    4    0    0 -0.26069668767E+02  0.29139282963E+02 -0.65125647471E+02  0.75961012367E+02  0.00000000000E+00 0. -1.
        -13    1    3    3    0    0 -0.35484393249E+02 -0.42892839060E+02 -0.70317665580E+02  0.89685628166E+02  0.00000000000E+00 0. -1.
         13    1    3    3    0    0 -0.29415893634E+02 -0.41465360710E+01  0.30020781337E+02  0.42234297339E+02  0.00000000000E+00 0.  1.
         21    1    1    2  503  502  0.20515626779E+02 -0.15943470040E+02 -0.56401015286E+02  0.62097984705E+02  0.00000000000E+00 0.  1.
         -2    1    1    2    0  503  0.37267458227E+02  0.10474412886E+02 -0.35703515801E+02  0.52662299690E+02  0.00000000000E+00 0.  1.
<scales pt_clust_5="13000.00000" pt_clust_6="13000.00000" pt_clust_7="13000.00000" pt_clust_8="13000.00000" pt_clust_9="25.98240" pt_clust_10="42.00255"></scales>
<clustering>
<clus scale="   25.982">  2  9  1 -1</clus>
<clus scale="   42.003">  2 10  1 -1</clus>
<clus scale="   80.707">  5  6 -1 -1</clus>
<clus scale="   96.718">  7  8 -1 -1</clus>
<clus scale="  101.673">  2  5  1 -1</clus>
<clus scale="   25.982">  2  5  1 -1</clus>
</clustering>
</event>
<event>
10    4  0.3043429E-005  0.1298657E+03  0.7546771E-02  0.1237678E+00
         21   -1    0    0  501  502  0.00000000000E+00  0.00000000000E+00  0.13206889038E+03  0.13206889038E+03  0.00000000000E+00 0. -1.
          2   -1    0    0  503    0 -0.00000000000E+00 -0.00000000000E+00 -0.67621439361E+03  0.67621439361E+03  0.00000000000E+00 0. -1.
         23    2    1    2    0    0  0.13044541348E+02  0.61451158487E+02 -0.38080827999E+03  0.39549855721E+03  0.86358310041E+02 0.  0.
         24    2    1    2    0    0  0.71854083389E+02  0.65266071996E+02 -0.64270856445E+02  0.14160624112E+03  0.80615848832E+02 0.  0.
        -11    1    4    4    0    0  0.45143406257E+02  0.45880374392E+02 -0.81918300863E+02  0.10418034315E+03  0.00000000000E+00 0.  1.
         12    1    4    4    0    0  0.26710677131E+02  0.19385697604E+02  0.17647444418E+02  0.37425897971E+02  0.00000000000E+00 0. -1.
        -13    1    3    3    0    0 -0.30975412512E+02  0.46863442955E+02 -0.26212701946E+03  0.26807878095E+03  0.00000000000E+00 0. -1.
         13    1    3    3    0    0  0.44019953860E+02  0.14587715532E+02 -0.11868126053E+03  0.12741977626E+03  0.00000000000E+00 0.  1.
         21    1    1    2  503  502 -0.12139056850E+02 -0.15987582209E+02  0.60518119230E+02  0.63760506908E+02  0.00000000000E+00 0. -1.
          1    1    1    2  501    0 -0.72759567887E+02 -0.11072964827E+03 -0.15958448602E+03  0.20741797874E+03  0.00000000000E+00 0. -1.
<scales pt_clust_5="13000.00000" pt_clust_6="13000.00000" pt_clust_7="13000.00000" pt_clust_8="13000.00000" pt_clust_9="20.07385" pt_clust_10="101.81450"></scales>
<clustering>
<clus scale="   20.074">  1  9  2 -1</clus>
<clus scale="   80.616">  5  6 -1 -1</clus>
<clus scale="   86.358">  7  8 -1 -1</clus>
<clus scale="  105.683">  2  7  1 -1</clus>
<clus scale="  101.815">  1 10  2 -1</clus>
<clus scale="   20.074">  1  5  2 -1</clus>
</clustering>
</event>
<event>
10    4  0.3043429E-005  0.1953264E+03  0.7546771E-02  0.1155070E+00
          2   -1    0    0  503    0 -0.00000000000E+00  0.00000000000E+00  0.13372099360E+03  0.13372099360E+03  0.00000000000E+00 0. -1.
         21   -1    0    0  501  502  0.00000000000E+00 -0.00000000000E+00 -0.40886871809E+03  0.40886871809E+03  0.00000000000E+00 0.  1.
         24    2    1    2    0    0  0.17095486869E+03  0.56718013409E+02 -0.43370085532E+02  0.20129847636E+03  0.78724914066E+02 0.  0.
         23    2    1    2    0    0 -0.15206647551E+03 -0.43033004826E+02 -0.18152618304E+03  0.25774736458E+03  0.92227416440E+02 0.  0.
        -11    1    3    3    0    0  0.16594253683E+03  0.29251462917E+02 -0.34435969852E+02  0.17198374816E+03  0.00000000000E+00 0.  1.
         12    1    3    3    0    0  0.50123318563E+01  0.27466550491E+02 -0.89341156797E+01  0.29314728201E+02  0.00000000000E+00 0. -1.
        -11    1    4    4    0    0 -0.23176192950E+02 -0.47187527800E+02 -0.38452567526E+02  0.65133698259E+02  0.00000000000E+00 0. -1.
         11    1    4    4    0    0 -0.12889028256E+03  0.41545229740E+01 -0.14307361551E+03  0.19261366632E+03  0.00000000000E+00 0.  1.
         21    1    1    2  503  502 -0.31649355955E+02  0.15117068336E+02 -0.23541723940E+02  0.42242398766E+02  0.00000000000E+00 0.  1.
          1    1    1    2  501    0  0.12760962775E+02 -0.28802076918E+02 -0.26709731976E+02  0.41301471983E+02  0.00000000000E+00 0. -1.
<scales pt_clust_5="13000.00000" pt_clust_6="13000.00000" pt_clust_7="13000.00000" pt_clust_8="13000.00000" pt_clust_9="33.02369" pt_clust_10="31.50241"></scales>
<clustering>
<clus scale="   31.502">  2 10  1 -1</clus>
<clus scale="   33.024">  2  9  1 -1</clus>
<clus scale="   78.725">  5  6 -1 -1</clus>
<clus scale="   92.227">  7  8 -1 -1</clus>
<clus scale="  189.325">  1  5  2 -1</clus>
<clus scale="   31.502">  2  5  1 -1</clus>
</clustering>
</event>
<event>
10    4  0.3043429E-005  0.1918666E+03  0.7546771E-02  0.1173536E+00
          2   -1    0    0  503    0 -0.00000000000E+00  0.00000000000E+00  0.17766244999E+04  0.17766244999E+04  0.00000000000E+00 0. -1.
         21   -1    0    0  501  502  0.00000000000E+00 -0.00000000000E+00 -0.21154185603E+03  0.21154185603E+03  0.00000000000E+00 0. -1.
         23    2    1    2    0    0 -0.64636463055E+02 -0.83923744965E+02  0.39957857263E+03  0.42389306614E+03  0.93814862837E+02 0.  0.
         24    2    1    2    0    0 -0.27911673374E+02 -0.10002068184E+03  0.12649629182E+04  0.12720722137E+04  0.85166508503E+02 0.  0.
        -11    1    4    4    0    0  0.22032736724E+02 -0.95724781005E+01  0.11530456138E+03  0.11778037060E+03  0.00000000000E+00 0.  1.
         12    1    4    4    0    0 -0.49944410098E+02 -0.90448203744E+02  0.11496583568E+04  0.11542918431E+04  0.00000000000E+00 0. -1.
        -11    1    3    3    0    0 -0.47104153655E+02 -0.24936085844E+02  0.31397128706E+03  0.31846283734E+03  0.00000000000E+00 0.  1.
         11    1    3    3    0    0 -0.17532309399E+02 -0.58987659121E+02  0.85607285569E+02  0.10543022880E+03  0.00000000000E+00 0. -1.
         21    1    1    2  503  502  0.63368353173E+02  0.10754000793E+03  0.39532464584E+02  0.13093210930E+03  0.00000000000E+00 0. -1.
          1    1    1    2  501    0  0.29179783255E+02  0.76404418885E+02 -0.13899131152E+03  0.16126896680E+03  0.00000000000E+00 0. -1.
<scales pt_clust_5="13000.00000" pt_clust_6="13000.00000" pt_clust_7="13000.00000" pt_clust_8="13000.00000" pt_clust_9="171.92868" pt_clust_10="81.78689"></scales>
<clustering>
<clus scale="   81.787">  2 10  1 -1</clus>
<clus scale="   85.167">  5  6 -1 -1</clus>
<clus scale="   93.815">  7  8 -1 -1</clus>
<clus scale="  130.380">  1  7  2 -1</clus>
<clus scale="  171.929">  2  9  1 -1</clus>
<clus scale="   81.787">  2  5  1 -1</clus>
</clustering>
</event>
<event>
10    4  0.3043429E-005  0.1489373E+03  0.7546771E-02  0.1221833E+00
         21   -1    0    0  503  502  0.00000000000E+00  0.00000000000E+00  0.42241920537E+02  0.42241920537E+02  0.00000000000E+00 0.  1.
          2   -1    0    0  502    0 -0.00000000000E+00 -0.00000000000E+00 -0.92817053443E+03  0.92817053443E+03  0.00000000000E+00 0. -1.
         24    2    1    2    0    0  0.56103626839E+02 -0.24388025917E+02 -0.19227259295E+03  0.21674201599E+03  0.79157809119E+02 0.  0.
         23    2    1    2    0    0  0.44523303795E+02  0.93960376257E+02 -0.37072099072E+03  0.39596240089E+03  0.92419116366E+02 0.  0.
        -11    1    3    3    0    0  0.70042389990E+02 -0.25200030828E+02 -0.10707063464E+03  0.13040359946E+03  0.00000000000E+00 0.  1.
         12    1    3    3    0    0 -0.13938763151E+02  0.81200491035E+00 -0.85201958307E+02  0.86338416533E+02  0.00000000000E+00 0. -1.
        -11    1    4    4    0    0  0.18805691267E+02  0.12120319422E+02 -0.88462958254E+01  0.24058535216E+02  0.00000000000E+00 0.  1.
         11    1    4    4    0    0  0.25717612528E+02  0.81840056835E+02 -0.36187469490E+03  0.37190386568E+03  0.00000000000E+00 0. -1.
         21    1    1    2  503  501 -0.80398796239E+01  0.22060293138E+02 -0.44830044187E+02  0.50606610828E+02  0.00000000000E+00 0. -1.
          1    1    1    2  501    0 -0.92587051010E+02 -0.91632643478E+02 -0.27810498603E+03  0.30710142725E+03  0.00000000000E+00 0. -1.
<scales pt_clust_5="13000.00000" pt_clust_6="13000.00000" pt_clust_7="13000.00000" pt_clust_8="13000.00000" pt_clust_9="23.47970" pt_clust_10="116.79474"></scales>
<clustering>
<clus scale="   23.480">  1  9  2 -1</clus>
<clus scale="   79.158">  5  6 -1 -1</clus>
<clus scale="   92.419">  7  8 -1 -1</clus>
<clus scale="   97.194">  2  5  1 -1</clus>
<clus scale="  116.795">  1 10  2 -1</clus>
<clus scale="   23.480">  1  5  2 -1</clus>
</clustering>
</event>
<event>
10    4  0.3043429E-005  0.9241835E+02  0.7546771E-02  0.1304373E+00
         21   -1    0    0  501  502  0.00000000000E+00  0.00000000000E+00  0.40044634535E+03  0.40044634535E+03  0.00000000000E+00 0. -1.
          2   -1    0    0  503    0 -0.00000000000E+00 -0.00000000000E+00 -0.10102023979E+04  0.10102023979E+04  0.00000000000E+00 0. -1.
         24    2    1    2    0    0 -0.74417581531E+01  0.22107247756E+02 -0.90302289109E+03  0.90670869704E+03  0.78270104735E+02 0.  0.
         23    2    1    2    0    0 -0.19861057467E+02  0.10486298341E+02 -0.81024853605E+02  0.12330053179E+03  0.90186308167E+02 0.  0.
        -11    1    3    3    0    0  0.11198847061E+02 -0.21371135622E+02 -0.12869768675E+03  0.13093981131E+03  0.00000000000E+00 0.  1.
         12    1    3    3    0    0 -0.18640605215E+02  0.43478383378E+02 -0.77432520434E+03  0.77576888573E+03  0.00000000000E+00 0. -1.
        -11    1    4    4    0    0 -0.46719064310E+01 -0.36530679393E+02 -0.58200490555E+02  0.68873901788E+02  0.00000000000E+00 0. -1.
         11    1    4    4    0    0 -0.15189151036E+02  0.47016977734E+02 -0.22824363050E+02  0.54426630000E+02  0.00000000000E+00 0.  1.
         21    1    1    2  503  502  0.39389187661E+02 -0.14494647918E+02  0.30849053065E+03  0.31133263629E+03  0.00000000000E+00 0. -1.
          1    1    1    2  501    0 -0.12086372040E+02 -0.18098898179E+02  0.65801161481E+02  0.69306878134E+02  0.00000000000E+00 0. -1.
<scales pt_clust_5="13000.00000" pt_clust_6="13000.00000" pt_clust_7="13000.00000" pt_clust_8="13000.00000" pt_clust_9="42.12071" pt_clust_10="21.76351"></scales>
<clustering>
<clus scale="   21.764">  1 10  2 -1</clus>
<clus scale="   42.121">  1  9  2 -1</clus>
<clus scale="   78.270">  5  6 -1 -1</clus>
<clus scale="   80.832">  2  5  1 -1</clus>
<clus scale="   90.186">  7  8 -1 -1</clus>
<clus scale="   21.764">  1  5  2 -1</clus>
</clustering>
</event>
<event>
10    4  0.3043429E-005  0.2198319E+03  0.7546771E-02  0.1168429E+00
          2   -1    0    0  503    0 -0.00000000000E+00  0.00000000000E+00  0.99438562562E+03  0.99438562562E+03  0.00000000000E+00 0. -1.
         21   -1    0    0  501  502  0.00000000000E+00 -0.00000000000E+00 -0.14235105360E+03  0.14235105360E+03  0.00000000000E+00 0. -1.
         24    2    1    2    0    0 -0.56222492991E+02  0.17098332135E+01  0.27469781019E+03  0.29145611383E+03  0.79522871669E+02 0.  0.
         23    2    1    2    0    0  0.44372376671E+02 -0.12108877004E+03  0.16709527553E+02  0.15810910286E+03  0.89932652877E+02 0.  0.
        -11    1    3    3    0    0 -0.70502426258E+02 -0.12299861710E+02  0.24784436241E+03  0.25797036009E+03  0.00000000000E+00 0.  1.
         12    1    3    3    0    0  0.14279933267E+02  0.14009694924E+02  0.26853447782E+02  0.33485753743E+02  0.00000000000E+00 0. -1.
        -11    1    4    4    0    0  0.51561313386E+02 -0.70789272129E+02  0.46554456281E+02  0.99181689269E+02  0.00000000000E+00 0.  1.
         11    1    4    4    0    0 -0.71889367148E+01 -0.50299497915E+02 -0.29844928728E+02  0.58927413590E+02  0.00000000000E+00 0. -1.
         21    1    1    2  503  502  0.11280586739E+01 -0.10997628335E+03  0.38050984976E+02  0.11637840381E+03  0.00000000000E+00 0. -1.
          1    1    1    2  501    0  0.10722057646E+02  0.22935522018E+03  0.52257624930E+03  0.57079305872E+03  0.00000000000E+00 0. -1.
<scales pt_clust_5="13000.00000" pt_clust_6="13000.00000" pt_clust_7="13000.00000" pt_clust_8="13000.00000" pt_clust_9="109.90334" pt_clust_10="200.59470"></scales>
<clustering>
<clus scale="   79.523">  5  6 -1 -1</clus>
<clus scale="   89.933">  7  8 -1 -1</clus>
<clus scale="   97.405">  1  5  2 -1</clus>
<clus scale="  109.903">  2  9  1 -1</clus>
<clus scale="  200.595">  2 10  1 -1</clus>
<clus scale="  109.903">  2  5  1 -1</clus>
</clustering>
</event>
<event>
10    4  0.3043429E-005  0.1815269E+03  0.7546771E-02  0.1166793E+00
         -3   -1    0    0    0  501 -0.00000000000E+00  0.00000000000E+00  0.13093084066E+04  0.13093084066E+04  0.00000000000E+00 0.  1.
         21   -1    0    0  503  502  0.00000000000E+00 -0.00000000000E+00 -0.11462841064E+03  0.11462841064E+03  0.00000000000E+00 0. -1.
         24    2    1    2    0    0  0.76467011499E+02 -0.12048111226E+03  0.25312952741E+03  0.30353749334E+03  0.87735682335E+02 0.  0.
         23    2    1    2    0    0 -0.60481081743E+02  0.18275274350E+03  0.13927956524E+03  0.25464263156E+03  0.91583546601E+02 0.  0.
        -13    1    3    3    0    0  0.35101186504E+02 -0.27274895287E+01  0.99830790050E+02  0.10585706937E+03  0.00000000000E+00 0.  1.
         14    1    3    3    0    0  0.41365824995E+02 -0.11775362273E+03  0.15329873736E+03  0.19768042397E+03  0.00000000000E+00 0. -1.
        -13    1    4    4    0    0  0.23714051891E+02  0.58083496674E+02  0.41408283926E+02  0.75171103628E+02  0.00000000000E+00 0.  1.
         13    1    4    4    0    0 -0.84195133633E+02  0.12466924682E+03  0.97871281315E+02  0.17947152793E+03  0.00000000000E+00 0. -1.
         21    1    1    2  503  501 -0.35882297220E+02  0.44006442401E+02  0.55647851587E+00  0.56783940467E+02  0.00000000000E+00 0. -1.
         -4    1    1    2    0  502  0.19896367464E+02 -0.10627807364E+03  0.80171442479E+03  0.80897275188E+03  0.00000000000E+00 0.  1.
<scales pt_clust_5="13000.00000" pt_clust_6="13000.00000" pt_clust_7="13000.00000" pt_clust_8="13000.00000" pt_clust_9="56.78121" pt_clust_10="106.03916"></scales>
<clustering>
<clus scale="   56.781">  2  9  1 -1</clus>
<clus scale="   87.736">  5  6 -1 -1</clus>
<clus scale="   91.584">  7  8 -1 -1</clus>
<clus scale="  106.039">  2 10  1 -1</clus>
<clus scale="  179.616">  1  5  2 -1</clus>
<clus scale="   56.781">  2  5  1 -1</clus>
</clustering>
</event>
<event>
10    4  0.3043429E-005  0.2656343E+03  0.7546771E-02  0.1103804E+00
         21   -1    0    0  501  502  0.00000000000E+00  0.00000000000E+00  0.25982543515E+03  0.25982543515E+03  0.00000000000E+00 0.  1.
         -3   -1    0    0    0  501 -0.00000000000E+00 -0.00000000000E+00 -0.39407478808E+03  0.39407478808E+03  0.00000000000E+00 0.  1.
         24    2    1    2    0    0 -0.48854933972E+02  0.14103584142E+03 -0.13410668942E+03  0.21684721489E+03  0.82220419123E+02 0.  0.
         23    2    1    2    0    0 -0.37375985570E+02  0.37719065883E+02 -0.97840002456E+02  0.14491734044E+03  0.92782957763E+02 0.  0.
        -13    1    3    3    0    0 -0.59787612321E+02  0.14615448048E+03 -0.12034462318E+03  0.19854097582E+03  0.00000000000E+00 0.  1.
         14    1    3    3    0    0  0.10932678350E+02 -0.51186390600E+01 -0.13762066244E+02  0.18306239074E+02  0.00000000000E+00 0. -1.
        -11    1    4    4    0    0 -0.49567308821E+02 -0.15587609546E+02 -0.42627629661E+02  0.67208678648E+02  0.00000000000E+00 0. -1.
         11    1    4    4    0    0  0.12191323252E+02  0.53306675428E+02 -0.55212372796E+02  0.77708661793E+02  0.00000000000E+00 0.  1.
         21    1    1    2  503  502  0.50001139533E+02 -0.18541735017E+02  0.11520258126E+03  0.12694701502E+03  0.00000000000E+00 0.  1.
         -4    1    1    2    0  503  0.36229780008E+02 -0.16021317228E+03 -0.17505242323E+02  0.16518865288E+03  0.00000000000E+00 0.  1.
<scales pt_clust_5="13000.00000" pt_clust_6="13000.00000" pt_clust_7="13000.00000" pt_clust_8="13000.00000" pt_clust_9="53.32832" pt_clust_10="181.31840"></scales>
<clustering>
<clus scale="   53.328">  1  9  2 -1</clus>
<clus scale="   82.220">  5  6 -1 -1</clus>
<clus scale="   92.783">  7  8 -1 -1</clus>
<clus scale="   96.775">  5  7 -1 -1</clus>
<clus scale="  181.318">  1 10  2 -1</clus>
<clus scale="   53.328">  1  5  2 -1</clus>
</clustering>
</event>
<event>
10    4  0.3043429E-005  0.1143550E+03  0.7546771E-02  0.1257897E+00
          2   -1    0    0  503    0 -0.00000000000E+00  0.00000000000E+00  0.95254879085E+03  0.95254879085E+03  0.00000000000E+00 0. -1.
         21   -1    0    0  501  502  0.00000000000E+00 -0.00000000000E+00 -0.52616694159E+02  0.52616694159E+02  0.00000000000E+00 0. -1.
         24    2    1    2    0    0 -0.60790456416E+02  0.30610611371E+02  0.77089859524E+03  0.77814454081E+03  0.81189858532E+02 0.  0.
         23    2    1    2    0    0  0.30958977687E+02 -0.30497438700E+02  0.13048589707E+03  0.16713846997E+03  0.94974453107E+02 0.  0.
        -13    1    3    3    0    0 -0.50686712442E+02  0.37822354198E+02  0.27854019754E+03  0.28562968147E+03  0.00000000000E+00 0.  1.
         14    1    3    3    0    0 -0.10103743974E+02 -0.72117428271E+01  0.49235839770E+03  0.49251485934E+03  0.00000000000E+00 0. -1.
        -13    1    4    4    0    0  0.38072504598E+02  0.70078960807E+01  0.12205163571E+03  0.12804385184E+03  0.00000000000E+00 0. -1.
         13    1    4    4    0    0 -0.71135269106E+01 -0.37505334780E+02  0.84342613574E+01  0.39094618130E+02  0.00000000000E+00 0.  1.
         21    1    1    2  503  502  0.12496390316E+02 -0.17368417432E+02  0.18524850183E+02  0.28301797988E+02  0.00000000000E+00 0.  1.
          1    1    1    2  501    0  0.17335088413E+02  0.17255244761E+02 -0.19977245803E+02  0.31580676243E+02  0.00000000000E+00 0. -1.
<scales pt_clust_5="13000.00000" pt_clust_6="13000.00000" pt_clust_7="13000.00000" pt_clust_8="13000.00000" pt_clust_9="21.39677" pt_clust_10="25.33916"></scales>
<clustering>
<clus scale="   21.397">  2  9  1 -1</clus>
<clus scale="   25.339">  2 10  1 -1</clus>
<clus scale="   81.190">  5  6 -1 -1</clus>
<clus scale="   94.974">  7  8 -1 -1</clus>
<clus scale="  103.193">  1  5  2 -1</clus>
<clus scale="   21.397">  2  5  1 -1</clus>
</clustering>
</event>
<event>
10    4  0.3043429E-005  0.2305181E+03  0.7546771E-02  0.1154141E+00
          4   -1    0    0  502    0 -0.00000000000E+00  0.00000000000E+00  0.70277728860E+03  0.70277728860E+03  0.00000000000E+00 0. -1.
         21   -1    0    0  503  502  0.00000000000E+00 -0.00000000000E+00 -0.22401041869E+03  0.22401041869E+03  0.00000000000E+00 0. -1.
         24    2    1    2    0    0 -0.52171658981E+02  0.68177270619E+02 -0.36876710294E+02  0.12336406429E+03  0.80552953807E+02 0.  0.
         23    2    1    2    0    0  0.21528585006E+03 -0.18125165454E+03  0.51990514197E+03  0.59844928262E+03  0.92951749377E+02 0.  0.
        -11    1    3    3    0    0 -0.39308349271E+02  0.18815329156E+02  0.19143846915E+02  0.47598842511E+02  0.00000000000E+00 0.  1.
         12    1    3    3    0    0 -0.12863309709E+02  0.49361941463E+02 -0.56020557210E+02  0.75765221782E+02  0.00000000000E+00 0. -1.
        -11    1    4    4    0    0  0.11739470125E+03 -0.15444278136E+03  0.31885579761E+03  0.37323331613E+03  0.00000000000E+00 0. -1.
         11    1    4    4    0    0  0.97891148811E+02 -0.26808873176E+02  0.20104934436E+03  0.22521596650E+03  0.00000000000E+00 0.  1.
         21    1    1    2  503  501 -0.51003365278E+02  0.50402345660E+02 -0.22711747947E+02  0.75216774808E+02  0.00000000000E+00 0. -1.
          3    1    1    2  501    0 -0.11211082581E+03  0.62672038260E+02  0.18450186185E+02  0.12975758557E+03  0.00000000000E+00 0. -1.
<scales pt_clust_5="13000.00000" pt_clust_6="13000.00000" pt_clust_7="13000.00000" pt_clust_8="13000.00000" pt_clust_9="38.13045" pt_clust_10="217.03187"></scales>
<clustering>
<clus scale="   38.130">  9 10 -1 -1</clus>
<clus scale="   80.553">  5  6 -1 -1</clus>
<clus scale="   92.952">  7  8 -1 -1</clus>
<clus scale="  117.723">  1  5  2 -1</clus>
<clus scale="  217.032">  2  9  1 -1</clus>
<clus scale="  217.032">  2  5  1 -1</clus>
</clustering>
</event>
<event>
10    4  0.3043429E-005  0.1535222E+03  0.7546771E-02  0.1198107E+00
         21   -1    0    0  501  502  0.00000000000E+00  0.00000000000E+00  0.22639074349E+03  0.22639074349E+03  0.00000000000E+00 0.  1.
          2   -1    0    0  503    0 -0.00000000000E+00 -0.00000000000E+00 -0.47879377252E+03  0.47879377252E+03  0.00000000000E+00 0. -1.
         24    2    1    2    0    0 -0.13134712753E+03  0.20840425763E+02 -0.28806743403E+03  0.32714207567E+03  0.79703825938E+02 0.  0.
         23    2    1    2    0    0  0.47847642843E+02  0.50096196362E+02  0.16343587001E+03  0.19933710903E+03  0.90691640266E+02 0.  0.
        -11    1    3    3    0    0 -0.85029530536E+02 -0.71212226372E+01 -0.10004557935E+03  0.13149087733E+03  0.00000000000E+00 0.  1.
         12    1    3    3    0    0 -0.46317596997E+02  0.27961648400E+02 -0.18802185468E+03  0.19565119834E+03  0.00000000000E+00 0. -1.
        -11    1    4    4    0    0  0.63983769101E+02  0.61939483889E+02  0.15231896659E+03  0.17644117988E+03  0.00000000000E+00 0.  1.
         11    1    4    4    0    0 -0.16136126257E+02 -0.11843287526E+02  0.11116903414E+02  0.22895929148E+02  0.00000000000E+00 0. -1.
         21    1    1    2  503  502 -0.23113969853E+01 -0.22876932367E+02 -0.43432151287E+02  0.49143141495E+02  0.00000000000E+00 0. -1.
          1    1    1    2  501    0  0.85810881675E+02 -0.48059689758E+02 -0.84339313720E+02  0.12956218982E+03  0.00000000000E+00 0. -1.
<scales pt_clust_5="13000.00000" pt_clust_6="13000.00000" pt_clust_7="13000.00000" pt_clust_8="13000.00000" pt_clust_9="22.99340" pt_clust_10="100.75335"></scales>
<clustering>
<clus scale="   22.993">  2  9  1 -1</clus>
<clus scale="   79.704">  5  6 -1 -1</clus>
<clus scale="   90.692">  7  8 -1 -1</clus>
<clus scale="  100.753">  1 10  2 -1</clus>
<clus scale="  147.298">  2  5  1 -1</clus>
<clus scale="  100.753">  1  5  2 -1</clus>
</clustering>
</event>
<event>
10    4  0.3043429E-005  0.1428269E+03  0.7546771E-02  0.1223316E+00
         21   -1    0    0  501  502  0.00000000000E+00  0.00000000000E+00  0.62052790987E+02  0.62052790987E+02  0.00000000000E+00 0.  1.
          2   -1    0    0  503    0 -0.00000000000E+00 -0.00000000000E+00 -0.86109638492E+03  0.86109638492E+03  0.00000000000E+00 0. -1.
         23    2    1    2    0    0  0.97996006828E+01 -0.60676923949E+02 -0.25254451520E+03  0.27530172392E+03  0.90744618367E+02 0.  0.
         24    2    1    2    0    0 -0.85163672725E+02 -0.43142395810E+02 -0.39913007169E+03  0.41821682264E+03  0.80538060222E+02 0.  0.
        -13    1    4    4    0    0 -0.62573016877E+02 -0.55265594396E+02 -0.19014615854E+03  0.20766615028E+03  0.00000000000E+00 0.  1.
         14    1    4    4    0    0 -0.22590655848E+02  0.12123198586E+02 -0.20898391315E+03  0.21055067236E+03  0.00000000000E+00 0. -1.
        -13    1    3    3    0    0  0.31221479136E+02 -0.25612385101E+02 -0.33595393348E+02  0.52530234001E+02  0.00000000000E+00 0. -1.
         13    1    3    3    0    0 -0.21421878453E+02 -0.35064538847E+02 -0.21894912185E+03  0.22277148992E+03  0.00000000000E+00 0.  1.
         21    1    1    2  503  502 -0.23621708120E+02  0.17625139598E+02  0.34751141055E+01  0.29676709022E+02  0.00000000000E+00 0. -1.
          1    1    1    2  501    0  0.98985780162E+02  0.86194180161E+02 -0.15084412115E+03  0.19995392032E+03  0.00000000000E+00 0. -1.
<scales pt_clust_5="13000.00000" pt_clust_6="13000.00000" pt_clust_7="13000.00000" pt_clust_8="13000.00000" pt_clust_9="29.47254" pt_clust_10="117.95396"></scales>
<clustering>
<clus scale="   29.473">  1  9  2 -1</clus>
<clus scale="   80.538">  5  6 -1 -1</clus>
<clus scale="   90.745">  7  8 -1 -1</clus>
<clus scale="  106.844">  2  7  1 -1</clus>
<clus scale="  117.954">  1 10  2 -1</clus>
<clus scale="   29.473">  1  5  2 -1</clus>
</clustering>
</event>
<event>
10    4  0.3043429E-005  0.4433190E+03  0.7546771E-02  0.1029733E+00
          2   -1    0    0  503    0 -0.00000000000E+00  0.00000000000E+00  0.28287504321E+03  0.28287504321E+03  0.00000000000E+00 0. -1.
         21   -1    0    0  501  502  0.00000000000E+00 -0.00000000000E+00 -0.67697866196E+03  0.67697866196E+03  0.00000000000E+00 0. -1.
         24    2    1    2    0    0 -0.70076983380E+02 -0.31404602405E+03 -0.90125435243E+02  0.34395071398E+03  0.81509574557E+02 0.  0.
         23    2    1    2    0    0 -0.90089745424E+01 -0.68690362880E+02 -0.41336122720E+02  0.12126596489E+03  0.90538564290E+02 0.  0.
        -13    1    3    3    0    0 -0.20267606267E+02 -0.41707705811E+02 -0.42750714259E+02  0.63070850299E+02  0.00000000000E+00 0.  1.
         14    1    3    3    0    0 -0.49809377113E+02 -0.27233831824E+03 -0.47374720984E+02  0.28087986368E+03  0.00000000000E+00 0. -1.
        -13    1    4    4    0    0  0.23040499453E+02 -0.21864227925E+02 -0.54440051252E+02  0.63028789122E+02  0.00000000000E+00 0.  1.
         13    1    4    4    0    0 -0.32049473996E+02 -0.46826134955E+02  0.13103928532E+02  0.58237175766E+02  0.00000000000E+00 0. -1.
         21    1    1    2  503  502 -0.21968477552E+02  0.12081185148E+02 -0.49011255670E+02  0.55051541512E+02  0.00000000000E+00 0.  1.
          1    1    1    2  501    0  0.10105443547E+03  0.37065520179E+03 -0.21363080512E+03  0.43958548479E+03  0.00000000000E+00 0. -1.
<scales pt_clust_5="13000.00000" pt_clust_6="13000.00000" pt_clust_7="13000.00000" pt_clust_8="13000.00000" pt_clust_9="25.07128" pt_clust_10="387.46488"></scales>
<clustering>
<clus scale="   25.071">  2  9  1 -1</clus>
<clus scale="   81.510">  5  6 -1 -1</clus>
<clus scale="   90.539">  7  8 -1 -1</clus>
<clus scale="   90.768">  5  7 -1 -1</clus>
<clus scale="  387.465">  2 10  1 -1</clus>
<clus scale="   25.071">  2  5  1 -1</clus>
</clustering>
</event>
<event>
10    4  0.3043429E-005  0.1499677E+03  0.7546771E-02  0.1220068E+00
         21   -1    0    0  501  502  0.00000000000E+00  0.00000000000E+00  0.24615359323E+03  0.24615359323E+03  0.00000000000E+00 0. -1.
          2   -1    0    0  503    0 -0.00000000000E+00 -0.00000000000E+00 -0.23593889030E+03  0.23593889030E+03  0.00000000000E+00 0. -1.
         24    2    1    2    0    0  0.14192013726E+02 -0.64815075915E+02 -0.49628713061E+02  0.11553764989E+03  0.80520382904E+02 0.  0.
         23    2    1    2    0    0 -0.89287971560E+02  0.10219361537E+03 -0.36304853843E+01  0.16349804066E+03  0.91118340558E+02 0.  0.
        -11    1    3    3    0    0 -0.11203028601E+02 -0.36220376618E+02 -0.64243636475E+02  0.74596704751E+02  0.00000000000E+00 0.  1.
         12    1    3    3    0    0  0.25395042327E+02 -0.28594699296E+02  0.14614923414E+02  0.40940945141E+02  0.00000000000E+00 0. -1.
        -13    1    4    4    0    0 -0.58770093205E+02  0.11592683903E+03 -0.18733832890E+01  0.12998640478E+03  0.00000000000E+00 0. -1.
         13    1    4    4    0    0 -0.30517878355E+02 -0.13733223657E+02 -0.17571020953E+01  0.33511635876E+02  0.00000000000E+00 0.  1.
         21    1    1    2  503  502  0.28172751298E+01  0.46555890084E+02  0.78464966063E+02  0.91280550174E+02  0.00000000000E+00 0.  1.
          1    1    1    2  501    0  0.72278682704E+02 -0.83934429542E+02 -0.14991064688E+02  0.11177624281E+03  0.00000000000E+00 0. -1.
<scales pt_clust_5="13000.00000" pt_clust_6="13000.00000" pt_clust_7="13000.00000" pt_clust_8="13000.00000" pt_clust_9="46.64105" pt_clust_10="119.11237"></scales>
<clustering>
<clus scale="   46.641">  1  9  2 -1</clus>
<clus scale="   80.520">  5  6 -1 -1</clus>
<clus scale="   91.118">  7  8 -1 -1</clus>
<clus scale="   98.793">  2  5  1 -1</clus>
<clus scale="  119.112">  1 10  2 -1</clus>
<clus scale="   46.641">  1  5  2 -1</clus>
</clustering>
</event>
<event>
10    4  0.3043429E-005  0.1310342E+03  0.7546771E-02  0.1245492E+00
          4   -1    0    0  502    0 -0.00000000000E+00  0.00000000000E+00  0.21346312430E+03  0.21346312430E+03  0.00000000000E+00 0. -1.
         21   -1    0    0  503  502  0.00000000000E+00 -0.00000000000E+00 -0.22682897390E+03  0.22682897390E+03  0.00000000000E+00 0. -1.
         24    2    1    2    0    0 -0.18053278139E+02  0.30760654377E+02 -0.10999324910E+03  0.14077275615E+03  0.80288948917E+02 0.  0.
         23    2    1    2    0    0 -0.86669961149E+02 -0.60073893035E+02  0.11126021700E+03  0.17883143511E+03  0.92093927636E+02 0.  0.
        -11    1    3    3    0    0 -0.26935285573E+02  0.54144378580E+02 -0.61749484648E+02  0.86429868651E+02  0.00000000000E+00 0.  1.
         12    1    3    3    0    0  0.88820074332E+01 -0.23383724203E+02 -0.48243764453E+02  0.54342887504E+02  0.00000000000E+00 0. -1.
        -11    1    4    4    0    0  0.42521083108E+01 -0.30487096104E+02  0.66457513165E+02  0.73240320248E+02  0.00000000000E+00 0.  1.
         11    1    4    4    0    0 -0.90922069460E+02 -0.29586796931E+02  0.44802703838E+02  0.10559111487E+03  0.00000000000E+00 0. -1.
         21    1    1    2  503  501  0.20281967018E+02  0.70070740468E+01 -0.24760429298E+02  0.32764861236E+02  0.00000000000E+00 0.  1.
          3    1    1    2  501    0  0.84441272271E+02  0.22306164611E+02  0.10127611794E+02  0.87923045688E+02  0.00000000000E+00 0. -1.
<scales pt_clust_5="13000.00000" pt_clust_6="13000.00000" pt_clust_7="13000.00000" pt_clust_8="13000.00000" pt_clust_9="21.45827" pt_clust_10="93.21306"></scales>
<clustering>
<clus scale="   21.458">  2  9  1 -1</clus>
<clus scale="   80.289">  5  6 -1 -1</clus>
<clus scale="   87.820">  1  5  2 -1</clus>
<clus scale="   92.094">  7  8 -1 -1</clus>
<clus scale="   93.213">  2 10  1 -1</clus>
<clus scale="   21.458">  2  5  1 -1</clus>
</clustering>
</event>
<event>
10    4  0.3043429E-005  0.2336434E+03  0.7546771E-02  0.1168770E+00
         21   -1    0    0  501  502  0.00000000000E+00  0.00000000000E+00  0.56452496757E+03  0.56452496757E+03  0.00000000000E+00 0. -1.
          2   -1    0    0  503    0 -0.00000000000E+00 -0.00000000000E+00 -0.88802823051E+03  0.88802823051E+03  0.00000000000E+00 0. -1.
         24    2    1    2    0    0 -0.25164859391E+02 -0.54190925291E+02 -0.75053941495E+02  0.11006103062E+03  0.53948214019E+02 0.  0.
         23    2    1    2    0    0  0.23333739107E+03 -0.61474035549E+01 -0.64058596705E+03  0.68976050482E+03  0.10457076163E+03 0.  0.
        -13    1    3    3    0    0 -0.38067897293E+02 -0.21153310136E+02 -0.51684236077E+02  0.67586149416E+02  0.00000000000E+00 0.  1.
         14    1    3    3    0    0  0.12903037903E+02 -0.33037615155E+02 -0.23369705419E+02  0.42474881207E+02  0.00000000000E+00 0. -1.
        -11    1    4    4    0    0  0.10877477420E+02  0.19197918311E+02 -0.19136840122E+02  0.29207845390E+02  0.00000000000E+00 0.  1.
         11    1    4    4    0    0  0.22245991365E+03 -0.25345321866E+02 -0.62144912692E+03  0.66055265943E+03  0.00000000000E+00 0. -1.
         21    1    1    2  503  502 -0.16012488348E+02  0.18821058824E+03  0.37669150891E+03  0.42139781465E+03  0.00000000000E+00 0. -1.
          1    1    1    2  501    0 -0.19216004333E+03 -0.12787225940E+03  0.15445136692E+02  0.23133384798E+03  0.00000000000E+00 0. -1.
<scales pt_clust_5="13000.00000" pt_clust_6="13000.00000" pt_clust_7="13000.00000" pt_clust_8="13000.00000" pt_clust_9="187.43500" pt_clust_10="208.93590"></scales>
<clustering>
<clus scale="   53.948">  5  6 -1 -1</clus>
<clus scale="   80.501">  2  5  1 -1</clus>
<clus scale="  104.571">  7  8 -1 -1</clus>
<clus scale="  187.435">  1  9  2 -1</clus>
<clus scale="  208.936">  1 10  2 -1</clus>
<clus scale="  187.435">  1  5  2 -1</clus>
</clustering>
</event>
<event>
10    4  0.3043429E-005  0.2344706E+03  0.7546771E-02  0.1153845E+00
         21   -1    0    0  501  502  0.00000000000E+00  0.00000000000E+00  0.84313943380E+03  0.84313943380E+03  0.00000000000E+00 0. -1.
          2   -1    0    0  503    0 -0.00000000000E+00 -0.00000000000E+00 -0.12906524451E+03  0.12906524451E+03  0.00000000000E+00 0. -1.
         23    2    1    2    0    0  0.11232049901E+02  0.63888240213E+02  0.12787124182E+03  0.17113531003E+03  0.93425765569E+02 0.  0.
         24    2    1    2    0    0 -0.22615030040E+03  0.73778848202E+02  0.18745281342E+03  0.31356141044E+03  0.81209137673E+02 0.  0.
        -13    1    4    4    0    0 -0.10463011763E+03  0.27589796410E+01  0.47050441547E+02  0.11475546842E+03  0.00000000000E+00 0.  1.
         14    1    4    4    0    0 -0.12152018278E+03  0.71019868561E+02  0.14040237187E+03  0.19880594201E+03  0.00000000000E+00 0. -1.
        -11    1    3    3    0    0  0.29469898258E+02  0.53795529299E+02  0.13566054002E+03  0.14888322939E+03  0.00000000000E+00 0. -1.
         11    1    3    3    0    0 -0.18237848357E+02  0.10092710913E+02 -0.77892982002E+01  0.22252080638E+02  0.00000000000E+00 0.  1.
         21    1    1    2  503  502  0.45542245301E+02 -0.20943330218E+02  0.18162761593E+03  0.18841791331E+03  0.00000000000E+00 0. -1.
          1    1    1    2  501    0  0.16937600520E+03 -0.11672375820E+03  0.21712251813E+03  0.29909004454E+03  0.00000000000E+00 0. -1.
<scales pt_clust_5="13000.00000" pt_clust_6="13000.00000" pt_clust_7="13000.00000" pt_clust_8="13000.00000" pt_clust_9="50.12703" pt_clust_10="219.95806"></scales>
<clustering>
<clus scale="   50.127">  1  9  2 -1</clus>
<clus scale="   81.209">  5  6 -1 -1</clus>
<clus scale="   93.426">  7  8 -1 -1</clus>
<clus scale="  112.652">  2  7  1 -1</clus>
<clus scale="  219.958">  1 10  2 -1</clus>
<clus scale="   50.127">  1  5  2 -1</clus>
</clustering>
</event>
<event>
10    4  0.3043429E-005  0.1924362E+03  0.7546771E-02  0.1176262E+00
          2   -1    0    0  503    0 -0.00000000000E+00  0.00000000000E+00  0.82547289101E+03  0.82547289101E+03  0.00000000000E+00 0. -1.
         21   -1    0    0  501  502  0.00000000000E+00 -0.00000000000E+00 -0.10436532871E+03  0.10436532871E+03  0.00000000000E+00 0. -1.
         24    2    1    2    0    0 -0.49803703822E+02 -0.72741457525E+02  0.13928522285E+03  0.18301168624E+03  0.79505820163E+02 0.  0.
         23    2    1    2    0    0 -0.33341879566E+02 -0.11070879741E+03  0.36783190139E+03  0.39643220110E+03  0.92141541310E+02 0.  0.
        -13    1    3    3    0    0 -0.39030699818E+02 -0.70533153058E+01  0.95305964252E+02  0.10322970312E+03  0.00000000000E+00 0.  1.
         14    1    3    3    0    0 -0.10773004004E+02 -0.65688142219E+02  0.43979258596E+02  0.79781983117E+02  0.00000000000E+00 0. -1.
        -11    1    4    4    0    0 -0.33775847631E+02 -0.41249932129E+02  0.57464137177E+02  0.78386809128E+02  0.00000000000E+00 0.  1.
         11    1    4    4    0    0  0.43396806468E+00 -0.69458865279E+02  0.31036776421E+03  0.31804539197E+03  0.00000000000E+00 0. -1.
         21    1    1    2  503  502 -0.60534099068E+02  0.31148752440E+02  0.51774219988E+02  0.85528894438E+02  0.00000000000E+00 0. -1.
          1    1    1    2  501    0  0.14367968246E+03  0.15230150249E+03  0.16221621808E+03  0.26486543795E+03  0.00000000000E+00 0. -1.
<scales pt_clust_5="13000.00000" pt_clust_6="13000.00000" pt_clust_7="13000.00000" pt_clust_8="13000.00000" pt_clust_9="68.07806" pt_clust_10="168.94263"></scales>
<clustering>
<clus scale="   68.078">  2  9  1 -1</clus>
<clus scale="   79.506">  5  6 -1 -1</clus>
<clus scale="   92.142">  7  8 -1 -1</clus>
<clus scale="  121.477">  1  5  2 -1</clus>
<clus scale="  168.943">  2 10  1 -1</clus>
<clus scale="   68.078">  2  5  1 -1</clus>
</clustering>
</event>
<event>
10    4  0.3043429E-005  0.9428144E+02  0.7546771E-02  0.1300162E+00
          2   -1    0    0  502    0 -0.00000000000E+00  0.00000000000E+00  0.40318911872E+03  0.40318911872E+03  0.00000000000E+00 0. -1.
         21   -1    0    0  503  502  0.00000000000E+00 -0.00000000000E+00 -0.16469517958E+03  0.16469517958E+03  0.00000000000E+00 0. -1.
         23    2    1    2    0    0  0.89273123575E+01  0.29865373210E+02  0.22840242245E+03  0.24815001909E+03  0.91864726477E+02 0.  0.
         24    2    1    2    0    0 -0.21399414955E+02  0.18502319518E+02  0.34234125703E+02  0.91042282139E+02  0.79476103242E+02 0.  0.
        -11    1    4    4    0    0  0.29056700340E+02  0.33241053287E+01  0.20882312541E+01  0.29320679062E+02  0.00000000000E+00 0.  1.
         12    1    4    4    0    0 -0.50456115294E+02  0.15178214190E+02  0.32145894449E+02  0.61721603078E+02  0.00000000000E+00 0. -1.
        -11    1    3    3    0    0  0.27721856871E+02 -0.15974860773E+02  0.30726382359E+02  0.44359983070E+02  0.00000000000E+00 0.  1.
         11    1    3    3    0    0 -0.18794544514E+02  0.45840233983E+02  0.19767604009E+03  0.20379003602E+03  0.00000000000E+00 0. -1.
         21    1    1    2  503  501  0.46621666634E+02 -0.26355442356E+01 -0.11346122963E+03  0.12269464749E+03  0.00000000000E+00 0. -1.
          1    1    1    2  501    0 -0.34149564037E+02 -0.45732148493E+02  0.89318620617E+02  0.10599734958E+03  0.00000000000E+00 0. -1.
<scales pt_clust_5="13000.00000" pt_clust_6="13000.00000" pt_clust_7="13000.00000" pt_clust_8="13000.00000" pt_clust_9="46.69610" pt_clust_10="52.92356"></scales>
<clustering>
<clus scale="   46.696">  2  9  1 -1</clus>
<clus scale="   52.924">  2 10  1 -1</clus>
<clus scale="   79.476">  5  6 -1 -1</clus>
<clus scale="   82.258">  2  5  1 -1</clus>
<clus scale="   91.865">  7  8 -1 -1</clus>
<clus scale="   46.696">  2  5  1 -1</clus>
</clustering>
</event>
<event>
10    4  0.3043429E-005  0.4784713E+03  0.7546771E-02  0.1047979E+00
         21   -1    0    0  501  502  0.00000000000E+00  0.00000000000E+00  0.29847912593E+03  0.29847912593E+03  0.00000000000E+00 0. -1.
          2   -1    0    0  503    0 -0.00000000000E+00 -0.00000000000E+00 -0.16349412502E+04  0.16349412502E+04  0.00000000000E+00 0. -1.
         23    2    1    2    0    0  0.16102140692E+03 -0.80628976609E+02 -0.38816621932E+03  0.43751790536E+03  0.91213915266E+02 0.  0.
         24    2    1    2    0    0  0.29164806316E+03  0.28753236407E+03 -0.74642534873E+03  0.85519715886E+03  0.80485564902E+02 0.  0.
        -13    1    4    4    0    0  0.57296305468E+02  0.18627870053E+02 -0.94537700531E+02  0.11210370638E+03  0.00000000000E+00 0.  1.
         14    1    4    4    0    0  0.23435175769E+03  0.26890449402E+03 -0.65188764820E+03  0.74309345248E+03  0.00000000000E+00 0. -1.
        -13    1    3    3    0    0  0.91620944657E+02 -0.58499506715E+02 -0.13096830741E+03  0.17020366427E+03  0.00000000000E+00 0.  1.
         13    1    3    3    0    0  0.69400462262E+02 -0.22129469894E+02 -0.25719791191E+03  0.26731424109E+03  0.00000000000E+00 0. -1.
         21    1    1    2  503  502  0.50698514854E+02 -0.35043711297E+02  0.19409279518E+02  0.64615178103E+02  0.00000000000E+00 0.  1.
          1    1    1    2  501    0 -0.50336798494E+03 -0.17185967617E+03 -0.22127983573E+03  0.57609013379E+03  0.00000000000E+00 0. -1.
<scales pt_clust_5="13000.00000" pt_clust_6="13000.00000" pt_clust_7="13000.00000" pt_clust_8="13000.00000" pt_clust_9="61.63117" pt_clust_10="471.65329"></scales>
<clustering>
<clus scale="   61.631">  1  9  2 -1</clus>
<clus scale="   80.486">  5  6 -1 -1</clus>
<clus scale="   91.214">  7  8 -1 -1</clus>
<clus scale="  207.120">  2  7  1 -1</clus>
<clus scale="  471.653">  1 10  2 -1</clus>
<clus scale="   61.631">  1  5  2 -1</clus>
</clustering>
</event>
<event>
10    4  0.3043429E-005  0.2703826E+03  0.7546771E-02  0.1134408E+00
          2   -1    0    0  502    0 -0.00000000000E+00  0.00000000000E+00  0.22442352279E+04  0.22442352279E+04  0.00000000000E+00 0. -1.
         21   -1    0    0  503  502  0.00000000000E+00 -0.00000000000E+00 -0.95855542289E+02  0.95855542289E+02  0.00000000000E+00 0.  1.
         23    2    1    2    0    0  0.30759093815E+02  0.66670558010E+02  0.16584965545E+03  0.20239684883E+03  0.89818099768E+02 0.  0.
         24    2    1    2    0    0 -0.29513032093E+03 -0.56439348336E+01  0.31533887753E+03  0.43926279562E+03  0.79871369093E+02 0.  0.
        -13    1    4    4    0    0 -0.26324036983E+03 -0.28769896454E+02  0.25812877114E+03  0.36980219272E+03  0.00000000000E+00 0.  1.
         14    1    4    4    0    0 -0.31889951101E+02  0.23125961620E+02  0.57210106392E+02  0.69460602901E+02  0.00000000000E+00 0. -1.
        -13    1    3    3    0    0 -0.27660291939E+02  0.64474346806E+00  0.44589639908E+02  0.52476122488E+02  0.00000000000E+00 0.  1.
         13    1    3    3    0    0  0.58419385753E+02  0.66025814542E+02  0.12126001554E+03  0.14992072634E+03  0.00000000000E+00 0. -1.
         21    1    1    2  503  501  0.42555129214E+02 -0.14394526731E+02  0.58041548436E+02  0.73395931544E+02  0.00000000000E+00 0.  1.
          1    1    1    2  501    0  0.22181609790E+03 -0.46632096445E+02  0.16091496042E+04  0.16250351942E+04  0.00000000000E+00 0. -1.
<scales pt_clust_5="13000.00000" pt_clust_6="13000.00000" pt_clust_7="13000.00000" pt_clust_8="13000.00000" pt_clust_9="44.92373" pt_clust_10="258.31644"></scales>
<clustering>
<clus scale="   44.924">  2  9  1 -1</clus>
<clus scale="   79.871">  5  6 -1 -1</clus>
<clus scale="   89.818">  7  8 -1 -1</clus>
<clus scale="  117.004">  1  7  2 -1</clus>
<clus scale="  258.316">  2 10  1 -1</clus>
<clus scale="   44.924">  2  5  1 -1</clus>
</clustering>
</event>
<event>
10    4  0.3043429E-005  0.9294455E+02  0.7546771E-02  0.1299142E+00
          4   -1    0    0  502    0 -0.00000000000E+00  0.00000000000E+00  0.22433502119E+03  0.22433502119E+03  0.00000000000E+00 0. -1.
         21   -1    0    0  503  502  0.00000000000E+00 -0.00000000000E+00 -0.14813534304E+03  0.14813534304E+03  0.00000000000E+00 0. -1.
         24    2    1    2    0    0 -0.12243378863E+02  0.48697225126E+02  0.15373100794E+03  0.18042256853E+03  0.79986001103E+02 0.  0.
         23    2    1    2    0    0 -0.18265346490E+01  0.13226676680E+02 -0.11148546577E+01  0.86957360892E+02  0.85918906578E+02 0.  0.
        -11    1    3    3    0    0 -0.20223523998E+02 -0.17330518443E+02  0.58375682365E+02  0.64164305373E+02  0.00000000000E+00 0.  1.
         12    1    3    3    0    0  0.79801451348E+01  0.66027743569E+02  0.95355325572E+02  0.11625826316E+03  0.00000000000E+00 0. -1.
        -13    1    4    4    0    0 -0.16041002444E+02 -0.34016929815E+02 -0.95137959406E+00  0.37621408753E+02  0.00000000000E+00 0.  1.
         13    1    4    4    0    0  0.14214467795E+02  0.47243606495E+02 -0.16347506363E+00  0.49335952139E+02  0.00000000000E+00 0. -1.
         21    1    1    2  503  501 -0.67451854939E+01 -0.40338990167E+02 -0.34233267123E+02  0.53335243817E+02  0.00000000000E+00 0. -1.
          3    1    1    2  501    0  0.20815099006E+02 -0.21584911639E+02 -0.42183208007E+02  0.51755190994E+02  0.00000000000E+00 0. -1.
<scales pt_clust_5="13000.00000" pt_clust_6="13000.00000" pt_clust_7="13000.00000" pt_clust_8="13000.00000" pt_clust_9="29.31343" pt_clust_10="72.14237"></scales>
<clustering>
<clus scale="   29.313">  9 10 -1 -1</clus>
<clus scale="   72.142">  2  9  1 -1</clus>
<clus scale="   79.986">  5  6 -1 -1</clus>
<clus scale="   85.919">  7  8 -1 -1</clus>
<clus scale="   87.489">  1  5  2 -1</clus>
<clus scale="   72.142">  2  5  1 -1</clus>
</clustering>
</event>
<event>
10    4  0.3043429E-005  0.1247526E+03  0.7546771E-02  0.1249287E+00
         -1   -1    0    0    0  501 -0.00000000000E+00  0.00000000000E+00  0.87662593083E+03  0.87662593083E+03  0.00000000000E+00 0.  1.
         21   -1    0    0  503  502  0.00000000000E+00 -0.00000000000E+00 -0.93881035152E+02  0.93881035152E+02  0.00000000000E+00 0.  1.
         24    2    1    2    0    0 -0.35024072041E+02 -0.12956112977E+02  0.14949594642E+02  0.91638542525E+02  0.82338239053E+02 0.  0.
         23    2    1    2    0    0 -0.56017347312E+02 -0.41860872473E+02  0.43192954653E+03  0.44592177806E+03  0.85981527888E+02 0.  0.
        -11    1    3    3    0    0 -0.98849710324E+00 -0.37264502979E+02 -0.15014688603E+02  0.40187823811E+02  0.00000000000E+00 0.  1.
         12    1    3    3    0    0 -0.34035574938E+02  0.24308390002E+02  0.29964283245E+02  0.51450718714E+02  0.00000000000E+00 0. -1.
        -13    1    4    4    0    0 -0.78713920561E+02 -0.39226432377E+02  0.34722330190E+03  0.35818796137E+03  0.00000000000E+00 0.  1.
         13    1    4    4    0    0  0.22696573248E+02 -0.26344400955E+01  0.84706244628E+02  0.87733816689E+02  0.00000000000E+00 0. -1.
         21    1    1    2  503  501 -0.14966982295E+02  0.23990096941E+02 -0.35576733210E+02  0.45444903522E+02  0.00000000000E+00 0.  1.
         -2    1    1    2    0  502  0.10600840165E+03  0.30826888509E+02  0.37144248771E+03  0.38750174187E+03  0.00000000000E+00 0.  1.
<scales pt_clust_5="13000.00000" pt_clust_6="13000.00000" pt_clust_7="13000.00000" pt_clust_8="13000.00000" pt_clust_9="28.27606" pt_clust_10="90.39030"></scales>
<clustering>
<clus scale="   28.276">  2  9  1 -1</clus>
<clus scale="   82.338">  5  6 -1 -1</clus>
<clus scale="   85.982">  7  8 -1 -1</clus>
<clus scale="   94.305">  1  5  2 -1</clus>
<clus scale="   90.390">  2 10  1 -1</clus>
<clus scale="   28.276">  2  5  1 -1</clus>
</clustering>
</event>
<event>
10    4  0.3043429E-005  0.1024962E+03  0.7546771E-02  0.1279311E+00
         21   -1    0    0  503  502  0.00000000000E+00  0.00000000000E+00  0.73149334285E+02  0.73149334285E+02  0.00000000000E+00 0. -1.
          2   -1    0    0  502    0 -0.00000000000E+00 -0.00000000000E+00 -0.55646197351E+03  0.55646197351E+03  0.00000000000E+00 0. -1.
         23    2    1    2    0    0  0.41209282073E+00  0.36992526407E+02 -0.10919005361E+03  0.14699512447E+03  0.91194747548E+02 0.  0.
         24    2    1    2    0    0 -0.33329184938E+02 -0.50235374934E+02 -0.11925199791E+03  0.15691087028E+03  0.82252992311E+02 0.  0.
        -11    1    4    4    0    0  0.26156700690E+02 -0.24876399684E+02 -0.31519349356E+02  0.47921577979E+02  0.00000000000E+00 0.  1.
         12    1    4    4    0    0 -0.59485885628E+02 -0.25358975250E+02 -0.87732648552E+02  0.10898929230E+03  0.00000000000E+00 0. -1.
        -13    1    3    3    0    0  0.11378405590E+02  0.60091679419E+02 -0.10437791018E+03  0.12097613890E+03  0.00000000000E+00 0. -1.
         13    1    3    3    0    0 -0.10966312769E+02 -0.23099153012E+02 -0.48121434229E+01  0.26018985567E+02  0.00000000000E+00 0.  1.
         21    1    1    2  503  501 -0.57064114322E+02  0.73759164495E+02 -0.10106734387E+03  0.13751849144E+03  0.00000000000E+00 0. -1.
          1    1    1    2  501    0  0.89981206439E+02 -0.60516315968E+02 -0.15380324384E+03  0.18818682161E+03  0.00000000000E+00 0. -1.
<scales pt_clust_5="13000.00000" pt_clust_6="13000.00000" pt_clust_7="13000.00000" pt_clust_8="13000.00000" pt_clust_9="93.25625" pt_clust_10="81.25351"></scales>
<clustering>
<clus scale="   82.253">  5  6 -1 -1</clus>
<clus scale="   91.195">  7  8 -1 -1</clus>
<clus scale="   93.256">  1  9  2 -1</clus>
<clus scale="   81.254">  1 10  2 -1</clus>
<clus scale="   94.628">  1  5  2 -1</clus>
<clus scale="   93.256">  1  5  2 -1</clus>
</clustering>
</event>
<event>
10    4  0.3043429E-005  0.4102778E+03  0.7546771E-02  0.1040461E+00
         21   -1    0    0  501  502  0.00000000000E+00  0.00000000000E+00  0.24755804003E+03  0.24755804003E+03  0.00000000000E+00 0. -1.
          2   -1    0    0  503    0 -0.00000000000E+00 -0.00000000000E+00 -0.10586939640E+04  0.10586939640E+04  0.00000000000E+00 0. -1.
         24    2    1    2    0    0  0.62975497092E+02  0.38953854944E+03 -0.66836725982E+03  0.78034045634E+03  0.80686052494E+02 0.  0.
         23    2    1    2    0    0 -0.69211092071E+02 -0.40805712130E+03 -0.17342983723E+03  0.45790079862E+03  0.91073835002E+02 0.  0.
        -13    1    3    3    0    0 -0.51395619200E+01  0.93177740169E+02 -0.21565794426E+03  0.23498267017E+03  0.00000000000E+00 0.  1.
         14    1    3    3    0    0  0.68115059012E+02  0.29636080927E+03 -0.45270931556E+03  0.54535778616E+03  0.00000000000E+00 0. -1.
        -11    1    4    4    0    0  0.91410688109E+01 -0.32789878698E+02 -0.38735145644E+02  0.51566915674E+02  0.00000000000E+00 0.  1.
         11    1    4    4    0    0 -0.78352160882E+02 -0.37526724261E+03 -0.13469469158E+03  0.40633388294E+03  0.00000000000E+00 0. -1.
         21    1    1    2  503  502 -0.18458267844E+02 -0.11344824335E+02  0.78478953541E+01  0.23043483948E+02  0.00000000000E+00 0. -1.
          1    1    1    2  501    0  0.24693862823E+02  0.29863396195E+02  0.22813277709E+02  0.44967265130E+02  0.00000000000E+00 0. -1.
<scales pt_clust_5="13000.00000" pt_clust_6="13000.00000" pt_clust_7="13000.00000" pt_clust_8="13000.00000" pt_clust_9="21.66593" pt_clust_10="35.77122"></scales>
<clustering>
<clus scale="   21.666">  1  9  2 -1</clus>
<clus scale="   35.771">  1 10  2 -1</clus>
<clus scale="   80.686">  5  6 -1 -1</clus>
<clus scale="   91.074">  7  8 -1 -1</clus>
<clus scale="  408.098">  2  5  1 -1</clus>
<clus scale="   21.666">  1  5  2 -1</clus>
</clustering>
</event>
<event>
10    4  0.3043429E-005  0.9461956E+02  0.7546771E-02  0.1296754E+00
         -1   -1    0    0    0  501 -0.00000000000E+00  0.00000000000E+00  0.46694551566E+02  0.46694551566E+02  0.00000000000E+00 0.  1.
         21   -1    0    0  503  502  0.00000000000E+00 -0.00000000000E+00 -0.46448157739E+03  0.46448157739E+03  0.00000000000E+00 0.  1.
         24    2    1    2    0    0 -0.14805120660E+02  0.39352203062E+02 -0.64052585948E+02  0.11156504645E+03  0.81094009266E+02 0.  0.
         23    2    1    2    0    0  0.39439627505E+02  0.20188019802E+02 -0.17914938793E+03  0.20512237891E+03  0.89541313228E+02 0.  0.
        -13    1    3    3    0    0 -0.36608671148E+02 -0.89538235179E+01 -0.33291522299E+02  0.50286093662E+02  0.00000000000E+00 0.  1.
         14    1    3    3    0    0  0.21803550488E+02  0.48306026580E+02 -0.30761063648E+02  0.61278952786E+02  0.00000000000E+00 0. -1.
        -13    1    4    4    0    0  0.17410334987E+02 -0.28523862137E+02 -0.24340783571E+02  0.41342523150E+02  0.00000000000E+00 0. -1.
         13    1    4    4    0    0  0.22029292518E+02  0.48711881938E+02 -0.15480860436E+03  0.16377985576E+03  0.00000000000E+00 0.  1.
         21    1    1    2  503  501  0.16910440247E+02 -0.15713787949E+02 -0.70156743855E+02  0.73856989036E+02  0.00000000000E+00 0.  1.
         -2    1    1    2    0  502 -0.41544947092E+02 -0.43826434914E+02 -0.10442830810E+03  0.12063171456E+03  0.00000000000E+00 0.  1.
<scales pt_clust_5="13000.00000" pt_clust_6="13000.00000" pt_clust_7="13000.00000" pt_clust_8="13000.00000" pt_clust_9="23.08433" pt_clust_10="60.68440"></scales>
<clustering>
<clus scale="   23.084">  2  9  1 -1</clus>
<clus scale="   60.684">  2 10  1 -1</clus>
<clus scale="   81.094">  5  6 -1 -1</clus>
<clus scale="   86.669">  1  5  2 -1</clus>
<clus scale="   89.541">  7  8 -1 -1</clus>
<clus scale="   23.084">  2  5  1 -1</clus>
</clustering>
</event>
<event>
10    4  0.3043429E-005  0.1260267E+03  0.7546771E-02  0.1233800E+00
          2   -1    0    0  503    0 -0.00000000000E+00  0.00000000000E+00  0.22922045336E+03  0.22922045336E+03  0.00000000000E+00 0. -1.
         21   -1    0    0  501  502  0.00000000000E+00 -0.00000000000E+00 -0.18306789683E+03  0.18306789683E+03  0.00000000000E+00 0. -1.
         23    2    1    2    0    0 -0.81766620656E+02  0.42816177980E+02  0.67445081096E+02  0.13937347794E+03  0.79731562371E+02 0.  0.
         24    2    1    2    0    0  0.10751317197E+03 -0.15229071649E+02 -0.35766677755E+01  0.13554437565E+03  0.81046150108E+02 0.  0.
        -13    1    4    4    0    0  0.33221981654E+02 -0.30274861142E+02  0.28517086566E+02  0.53230550518E+02  0.00000000000E+00 0.  1.
         14    1    4    4    0    0  0.74291190316E+02  0.15045789493E+02 -0.32093754341E+02  0.82313825131E+02  0.00000000000E+00 0. -1.
        -13    1    3    3    0    0 -0.19824067553E+02 -0.10814546467E+02 -0.11720331864E+02  0.25442371129E+02  0.00000000000E+00 0.  1.
         13    1    3    3    0    0 -0.61942553103E+02  0.53630724448E+02  0.79165412960E+02  0.11393110681E+03  0.00000000000E+00 0. -1.
         21    1    1    2  503  502 -0.42434508106E+02  0.72060544848E+01 -0.63989474175E+02  0.77118528932E+02  0.00000000000E+00 0. -1.
          1    1    1    2  501    0  0.16687956792E+02 -0.34793160816E+02  0.46273617388E+02  0.60251967666E+02  0.00000000000E+00 0. -1.
<scales pt_clust_5="13000.00000" pt_clust_6="13000.00000" pt_clust_7="13000.00000" pt_clust_8="13000.00000" pt_clust_9="36.37671" pt_clust_10="38.58826"></scales>
<clustering>
<clus scale="   38.588">  2 10  1 -1</clus>
<clus scale="   36.377">  2  9  1 -1</clus>
<clus scale="   79.732">  7  8 -1 -1</clus>
<clus scale="   81.046">  5  6 -1 -1</clus>
<clus scale="  125.185">  1  7  2 -1</clus>
<clus scale="   38.588">  2  5  1 -1</clus>
</clustering>
</event>
<event>
10    4  0.3043429E-005  0.9564446E+02  0.7546771E-02  0.1296428E+00
         21   -1    0    0  503  502  0.00000000000E+00  0.00000000000E+00  0.69038747965E+02  0.69038747965E+02  0.00000000000E+00 0. -1.
         -1   -1    0    0    0  501 -0.00000000000E+00 -0.00000000000E+00 -0.47303465465E+03  0.47303465465E+03  0.00000000000E+00 0.  1.
         24    2    1    2    0    0 -0.13112742551E+02  0.31677227261E+01 -0.20317649378E+03  0.22011273197E+03  0.83587969628E+02 0.  0.
         23    2    1    2    0    0 -0.11426275241E+02 -0.28024493689E+02 -0.86769353661E+02  0.13210864129E+03  0.94909643122E+02 0.  0.
        -13    1    3    3    0    0 -0.58675423305E+01 -0.40006023103E+02 -0.10902179998E+03  0.11627838496E+03  0.00000000000E+00 0.  1.
         14    1    3    3    0    0 -0.72452002201E+01  0.43173745829E+02 -0.94154693798E+02  0.10383434701E+03  0.00000000000E+00 0. -1.
        -11    1    4    4    0    0  0.34487158762E+02 -0.28527387656E+02 -0.15570212952E+02  0.47387841240E+02  0.00000000000E+00 0. -1.
         11    1    4    4    0    0 -0.45913434004E+02  0.50289396677E+00 -0.71199140708E+02  0.84720800055E+02  0.00000000000E+00 0.  1.
         21    1    1    2  503  501  0.33330025985E+02  0.34791454240E+01  0.29382920117E+02  0.44568498737E+02  0.00000000000E+00 0. -1.
         -2    1    1    2    0  502 -0.87910081932E+01  0.21377625539E+02 -0.14343297937E+03  0.14528353062E+03  0.00000000000E+00 0.  1.
<scales pt_clust_5="13000.00000" pt_clust_6="13000.00000" pt_clust_7="13000.00000" pt_clust_8="13000.00000" pt_clust_9="32.29670" pt_clust_10="23.11461"></scales>
<clustering>
<clus scale="   23.115">  1 10  2 -1</clus>
<clus scale="   32.297">  1  9  2 -1</clus>
<clus scale="   83.588">  5  6 -1 -1</clus>
<clus scale="   84.421">  2  5  1 -1</clus>
<clus scale="   94.910">  7  8 -1 -1</clus>
<clus scale="   23.115">  1  5  2 -1</clus>
</clustering>
</event>
<event>
10    4  0.3043429E-005  0.1357792E+03  0.7546771E-02  0.1221445E+00
         -1   -1    0    0    0  501 -0.00000000000E+00  0.00000000000E+00  0.17151110960E+03  0.17151110960E+03  0.00000000000E+00 0.  1.
         21   -1    0    0  503  502  0.00000000000E+00 -0.00000000000E+00 -0.21265017903E+03  0.21265017903E+03  0.00000000000E+00 0. -1.
         24    2    1    2    0    0  0.64860866697E+02 -0.66464448534E+02 -0.14467809517E+02  0.12316445327E+03  0.79597173884E+02 0.  0.
         23    2    1    2    0    0 -0.58338556149E+02  0.10114373075E+03 -0.42737766687E+02  0.15332082346E+03  0.89706838101E+02 0.  0.
        -13    1    3    3    0    0  0.65082312310E+02 -0.10082918914E+02 -0.98865771008E+01  0.66596674363E+02  0.00000000000E+00 0.  1.
         14    1    3    3    0    0 -0.22144561247E+00 -0.56381529620E+02 -0.45812324166E+01  0.56567778911E+02  0.00000000000E+00 0. -1.
        -11    1    4    4    0    0 -0.40670253554E+02  0.12324967535E+02  0.15968472893E+02  0.45397868622E+02  0.00000000000E+00 0.  1.
         11    1    4    4    0    0 -0.17668302595E+02  0.88818763214E+02 -0.58706239581E+02  0.10792295484E+03  0.00000000000E+00 0. -1.
         21    1    1    2  503  501  0.17186160119E+02 -0.23390493476E+02 -0.37854140511E+02  0.47701312755E+02  0.00000000000E+00 0.  1.
         -2    1    1    2    0  502 -0.23708470667E+02 -0.11288788739E+02  0.53920647286E+02  0.59974699134E+02  0.00000000000E+00 0.  1.
<scales pt_clust_5="13000.00000" pt_clust_6="13000.00000" pt_clust_7="13000.00000" pt_clust_8="13000.00000" pt_clust_9="28.50727" pt_clust_10="26.25888"></scales>
<clustering>
<clus scale="   26.259">  2 10  1 -1</clus>
<clus scale="   28.507">  2  9  1 -1</clus>
<clus scale="   79.597">  5  6 -1 -1</clus>
<clus scale="   89.707">  7  8 -1 -1</clus>
<clus scale="  129.323">  1  5  2 -1</clus>
<clus scale="   26.259">  2  5  1 -1</clus>
</clustering>
</event>
<event>
10    4  0.3043429E-005  0.1019710E+03  0.7546771E-02  0.1283254E+00
         21   -1    0    0  501  502  0.00000000000E+00  0.00000000000E+00  0.19439812099E+03  0.19439812099E+03  0.00000000000E+00 0. -1.
          4   -1    0    0  503    0 -0.00000000000E+00 -0.00000000000E+00 -0.25092489887E+03  0.25092489887E+03  0.00000000000E+00 0. -1.
         24    2    1    2    0    0 -0.31299891209E+02 -0.85336905405E+01 -0.51701923991E+02  0.99775143159E+02  0.78927075102E+02 0.  0.
         23    2    1    2    0    0 -0.15865492520E+02  0.88978400018E+02 -0.69751272006E+02  0.14734793915E+03  0.93152056884E+02 0.  0.
        -13    1    3    3    0    0  0.15521405530E+02  0.17003228036E+02 -0.38458615762E+02  0.44822861573E+02  0.00000000000E+00 0.  1.
         14    1    3    3    0    0 -0.46821296739E+02 -0.25536918576E+02 -0.13243308229E+02  0.54952281586E+02  0.00000000000E+00 0. -1.
        -11    1    4    4    0    0 -0.45001082972E+02  0.42090168774E+02 -0.68493356372E+02  0.92130449056E+02  0.00000000000E+00 0. -1.
         11    1    4    4    0    0  0.29135590453E+02  0.46888231244E+02 -0.12579156336E+01  0.55217490091E+02  0.00000000000E+00 0.  1.
         21    1    1    2  503  502  0.67655650410E+02 -0.35708635966E+02  0.10830849465E+03  0.13260137152E+03  0.00000000000E+00 0. -1.
          3    1    1    2  501    0 -0.20490266682E+02 -0.44736073511E+02 -0.43382076532E+02  0.65598566037E+02  0.00000000000E+00 0. -1.
<scales pt_clust_5="13000.00000" pt_clust_6="13000.00000" pt_clust_7="13000.00000" pt_clust_8="13000.00000" pt_clust_9="84.70915" pt_clust_10="49.20538"></scales>
<clustering>
<clus scale="   49.205">  1 10  2 -1</clus>
<clus scale="   78.927">  5  6 -1 -1</clus>
<clus scale="   84.709">  1  9  2 -1</clus>
<clus scale="   89.164">  2  5  1 -1</clus>
<clus scale="   93.152">  7  8 -1 -1</clus>
<clus scale="   49.205">  1  5  2 -1</clus>
</clustering>
</event>
<event>
10    4  0.3043429E-005  0.1178731E+03  0.7546771E-02  0.1250079E+00
          2   -1    0    0  503    0 -0.00000000000E+00  0.00000000000E+00  0.38662684736E+03  0.38662684736E+03  0.00000000000E+00 0. -1.
         21   -1    0    0  501  502  0.00000000000E+00 -0.00000000000E+00 -0.26504012788E+03  0.26504012788E+03  0.00000000000E+00 0.  1.
         23    2    1    2    0    0 -0.31344011600E+02 -0.50463915838E+02  0.11513710619E+03  0.15798238164E+03  0.90403682574E+02 0.  0.
         24    2    1    2    0    0  0.25111470318E+02  0.12731579750E+03  0.24421523463E+02  0.15435186918E+03  0.79926156404E+02 0.  0.
        -11    1    4    4    0    0 -0.41316380607E+01  0.11087393343E+03 -0.30470315478E+01  0.11099272025E+03  0.00000000000E+00 0.  1.
         12    1    4    4    0    0  0.29243108379E+02  0.16441864068E+02  0.27468555011E+02  0.43359148932E+02  0.00000000000E+00 0. -1.
        -11    1    3    3    0    0  0.31731124234E+02 -0.23944988230E+02  0.42264199527E+02  0.58021455240E+02  0.00000000000E+00 0.  1.
         11    1    3    3    0    0 -0.63075135833E+02 -0.26518927608E+02  0.72872906666E+02  0.99960926405E+02  0.00000000000E+00 0. -1.
         21    1    1    2  503  502 -0.78310541505E+02 -0.97181042356E+01 -0.14957578877E+03  0.16911504678E+03  0.00000000000E+00 0.  1.
          1    1    1    2  501    0  0.84543082787E+02 -0.67133777422E+02  0.13160387859E+03  0.17021767763E+03  0.00000000000E+00 0. -1.
<scales pt_clust_5="13000.00000" pt_clust_6="13000.00000" pt_clust_7="13000.00000" pt_clust_8="13000.00000" pt_clust_9="78.91123" pt_clust_10="98.39655"></scales>
<clustering>
<clus scale="   78.911">  2  9  1 -1</clus>
<clus scale="   79.926">  5  6 -1 -1</clus>
<clus scale="   90.404">  7  8 -1 -1</clus>
<clus scale="   98.397">  2 10  1 -1</clus>
<clus scale="  110.043">  2  5  1 -1</clus>
<clus scale="   78.911">  2  5  1 -1</clus>
</clustering>
</event>
<event>
10    4  0.3043429E-005  0.1447887E+03  0.7546771E-02  0.1229586E+00
         21   -1    0    0  503  502  0.00000000000E+00  0.00000000000E+00  0.27329897934E+02  0.27329897934E+02  0.00000000000E+00 0. -1.
          2   -1    0    0  502    0 -0.00000000000E+00 -0.00000000000E+00 -0.16875705316E+04  0.16875705316E+04  0.00000000000E+00 0. -1.
         24    2    1    2    0    0 -0.40707949558E+02  0.82021347127E-01 -0.63400030694E+03  0.64053709425E+03  0.81695997595E+02 0.  0.
         23    2    1    2    0    0  0.10241054357E+03 -0.60262853374E+02 -0.28719060339E+03  0.32384961078E+03  0.90997784584E+02 0.  0.
        -11    1    3    3    0    0 -0.58297321677E+02  0.19217064747E+02 -0.34926379586E+03  0.35461679655E+03  0.00000000000E+00 0.  1.
         12    1    3    3    0    0  0.17589372120E+02 -0.19135043400E+02 -0.28473651108E+03  0.28592029770E+03  0.00000000000E+00 0. -1.
        -13    1    4    4    0    0  0.78015829913E+02 -0.33752546259E+02 -0.27160552850E+03  0.28459667462E+03  0.00000000000E+00 0.  1.
         13    1    4    4    0    0  0.24394713656E+02 -0.26510307115E+02 -0.15585074886E+02  0.39252936157E+02  0.00000000000E+00 0. -1.
         21    1    1    2  503  501  0.22811216909E+02  0.22905392040E+02 -0.10782894991E+03  0.11257038261E+03  0.00000000000E+00 0.  1.
          1    1    1    2  501    0 -0.84513810921E+02  0.37275439987E+02 -0.63122077338E+03  0.63794334185E+03  0.00000000000E+00 0. -1.
<scales pt_clust_5="13000.00000" pt_clust_6="13000.00000" pt_clust_7="13000.00000" pt_clust_8="13000.00000" pt_clust_9="32.32659" pt_clust_10="112.61958"></scales>
<clustering>
<clus scale="   32.327">  1  9  2 -1</clus>
<clus scale="   81.696">  5  6 -1 -1</clus>
<clus scale="   90.037">  2  5  1 -1</clus>
<clus scale="   90.998">  7  8 -1 -1</clus>
<clus scale="  112.620">  1 10  2 -1</clus>
<clus scale="   32.327">  1  5  2 -1</clus>
</clustering>
</event>
<event>
10    4  0.3043429E-005  0.1637743E+03  0.7546771E-02  0.1189213E+00
          2   -1    0    0  502    0 -0.00000000000E+00  0.00000000000E+00  0.14515307881E+04  0.14515307881E+04  0.00000000000E+00 0. -1.
         21   -1    0    0  503  502  0.00000000000E+00 -0.00000000000E+00 -0.81414853850E+02  0.81414853850E+02  0.00000000000E+00 0.  1.
         24    2    1    2    0    0  0.66864706842E+02  0.12227841795E+03  0.15993293981E+03  0.22598973530E+03  0.77909657333E+02 0.  0.
         23    2    1    2    0    0 -0.91399708840E+02  0.74626916984E+02  0.21745226174E+03  0.26388253996E+03  0.91790115178E+02 0.  0.
        -13    1    3    3    0    0  0.41731330963E+02  0.12691936630E+03  0.12731515838E+03  0.18455129119E+03  0.00000000000E+00 0.  1.
         14    1    3    3    0    0  0.25133375879E+02 -0.46409483500E+01  0.32617781431E+02  0.41438444108E+02  0.00000000000E+00 0. -1.
        -11    1    4    4    0    0  0.55011352724E+01  0.22786718296E+02  0.10131639087E+03  0.10399282705E+03  0.00000000000E+00 0. -1.
         11    1    4    4    0    0 -0.96900844112E+02  0.51840198687E+02  0.11613587087E+03  0.15988971290E+03  0.00000000000E+00 0.  1.
         21    1    1    2  503  501 -0.41187377011E+02 -0.11778798993E+02  0.14369057550E+02  0.45184178045E+02  0.00000000000E+00 0. -1.
          1    1    1    2  501    0  0.65722379009E+02 -0.18512653595E+03  0.97836167511E+03  0.99788918861E+03  0.00000000000E+00 0. -1.
<scales pt_clust_5="13000.00000" pt_clust_6="13000.00000" pt_clust_7="13000.00000" pt_clust_8="13000.00000" pt_clust_9="42.83854" pt_clust_10="135.63408"></scales>
<clustering>
<clus scale="   42.839">  2  9  1 -1</clus>
<clus scale="   77.910">  5  6 -1 -1</clus>
<clus scale="   91.790">  7  8 -1 -1</clus>
<clus scale="  147.495">  1  5  2 -1</clus>
<clus scale="  135.634">  2 10  1 -1</clus>
<clus scale="   42.839">  2  5  1 -1</clus>
</clustering>
</event>
<event>
10    4  0.3043429E-005  0.2093853E+03  0.7546771E-02  0.1162053E+00
         21   -1    0    0  501  502  0.00000000000E+00  0.00000000000E+00  0.39731452286E+03  0.39731452286E+03  0.00000000000E+00 0. -1.
          2   -1    0    0  503    0 -0.00000000000E+00 -0.00000000000E+00 -0.93270309903E+03  0.93270309903E+03  0.00000000000E+00 0. -1.
         23    2    1    2    0    0 -0.80577480261E+02  0.54034596066E+02  0.36075245565E+02  0.13892594017E+03  0.92663507442E+02 0.  0.
         24    2    1    2    0    0  0.21048371165E+03  0.94106262941E+02 -0.81770256863E+03  0.85340304516E+03  0.80621865216E+02 0.  0.
        -11    1    4    4    0    0  0.23298780247E+02 -0.14838152352E+02 -0.98064507214E+02  0.10188057470E+03  0.00000000000E+00 0.  1.
         12    1    4    4    0    0  0.18718493140E+03  0.10894441529E+03 -0.71963806142E+03  0.75152247046E+03  0.00000000000E+00 0. -1.
        -13    1    3    3    0    0 -0.71489750972E+02  0.18661601411E+02 -0.15730048903E+02  0.75541209281E+02  0.00000000000E+00 0.  1.
         13    1    3    3    0    0 -0.90877292893E+01  0.35372994655E+02  0.51805294468E+02  0.63384730885E+02  0.00000000000E+00 0. -1.
         21    1    1    2  503  502  0.51438653017E+01 -0.23573723488E+02  0.99991780224E+02  0.10286173196E+03  0.00000000000E+00 0. -1.
          1    1    1    2  501    0 -0.13505009669E+03 -0.12456713552E+03  0.14624696666E+03  0.23482690460E+03  0.00000000000E+00 0. -1.
<scales pt_clust_5="13000.00000" pt_clust_6="13000.00000" pt_clust_7="13000.00000" pt_clust_8="13000.00000" pt_clust_9="24.12840" pt_clust_10="193.24156"></scales>
<clustering>
<clus scale="   24.128">  1  9  2 -1</clus>
<clus scale="   80.622">  5  6 -1 -1</clus>
<clus scale="   92.664">  7  8 -1 -1</clus>
<clus scale="  130.581">  2  7  1 -1</clus>
<clus scale="  193.242">  1 10  2 -1</clus>
<clus scale="   24.128">  1  5  2 -1</clus>
</clustering>
</event>
<event>
10    4  0.3043429E-005  0.1036623E+03  0.7546771E-02  0.1281573E+00
         -1   -1    0    0    0  501 -0.00000000000E+00  0.00000000000E+00  0.39678778864E+03  0.39678778864E+03  0.00000000000E+00 0.  1.
         21   -1    0    0  503  502  0.00000000000E+00 -0.00000000000E+00 -0.21560462649E+03  0.21560462649E+03  0.00000000000E+00 0. -1.
         24    2    1    2    0    0 -0.13862066244E+02 -0.34157791338E+02  0.28736372001E+03  0.30049795081E+03  0.79763395564E+02 0.  0.
         23    2    1    2    0    0 -0.15611561377E+02  0.39975389056E+02  0.47821855241E+02  0.11644642502E+03  0.97113786266E+02 0.  0.
        -11    1    3    3    0    0  0.30710410049E+02 -0.40159559906E+01  0.14579607856E+03  0.14904950088E+03  0.00000000000E+00 0.  1.
         12    1    3    3    0    0 -0.44572476293E+02 -0.30141835347E+02  0.14156764145E+03  0.15144844993E+03  0.00000000000E+00 0. -1.
        -13    1    4    4    0    0 -0.27062262129E+02 -0.16624220495E+02  0.49341937115E+02  0.58680128638E+02  0.00000000000E+00 0.  1.
         13    1    4    4    0    0  0.11450700752E+02  0.56599609552E+02 -0.15200818743E+01  0.57766296385E+02  0.00000000000E+00 0. -1.
         21    1    1    2  503  501  0.50503724879E+02  0.64876456104E+01 -0.16199184130E+03  0.16980598465E+03  0.00000000000E+00 0. -1.
         -2    1    1    2    0  502 -0.21030097259E+02 -0.12305243329E+02  0.79894281953E+01  0.25642054656E+02  0.00000000000E+00 0.  1.
<scales pt_clust_5="13000.00000" pt_clust_6="13000.00000" pt_clust_7="13000.00000" pt_clust_8="13000.00000" pt_clust_9="33.80112" pt_clust_10="24.36564"></scales>
<clustering>
<clus scale="   24.366">  2 10  1 -1</clus>
<clus scale="   33.801">  2  9  1 -1</clus>
<clus scale="   79.763">  5  6 -1 -1</clus>
<clus scale="   87.618">  1  5  2 -1</clus>
<clus scale="   97.114">  7  8 -1 -1</clus>
<clus scale="   24.366">  2  5  1 -1</clus>
</clustering>
</event>
<event>
10    4  0.3043429E-005  0.9437774E+02  0.7546771E-02  0.1301040E+00
          2   -1    0    0  503    0 -0.00000000000E+00  0.00000000000E+00  0.17499958288E+03  0.17499958288E+03  0.00000000000E+00 0. -1.
         21   -1    0    0  501  502  0.00000000000E+00 -0.00000000000E+00 -0.21789851571E+03  0.21789851571E+03  0.00000000000E+00 0. -1.
         23    2    1    2    0    0  0.99163104580E+01 -0.22291708285E+02  0.11412538383E+03  0.14813443184E+03  0.91235701296E+02 0.  0.
         24    2    1    2    0    0 -0.22327029221E+02  0.14442815129E+02 -0.46319020098E+02  0.93702996332E+02  0.76991614842E+02 0.  0.
        -13    1    4    4    0    0  0.26816793715E+02 -0.19562838585E+01 -0.27823914431E+02  0.38692863501E+02  0.00000000000E+00 0.  1.
         14    1    4    4    0    0 -0.49143822936E+02  0.16399098987E+02 -0.18495105668E+02  0.55010132831E+02  0.00000000000E+00 0. -1.
        -13    1    3    3    0    0 -0.61560621515E+01 -0.51927494318E+02  0.97287356995E+02  0.11044995065E+03  0.00000000000E+00 0. -1.
         13    1    3    3    0    0  0.16072372609E+02  0.29635786032E+02  0.16838026839E+02  0.37684481194E+02  0.00000000000E+00 0.  1.
         21    1    1    2  503  502 -0.43572093693E+02 -0.72726613428E+01 -0.56137596804E+02  0.71434226578E+02  0.00000000000E+00 0. -1.
          1    1    1    2  501    0  0.55982812457E+02  0.15121554500E+02 -0.54567699767E+02  0.79626443842E+02  0.00000000000E+00 0. -1.
<scales pt_clust_5="13000.00000" pt_clust_6="13000.00000" pt_clust_7="13000.00000" pt_clust_8="13000.00000" pt_clust_9="44.17487" pt_clust_10="38.89543"></scales>
<clustering>
<clus scale="   44.175">  2  9  1 -1</clus>
<clus scale="   38.895">  2 10  1 -1</clus>
<clus scale="   76.992">  5  6 -1 -1</clus>
<clus scale="   80.690">  2  5  1 -1</clus>
<clus scale="   91.236">  7  8 -1 -1</clus>
<clus scale="   44.175">  2  5  1 -1</clus>
</clustering>
</event>
<event>
10    4  0.3043429E-005  0.1108322E+03  0.7546771E-02  0.1261593E+00
         21   -1    0    0  503  502  0.00000000000E+00  0.00000000000E+00  0.97649108358E+02  0.97649108358E+02  0.00000000000E+00 0.  1.
          2   -1    0    0  502    0 -0.00000000000E+00 -0.00000000000E+00 -0.25784453701E+03  0.25784453701E+03  0.00000000000E+00 0. -1.
         23    2    1    2    0    0 -0.14037140200E+02 -0.58009547688E+02 -0.75644010157E+02  0.13180207983E+03  0.89931212858E+02 0.  0.
         24    2    1    2    0    0  0.55702569030E+02  0.51263442170E+02 -0.83227806626E+02  0.13989748008E+03  0.83148784934E+02 0.  0.
        -11    1    4    4    0    0  0.43162344885E+02  0.23506846992E+01 -0.77942945991E+02  0.89126968782E+02  0.00000000000E+00 0.  1.
         12    1    4    4    0    0  0.12540224145E+02  0.48912757471E+02 -0.52848606347E+01  0.50770511293E+02  0.00000000000E+00 0. -1.
        -13    1    3    3    0    0  0.12651408650E+02 -0.75027852063E+02 -0.56966053276E+02  0.95049292222E+02  0.00000000000E+00 0.  1.
         13    1    3    3    0    0 -0.26688548849E+02  0.17018304375E+02 -0.18677956880E+02  0.36752787605E+02  0.00000000000E+00 0. -1.
         21    1    1    2  503  501  0.94043104878E+01 -0.18975847457E+02  0.12994452510E+02  0.24847125357E+02  0.00000000000E+00 0.  1.
          1    1    1    2  501    0 -0.51069739319E+02  0.25721952975E+02 -0.14318064384E+02  0.58946960113E+02  0.00000000000E+00 0. -1.
<scales pt_clust_5="13000.00000" pt_clust_6="13000.00000" pt_clust_7="13000.00000" pt_clust_8="13000.00000" pt_clust_9="21.17838" pt_clust_10="52.50549"></scales>
<clustering>
<clus scale="   21.178">  1  9  2 -1</clus>
<clus scale="   52.505">  1 10  2 -1</clus>
<clus scale="   83.149">  5  6 -1 -1</clus>
<clus scale="   89.931">  7  8 -1 -1</clus>
<clus scale="  105.403">  1  5  2 -1</clus>
<clus scale="   21.178">  1  5  2 -1</clus>
</clustering>
</event>
<event>
10    4  0.3043429E-005  0.1400165E+03  0.7546771E-02  0.1238871E+00
          2   -1    0    0  503    0 -0.00000000000E+00  0.00000000000E+00  0.30848059967E+03  0.30848059967E+03  0.00000000000E+00 0. -1.
         21   -1    0    0  501  502  0.00000000000E+00 -0.00000000000E+00 -0.32824425763E+03  0.32824425763E+03  0.00000000000E+00 0. -1.
         24    2    1    2    0    0  0.66580563746E+01 -0.16390662591E+02  0.39677583280E+02  0.91365725304E+02  0.80376623533E+02 0.  0.
         23    2    1    2    0    0  0.56193256161E+01 -0.72992604842E+02 -0.43997936455E+02  0.12018565868E+03  0.84553397087E+02 0.  0.
        -11    1    3    3    0    0  0.63770113429E+01  0.32540270166E+02  0.12848645748E+02  0.35561540373E+02  0.00000000000E+00 0.  1.
         12    1    3    3    0    0  0.28104503173E+00 -0.48930932756E+02  0.26828937533E+02  0.55804184931E+02  0.00000000000E+00 0. -1.
        -11    1    4    4    0    0  0.39513505263E+02 -0.13432664757E+02 -0.26573505514E+02  0.49476305197E+02  0.00000000000E+00 0.  1.
         11    1    4    4    0    0 -0.33894179647E+02 -0.59559940085E+02 -0.17424430940E+02  0.70709353486E+02  0.00000000000E+00 0. -1.
         21    1    1    2  503  502 -0.14152819263E+03  0.16843196035E+02 -0.16266093483E+03  0.21626951306E+03  0.00000000000E+00 0. -1.
          1    1    1    2  501    0  0.12925081064E+03  0.72540071398E+02  0.14721763005E+03  0.20890396025E+03  0.00000000000E+00 0. -1.
<scales pt_clust_5="13000.00000" pt_clust_6="13000.00000" pt_clust_7="13000.00000" pt_clust_8="13000.00000" pt_clust_9="140.01652" pt_clust_10="13000.00000"></scales>
<clustering>
<clus scale="   80.377">  5  6 -1 -1</clus>
<clus scale="   82.301">  1  5  2 -1</clus>
<clus scale="   84.553">  7  8 -1 -1</clus>
<clus scale="  113.593">  1  7  2 -1</clus>
<clus scale="  140.017">  2  9  1 -1</clus>
<clus scale="  140.017">  2  5  1 -1</clus>
</clustering>
</event>
<event>
10    4  0.3043429E-005  0.1670528E+03  0.7546771E-02  0.1208492E+00
          2   -1    0    0  502    0 -0.00000000000E+00  0.00000000000E+00  0.16041995764E+04  0.16041995764E+04  0.00000000000E+00 0. -1.
         21   -1    0    0  503  502  0.00000000000E+00 -0.00000000000E+00 -0.61210652411E+02  0.61210652411E+02  0.00000000000E+00 0. -1.
         24    2    1    2    0    0 -0.42028581127E+02  0.29291571798E+02  0.99405301265E+02  0.13785123319E+03  0.80604905318E+02 0.  0.
         23    2    1    2    0    0  0.15677310138E+03 -0.61825583036E+01  0.10287375236E+04  0.10445435933E+04  0.90301697260E+02 0.  0.
        -11    1    3    3    0    0 -0.50962884084E+02  0.92531989583E+00  0.94967860442E+02  0.10778203138E+03  0.00000000000E+00 0.  1.
         12    1    3    3    0    0  0.89343029576E+01  0.28366251902E+02  0.44374408232E+01  0.30069201808E+02  0.00000000000E+00 0. -1.
        -13    1    4    4    0    0  0.13456469153E+03  0.30327375040E+02  0.81205883565E+03  0.82369105764E+03  0.00000000000E+00 0. -1.
         13    1    4    4    0    0  0.22208409850E+02 -0.36509933344E+02  0.21667868793E+03  0.22085253566E+03  0.00000000000E+00 0.  1.
         21    1    1    2  503  501  0.23446603525E+02  0.25162529985E+01 -0.16872080391E+02  0.28995548671E+02  0.00000000000E+00 0. -1.
          1    1    1    2  501    0 -0.13819112378E+03 -0.25625266493E+02  0.43171817951E+03  0.45401985363E+03  0.00000000000E+00 0. -1.
<scales pt_clust_5="13000.00000" pt_clust_6="13000.00000" pt_clust_7="13000.00000" pt_clust_8="13000.00000" pt_clust_9="23.58124" pt_clust_10="140.54266"></scales>
<clustering>
<clus scale="   23.581">  2  9  1 -1</clus>
<clus scale="   80.605">  5  6 -1 -1</clus>
<clus scale="   90.302">  7  8 -1 -1</clus>
<clus scale="   91.357">  1  5  2 -1</clus>
<clus scale="  140.543">  2 10  1 -1</clus>
<clus scale="   23.581">  2  5  1 -1</clus>
</clustering>
</event>
<event>
10    4  0.3043429E-005  0.2214944E+03  0.7546771E-02  0.1154002E+00
         21   -1    0    0  503  502  0.00000000000E+00  0.00000000000E+00  0.12889515228E+03  0.12889515228E+03  0.00000000000E+00 0. -1.
          2   -1    0    0  502    0 -0.00000000000E+00 -0.00000000000E+00 -0.17843399064E+04  0.17843399064E+04  0.00000000000E+00 0. -1.
         24    2    1    2    0    0  0.61514771664E+02  0.85951073550E+02 -0.24886055347E+03  0.28231055547E+03  0.81215888100E+02 0.  0.
         23    2    1    2    0    0 -0.16151180882E+03  0.71139508174E+02 -0.43195334022E+03  0.47571503940E+03  0.92597065654E+02 0.  0.
        -11    1    3    3    0    0 -0.12295704987E+02  0.30365891076E+02 -0.11558130847E+03  0.12013455194E+03  0.00000000000E+00 0.  1.
         12    1    3    3    0    0  0.73810476651E+02  0.55585182474E+02 -0.13327924500E+03  0.16217600354E+03  0.00000000000E+00 0. -1.
        -11    1    4    4    0    0 -0.12767289424E+03  0.96423985248E+01 -0.30190746899E+03  0.32793515153E+03  0.00000000000E+00 0. -1.
         11    1    4    4    0    0 -0.33838914579E+02  0.61497109649E+02 -0.13004587123E+03  0.14777988787E+03  0.00000000000E+00 0.  1.
         21    1    1    2  503  501 -0.45376623758E+02  0.26524202785E+02  0.68370228581E+02  0.86238387469E+02  0.00000000000E+00 0. -1.
          1    1    1    2  501    0  0.14537366092E+03 -0.18361478451E+03 -0.10430010890E+04  0.10689710763E+04  0.00000000000E+00 0. -1.
<scales pt_clust_5="13000.00000" pt_clust_6="13000.00000" pt_clust_7="13000.00000" pt_clust_8="13000.00000" pt_clust_9="52.56017" pt_clust_10="201.21032"></scales>
<clustering>
<clus scale="   52.560">  1  9  2 -1</clus>
<clus scale="   81.216">  5  6 -1 -1</clus>
<clus scale="   92.597">  7  8 -1 -1</clus>
<clus scale="  133.140">  2  5  1 -1</clus>
<clus scale="  201.210">  1 10  2 -1</clus>
<clus scale="   52.560">  1  5  2 -1</clus>
</clustering>
</event>
<event>
10    4  0.3043429E-005  0.2901823E+03  0.7546771E-02  0.1133023E+00
         21   -1    0    0  503  502  0.00000000000E+00  0.00000000000E+00  0.97606416264E+03  0.97606416264E+03  0.00000000000E+00 0. -1.
          2   -1    0    0  502    0 -0.00000000000E+00 -0.00000000000E+00 -0.44230386462E+03  0.44230386462E+03  0.00000000000E+00 0. -1.
         23    2    1    2    0    0  0.13727344695E+02  0.31764397199E+02 -0.17268243944E+03  0.19850441395E+03  0.91582534053E+02 0.  0.
         24    2    1    2    0    0  0.15274338761E+03 -0.22465243084E+03  0.47270152380E+02  0.28713786658E+03  0.80090136575E+02 0.  0.
        -11    1    4    4    0    0  0.12108959011E+03 -0.19380512364E+03  0.90451852207E+01  0.22870271130E+03  0.00000000000E+00 0.  1.
         12    1    4    4    0    0  0.31653797504E+02 -0.30847307200E+02  0.38224967159E+02  0.58435155277E+02  0.00000000000E+00 0. -1.
        -11    1    3    3    0    0  0.24159884932E+02 -0.74866768056E+01 -0.14973459950E+03  0.15185585487E+03  0.00000000000E+00 0. -1.
         11    1    3    3    0    0 -0.10432540237E+02  0.39251074005E+02 -0.22947839937E+02  0.46648559078E+02  0.00000000000E+00 0.  1.
         21    1    1    2  503  501  0.11210757982E+03  0.59164666395E+02  0.60607084832E+03  0.61918530375E+03  0.00000000000E+00 0. -1.
          1    1    1    2  501    0 -0.27857831213E+03  0.13372336724E+03  0.53101736767E+02  0.31354044298E+03  0.00000000000E+00 0. -1.
<scales pt_clust_5="13000.00000" pt_clust_6="13000.00000" pt_clust_7="13000.00000" pt_clust_8="13000.00000" pt_clust_9="127.45186" pt_clust_10="278.91096"></scales>
<clustering>
<clus scale="   80.090">  5  6 -1 -1</clus>
<clus scale="   91.583">  7  8 -1 -1</clus>
<clus scale="   97.902">  2  7  1 -1</clus>
<clus scale="  127.452">  1  9  2 -1</clus>
<clus scale="  278.911">  1 10  2 -1</clus>
<clus scale="  127.452">  1  5  2 -1</clus>
</clustering>
</event>
<event>
10    4  0.3043429E-005  0.2587957E+03  0.7546771E-02  0.1108945E+00
          2   -1    0    0  503    0 -0.00000000000E+00  0.00000000000E+00  0.82429006037E+03  0.82429006037E+03  0.00000000000E+00 0. -1.
         21   -1    0    0  501  502  0.00000000000E+00 -0.00000000000E+00 -0.33521413592E+03  0.33521413592E+03  0.00000000000E+00 0. -1.
         24    2    1    2    0    0 -0.10105865366E+02 -0.23274582229E+03  0.15848456010E+03  0.29293243012E+03  0.80120574867E+02 0.  0.
         23    2    1    2    0    0 -0.24500187427E+03  0.17451741546E+02 -0.42025072689E+02  0.26659899474E+03  0.94754607200E+02 0.  0.
        -13    1    3    3    0    0  0.34074913170E+02 -0.10126306616E+03  0.57273015228E+02  0.12122502443E+03  0.00000000000E+00 0.  1.
         14    1    3    3    0    0 -0.44180778536E+02 -0.13148275613E+03  0.10121154488E+03  0.17170740569E+03  0.00000000000E+00 0. -1.
        -13    1    4    4    0    0 -0.21649580928E+03  0.33278529610E+02 -0.62891500787E+02  0.22788865009E+03  0.00000000000E+00 0. -1.
         13    1    4    4    0    0 -0.28506064987E+02 -0.15826788064E+02  0.20866428099E+02  0.38710344652E+02  0.00000000000E+00 0.  1.
         21    1    1    2  503  502  0.15750596227E+02 -0.24497019944E+02 -0.50272707665E+02  0.58099315001E+02  0.00000000000E+00 0. -1.
          1    1    1    2  501    0  0.23935714341E+03  0.23979110069E+03  0.42288914470E+03  0.54187345642E+03  0.00000000000E+00 0. -1.
<scales pt_clust_5="13000.00000" pt_clust_6="13000.00000" pt_clust_7="13000.00000" pt_clust_8="13000.00000" pt_clust_9="29.12362" pt_clust_10="240.82535"></scales>
<clustering>
<clus scale="   29.124">  2  9  1 -1</clus>
<clus scale="   80.121">  5  6 -1 -1</clus>
<clus scale="   94.755">  7  8 -1 -1</clus>
<clus scale="  251.778">  1  5  2 -1</clus>
<clus scale="  240.825">  2 10  1 -1</clus>
<clus scale="   29.124">  2  5  1 -1</clus>
</clustering>
</event>
<event>
10    4  0.3043429E-005  0.2989385E+03  0.7546771E-02  0.1132753E+00
         21   -1    0    0  501  502  0.00000000000E+00  0.00000000000E+00  0.29629289706E+03  0.29629289706E+03  0.00000000000E+00 0. -1.
          2   -1    0    0  503    0 -0.00000000000E+00 -0.00000000000E+00 -0.67104303221E+03  0.67104303221E+03  0.00000000000E+00 0. -1.
         24    2    1    2    0    0  0.41747575258E+02  0.22122520603E+02  0.82270004488E+02  0.12503328020E+03  0.81441399555E+02 0.  0.
         23    2    1    2    0    0  0.23724542441E+03 -0.15240066123E+03 -0.35921157896E+03  0.46559301010E+03  0.90733343638E+02 0.  0.
        -13    1    3    3    0    0 -0.13751448909E+02  0.28700007616E+02  0.93689044977E+01  0.33174827140E+02  0.00000000000E+00 0.  1.
         14    1    3    3    0    0  0.55499024167E+02 -0.65774870126E+01  0.72901099990E+02  0.91858453061E+02  0.00000000000E+00 0. -1.
        -13    1    4    4    0    0  0.12295101944E+02 -0.40494086049E+02 -0.76074581112E+02  0.87053330942E+02  0.00000000000E+00 0.  1.
         13    1    4    4    0    0  0.22495032246E+03 -0.11190657518E+03 -0.28313699785E+03  0.37853967916E+03  0.00000000000E+00 0. -1.
         21    1    1    2  503  502 -0.26824537521E+02  0.44797943674E+01  0.51170104048E+02  0.57948286593E+02  0.00000000000E+00 0. -1.
          1    1    1    2  501    0 -0.25216846214E+03  0.12579834626E+03 -0.14897866472E+03  0.31876135237E+03  0.00000000000E+00 0. -1.
<scales pt_clust_5="13000.00000" pt_clust_6="13000.00000" pt_clust_7="13000.00000" pt_clust_8="13000.00000" pt_clust_9="27.19604" pt_clust_10="284.83630"></scales>
<clustering>
<clus scale="   27.196">  1  9  2 -1</clus>
<clus scale="   81.441">  5  6 -1 -1</clus>
<clus scale="   90.142">  2  5  1 -1</clus>
<clus scale="   90.733">  7  8 -1 -1</clus>
<clus scale="  284.836">  1 10  2 -1</clus>
<clus scale="   27.196">  1  5  2 -1</clus>
</clustering>
</event>
<event>
10    4  0.3043429E-005  0.9774952E+02  0.7546771E-02  0.1293266E+00
         21   -1    0    0  503  502  0.00000000000E+00  0.00000000000E+00  0.87228714758E+03  0.87228714758E+03  0.00000000000E+00 0. -1.
         -1   -1    0    0    0  501 -0.00000000000E+00 -0.00000000000E+00 -0.56798185398E+02  0.56798185398E+02  0.00000000000E+00 0.  1.
         23    2    1    2    0    0  0.30436122749E+02 -0.45434514759E+02  0.14802631064E+03  0.18318318454E+03  0.93024930839E+02 0.  0.
         24    2    1    2    0    0  0.10165318515E+01 -0.60866266329E+01  0.23257758366E+03  0.24548593770E+03  0.78313043796E+02 0.  0.
        -13    1    4    4    0    0 -0.11502564130E+02  0.17515922740E+02  0.13817924586E+02  0.25100828091E+02  0.00000000000E+00 0.  1.
         14    1    4    4    0    0  0.12519095981E+02 -0.23602549373E+02  0.21875965907E+03  0.22038510961E+03  0.00000000000E+00 0. -1.
        -13    1    3    3    0    0  0.15114292533E+01 -0.69444799524E+02  0.10669774508E+03  0.12731564477E+03  0.00000000000E+00 0. -1.
         13    1    3    3    0    0  0.28924693496E+02  0.24010284765E+02  0.41328565564E+02  0.55867539770E+02  0.00000000000E+00 0.  1.
         21    1    1    2  503  501  0.39735815989E+02  0.44495231501E+02  0.42385975961E+03  0.42803721394E+03  0.00000000000E+00 0. -1.
         -2    1    1    2    0  502 -0.71188470589E+02  0.70259098907E+01  0.11025308273E+02  0.72378996796E+02  0.00000000000E+00 0.  1.
<scales pt_clust_5="13000.00000" pt_clust_6="13000.00000" pt_clust_7="13000.00000" pt_clust_8="13000.00000" pt_clust_9="59.65535" pt_clust_10="68.39637"></scales>
<clustering>
<clus scale="   59.655">  1  9  2 -1</clus>
<clus scale="   68.396">  1 10  2 -1</clus>
<clus scale="   78.313">  5  6 -1 -1</clus>
<clus scale="   83.871">  1  5  2 -1</clus>
<clus scale="   93.025">  7  8 -1 -1</clus>
<clus scale="   59.655">  1  5  2 -1</clus>
</clustering>
</event>
<event>
10    4  0.3043429E-005  0.9672502E+02  0.7546771E-02  0.1294292E+00
         21   -1    0    0  501  502  0.00000000000E+00  0.00000000000E+00  0.16998966729E+03  0.16998966729E+03  0.00000000000E+00 0.  1.
          4   -1    0    0  503    0 -0.00000000000E+00 -0.00000000000E+00 -0.10872153668E+03  0.10872153668E+03  0.00000000000E+00 0. -1.
         24    2    1    2    0    0  0.28084128968E+02  0.49108975949E+01 -0.28085882116E+02  0.90625961093E+02  0.81310594849E+02 0.  0.
         23    2    1    2    0    0 -0.17272997414E+02  0.17164874565E+02  0.20664590071E+02  0.98866976697E+02  0.93566363828E+02 0.  0.
        -13    1    3    3    0    0 -0.11608122122E+02 -0.30571635327E+02 -0.13867723680E+02  0.35520235723E+02  0.00000000000E+00 0.  1.
         14    1    3    3    0    0  0.39692251090E+02  0.35482532922E+02 -0.14218158436E+02  0.55105725369E+02  0.00000000000E+00 0. -1.
        -11    1    4    4    0    0  0.43547419274E+01 -0.32914588707E+02  0.28501359392E+02  0.43756844198E+02  0.00000000000E+00 0.  1.
         11    1    4    4    0    0 -0.21627739341E+02  0.50079463272E+02 -0.78367693209E+01  0.55110132499E+02  0.00000000000E+00 0. -1.
         21    1    1    2  503  502  0.18291708870E+02 -0.19435687175E+02  0.41257161996E+02  0.49137419197E+02  0.00000000000E+00 0.  1.
          3    1    1    2  501    0 -0.29102840425E+02 -0.26400849854E+01  0.27432260658E+02  0.40080846976E+02  0.00000000000E+00 0. -1.
<scales pt_clust_5="13000.00000" pt_clust_6="13000.00000" pt_clust_7="13000.00000" pt_clust_8="13000.00000" pt_clust_9="26.68956" pt_clust_10="25.41317"></scales>
<clustering>
<clus scale="   26.690">  1  9  2 -1</clus>
<clus scale="   25.413">  1 10  2 -1</clus>
<clus scale="   81.311">  5  6 -1 -1</clus>
<clus scale="   84.926">  2  5  1 -1</clus>
<clus scale="   93.566">  7  8 -1 -1</clus>
<clus scale="   26.690">  1  5  2 -1</clus>
</clustering>
</event>
<event>
10    4  0.3043429E-005  0.1072628E+03  0.7546771E-02  0.1267453E+00
         21   -1    0    0  501  502  0.00000000000E+00  0.00000000000E+00  0.63998414099E+02  0.63998414099E+02  0.00000000000E+00 0.  1.
         -3   -1    0    0    0  501 -0.00000000000E+00 -0.00000000000E+00 -0.37742174450E+03  0.37742174450E+03  0.00000000000E+00 0.  1.
         23    2    1    2    0    0 -0.61139130071E+02  0.36077554447E+01 -0.16469839922E+03  0.19620297180E+03  0.87287079876E+02 0.  0.
         24    2    1    2    0    0  0.59469246619E+02 -0.40525404052E+02 -0.41117397962E+02  0.11721946047E+03  0.82890661907E+02 0.  0.
        -11    1    4    4    0    0  0.48536337339E+02 -0.64856039776E+02 -0.20648823622E+02  0.83596984723E+02  0.00000000000E+00 0.  1.
         12    1    4    4    0    0  0.10932909280E+02  0.24330635724E+02 -0.20468574340E+02  0.33622475750E+02  0.00000000000E+00 0. -1.
        -13    1    3    3    0    0 -0.29536345310E+02 -0.11940024573E+01 -0.11742056638E+01  0.29583780946E+02  0.00000000000E+00 0. -1.
         13    1    3    3    0    0 -0.31602784761E+02  0.48017579020E+01 -0.16352419355E+03  0.16661919085E+03  0.00000000000E+00 0.  1.
         21    1    1    2  503  502 -0.22859606509E+02  0.28648788993E+01 -0.18662811982E+02  0.29649109462E+02  0.00000000000E+00 0. -1.
         -4    1    1    2    0  503  0.24529489961E+02  0.34052769708E+02 -0.88944721243E+02  0.98348616867E+02  0.00000000000E+00 0.  1.
<scales pt_clust_5="13000.00000" pt_clust_6="13000.00000" pt_clust_7="13000.00000" pt_clust_8="13000.00000" pt_clust_9="23.03843" pt_clust_10="41.11287"></scales>
<clustering>
<clus scale="   23.038">  1  9  2 -1</clus>
<clus scale="   41.113">  1 10  2 -1</clus>
<clus scale="   82.891">  5  6 -1 -1</clus>
<clus scale="   87.287">  7  8 -1 -1</clus>
<clus scale="  103.717">  1  5  2 -1</clus>
<clus scale="   23.038">  1  5  2 -1</clus>
</clustering>
</event>
<event>
10    4  0.3043429E-005  0.9634801E+02  0.7546771E-02  0.1293016E+00
          2   -1    0    0  503    0 -0.00000000000E+00  0.00000000000E+00  0.74188790200E+03  0.74188790200E+03  0.00000000000E+00 0. -1.
         21   -1    0    0  501  502  0.00000000000E+00 -0.00000000000E+00 -0.80933344702E+02  0.80933344702E+02  0.00000000000E+00 0.  1.
         23    2    1    2    0    0  0.49288420164E+02 -0.19071456110E+02  0.46360822729E+03  0.47541067768E+03  0.91047543872E+02 0.  0.
         24    2    1    2    0    0 -0.97999618772E+01 -0.16421792792E+02  0.24314129271E+03  0.25735773721E+03  0.82155962344E+02 0.  0.
        -11    1    4    4    0    0 -0.45007019775E+02 -0.41113259440E+01  0.10594096406E+03  0.11517822145E+03  0.00000000000E+00 0.  1.
         12    1    4    4    0    0  0.35207057898E+02 -0.12310466848E+02  0.13720032865E+03  0.14217951576E+03  0.00000000000E+00 0. -1.
        -11    1    3    3    0    0  0.17270870424E+02 -0.54580115563E+02  0.26766216678E+03  0.27371574216E+03  0.00000000000E+00 0. -1.
         11    1    3    3    0    0  0.32017549739E+02  0.35508659453E+02  0.19594606051E+03  0.20169493552E+03  0.00000000000E+00 0.  1.
         21    1    1    2  503  502 -0.92520419118E+01  0.20586976980E+02 -0.51159969803E+02  0.55917496465E+02  0.00000000000E+00 0.  1.
          1    1    1    2  501    0 -0.30236416375E+02  0.14906271922E+02  0.53650071000E+01  0.34135335343E+02  0.00000000000E+00 0. -1.
<scales pt_clust_5="13000.00000" pt_clust_6="13000.00000" pt_clust_7="13000.00000" pt_clust_8="13000.00000" pt_clust_9="22.57042" pt_clust_10="43.50850"></scales>
<clustering>
<clus scale="   22.570">  2  9  1 -1</clus>
<clus scale="   43.508">  2 10  1 -1</clus>
<clus scale="   82.156">  5  6 -1 -1</clus>
<clus scale="   87.994">  2  5  1 -1</clus>
<clus scale="   91.048">  7  8 -1 -1</clus>
<clus scale="   22.570">  2  5  1 -1</clus>
</clustering>
</event>
<event>
10    4  0.3043429E-005  0.1733399E+03  0.7546771E-02  0.1205226E+00
          2   -1    0    0  502    0 -0.00000000000E+00  0.00000000000E+00  0.10200048672E+04  0.10200048672E+04  0.00000000000E+00 0. -1.
         21   -1    0    0  503  502  0.00000000000E+00 -0.00000000000E+00 -0.12555871316E+03  0.12555871316E+03  0.00000000000E+00 0. -1.
         24    2    1    2    0    0 -0.32352636477E+02 -0.98212917134E+01  0.18978929345E+03  0.20840511675E+03  0.79180590578E+02 0.  0.
         23    2    1    2    0    0 -0.24413068806E+02  0.15800517742E+03  0.35535373930E+03  0.40138954206E+03  0.96310178171E+02 0.  0.
        -11    1    3    3    0    0  0.25183665053E+02 -0.58342826369E+00  0.83158678538E+02  0.86890293993E+02  0.00000000000E+00 0.  1.
         12    1    3    3    0    0 -0.57536301529E+02 -0.92378634497E+01  0.10663061491E+03  0.12151482276E+03  0.00000000000E+00 0. -1.
        -13    1    4    4    0    0 -0.60962964745E+02  0.85285090961E+02  0.18650681116E+03  0.21395050928E+03  0.00000000000E+00 0. -1.
         13    1    4    4    0    0  0.36549895939E+02  0.72720086461E+02  0.16884692814E+03  0.18743903278E+03  0.00000000000E+00 0.  1.
         21    1    1    2  503  501 -0.93669817672E+01 -0.26636747882E+02 -0.79936517167E+02  0.84776786103E+02  0.00000000000E+00 0. -1.
          1    1    1    2  501    0  0.66132687050E+02 -0.12154713783E+03  0.42923963843E+03  0.45099213542E+03  0.00000000000E+00 0. -1.
<scales pt_clust_5="13000.00000" pt_clust_6="13000.00000" pt_clust_7="13000.00000" pt_clust_8="13000.00000" pt_clust_9="28.23573" pt_clust_10="144.12179"></scales>
<clustering>
<clus scale="   28.236">  2  9  1 -1</clus>
<clus scale="   79.181">  5  6 -1 -1</clus>
<clus scale="   87.710">  1  5  2 -1</clus>
<clus scale="   96.310">  7  8 -1 -1</clus>
<clus scale="  144.122">  2 10  1 -1</clus>
<clus scale="   28.236">  2  5  1 -1</clus>
</clustering>
</event>
<event>
10    4  0.3043429E-005  0.2487792E+03  0.7546771E-02  0.1114079E+00
         21   -1    0    0  501  502  0.00000000000E+00  0.00000000000E+00  0.18441353391E+03  0.18441353391E+03  0.00000000000E+00 0. -1.
          2   -1    0    0  503    0 -0.00000000000E+00 -0.00000000000E+00 -0.65186273529E+03  0.65186273529E+03  0.00000000000E+00 0. -1.
         24    2    1    2    0    0  0.14582699024E+02  0.11998925074E+03 -0.38302266260E+03  0.40962852400E+03  0.80492808391E+02 0.  0.
         23    2    1    2    0    0  0.18456746508E+02  0.46138405558E+02 -0.17798915007E+03  0.20428012384E+03  0.87067947576E+02 0.  0.
        -11    1    3    3    0    0 -0.16316104257E+02  0.89071994541E+02 -0.17475234560E+03  0.19682077574E+03  0.00000000000E+00 0.  1.
         12    1    3    3    0    0  0.30898803282E+02  0.30917256194E+02 -0.20827031700E+03  0.21280774826E+03  0.00000000000E+00 0. -1.
        -11    1    4    4    0    0  0.49827697909E+01 -0.22478400550E+02 -0.16573700561E+02  0.28368892053E+02  0.00000000000E+00 0.  1.
         11    1    4    4    0    0  0.13473976717E+02  0.68616806107E+02 -0.16141544951E+03  0.17591123179E+03  0.00000000000E+00 0. -1.
         21    1    1    2  503  502 -0.26263156912E+02 -0.23290599914E+00 -0.83407037872E+01  0.27556759531E+02  0.00000000000E+00 0. -1.
          1    1    1    2  501    0 -0.67762886201E+01 -0.16589475029E+03  0.10190331508E+03  0.19481086183E+03  0.00000000000E+00 0. -1.
<scales pt_clust_5="13000.00000" pt_clust_6="13000.00000" pt_clust_7="13000.00000" pt_clust_8="13000.00000" pt_clust_9="26.26419" pt_clust_10="168.61646"></scales>
<clustering>
<clus scale="   26.264">  1  9  2 -1</clus>
<clus scale="   80.493">  5  6 -1 -1</clus>
<clus scale="   87.068">  7  8 -1 -1</clus>
<clus scale="   87.846">  5  7 -1 -1</clus>
<clus scale="  168.616">  1 10  2 -1</clus>
<clus scale="   26.264">  1  5  2 -1</clus>
</clustering>
</event>
<event>
10    4  0.3043429E-005  0.2574930E+03  0.7546771E-02  0.1129510E+00
         21   -1    0    0  503  502  0.00000000000E+00  0.00000000000E+00  0.81940946222E+02  0.81940946222E+02  0.00000000000E+00 0. -1.
          2   -1    0    0  502    0 -0.00000000000E+00 -0.00000000000E+00 -0.18197404826E+04  0.18197404826E+04  0.00000000000E+00 0. -1.
         23    2    1    2    0    0  0.41149606499E+02  0.11769047829E+03 -0.26124421957E+03  0.30303767829E+03  0.89660210835E+02 0.  0.
         24    2    1    2    0    0 -0.20912087770E+03 -0.20475491153E+03 -0.43173961738E+03  0.52751531746E+03  0.78849208321E+02 0.  0.
        -13    1    4    4    0    0 -0.88685558851E+01 -0.45931621195E+02 -0.54195101849E+02  0.71592417011E+02  0.00000000000E+00 0.  1.
         14    1    4    4    0    0 -0.20025232182E+03 -0.15882329033E+03 -0.37754451553E+03  0.45592290045E+03  0.00000000000E+00 0. -1.
        -11    1    3    3    0    0  0.44175092551E+02  0.36608533348E+02 -0.47745699025E+02  0.74640975953E+02  0.00000000000E+00 0.  1.
         11    1    3    3    0    0 -0.30254860520E+01  0.81081944940E+02 -0.21349852055E+03  0.22839670234E+03  0.00000000000E+00 0. -1.
         21    1    1    2  503  501  0.41266688182E+02 -0.20953371131E+02 -0.83211376872E+02  0.95216157012E+02  0.00000000000E+00 0. -1.
          1    1    1    2  501    0  0.12670458302E+03  0.10801780437E+03 -0.96160432260E+03  0.97591227611E+03  0.00000000000E+00 0. -1.
<scales pt_clust_5="13000.00000" pt_clust_6="13000.00000" pt_clust_7="13000.00000" pt_clust_8="13000.00000" pt_clust_9="46.28157" pt_clust_10="245.12349"></scales>
<clustering>
<clus scale="   46.282">  1  9  2 -1</clus>
<clus scale="   78.849">  5  6 -1 -1</clus>
<clus scale="   89.660">  7  8 -1 -1</clus>
<clus scale="  152.718">  2  7  1 -1</clus>
<clus scale="  245.123">  1 10  2 -1</clus>
<clus scale="   46.282">  1  5  2 -1</clus>
</clustering>
</event>
<event>
10    4  0.3043429E-005  0.3188903E+03  0.7546771E-02  0.1123788E+00
         21   -1    0    0  501  502  0.00000000000E+00  0.00000000000E+00  0.15355144766E+03  0.15355144766E+03  0.00000000000E+00 0. -1.
          2   -1    0    0  503    0 -0.00000000000E+00 -0.00000000000E+00 -0.14663985215E+04  0.14663985215E+04  0.00000000000E+00 0. -1.
         24    2    1    2    0    0 -0.43634657965E+02 -0.34411439367E+01 -0.11385704604E+03  0.14676698021E+03  0.81616755028E+02 0.  0.
         23    2    1    2    0    0 -0.99677253423E+02  0.41789091935E+02 -0.44480266289E+03  0.46635099323E+03  0.89173745690E+02 0.  0.
        -11    1    3    3    0    0 -0.48433789123E+02  0.22733390428E+02 -0.35999159568E+02  0.64487041014E+02  0.00000000000E+00 0.  1.
         12    1    3    3    0    0  0.47991311588E+01 -0.26174534365E+02 -0.77857886469E+02  0.82279939198E+02  0.00000000000E+00 0. -1.
        -13    1    4    4    0    0 -0.40624551856E+02  0.46495866199E+02 -0.10821698264E+03  0.12459187420E+03  0.00000000000E+00 0.  1.
         13    1    4    4    0    0 -0.59052701566E+02 -0.47067742640E+01 -0.33658568026E+03  0.34175911903E+03  0.00000000000E+00 0. -1.
         21    1    1    2  503  502 -0.17960088959E+03 -0.19992480742E+03 -0.49194843832E+03  0.56057084667E+03  0.00000000000E+00 0. -1.
          1    1    1    2  501    0  0.32291280098E+03  0.16157685942E+03 -0.26223892660E+03  0.44626114906E+03  0.00000000000E+00 0. -1.
<scales pt_clust_5="13000.00000" pt_clust_6="13000.00000" pt_clust_7="13000.00000" pt_clust_8="13000.00000" pt_clust_9="318.89033" pt_clust_10="13000.00000"></scales>
<clustering>
<clus scale="   81.617">  5  6 -1 -1</clus>
<clus scale="   89.174">  7  8 -1 -1</clus>
<clus scale="   92.613">  2  5  1 -1</clus>
<clus scale="  150.747">  2  7  1 -1</clus>
<clus scale="  318.890">  2  9  1 -1</clus>
<clus scale="  318.890">  1  5  2 -1</clus>
</clustering>
</event>
<event>
10    4  0.3043429E-005  0.1496926E+03  0.7546771E-02  0.1204444E+00
         21   -1    0    0  501  502  0.00000000000E+00  0.00000000000E+00  0.46914030807E+03  0.46914030807E+03  0.00000000000E+00 0.  1.
         -1   -1    0    0    0  501 -0.00000000000E+00 -0.00000000000E+00 -0.26620831357E+03  0.26620831357E+03  0.00000000000E+00 0.  1.
         23    2    1    2    0    0  0.10705806965E+03  0.62396178607E+02 -0.20056760137E+03  0.25552016904E+03  0.98531622766E+02 0.  0.
         24    2    1    2    0    0 -0.52950499915E+02 -0.36021449596E+01  0.14390559120E+03  0.17323284386E+03  0.80523711562E+02 0.  0.
        -11    1    4    4    0    0 -0.25498490967E+02 -0.27200838525E+01  0.14349018714E+03  0.14576352665E+03  0.00000000000E+00 0.  1.
         12    1    4    4    0    0 -0.27452008948E+02 -0.88206110714E+00  0.41540405855E+00  0.27469317203E+02  0.00000000000E+00 0. -1.
        -13    1    3    3    0    0  0.29343727629E+02  0.18163108028E+02  0.15085325845E+01  0.34543139912E+02  0.00000000000E+00 0. -1.
         13    1    3    3    0    0  0.77714342024E+02  0.44233070578E+02 -0.20207613395E+03  0.22097702913E+03  0.00000000000E+00 0.  1.
         21    1    1    2  503  502 -0.27104200722E+02 -0.21370143618E+02  0.25812585769E+03  0.26042326921E+03  0.00000000000E+00 0.  1.
         -2    1    1    2    0  503 -0.27003369016E+02 -0.37423890029E+02  0.14681469704E+01  0.46172339540E+02  0.00000000000E+00 0.  1.
<scales pt_clust_5="13000.00000" pt_clust_6="13000.00000" pt_clust_7="13000.00000" pt_clust_8="13000.00000" pt_clust_9="34.51551" pt_clust_10="49.92765"></scales>
<clustering>
<clus scale="   34.516">  1  9  2 -1</clus>
<clus scale="   49.928">  1 10  2 -1</clus>
<clus scale="   80.524">  5  6 -1 -1</clus>
<clus scale="   98.532">  7  8 -1 -1</clus>
<clus scale="  138.504">  1  5  2 -1</clus>
<clus scale="   34.516">  1  5  2 -1</clus>
</clustering>
</event>
<event>
10    4  0.3043429E-005  0.1515092E+03  0.7546771E-02  0.1226768E+00
         21   -1    0    0  501  502  0.00000000000E+00  0.00000000000E+00  0.12308427012E+03  0.12308427012E+03  0.00000000000E+00 0. -1.
          2   -1    0    0  503    0 -0.00000000000E+00 -0.00000000000E+00 -0.85340827808E+03  0.85340827808E+03  0.00000000000E+00 0. -1.
         24    2    1    2    0    0 -0.10131265322E+02  0.24545970916E+02 -0.32882200688E+03  0.33936241511E+03  0.79610233994E+02 0.  0.
         23    2    1    2    0    0  0.83406936492E+02  0.81310496429E+02 -0.34833470880E+03  0.37850396985E+03  0.91433429059E+02 0.  0.
        -13    1    3    3    0    0  0.34649173910E+02  0.70099956319E+01 -0.12169176746E+03  0.12672249823E+03  0.00000000000E+00 0.  1.
         14    1    3    3    0    0 -0.44780439233E+02  0.17535975284E+02 -0.20713023942E+03  0.21263991688E+03  0.00000000000E+00 0. -1.
        -11    1    4    4    0    0  0.47659030099E+02  0.89320621547E+02 -0.18278727508E+03  0.20895153628E+03  0.00000000000E+00 0. -1.
         11    1    4    4    0    0  0.35747906392E+02 -0.80101251174E+01 -0.16554743372E+03  0.16955243357E+03  0.00000000000E+00 0.  1.
         21    1    1    2  503  502 -0.87211701063E+02 -0.61971930364E+02  0.69514872200E+02  0.12758808100E+03  0.00000000000E+00 0. -1.
          1    1    1    2  501    0  0.13936029893E+02 -0.43884536982E+02 -0.12268216448E+03  0.13103808224E+03  0.00000000000E+00 0. -1.
<scales pt_clust_5="13000.00000" pt_clust_6="13000.00000" pt_clust_7="13000.00000" pt_clust_8="13000.00000" pt_clust_9="120.80967" pt_clust_10="46.04419"></scales>
<clustering>
<clus scale="   46.044">  1 10  2 -1</clus>
<clus scale="   79.610">  5  6 -1 -1</clus>
<clus scale="   83.301">  2  5  1 -1</clus>
<clus scale="   91.433">  7  8 -1 -1</clus>
<clus scale="  120.810">  1  9  2 -1</clus>
<clus scale="   46.044">  1  5  2 -1</clus>
</clustering>
</event>
<event>
10    4  0.3043429E-005  0.1264655E+03  0.7546771E-02  0.1235982E+00
         -3   -1    0    0    0  501 -0.00000000000E+00  0.00000000000E+00  0.56214149929E+03  0.56214149929E+03  0.00000000000E+00 0.  1.
         21   -1    0    0  501  502  0.00000000000E+00 -0.00000000000E+00 -0.25143411173E+03  0.25143411173E+03  0.00000000000E+00 0.  1.
         23    2    1    2    0    0 -0.79840802560E+02 -0.16159647671E+01  0.38277681371E+03  0.40151564796E+03  0.91211629474E+02 0.  0.
         24    2    1    2    0    0  0.12126653436E+03 -0.70848263327E+02  0.98452689549E+02  0.18915426131E+03  0.79758095020E+02 0.  0.
        -13    1    4    4    0    0  0.10144779483E+03 -0.77739856861E+02  0.51626996641E+02  0.13784225478E+03  0.00000000000E+00 0.  1.
         14    1    4    4    0    0  0.19818739526E+02  0.68915935338E+01  0.46825692908E+02  0.51312006530E+02  0.00000000000E+00 0. -1.
        -11    1    3    3    0    0 -0.90815654804E+02  0.23368813303E+02  0.30501374278E+03  0.31910338118E+03  0.00000000000E+00 0.  1.
         11    1    3    3    0    0  0.10974852244E+02 -0.24984778071E+02  0.77763070923E+02  0.82412266784E+02  0.00000000000E+00 0. -1.
         21    1    1    2  503  502 -0.33806369496E+02 -0.15562163265E+02 -0.10916704882E+03  0.11533644737E+03  0.00000000000E+00 0.  1.
         -4    1    1    2    0  503 -0.76193622987E+01  0.88026391359E+02 -0.61355066875E+02  0.10756925438E+03  0.00000000000E+00 0.  1.
<scales pt_clust_5="13000.00000" pt_clust_6="13000.00000" pt_clust_7="13000.00000" pt_clust_8="13000.00000" pt_clust_9="37.21628" pt_clust_10="83.46721"></scales>
<clustering>
<clus scale="   37.216">  2  9  1 -1</clus>
<clus scale="   79.758">  5  6 -1 -1</clus>
<clus scale="   83.467">  2 10  1 -1</clus>
<clus scale="   91.212">  7  8 -1 -1</clus>
<clus scale="  118.471">  2  5  1 -1</clus>
<clus scale="   37.216">  2  5  1 -1</clus>
</clustering>
</event>
<event>
10    4  0.3043429E-005  0.1095291E+03  0.7546771E-02  0.1271376E+00
          2   -1    0    0  502    0 -0.00000000000E+00  0.00000000000E+00  0.60579525736E+03  0.60579525736E+03  0.00000000000E+00 0. -1.
         21   -1    0    0  503  502  0.00000000000E+00 -0.00000000000E+00 -0.10425915533E+03  0.10425915533E+03  0.00000000000E+00 0.  1.
         24    2    1    2    0    0  0.39392089205E+02 -0.46178346918E+02  0.23542898763E+03  0.25238603497E+03  0.67732754352E+02 0.  0.
         23    2    1    2    0    0 -0.32899132250E+02  0.47256056235E+02  0.12941170801E+03  0.16880573987E+03  0.91828644161E+02 0.  0.
        -13    1    3    3    0    0  0.40046851029E+02 -0.14483629483E+01  0.66560194959E+02  0.77692390783E+02  0.00000000000E+00 0.  1.
         14    1    3    3    0    0 -0.65476182360E+00 -0.44729983969E+02  0.16886879268E+03  0.17469364418E+03  0.00000000000E+00 0. -1.
        -11    1    4    4    0    0 -0.16633610415E+02 -0.22345958307E+02  0.71755014788E+02  0.76972728906E+02  0.00000000000E+00 0.  1.
         11    1    4    4    0    0 -0.16265521835E+02  0.69602014543E+02  0.57656693226E+02  0.91833010964E+02  0.00000000000E+00 0. -1.
         21    1    1    2  503  501  0.51244739695E+02 -0.23885093715E+02 -0.60096517990E+02  0.82511287244E+02  0.00000000000E+00 0.  1.
          1    1    1    2  501    0 -0.57737696649E+02  0.22807384398E+02  0.19679192438E+03  0.20635135061E+03  0.00000000000E+00 0. -1.
<scales pt_clust_5="13000.00000" pt_clust_6="13000.00000" pt_clust_7="13000.00000" pt_clust_8="13000.00000" pt_clust_9="56.53778" pt_clust_10="53.89609"></scales>
<clustering>
<clus scale="   56.538">  2  9  1 -1</clus>
<clus scale="   53.896">  2 10  1 -1</clus>
<clus scale="   67.733">  5  6 -1 -1</clus>
<clus scale="   90.288">  1  5  2 -1</clus>
<clus scale="   91.829">  7  8 -1 -1</clus>
<clus scale="   56.538">  2  5  1 -1</clus>
</clustering>
</event>
<event>
10    4  0.3043429E-005  0.1105381E+03  0.7546771E-02  0.1262115E+00
          2   -1    0    0  502    0 -0.00000000000E+00  0.00000000000E+00  0.78612423015E+03  0.78612423015E+03  0.00000000000E+00 0. -1.
         21   -1    0    0  503  502  0.00000000000E+00 -0.00000000000E+00 -0.88730206661E+02  0.88730206661E+02  0.00000000000E+00 0.  1.
         23    2    1    2    0    0 -0.17902483887E+02  0.47818079201E+02  0.25446586754E+03  0.27525625730E+03  0.91684577837E+02 0.  0.
         24    2    1    2    0    0  0.15440650850E+02  0.76594157059E+02 -0.10741608327E+02  0.11112002105E+03  0.78276422592E+02 0.  0.
        -13    1    4    4    0    0  0.23194300177E+02  0.35345953405E+02 -0.41378905651E+02  0.59156790106E+02  0.00000000000E+00 0.  1.
         14    1    4    4    0    0 -0.77536493261E+01  0.41248203655E+02  0.30637297323E+02  0.51963230942E+02  0.00000000000E+00 0. -1.
        -13    1    3    3    0    0 -0.24774827687E+02  0.70961177295E+02  0.22466115878E+03  0.23690064803E+03  0.00000000000E+00 0.  1.
         13    1    3    3    0    0  0.68723437996E+01 -0.23143098095E+02  0.29804708755E+02  0.38355609273E+02  0.00000000000E+00 0. -1.
         21    1    1    2  503  501 -0.22158926010E+02 -0.52771814721E+01  0.46210667170E+01  0.23242652684E+02  0.00000000000E+00 0.  1.
          1    1    1    2  501    0  0.24620759046E+02 -0.11913505479E+03  0.44904869756E+03  0.46523550578E+03  0.00000000000E+00 0. -1.
<scales pt_clust_5="13000.00000" pt_clust_6="13000.00000" pt_clust_7="13000.00000" pt_clust_8="13000.00000" pt_clust_9="22.77864" pt_clust_10="78.04799"></scales>
<clustering>
<clus scale="   22.779">  2  9  1 -1</clus>
<clus scale="   78.276">  5  6 -1 -1</clus>
<clus scale="   91.685">  7  8 -1 -1</clus>
<clus scale="  105.166">  1  7  2 -1</clus>
<clus scale="   78.048">  2 10  1 -1</clus>
<clus scale="   22.779">  2  5  1 -1</clus>
</clustering>
</event>
<event>
10    4  0.3043429E-005  0.3563169E+03  0.7546771E-02  0.1060052E+00
         21   -1    0    0  501  502  0.00000000000E+00  0.00000000000E+00  0.69367187391E+03  0.69367187391E+03  0.00000000000E+00 0. -1.
          2   -1    0    0  503    0 -0.00000000000E+00 -0.00000000000E+00 -0.29809850332E+03  0.29809850332E+03  0.00000000000E+00 0. -1.
         24    2    1    2    0    0  0.87289595182E+02  0.91364830008E+02 -0.13068152328E+03  0.19887567074E+03  0.80665149189E+02 0.  0.
         23    2    1    2    0    0  0.10998802649E+03  0.10448642242E+03  0.85591632830E+00  0.17854073457E+03  0.94134387270E+02 0.  0.
        -11    1    3    3    0    0  0.24450079307E+02  0.82908975454E+02 -0.72416827075E+02  0.11276480582E+03  0.00000000000E+00 0.  1.
         12    1    3    3    0    0  0.62839515875E+02  0.84558545546E+01 -0.58264696209E+02  0.86110864912E+02  0.00000000000E+00 0. -1.
        -13    1    4    4    0    0  0.82895081354E+02  0.87742434213E+02  0.40833431773E+02  0.12742722796E+03  0.00000000000E+00 0. -1.
         13    1    4    4    0    0  0.27092945133E+02  0.16743988211E+02 -0.39977515445E+02  0.51113506614E+02  0.00000000000E+00 0.  1.
         21    1    1    2  503  502  0.25644750636E+02 -0.79131903870E+01  0.44799604990E+02  0.52223332186E+02  0.00000000000E+00 0. -1.
          1    1    1    2  501    0 -0.22292237231E+03 -0.18793806205E+03  0.48059937255E+03  0.56213063974E+03  0.00000000000E+00 0. -1.
<scales pt_clust_5="13000.00000" pt_clust_6="13000.00000" pt_clust_7="13000.00000" pt_clust_8="13000.00000" pt_clust_9="26.83788" pt_clust_10="280.44510"></scales>
<clustering>
<clus scale="   26.838">  1  9  2 -1</clus>
<clus scale="   80.665">  5  6 -1 -1</clus>
<clus scale="   94.134">  7  8 -1 -1</clus>
<clus scale="  147.698">  5  7 -1 -1</clus>
<clus scale="  280.445">  1 10  2 -1</clus>
<clus scale="   26.838">  1  5  2 -1</clus>
</clustering>
</event>
<event>
10    4  0.3043429E-005  0.1209313E+03  0.7546771E-02  0.1247973E+00
         21   -1    0    0  501  502  0.00000000000E+00  0.00000000000E+00  0.39702539226E+02  0.39702539226E+02  0.00000000000E+00 0.  1.
          2   -1    0    0  503    0 -0.00000000000E+00 -0.00000000000E+00 -0.11218380829E+04  0.11218380829E+04  0.00000000000E+00 0. -1.
         24    2    1    2    0    0 -0.68511920216E+02  0.16947914440E+02 -0.48818367881E+03  0.49830657087E+03  0.70746160988E+02 0.  0.
         23    2    1    2    0    0  0.12085129855E+03  0.20778712959E+02 -0.25970258472E+03  0.30135389151E+03  0.91279483720E+02 0.  0.
        -11    1    3    3    0    0 -0.75244003290E+02  0.30994720991E+02 -0.35460816636E+03  0.36382589848E+03  0.00000000000E+00 0.  1.
         12    1    3    3    0    0  0.67320830746E+01 -0.14046806551E+02 -0.13357551245E+03  0.13448067238E+03  0.00000000000E+00 0. -1.
        -11    1    4    4    0    0  0.11747660808E+03  0.46406822379E+02 -0.20386904337E+03  0.23982688226E+03  0.00000000000E+00 0. -1.
         11    1    4    4    0    0  0.33746904637E+01 -0.25628109420E+02 -0.55833541347E+02  0.61527009252E+02  0.00000000000E+00 0.  1.
         21    1    1    2  503  502  0.26418649979E+02 -0.21625794902E+01 -0.13603698473E+02  0.29793999881E+02  0.00000000000E+00 0. -1.
          1    1    1    2  501    0 -0.78758028312E+02 -0.35564047908E+02 -0.32064558163E+03  0.33208615982E+03  0.00000000000E+00 0. -1.
<scales pt_clust_5="13000.00000" pt_clust_6="13000.00000" pt_clust_7="13000.00000" pt_clust_8="13000.00000" pt_clust_9="26.50701" pt_clust_10="82.25184"></scales>
<clustering>
<clus scale="   26.507">  1  9  2 -1</clus>
<clus scale="   70.746">  5  6 -1 -1</clus>
<clus scale="   82.252">  1 10  2 -1</clus>
<clus scale="   91.279">  7  8 -1 -1</clus>
<clus scale="  106.290">  2  5  1 -1</clus>
<clus scale="   26.507">  1  5  2 -1</clus>
</clustering>
</event>
<event>
10    4  0.3043429E-005  0.3996343E+03  0.7546771E-02  0.1065840E+00
         -1   -1    0    0    0  501 -0.00000000000E+00  0.00000000000E+00  0.93049799844E+03  0.93049799844E+03  0.00000000000E+00 0.  1.
         21   -1    0    0  501  502  0.00000000000E+00 -0.00000000000E+00 -0.50796796998E+03  0.50796796998E+03  0.00000000000E+00 0.  1.
         23    2    1    2    0    0  0.11962930277E+03  0.15777637822E+03 -0.16724481761E+02  0.21855357340E+03  0.91002200798E+02 0.  0.
         24    2    1    2    0    0 -0.31718345939E+03  0.21452335291E+03  0.56070047381E+03  0.68374223291E+03  0.80577936655E+02 0.  0.
        -13    1    4    4    0    0 -0.24428491405E+03  0.16607983211E+03  0.48571782162E+03  0.56848872646E+03  0.00000000000E+00 0.  1.
         14    1    4    4    0    0 -0.72898545336E+02  0.48443520804E+02  0.74982652187E+02  0.11525350645E+03  0.00000000000E+00 0. -1.
        -13    1    3    3    0    0  0.12395780360E+03  0.11009281434E+03  0.52502100719E+01  0.16587202762E+03  0.00000000000E+00 0.  1.
         13    1    3    3    0    0 -0.43285008322E+01  0.47683563884E+02 -0.21974691833E+02  0.52681545776E+02  0.00000000000E+00 0. -1.
         21    1    1    2  503  502  0.13207351474E+02 -0.23306033017E+02 -0.13854376065E+03  0.14110981158E+03  0.00000000000E+00 0.  1.
         -2    1    1    2    0  503  0.18434680515E+03 -0.34899369811E+03  0.17097797062E+02  0.39506035052E+03  0.00000000000E+00 0.  1.
<scales pt_clust_5="13000.00000" pt_clust_6="13000.00000" pt_clust_7="13000.00000" pt_clust_8="13000.00000" pt_clust_9="26.78816" pt_clust_10="391.42663"></scales>
<clustering>
<clus scale="   26.788">  2  9  1 -1</clus>
<clus scale="   80.578">  5  6 -1 -1</clus>
<clus scale="   91.002">  7  8 -1 -1</clus>
<clus scale="  214.986">  1  7  2 -1</clus>
<clus scale="  391.427">  2 10  1 -1</clus>
<clus scale="   26.788">  2  5  1 -1</clus>
</clustering>
</event>
<event>
10    4  0.3043429E-005  0.1088088E+03  0.7546771E-02  0.1266729E+00
         21   -1    0    0  501  502  0.00000000000E+00  0.00000000000E+00  0.49649497599E+03  0.49649497599E+03  0.00000000000E+00 0.  1.
          2   -1    0    0  503    0 -0.00000000000E+00 -0.00000000000E+00 -0.45613084162E+03  0.45613084162E+03  0.00000000000E+00 0. -1.
         24    2    1    2    0    0 -0.27875671797E+02  0.52264288697E+02 -0.38007298436E+03  0.39317175021E+03  0.81363030701E+02 0.  0.
         23    2    1    2    0    0  0.40615675335E+01 -0.80782744025E+02  0.41761131624E+03  0.43502526669E+03  0.91134094263E+02 0.  0.
        -13    1    3    3    0    0  0.22693832214E+02  0.97453865610E+01 -0.42169585119E+02  0.48869791169E+02  0.00000000000E+00 0.  1.
         14    1    3    3    0    0 -0.50569504011E+02  0.42518902136E+02 -0.33790339925E+03  0.34430195904E+03  0.00000000000E+00 0. -1.
        -11    1    4    4    0    0 -0.42630924278E+02 -0.26420416040E+02  0.16680972368E+03  0.17418644609E+03  0.00000000000E+00 0. -1.
         11    1    4    4    0    0  0.46692491811E+02 -0.54362327985E+02  0.25080159256E+03  0.26083882059E+03  0.00000000000E+00 0.  1.
         21    1    1    2  503  502 -0.41987074228E+01  0.34114931241E+02  0.55051552030E+02  0.64900932648E+02  0.00000000000E+00 0. -1.
          1    1    1    2  501    0  0.28012811686E+02 -0.55964759129E+01 -0.52225749549E+02  0.59527868072E+02  0.00000000000E+00 0. -1.
<scales pt_clust_5="13000.00000" pt_clust_6="13000.00000" pt_clust_7="13000.00000" pt_clust_8="13000.00000" pt_clust_9="33.44320" pt_clust_10="28.56640"></scales>
<clustering>
<clus scale="   28.566">  1 10  2 -1</clus>
<clus scale="   33.443">  1  9  2 -1</clus>
<clus scale="   81.363">  5  6 -1 -1</clus>
<clus scale="   91.134">  7  8 -1 -1</clus>
<clus scale="  100.766">  2  5  1 -1</clus>
<clus scale="   28.566">  1  5  2 -1</clus>
</clustering>
</event>
<event>
10    4  0.3043429E-005  0.3537621E+03  0.7546771E-02  0.1115628E+00
          4   -1    0    0  503    0 -0.00000000000E+00  0.00000000000E+00  0.11015686947E+03  0.11015686947E+03  0.00000000000E+00 0. -1.
         21   -1    0    0  501  502  0.00000000000E+00 -0.00000000000E+00 -0.17584281359E+04  0.17584281359E+04  0.00000000000E+00 0.  1.
         24    2    1    2    0    0  0.12077079359E+02  0.16054309494E+02 -0.20569802904E+03  0.22235868466E+03  0.82025049786E+02 0.  0.
         23    2    1    2    0    0 -0.35142035965E+03  0.13812685349E+02 -0.62059862779E+03  0.71899614009E+03  0.90142848840E+02 0.  0.
        -13    1    3    3    0    0 -0.28071141447E+01  0.45488025312E+02 -0.15745744267E+03  0.16392036661E+03  0.00000000000E+00 0.  1.
         14    1    3    3    0    0  0.14884193504E+02 -0.29433715818E+02 -0.48240586370E+02  0.58438318049E+02  0.00000000000E+00 0. -1.
        -13    1    4    4    0    0 -0.32609575047E+03 -0.12731676095E+02 -0.56058592512E+03  0.64865793258E+03  0.00000000000E+00 0.  1.
         13    1    4    4    0    0 -0.25324609179E+02  0.26544361444E+02 -0.60012702667E+02  0.70338207512E+02  0.00000000000E+00 0. -1.
         21    1    1    2  503  502  0.71105692457E+01 -0.78106350245E+02 -0.27017964249E+03  0.28133290131E+03  0.00000000000E+00 0. -1.
          3    1    1    2  501    0  0.33223271105E+03  0.48239355402E+02 -0.55179496709E+03  0.64589727930E+03  0.00000000000E+00 0. -1.
<scales pt_clust_5="13000.00000" pt_clust_6="13000.00000" pt_clust_7="13000.00000" pt_clust_8="13000.00000" pt_clust_9="78.42934" pt_clust_10="342.08477"></scales>
<clustering>
<clus scale="   78.429">  2  9  1 -1</clus>
<clus scale="   82.025">  5  6 -1 -1</clus>
<clus scale="   83.203">  1  5  2 -1</clus>
<clus scale="   90.143">  7  8 -1 -1</clus>
<clus scale="  342.085">  2 10  1 -1</clus>
<clus scale="   78.429">  2  5  1 -1</clus>
</clustering>
</event>
<event>
10    4  0.3043429E-005  0.1594830E+03  0.7546771E-02  0.1220071E+00
         21   -1    0    0  501  502  0.00000000000E+00  0.00000000000E+00  0.57426833625E+03  0.57426833625E+03  0.00000000000E+00 0. -1.
          2   -1    0    0  503    0 -0.00000000000E+00 -0.00000000000E+00 -0.89057550927E+02  0.89057550927E+02  0.00000000000E+00 0. -1.
         24    2    1    2    0    0 -0.10823988758E+02 -0.85726219594E+00  0.15731001546E+02  0.83230496516E+02  0.81005910337E+02 0.  0.
         23    2    1    2    0    0  0.13436605683E+02 -0.12977030599E+03  0.13624404885E+03  0.21010046266E+03  0.92514263078E+02 0.  0.
        -13    1    3    3    0    0 -0.12319628053E+02  0.33605980295E+02  0.29205757418E+02  0.46196443730E+02  0.00000000000E+00 0.  1.
         14    1    3    3    0    0  0.14956392944E+01 -0.34463242491E+02 -0.13474755872E+02  0.37034052785E+02  0.00000000000E+00 0. -1.
        -13    1    4    4    0    0  0.50783368068E+02 -0.47709627633E+02  0.55752302363E+02  0.89238322821E+02  0.00000000000E+00 0.  1.
         13    1    4    4    0    0 -0.37346762386E+02 -0.82060678362E+02  0.80491746489E+02  0.12086213984E+03  0.00000000000E+00 0. -1.
         21    1    1    2  503  502 -0.27231939939E+02  0.13375878143E+01  0.81344694539E+02  0.85792348281E+02  0.00000000000E+00 0. -1.
          1    1    1    2  501    0  0.24619323015E+02  0.12928998038E+03  0.25189104038E+03  0.28420257971E+03  0.00000000000E+00 0. -1.
<scales pt_clust_5="13000.00000" pt_clust_6="13000.00000" pt_clust_7="13000.00000" pt_clust_8="13000.00000" pt_clust_9="27.26477" pt_clust_10="129.90742"></scales>
<clustering>
<clus scale="   27.265">  1  9  2 -1</clus>
<clus scale="   81.006">  5  6 -1 -1</clus>
<clus scale="   82.138">  2  5  1 -1</clus>
<clus scale="   92.514">  7  8 -1 -1</clus>
<clus scale="  129.907">  1 10  2 -1</clus>
<clus scale="   27.265">  1  5  2 -1</clus>
</clustering>
</event>
<event>
10    4  0.3043429E-005  0.1099996E+03  0.7546771E-02  0.1264581E+00
         21   -1    0    0  501  502  0.00000000000E+00  0.00000000000E+00  0.24537509916E+03  0.24537509916E+03  0.00000000000E+00 0. -1.
          2   -1    0    0  503    0 -0.00000000000E+00 -0.00000000000E+00 -0.28454564769E+03  0.28454564769E+03  0.00000000000E+00 0. -1.
         23    2    1    2    0    0  0.22757389868E+02 -0.39512659253E+02 -0.99198788995E+02  0.14258936030E+03  0.91717920262E+02 0.  0.
         24    2    1    2    0    0 -0.88457272464E+02  0.16111223377E+02 -0.12587485104E+03  0.17487951359E+03  0.81572701181E+02 0.  0.
        -11    1    4    4    0    0 -0.19906311127E+02  0.12850879986E+02  0.75261057613E+01  0.24860583400E+02  0.00000000000E+00 0.  1.
         12    1    4    4    0    0 -0.68550961338E+02  0.32603433913E+01 -0.13340095680E+03  0.15001893019E+03  0.00000000000E+00 0. -1.
        -11    1    3    3    0    0  0.53654402673E+02 -0.45766347655E+02 -0.62728197043E+02  0.94383156380E+02  0.00000000000E+00 0. -1.
         11    1    3    3    0    0 -0.30897012805E+02  0.62536884021E+01 -0.36470591952E+02  0.48206203918E+02  0.00000000000E+00 0.  1.
         21    1    1    2  503  502  0.34422000392E+02  0.13131552776E+02  0.17334561568E+03  0.17721742088E+03  0.00000000000E+00 0. -1.
          1    1    1    2  501    0  0.31277882205E+02  0.10269883100E+02  0.12557475826E+02  0.35234452078E+02  0.00000000000E+00 0. -1.
<scales pt_clust_5="13000.00000" pt_clust_6="13000.00000" pt_clust_7="13000.00000" pt_clust_8="13000.00000" pt_clust_9="62.87864" pt_clust_10="32.92076"></scales>
<clustering>
<clus scale="   32.921">  1 10  2 -1</clus>
<clus scale="   62.879">  1  9  2 -1</clus>
<clus scale="   81.573">  5  6 -1 -1</clus>
<clus scale="   91.718">  7  8 -1 -1</clus>
<clus scale="  101.695">  1  5  2 -1</clus>
<clus scale="   32.921">  1  5  2 -1</clus>
</clustering>
</event>
<event>
10    4  0.3043429E-005  0.1143508E+03  0.7546771E-02  0.1257200E+00
          4   -1    0    0  502    0 -0.00000000000E+00  0.00000000000E+00  0.20990676866E+03  0.20990676866E+03  0.00000000000E+00 0. -1.
         21   -1    0    0  503  502  0.00000000000E+00 -0.00000000000E+00 -0.13011482348E+03  0.13011482348E+03  0.00000000000E+00 0. -1.
         24    2    1    2    0    0 -0.38172384863E+02  0.65217008309E+02  0.11141447377E+03  0.15587879424E+03  0.78578778234E+02 0.  0.
         23    2    1    2    0    0  0.17310186980E+02 -0.44115442034E+02 -0.41502263624E+02  0.11077454610E+03  0.91119412738E+02 0.  0.
        -13    1    3    3    0    0  0.13378750465E+00  0.31579765494E+02 -0.18875289464E+01  0.31636407085E+02  0.00000000000E+00 0.  1.
         14    1    3    3    0    0 -0.38306172368E+02  0.33637242815E+02  0.11330200272E+03  0.12424238715E+03  0.00000000000E+00 0. -1.
        -11    1    4    4    0    0  0.52351934514E+02 -0.42698596651E+02 -0.29372866909E+02  0.73665870753E+02  0.00000000000E+00 0. -1.
         11    1    4    4    0    0 -0.35041747534E+02 -0.14168453822E+01 -0.12129396715E+02  0.37108675343E+02  0.00000000000E+00 0.  1.
         21    1    1    2  503  501  0.97139920254E+01  0.19862456772E+02 -0.12476347713E+02  0.25387754574E+02  0.00000000000E+00 0.  1.
          3    1    1    2  501    0  0.11148205857E+02 -0.40964023047E+02  0.22356082751E+02  0.47980497226E+02  0.00000000000E+00 0. -1.
<scales pt_clust_5="13000.00000" pt_clust_6="13000.00000" pt_clust_7="13000.00000" pt_clust_8="13000.00000" pt_clust_9="22.11060" pt_clust_10="40.57418"></scales>
<clustering>
<clus scale="   22.111">  2  9  1 -1</clus>
<clus scale="   40.574">  2 10  1 -1</clus>
<clus scale="   78.579">  5  6 -1 -1</clus>
<clus scale="   91.119">  7  8 -1 -1</clus>
<clus scale="  104.633">  1  5  2 -1</clus>
<clus scale="   22.111">  2  5  1 -1</clus>
</clustering>
</event>
<event>
10    4  0.3043429E-005  0.2527162E+03  0.7546771E-02  0.1148682E+00
         21   -1    0    0  501  502  0.00000000000E+00  0.00000000000E+00  0.99849241182E+03  0.99849241182E+03  0.00000000000E+00 0.  1.
          2   -1    0    0  503    0 -0.00000000000E+00 -0.00000000000E+00 -0.18829922999E+03  0.18829922999E+03  0.00000000000E+00 0. -1.
         23    2    1    2    0    0 -0.13803591704E+02  0.31248669127E+02  0.40757418499E+02  0.10617323585E+03  0.91894343579E+02 0.  0.
         24    2    1    2    0    0  0.28936729221E+03  0.48809818521E+01  0.26577298869E+03  0.40134610285E+03  0.81768936516E+02 0.  0.
        -13    1    4    4    0    0  0.25525535514E+03 -0.19947517890E+02  0.24479150097E+03  0.35422602776E+03  0.00000000000E+00 0.  1.
         14    1    4    4    0    0  0.34111937069E+02  0.24828499742E+02  0.20981487716E+02  0.47120075094E+02  0.00000000000E+00 0. -1.
        -13    1    3    3    0    0 -0.12900597205E+02 -0.31018788572E+02  0.39271830496E+01  0.33823267427E+02  0.00000000000E+00 0.  1.
         13    1    3    3    0    0 -0.90299449877E+00  0.62267457699E+02  0.36830235450E+02  0.72349968422E+02  0.00000000000E+00 0. -1.
         21    1    1    2  503  502 -0.73947871862E+02  0.37944314371E+02  0.45035915566E+03  0.45796443949E+03  0.00000000000E+00 0.  1.
          1    1    1    2  501    0 -0.20161582864E+03 -0.74073965350E+02  0.53303618988E+02  0.22130786362E+03  0.00000000000E+00 0. -1.
<scales pt_clust_5="13000.00000" pt_clust_6="13000.00000" pt_clust_7="13000.00000" pt_clust_8="13000.00000" pt_clust_9="83.11473" pt_clust_10="239.12214"></scales>
<clustering>
<clus scale="   81.769">  5  6 -1 -1</clus>
<clus scale="   83.115">  1  9  2 -1</clus>
<clus scale="   91.894">  7  8 -1 -1</clus>
<clus scale="  101.651">  2  7  1 -1</clus>
<clus scale="  239.122">  1 10  2 -1</clus>
<clus scale="   83.115">  1  5  2 -1</clus>
</clustering>
</event>
<event>
10    4  0.3043429E-005  0.1772610E+03  0.7546771E-02  0.1172149E+00
         21   -1    0    0  503  502  0.00000000000E+00  0.00000000000E+00  0.87428621055E+03  0.87428621055E+03  0.00000000000E+00 0.  1.
         -1   -1    0    0    0  501 -0.00000000000E+00 -0.00000000000E+00 -0.10803020109E+03  0.10803020109E+03  0.00000000000E+00 0.  1.
         23    2    1    2    0    0 -0.25827782383E+02  0.11264892742E+03  0.24958587013E+03  0.28971255328E+03  0.91013195580E+02 0.  0.
         24    2    1    2    0    0  0.10897642160E+03 -0.19768450322E+03  0.49802549015E+03  0.55223576576E+03  0.77329999750E+02 0.  0.
        -11    1    4    4    0    0  0.74814413742E+02 -0.18254370783E+03  0.37592776950E+03  0.42454810052E+03  0.00000000000E+00 0.  1.
         12    1    4    4    0    0  0.34162007863E+02 -0.15140795394E+02  0.12209772065E+03  0.12768766524E+03  0.00000000000E+00 0. -1.
        -11    1    3    3    0    0  0.32306324591E+02  0.61381192659E+02  0.10978344605E+03  0.12986051921E+03  0.00000000000E+00 0.  1.
         11    1    3    3    0    0 -0.58134106975E+02  0.51267734758E+02  0.13980242408E+03  0.15985203408E+03  0.00000000000E+00 0. -1.
         21    1    1    2  503  501 -0.19818600020E+02 -0.64008597554E+01  0.20364543004E+02  0.29128380046E+02  0.00000000000E+00 0.  1.
         -2    1    1    2    0  502 -0.63330039201E+02  0.91436435562E+02 -0.17198938268E+01  0.11123971255E+03  0.00000000000E+00 0.  1.
<scales pt_clust_5="13000.00000" pt_clust_6="13000.00000" pt_clust_7="13000.00000" pt_clust_8="13000.00000" pt_clust_9="20.82662" pt_clust_10="115.02235"></scales>
<clustering>
<clus scale="   20.827">  2  9  1 -1</clus>
<clus scale="   77.330">  5  6 -1 -1</clus>
<clus scale="   91.013">  7  8 -1 -1</clus>
<clus scale="  115.022">  1 10  2 -1</clus>
<clus scale="  170.640">  1  5  2 -1</clus>
<clus scale="  115.022">  1  5  2 -1</clus>
</clustering>
</event>
<event>
10    4  0.3043429E-005  0.3760843E+03  0.7546771E-02  0.1084689E+00
         21   -1    0    0  501  502  0.00000000000E+00  0.00000000000E+00  0.78862140278E+03  0.78862140278E+03  0.00000000000E+00 0.  1.
         -1   -1    0    0    0  501 -0.00000000000E+00 -0.00000000000E+00 -0.37156743180E+03  0.37156743180E+03  0.00000000000E+00 0.  1.
         24    2    1    2    0    0  0.24592824101E+02  0.13467227393E+03  0.65920279810E+02  0.17112162012E+03  0.78712751328E+02 0.  0.
         23    2    1    2    0    0  0.24098246862E+03 -0.31740973475E+03  0.22313555695E+03  0.46680330670E+03  0.96407263591E+02 0.  0.
        -13    1    3    3    0    0  0.41269960593E+02  0.11998046011E+03  0.32483772057E+02  0.13097219515E+03  0.00000000000E+00 0.  1.
         14    1    3    3    0    0 -0.16677136492E+02  0.14691813814E+02  0.33436507753E+02  0.40149424970E+02  0.00000000000E+00 0. -1.
        -11    1    4    4    0    0  0.20490533646E+03 -0.27631775445E+03  0.14949811184E+03  0.37508316914E+03  0.00000000000E+00 0.  1.
         11    1    4    4    0    0  0.36077132168E+02 -0.41091980299E+02  0.73637445115E+02  0.91720137557E+02  0.00000000000E+00 0. -1.
         21    1    1    2  503  502 -0.21963419379E+02 -0.16045571432E+02  0.19823477686E+03  0.20009217604E+03  0.00000000000E+00 0. -1.
         -2    1    1    2    0  503 -0.24361187335E+03  0.19878303225E+03 -0.70236642648E+02  0.32217173172E+03  0.00000000000E+00 0.  1.
<scales pt_clust_5="13000.00000" pt_clust_6="13000.00000" pt_clust_7="13000.00000" pt_clust_8="13000.00000" pt_clust_9="27.20022" pt_clust_10="363.51777"></scales>
<clustering>
<clus scale="   27.200">  1  9  2 -1</clus>
<clus scale="   78.713">  5  6 -1 -1</clus>
<clus scale="   96.407">  7  8 -1 -1</clus>
<clus scale="  154.534">  2  5  1 -1</clus>
<clus scale="  363.518">  1 10  2 -1</clus>
<clus scale="   27.200">  1  5  2 -1</clus>
</clustering>
</event>
<event>
10    4  0.3043429E-005  0.2648791E+03  0.7546771E-02  0.1104465E+00
          2   -1    0    0  503    0 -0.00000000000E+00  0.00000000000E+00  0.48796707970E+03  0.48796707970E+03  0.00000000000E+00 0. -1.
         21   -1    0    0  501  502  0.00000000000E+00 -0.00000000000E+00 -0.28200077646E+03  0.28200077646E+03  0.00000000000E+00 0. -1.
         23    2    1    2    0    0  0.26254064226E+03 -0.11019583528E+03  0.28425613386E+03  0.41119678761E+03  0.84914884184E+02 0.  0.
         24    2    1    2    0    0 -0.16979333512E+03  0.78456072856E+02 -0.33670348370E+02  0.20626475902E+03  0.80164371368E+02 0.  0.
        -11    1    4    4    0    0 -0.57719067913E+02 -0.11136027185E+02  0.43047281150E+00  0.58785093426E+02  0.00000000000E+00 0.  1.
         12    1    4    4    0    0 -0.11207426720E+03  0.89592100041E+02 -0.34100821181E+02  0.14747966560E+03  0.00000000000E+00 0. -1.
        -11    1    3    3    0    0  0.21444981616E+03 -0.87198763640E+02  0.17695999039E+03  0.29138837696E+03  0.00000000000E+00 0. -1.
         11    1    3    3    0    0  0.48090826100E+02 -0.22997071640E+02  0.10729614347E+03  0.11980841065E+03  0.00000000000E+00 0.  1.
         21    1    1    2  503  502 -0.19755223239E+02 -0.23494234975E+02 -0.52307434932E+02  0.60649119296E+02  0.00000000000E+00 0. -1.
          1    1    1    2  501    0 -0.72992083900E+02  0.55233997399E+02  0.76879526746E+01  0.91857190230E+02  0.00000000000E+00 0. -1.
<scales pt_clust_5="13000.00000" pt_clust_6="13000.00000" pt_clust_7="13000.00000" pt_clust_8="13000.00000" pt_clust_9="30.69606" pt_clust_10="92.00709"></scales>
<clustering>
<clus scale="   30.696">  2  9  1 -1</clus>
<clus scale="   80.164">  5  6 -1 -1</clus>
<clus scale="   84.915">  7  8 -1 -1</clus>
<clus scale="   92.007">  2 10  1 -1</clus>
<clus scale="  263.395">  2  5  1 -1</clus>
<clus scale="   30.696">  2  5  1 -1</clus>
</clustering>
</event>
<event>
10    4  0.3043429E-005  0.3189249E+03  0.7546771E-02  0.1125086E+00
          2   -1    0    0  503    0 -0.00000000000E+00  0.00000000000E+00  0.12501943234E+04  0.12501943234E+04  0.00000000000E+00 0. -1.
         21   -1    0    0  501  502  0.00000000000E+00 -0.00000000000E+00 -0.16337529322E+03  0.16337529322E+03  0.00000000000E+00 0. -1.
         24    2    1    2    0    0  0.26979756778E+02  0.26460933708E+02  0.15438929977E+03  0.17836239859E+03  0.80925898568E+02 0.  0.
         23    2    1    2    0    0 -0.14536438874E+03  0.25170746310E+03  0.80664638792E+03  0.86242490159E+03  0.92794737208E+02 0.  0.
        -13    1    3    3    0    0  0.49584459779E+02  0.36421165505E+02  0.86733822442E+02  0.10633849681E+03  0.00000000000E+00 0.  1.
         14    1    3    3    0    0 -0.22604703002E+02 -0.99602317971E+01  0.67655477325E+02  0.72023901778E+02  0.00000000000E+00 0. -1.
        -11    1    4    4    0    0 -0.14100735447E+03  0.18905316490E+03  0.69994448900E+03  0.73861117027E+03  0.00000000000E+00 0. -1.
         11    1    4    4    0    0 -0.43570342714E+01  0.62654298198E+02  0.10670189892E+03  0.12381373132E+03  0.00000000000E+00 0.  1.
         21    1    1    2  503  502 -0.78534364813E+01  0.22044754819E+02  0.18696877418E+02  0.29953645935E+02  0.00000000000E+00 0. -1.
          1    1    1    2  501    0  0.12623806844E+03 -0.30021315162E+03  0.10708646510E+03  0.34282867053E+03  0.00000000000E+00 0. -1.
<scales pt_clust_5="13000.00000" pt_clust_6="13000.00000" pt_clust_7="13000.00000" pt_clust_8="13000.00000" pt_clust_9="23.40187" pt_clust_10="305.12653"></scales>
<clustering>
<clus scale="   23.402">  2  9  1 -1</clus>
<clus scale="   80.926">  5  6 -1 -1</clus>
<clus scale="   89.648">  1  5  2 -1</clus>
<clus scale="   92.795">  7  8 -1 -1</clus>
<clus scale="  305.127">  2 10  1 -1</clus>
<clus scale="   23.402">  2  5  1 -1</clus>
</clustering>
</event>
<event>
10    4  0.3043429E-005  0.1402817E+03  0.7546771E-02  0.1214941E+00
         21   -1    0    0  501  502  0.00000000000E+00  0.00000000000E+00  0.16526501436E+03  0.16526501436E+03  0.00000000000E+00 0.  1.
          2   -1    0    0  503    0 -0.00000000000E+00 -0.00000000000E+00 -0.31768260062E+03  0.31768260062E+03  0.00000000000E+00 0. -1.
         24    2    1    2    0    0 -0.12281424934E+03 -0.35448943277E+02 -0.87711013869E+02  0.17457318956E+03  0.80265865333E+02 0.  0.
         23    2    1    2    0    0  0.82342830669E+02  0.16352431403E+02 -0.19036125249E+02  0.12428444326E+03  0.89646555965E+02 0.  0.
        -11    1    3    3    0    0 -0.11660124442E+03 -0.36276453425E+02 -0.43058743001E+02  0.12948315189E+03  0.00000000000E+00 0.  1.
         12    1    3    3    0    0 -0.62130049151E+01  0.82751014809E+00 -0.44652270869E+02  0.45090037667E+02  0.00000000000E+00 0. -1.
        -11    1    4    4    0    0  0.59574663266E+02 -0.23505863526E+02  0.16613672815E+02  0.66164040443E+02  0.00000000000E+00 0.  1.
         11    1    4    4    0    0  0.22768167403E+02  0.39858294929E+02 -0.35649798064E+02  0.58120402816E+02  0.00000000000E+00 0. -1.
         21    1    1    2  503  502  0.27648085647E+02 -0.14936582616E+02  0.62507497886E+02  0.69962171437E+02  0.00000000000E+00 0.  1.
          1    1    1    2  501    0  0.12823333022E+02  0.34033094490E+02 -0.10817794503E+03  0.11412781073E+03  0.00000000000E+00 0. -1.
<scales pt_clust_5="13000.00000" pt_clust_6="13000.00000" pt_clust_7="13000.00000" pt_clust_8="13000.00000" pt_clust_9="31.42480" pt_clust_10="36.25385"></scales>
<clustering>
<clus scale="   31.425">  1  9  2 -1</clus>
<clus scale="   36.254">  1 10  2 -1</clus>
<clus scale="   80.266">  5  6 -1 -1</clus>
<clus scale="   89.647">  7  8 -1 -1</clus>
<clus scale="  134.481">  2  5  1 -1</clus>
<clus scale="   31.425">  1  5  2 -1</clus>
</clustering>
</event>
<event>
10    4  0.3043429E-005  0.9134020E+02  0.7546771E-02  0.1306302E+00
         21   -1    0    0  503  502  0.00000000000E+00  0.00000000000E+00  0.64214036180E+02  0.64214036180E+02  0.00000000000E+00 0.  1.
          2   -1    0    0  502    0 -0.00000000000E+00 -0.00000000000E+00 -0.85686844708E+03  0.85686844708E+03  0.00000000000E+00 0. -1.
         24    2    1    2    0    0 -0.13716384219E+02 -0.39531439344E+01 -0.33806402192E+03  0.34774688626E+03  0.80229966014E+02 0.  0.
         23    2    1    2    0    0 -0.38687768417E+02  0.28645787571E+02 -0.14906520512E+03  0.18106499041E+03  0.90811732745E+02 0.  0.
        -11    1    3    3    0    0 -0.47060620415E+02 -0.93761103681E+00 -0.22285570319E+03  0.22777235467E+03  0.00000000000E+00 0.  1.
         12    1    3    3    0    0  0.33344236197E+02 -0.30155328976E+01 -0.11520831873E+03  0.11997453159E+03  0.00000000000E+00 0. -1.
        -13    1    4    4    0    0 -0.15999840031E+02  0.57888766343E+02 -0.61317953117E+02  0.85831203674E+02  0.00000000000E+00 0.  1.
         13    1    4    4    0    0 -0.22687928385E+02 -0.29242978772E+02 -0.87747252005E+02  0.95233786737E+02  0.00000000000E+00 0. -1.
         21    1    1    2  503  501 -0.99751690277E+00 -0.39732722882E+02  0.31497117068E+02  0.50712451047E+02  0.00000000000E+00 0.  1.
          1    1    1    2  501    0  0.53401669538E+02  0.15040079245E+02 -0.33702230093E+03  0.34155815554E+03  0.00000000000E+00 0. -1.
<scales pt_clust_5="13000.00000" pt_clust_6="13000.00000" pt_clust_7="13000.00000" pt_clust_8="13000.00000" pt_clust_9="39.74524" pt_clust_10="54.45559"></scales>
<clustering>
<clus scale="   39.745">  1  9  2 -1</clus>
<clus scale="   54.456">  1 10  2 -1</clus>
<clus scale="   80.230">  5  6 -1 -1</clus>
<clus scale="   80.828">  2  5  1 -1</clus>
<clus scale="   90.812">  7  8 -1 -1</clus>
<clus scale="   39.745">  1  5  2 -1</clus>
</clustering>
</event>
<event>
10    4  0.3043429E-005  0.9967888E+02  0.7546771E-02  0.1284475E+00
         21   -1    0    0  501  502  0.00000000000E+00  0.00000000000E+00  0.70464330214E+02  0.70464330214E+02  0.00000000000E+00 0.  1.
          2   -1    0    0  503    0 -0.00000000000E+00 -0.00000000000E+00 -0.42167998887E+03  0.42167998887E+03  0.00000000000E+00 0. -1.
         24    2    1    2    0    0  0.38098444040E+02 -0.39789488956E+02 -0.16596557816E+03  0.19234435638E+03  0.80106700266E+02 0.  0.
         23    2    1    2    0    0 -0.28323770320E+02  0.15454043305E+02 -0.41639375567E+02  0.10211285225E+03  0.87476474418E+02 0.  0.
        -13    1    3    3    0    0  0.59172072970E+02 -0.44487458393E+02 -0.14163404681E+03  0.15981449055E+03  0.00000000000E+00 0.  1.
         14    1    3    3    0    0 -0.21073628930E+02  0.46979694365E+01 -0.24331531346E+02  0.32529865827E+02  0.00000000000E+00 0. -1.
        -13    1    4    4    0    0  0.17974903324E+02  0.33873989810E+02 -0.34862056532E+02  0.51825739944E+02  0.00000000000E+00 0.  1.
         13    1    4    4    0    0 -0.46298673644E+02 -0.18419946504E+02 -0.67773190352E+01  0.50287112302E+02  0.00000000000E+00 0. -1.
         21    1    1    2  503  502  0.16713605464E+02 -0.27543596105E+02  0.97301438263E+01  0.33655162946E+02  0.00000000000E+00 0.  1.
          1    1    1    2  501    0 -0.26488279185E+02  0.51879041756E+02 -0.15334084875E+03  0.16403194751E+03  0.00000000000E+00 0. -1.
<scales pt_clust_5="13000.00000" pt_clust_6="13000.00000" pt_clust_7="13000.00000" pt_clust_8="13000.00000" pt_clust_9="32.21792" pt_clust_10="54.72894"></scales>
<clustering>
<clus scale="   32.218">  1  9  2 -1</clus>
<clus scale="   54.729">  1 10  2 -1</clus>
<clus scale="   80.107">  5  6 -1 -1</clus>
<clus scale="   87.476">  7  8 -1 -1</clus>
<clus scale="   93.278">  2  5  1 -1</clus>
<clus scale="   32.218">  1  5  2 -1</clus>
</clustering>
</event>
<event>
10    4  0.3043429E-005  0.1470878E+03  0.7546771E-02  0.1226311E+00
         21   -1    0    0  503  502  0.00000000000E+00  0.00000000000E+00  0.82723079800E+02  0.82723079800E+02  0.00000000000E+00 0.  1.
         -3   -1    0    0    0  501 -0.00000000000E+00 -0.00000000000E+00 -0.68860164067E+03  0.68860164067E+03  0.00000000000E+00 0.  1.
         24    2    1    2    0    0 -0.56398383056E+02  0.13406633579E+02 -0.27910242152E+02  0.10344900536E+03  0.81007404956E+02 0.  0.
         23    2    1    2    0    0  0.44647961461E+01 -0.12458097706E+03 -0.36841052968E+03  0.39993809064E+03  0.93186928905E+02 0.  0.
        -11    1    3    3    0    0 -0.64120548745E+02  0.20108611471E+02  0.65364000935E+01  0.67516853843E+02  0.00000000000E+00 0.  1.
         12    1    3    3    0    0  0.77221656887E+01 -0.67019778928E+01 -0.34446642246E+02  0.35932151517E+02  0.00000000000E+00 0. -1.
        -11    1    4    4    0    0 -0.33585913851E+02 -0.97411134290E+02 -0.19769305870E+03  0.22293382011E+03  0.00000000000E+00 0.  1.
         11    1    4    4    0    0  0.38050709997E+02 -0.27169842769E+02 -0.17071747099E+03  0.17700427053E+03  0.00000000000E+00 0. -1.
         21    1    1    2  503  501  0.28659895511E+02  0.56435139573E+01  0.31225040593E+01  0.29376672584E+02  0.00000000000E+00 0. -1.
         -4    1    1    2    0  502  0.23273691399E+02  0.10553082952E+03 -0.21268029310E+03  0.23856095188E+03  0.00000000000E+00 0.  1.
<scales pt_clust_5="13000.00000" pt_clust_6="13000.00000" pt_clust_7="13000.00000" pt_clust_8="13000.00000" pt_clust_9="29.21025" pt_clust_10="113.80257"></scales>
<clustering>
<clus scale="   29.210">  1  9  2 -1</clus>
<clus scale="   81.007">  5  6 -1 -1</clus>
<clus scale="   91.909">  2  5  1 -1</clus>
<clus scale="   93.187">  7  8 -1 -1</clus>
<clus scale="  113.803">  1 10  2 -1</clus>
<clus scale="   29.210">  1  5  2 -1</clus>
</clustering>
</event>
<event>
10    4  0.3043429E-005  0.4086705E+03  0.7546771E-02  0.1040818E+00
          2   -1    0    0  503    0 -0.00000000000E+00  0.00000000000E+00  0.22882187186E+04  0.22882187186E+04  0.00000000000E+00 0. -1.
         21   -1    0    0  501  502  0.00000000000E+00 -0.00000000000E+00 -0.84354424767E+02  0.84354424767E+02  0.00000000000E+00 0.  1.
         24    2    1    2    0    0  0.21725273509E+03  0.64705479853E+02  0.29843960448E+03  0.38346770581E+03  0.81214123473E+02 0.  0.
         23    2    1    2    0    0  0.10577412507E+03 -0.25937161619E+02  0.33551629610E+03  0.36409368719E+03  0.90178302368E+02 0.  0.
        -11    1    3    3    0    0  0.13896165200E+03  0.27338357574E+02  0.12229698465E+03  0.18712102762E+03  0.00000000000E+00 0.  1.
         12    1    3    3    0    0  0.78291083091E+02  0.37367122279E+02  0.17614261982E+03  0.19634667819E+03  0.00000000000E+00 0. -1.
        -13    1    4    4    0    0  0.11267086601E+03  0.79328100129E+00  0.28613200829E+03  0.30751728327E+03  0.00000000000E+00 0.  1.
         13    1    4    4    0    0 -0.68967409381E+01 -0.26730442621E+02  0.49384287804E+02  0.56576403917E+02  0.00000000000E+00 0. -1.
         21    1    1    2  503  502  0.22684768290E+02 -0.27795957303E+02  0.30095312057E+02  0.46828856089E+02  0.00000000000E+00 0.  1.
          1    1    1    2  501    0 -0.34571162845E+03 -0.10972360930E+02  0.15398130812E+04  0.15781828943E+04  0.00000000000E+00 0. -1.
<scales pt_clust_5="13000.00000" pt_clust_6="13000.00000" pt_clust_7="13000.00000" pt_clust_8="13000.00000" pt_clust_9="35.87776" pt_clust_10="340.46012"></scales>
<clustering>
<clus scale="   35.878">  2  9  1 -1</clus>
<clus scale="   81.214">  5  6 -1 -1</clus>
<clus scale="   90.178">  7  8 -1 -1</clus>
<clus scale="  124.576">  5  7 -1 -1</clus>
<clus scale="  340.460">  2 10  1 -1</clus>
<clus scale="   35.878">  2  5  1 -1</clus>
</clustering>
</event>
<event>
10    4  0.3043429E-005  0.1959253E+03  0.7546771E-02  0.1154107E+00
         21   -1    0    0  501  502  0.00000000000E+00  0.00000000000E+00  0.14907004570E+03  0.14907004570E+03  0.00000000000E+00 0. -1.
          2   -1    0    0  503    0 -0.00000000000E+00 -0.00000000000E+00 -0.45358008434E+03  0.45358008434E+03  0.00000000000E+00 0. -1.
         23    2    1    2    0    0  0.13912484454E+03 -0.92356962920E+02 -0.19340936765E+03  0.27093331496E+03  0.90067456318E+02 0.  0.
         24    2    1    2    0    0 -0.18383052671E+03  0.53636977546E+02 -0.91934875635E+02  0.22730959868E+03  0.80913808339E+02 0.  0.
        -13    1    4    4    0    0 -0.18919424264E+02  0.17425361078E+02  0.12689572479E+02  0.28681232067E+02  0.00000000000E+00 0.  1.
         14    1    4    4    0    0 -0.16491110245E+03  0.36211616468E+02 -0.10462444811E+03  0.19862836661E+03  0.00000000000E+00 0. -1.
        -13    1    3    3    0    0  0.67994383422E+02 -0.70050277656E+02 -0.16387585915E+03  0.19075003221E+03  0.00000000000E+00 0. -1.
         13    1    3    3    0    0  0.71130461122E+02 -0.22306685264E+02 -0.29533508502E+02  0.80183282743E+02  0.00000000000E+00 0.  1.
         21    1    1    2  503  502 -0.15163685201E+02  0.17148582296E+02  0.19391496137E+02  0.30000689093E+02  0.00000000000E+00 0. -1.
          1    1    1    2  501    0  0.59869367372E+02  0.21571403078E+02 -0.38557291485E+02  0.74406527314E+02  0.00000000000E+00 0. -1.
<scales pt_clust_5="13000.00000" pt_clust_6="13000.00000" pt_clust_7="13000.00000" pt_clust_8="13000.00000" pt_clust_9="22.89129" pt_clust_10="62.49401"></scales>
<clustering>
<clus scale="   22.891">  1  9  2 -1</clus>
<clus scale="   62.494">  1 10  2 -1</clus>
<clus scale="   80.914">  5  6 -1 -1</clus>
<clus scale="   90.067">  7  8 -1 -1</clus>
<clus scale="  191.890">  1  5  2 -1</clus>
<clus scale="   22.891">  1  5  2 -1</clus>
</clustering>
</event>
<event>
10    4  0.3043429E-005  0.1276315E+03  0.7546771E-02  0.1249810E+00
          2   -1    0    0  502    0 -0.00000000000E+00  0.00000000000E+00  0.92461430089E+03  0.92461430089E+03  0.00000000000E+00 0. -1.
         21   -1    0    0  503  502  0.00000000000E+00 -0.00000000000E+00 -0.35780047445E+02  0.35780047445E+02  0.00000000000E+00 0. -1.
         24    2    1    2    0    0 -0.21101900426E+02  0.42578316207E+02  0.14407783641E+03  0.16822615832E+03  0.72687097780E+02 0.  0.
         23    2    1    2    0    0  0.31328847285E+02  0.69397184945E+02  0.51427996359E+03  0.52768285970E+03  0.90376177811E+02 0.  0.
        -11    1    3    3    0    0 -0.17111806064E+02 -0.18213987040E+02  0.31385295480E+02  0.40119820576E+02  0.00000000000E+00 0.  1.
         12    1    3    3    0    0 -0.39900943615E+01  0.60792303248E+02  0.11269254093E+03  0.12810633774E+03  0.00000000000E+00 0. -1.
        -13    1    4    4    0    0  0.29660840016E+02 -0.12123505878E+02  0.87474902126E+02  0.93159021717E+02  0.00000000000E+00 0.  1.
         13    1    4    4    0    0  0.16680072691E+01  0.81520690823E+02  0.42680506147E+03  0.43452383798E+03  0.00000000000E+00 0. -1.
         21    1    1    2  503  501 -0.28385775414E+02 -0.17565251692E+02  0.52841198010E+02  0.62501860132E+02  0.00000000000E+00 0.  1.
          1    1    1    2  501    0  0.18158828554E+02 -0.94410249460E+02  0.17763525542E+03  0.20198347018E+03  0.00000000000E+00 0. -1.
<scales pt_clust_5="13000.00000" pt_clust_6="13000.00000" pt_clust_7="13000.00000" pt_clust_8="13000.00000" pt_clust_9="33.38099" pt_clust_10="90.12184"></scales>
<clustering>
<clus scale="   33.381">  2  9  1 -1</clus>
<clus scale="   72.687">  5  6 -1 -1</clus>
<clus scale="   87.149">  1  5  2 -1</clus>
<clus scale="   90.122">  2 10  1 -1</clus>
<clus scale="   90.376">  7  8 -1 -1</clus>
<clus scale="   33.381">  2  5  1 -1</clus>
</clustering>
</event>
<event>
10    4  0.3043429E-005  0.2533903E+03  0.7546771E-02  0.1149347E+00
          2   -1    0    0  502    0 -0.00000000000E+00  0.00000000000E+00  0.14322249104E+04  0.14322249104E+04  0.00000000000E+00 0. -1.
         21   -1    0    0  503  502  0.00000000000E+00 -0.00000000000E+00 -0.97638192406E+02  0.97638192406E+02  0.00000000000E+00 0.  1.
         24    2    1    2    0    0  0.15884287591E+02 -0.54087188746E+02  0.32263332674E+03  0.33725205367E+03  0.80429780588E+02 0.  0.
         23    2    1    2    0    0  0.14237476166E+03  0.11857517413E+03  0.15021045489E+03  0.25567748164E+03  0.92071435206E+02 0.  0.
        -13    1    3    3    0    0  0.30154328657E+02  0.62936634402E+01  0.60677463608E+02  0.68048867193E+02  0.00000000000E+00 0.  1.
         14    1    3    3    0    0 -0.14270041066E+02 -0.60380852186E+02  0.26195586313E+03  0.26920318648E+03  0.00000000000E+00 0. -1.
        -13    1    4    4    0    0  0.23223634322E+02 -0.15110560653E+02  0.23103809539E+02  0.36075646212E+02  0.00000000000E+00 0. -1.
         13    1    4    4    0    0  0.11915112734E+03  0.13368573479E+03  0.12710664535E+03  0.21960183543E+03  0.00000000000E+00 0.  1.
         21    1    1    2  503  501  0.93506185170E+02  0.12898728510E+02  0.14199878908E+03  0.17050935447E+03  0.00000000000E+00 0.  1.
          1    1    1    2  501    0 -0.25176523442E+03 -0.77386713896E+02  0.71974414724E+03  0.76642421298E+03  0.00000000000E+00 0. -1.
<scales pt_clust_5="13000.00000" pt_clust_6="13000.00000" pt_clust_7="13000.00000" pt_clust_8="13000.00000" pt_clust_9="94.39165" pt_clust_10="236.07105"></scales>
<clustering>
<clus scale="   80.430">  5  6 -1 -1</clus>
<clus scale="   92.071">  7  8 -1 -1</clus>
<clus scale="   94.392">  2  9  1 -1</clus>
<clus scale="   99.263">  1  5  2 -1</clus>
<clus scale="  236.071">  2 10  1 -1</clus>
<clus scale="   94.392">  2  5  1 -1</clus>
</clustering>
</event>
<event>
10    4  0.3043429E-005  0.1830512E+03  0.7546771E-02  0.1187773E+00
          2   -1    0    0  503    0 -0.00000000000E+00  0.00000000000E+00  0.48610993506E+03  0.48610993506E+03  0.00000000000E+00 0. -1.
         21   -1    0    0  501  502  0.00000000000E+00 -0.00000000000E+00 -0.19105396218E+03  0.19105396218E+03  0.00000000000E+00 0.  1.
         23    2    1    2    0    0 -0.26418411682E+02 -0.46917433461E+02 -0.20973471507E+02  0.10611649121E+03  0.89003624430E+02 0.  0.
         24    2    1    2    0    0 -0.28302995699E+02 -0.10874532305E+03  0.32153008165E+03  0.35034466127E+03  0.82055977374E+02 0.  0.
        -11    1    4    4    0    0 -0.87967999489E+01 -0.10872725727E+03  0.30761675842E+03  0.32638484987E+03  0.00000000000E+00 0.  1.
         12    1    4    4    0    0 -0.19506195751E+02 -0.18065783101E-01  0.13913323227E+02  0.23959811399E+02  0.00000000000E+00 0. -1.
        -13    1    3    3    0    0 -0.56509845378E+02 -0.39369431566E+02 -0.27934857186E+02  0.74321403461E+02  0.00000000000E+00 0. -1.
         13    1    3    3    0    0  0.30091433696E+02 -0.75480018952E+01  0.69613856787E+01  0.31795087750E+02  0.00000000000E+00 0.  1.
         21    1    1    2  503  502 -0.54421264445E+01 -0.24473554862E+02 -0.17233252371E+02  0.30422961971E+02  0.00000000000E+00 0.  1.
          1    1    1    2  501    0  0.60163533826E+02  0.18013631137E+03  0.11732615111E+02  0.19027978278E+03  0.00000000000E+00 0. -1.
<scales pt_clust_5="13000.00000" pt_clust_6="13000.00000" pt_clust_7="13000.00000" pt_clust_8="13000.00000" pt_clust_9="25.07133" pt_clust_10="163.62930"></scales>
<clustering>
<clus scale="   25.071">  2  9  1 -1</clus>
<clus scale="   82.056">  5  6 -1 -1</clus>
<clus scale="   89.004">  7  8 -1 -1</clus>
<clus scale="  109.057">  1  7  2 -1</clus>
<clus scale="  163.629">  2 10  1 -1</clus>
<clus scale="   25.071">  2  5  1 -1</clus>
</clustering>
</event>
<event>
10    4  0.3043429E-005  0.3405436E+03  0.7546771E-02  0.1066565E+00
         21   -1    0    0  503  502  0.00000000000E+00  0.00000000000E+00  0.83016414049E+02  0.83016414049E+02  0.00000000000E+00 0. -1.
          2   -1    0    0  502    0 -0.00000000000E+00 -0.00000000000E+00 -0.16667446639E+04  0.16667446639E+04  0.00000000000E+00 0. -1.
         24    2    1    2    0    0  0.83770077050E+01  0.44288916478E+02 -0.26142453426E+03  0.27753273029E+03  0.81547206502E+02 0.  0.
         23    2    1    2    0    0 -0.32569354922E+02  0.23671426528E+03 -0.79778558498E+03  0.83767860171E+03  0.90272885688E+02 0.  0.
        -13    1    3    3    0    0 -0.36544164937E+02  0.14890429052E+02 -0.11411960368E+03  0.12074967831E+03  0.00000000000E+00 0.  1.
         14    1    3    3    0    0  0.44921172642E+02  0.29398487426E+02 -0.14730493057E+03  0.15678305197E+03  0.00000000000E+00 0. -1.
        -13    1    4    4    0    0  0.19893213326E+02  0.14406363099E+03 -0.52742233953E+03  0.54710546875E+03  0.00000000000E+00 0.  1.
         13    1    4    4    0    0 -0.52462568249E+02  0.92650634296E+02 -0.27036324545E+03  0.29057313295E+03  0.00000000000E+00 0. -1.
         21    1    1    2  503  501 -0.22229609322E+01 -0.21809801140E+02  0.20781059227E+02  0.30206976076E+02  0.00000000000E+00 0. -1.
          1    1    1    2  501    0  0.26415308149E+02 -0.25919338062E+03 -0.54529918983E+03  0.60434276986E+03  0.00000000000E+00 0. -1.
<scales pt_clust_5="13000.00000" pt_clust_6="13000.00000" pt_clust_7="13000.00000" pt_clust_8="13000.00000" pt_clust_9="21.92280" pt_clust_10="271.56536"></scales>
<clustering>
<clus scale="   21.923">  1  9  2 -1</clus>
<clus scale="   81.547">  5  6 -1 -1</clus>
<clus scale="   90.273">  7  8 -1 -1</clus>
<clus scale="   91.380">  5  7 -1 -1</clus>
<clus scale="  271.565">  1 10  2 -1</clus>
<clus scale="   21.923">  1  5  2 -1</clus>
</clustering>
</event>
<event>
10    4  0.3043429E-005  0.1398006E+03  0.7546771E-02  0.1214786E+00
          2   -1    0    0  502    0 -0.00000000000E+00  0.00000000000E+00  0.78957917131E+03  0.78957917131E+03  0.00000000000E+00 0. -1.
         21   -1    0    0  503  502  0.00000000000E+00 -0.00000000000E+00 -0.14773749492E+03  0.14773749492E+03  0.00000000000E+00 0.  1.
         24    2    1    2    0    0  0.12755427141E+02 -0.97272217784E+02  0.38653666335E+03  0.40958290852E+03  0.93396903362E+02 0.  0.
         23    2    1    2    0    0  0.29651789778E+02  0.10121860543E+03  0.36756542125E+03  0.39485689902E+03  0.98403237167E+02 0.  0.
        -13    1    3    3    0    0 -0.13834835396E+02 -0.82804831203E+02  0.15679822945E+03  0.17785872905E+03  0.00000000000E+00 0.  1.
         14    1    3    3    0    0  0.26590262537E+02 -0.14467386581E+02  0.22973843390E+03  0.23172417946E+03  0.00000000000E+00 0. -1.
        -13    1    4    4    0    0  0.64075925264E+02  0.62365945253E+02  0.26878632793E+03  0.28326899831E+03  0.00000000000E+00 0. -1.
         13    1    4    4    0    0 -0.34424135486E+02  0.38852660173E+02  0.98779093323E+02  0.11158790071E+03  0.00000000000E+00 0.  1.
         21    1    1    2  503  501 -0.12903407449E+02  0.20874210663E+02 -0.76317590338E+02  0.80166109982E+02  0.00000000000E+00 0.  1.
          1    1    1    2  501    0 -0.29503809470E+02 -0.24820598306E+02 -0.35942817873E+02  0.52710748715E+02  0.00000000000E+00 0. -1.
<scales pt_clust_5="13000.00000" pt_clust_6="13000.00000" pt_clust_7="13000.00000" pt_clust_8="13000.00000" pt_clust_9="24.54039" pt_clust_10="39.44938"></scales>
<clustering>
<clus scale="   24.540">  2  9  1 -1</clus>
<clus scale="   39.449">  2 10  1 -1</clus>
<clus scale="   93.397">  5  6 -1 -1</clus>
<clus scale="   98.403">  7  8 -1 -1</clus>
<clus scale="  136.323">  1  5  2 -1</clus>
<clus scale="   24.540">  2  5  1 -1</clus>
</clustering>
</event>
<event>
10    4  0.3043429E-005  0.9829397E+02  0.7546771E-02  0.1292899E+00
          2   -1    0    0  502    0 -0.00000000000E+00  0.00000000000E+00  0.79539393842E+02  0.79539393842E+02  0.00000000000E+00 0. -1.
         21   -1    0    0  503  502  0.00000000000E+00 -0.00000000000E+00 -0.27062954529E+03  0.27062954529E+03  0.00000000000E+00 0. -1.
         23    2    1    2    0    0 -0.10878695957E+02 -0.29085275797E+02 -0.19425890009E+02  0.10178794838E+03  0.94969057795E+02 0.  0.
         24    2    1    2    0    0 -0.42670460253E+01  0.16316661901E+02 -0.10194191985E+03  0.13012069085E+03  0.79087281078E+02 0.  0.
        -11    1    4    4    0    0  0.33707235888E+02 -0.16691702662E+01 -0.68704423065E+02  0.76545813924E+02  0.00000000000E+00 0.  1.
         12    1    4    4    0    0 -0.37974281913E+02  0.17985832167E+02 -0.33237496784E+02  0.53574876930E+02  0.00000000000E+00 0. -1.
        -13    1    3    3    0    0 -0.48118631302E+02 -0.33985180357E+02  0.12282549435E+01  0.58922862901E+02  0.00000000000E+00 0.  1.
         13    1    3    3    0    0  0.37239935345E+02  0.48999045599E+01 -0.20654144953E+02  0.42865085477E+02  0.00000000000E+00 0. -1.
         21    1    1    2  503  501 -0.30659367778E+00 -0.20517764456E+02 -0.77988287811E+02  0.80642703908E+02  0.00000000000E+00 0. -1.
          1    1    1    2  501    0  0.15452335660E+02  0.33286378352E+02  0.82659462232E+01  0.37617595990E+02  0.00000000000E+00 0. -1.
<scales pt_clust_5="13000.00000" pt_clust_6="13000.00000" pt_clust_7="13000.00000" pt_clust_8="13000.00000" pt_clust_9="20.52006" pt_clust_10="35.26654"></scales>
<clustering>
<clus scale="   20.520">  2  9  1 -1</clus>
<clus scale="   35.267">  2 10  1 -1</clus>
<clus scale="   79.087">  5  6 -1 -1</clus>
<clus scale="   83.050">  2  5  1 -1</clus>
<clus scale="   94.969">  7  8 -1 -1</clus>
<clus scale="   20.520">  2  5  1 -1</clus>
</clustering>
</event>
<event>
10    4  0.3043429E-005  0.3159618E+03  0.7546771E-02  0.1098505E+00
         -1   -1    0    0    0  501 -0.00000000000E+00  0.00000000000E+00  0.12502943063E+04  0.12502943063E+04  0.00000000000E+00 0.  1.
         21   -1    0    0  501  502  0.00000000000E+00 -0.00000000000E+00 -0.69893256019E+03  0.69893256019E+03  0.00000000000E+00 0. -1.
         24    2    1    2    0    0  0.95922781458E+02  0.13255304880E+03  0.26268346782E+03  0.31903811646E+03  0.77532088438E+02 0.  0.
         23    2    1    2    0    0 -0.34655800725E+03  0.25438169796E+03  0.45717164670E+03  0.63534656088E+03  0.99231231153E+02 0.  0.
        -11    1    3    3    0    0  0.88077788606E+02  0.95137593865E+02  0.14125378952E+03  0.19173286538E+03  0.00000000000E+00 0.  1.
         12    1    3    3    0    0  0.78449928526E+01  0.37415454939E+02  0.12142967829E+03  0.12730525108E+03  0.00000000000E+00 0. -1.
        -13    1    4    4    0    0 -0.30102318500E+03  0.19959562126E+03  0.32828438690E+03  0.48808196916E+03  0.00000000000E+00 0.  1.
         13    1    4    4    0    0 -0.45534822242E+02  0.54786076703E+02  0.12888725980E+03  0.14726459172E+03  0.00000000000E+00 0. -1.
         21    1    1    2  503  502  0.10037104627E+03 -0.20249435333E+03 -0.52195016629E+03  0.56877964639E+03  0.00000000000E+00 0. -1.
         -2    1    1    2    0  503  0.15026417951E+03 -0.18444039343E+03  0.35345679785E+03  0.42606254273E+03  0.00000000000E+00 0.  1.
<scales pt_clust_5="13000.00000" pt_clust_6="13000.00000" pt_clust_7="13000.00000" pt_clust_8="13000.00000" pt_clust_9="224.17421" pt_clust_10="299.97515"></scales>
<clustering>
<clus scale="   77.532">  5  6 -1 -1</clus>
<clus scale="   99.231">  7  8 -1 -1</clus>
<clus scale="  181.060">  1  5  2 -1</clus>
<clus scale="  224.174">  2  9  1 -1</clus>
<clus scale="  299.975">  2 10  1 -1</clus>
<clus scale="  224.174">  2  5  1 -1</clus>
</clustering>
</event>
<event>
10    4  0.3043429E-005  0.1450737E+03  0.7546771E-02  0.1227398E+00
         21   -1    0    0  503  502  0.00000000000E+00  0.00000000000E+00  0.77641137777E+03  0.77641137777E+03  0.00000000000E+00 0. -1.
         -3   -1    0    0    0  501 -0.00000000000E+00 -0.00000000000E+00 -0.11783324504E+03  0.11783324504E+03  0.00000000000E+00 0.  1.
         23    2    1    2    0    0  0.45356125720E+01 -0.26043162246E+02 -0.61801806504E+02  0.11197207057E+03  0.89551455706E+02 0.  0.
         24    2    1    2    0    0  0.89532191627E+02  0.98269956839E+02  0.29822501608E+03  0.33658427977E+03  0.81717925918E+02 0.  0.
        -13    1    4    4    0    0  0.55671350655E+02  0.55693047806E+01  0.86952280633E+02  0.10339736721E+03  0.00000000000E+00 0.  1.
         14    1    4    4    0    0  0.33860840973E+02  0.92700652058E+02  0.21127273545E+03  0.23318691255E+03  0.00000000000E+00 0. -1.
        -13    1    3    3    0    0  0.45091020028E+02 -0.26477727670E+02 -0.40636619860E+02  0.66223900696E+02  0.00000000000E+00 0.  1.
         13    1    3    3    0    0 -0.40555407456E+02  0.43456542423E+00 -0.21165186643E+02  0.45748169872E+02  0.00000000000E+00 0. -1.
         21    1    1    2  503  501  0.10355417044E+02 -0.24590921545E+02  0.10723837371E+03  0.11050799465E+03  0.00000000000E+00 0. -1.
         -4    1    1    2    0  502 -0.10442322124E+03 -0.47635873048E+02  0.31491654944E+03  0.33518027783E+03  0.00000000000E+00 0.  1.
<scales pt_clust_5="13000.00000" pt_clust_6="13000.00000" pt_clust_7="13000.00000" pt_clust_8="13000.00000" pt_clust_9="26.68236" pt_clust_10="119.86897"></scales>
<clustering>
<clus scale="   26.682">  1  9  2 -1</clus>
<clus scale="   81.718">  5  6 -1 -1</clus>
<clus scale="   89.551">  7  8 -1 -1</clus>
<clus scale="   93.653">  2  7  1 -1</clus>
<clus scale="  119.869">  1 10  2 -1</clus>
<clus scale="   26.682">  1  5  2 -1</clus>
</clustering>
</event>
<event>
10    4  0.3043429E-005  0.2049260E+03  0.7546771E-02  0.1160926E+00
         21   -1    0    0  503  502  0.00000000000E+00  0.00000000000E+00  0.13730457645E+03  0.13730457645E+03  0.00000000000E+00 0.  1.
          2   -1    0    0  502    0 -0.00000000000E+00 -0.00000000000E+00 -0.19976605720E+04  0.19976605720E+04  0.00000000000E+00 0. -1.
         23    2    1    2    0    0 -0.74650537431E+02 -0.68771210760E+02 -0.44753010788E+03  0.46727295088E+03  0.88083091440E+02 0.  0.
         24    2    1    2    0    0  0.17931341051E+03  0.61535955835E+02 -0.19821528569E+03  0.28605669130E+03  0.81235202400E+02 0.  0.
        -11    1    4    4    0    0  0.13592112111E+03  0.63864543157E+01 -0.12979869027E+03  0.18805062605E+03  0.00000000000E+00 0.  1.
         12    1    4    4    0    0  0.43392289398E+02  0.55149501519E+02 -0.68416595418E+02  0.98006065249E+02  0.00000000000E+00 0. -1.
        -13    1    3    3    0    0 -0.13609034398E+02 -0.71630743711E+02 -0.26062277810E+03  0.27062963941E+03  0.00000000000E+00 0. -1.
         13    1    3    3    0    0 -0.61041503033E+02  0.28595329515E+01 -0.18690732978E+03  0.19664331147E+03  0.00000000000E+00 0.  1.
         21    1    1    2  503  501  0.27138456503E+02 -0.11809870179E+03  0.29160824746E+02  0.12463608180E+03  0.00000000000E+00 0.  1.
          1    1    1    2  501    0 -0.13180132958E+03  0.12533395672E+03 -0.12437714268E+04  0.12569994245E+04  0.00000000000E+00 0. -1.
<scales pt_clust_5="13000.00000" pt_clust_6="13000.00000" pt_clust_7="13000.00000" pt_clust_8="13000.00000" pt_clust_9="121.17673" pt_clust_10="188.13698"></scales>
<clustering>
<clus scale="   81.235">  5  6 -1 -1</clus>
<clus scale="   88.083">  7  8 -1 -1</clus>
<clus scale="  121.177">  1  9  2 -1</clus>
<clus scale="  142.987">  2  7  1 -1</clus>
<clus scale="  188.137">  1 10  2 -1</clus>
<clus scale="  121.177">  1  5  2 -1</clus>
</clustering>
</event>
<event>
10    4  0.3043429E-005  0.1844268E+03  0.7546771E-02  0.1189527E+00
         21   -1    0    0  503  502  0.00000000000E+00  0.00000000000E+00  0.73273306049E+02  0.73273306049E+02  0.00000000000E+00 0.  1.
         -3   -1    0    0    0  501 -0.00000000000E+00 -0.00000000000E+00 -0.14299363501E+04  0.14299363501E+04  0.00000000000E+00 0.  1.
         24    2    1    2    0    0  0.22646126182E+02  0.71679045074E+02 -0.65849289619E+02  0.12833985975E+03  0.80524891337E+02 0.  0.
         23    2    1    2    0    0 -0.17894179628E+03 -0.89194674704E+02 -0.10261248236E+04  0.10490528626E+04  0.87200335315E+02 0.  0.
        -11    1    3    3    0    0 -0.19506833392E+02  0.25911750499E+02  0.63280660435E+01  0.33045117381E+02  0.00000000000E+00 0.  1.
         12    1    3    3    0    0  0.42152959574E+02  0.45767294575E+02 -0.72177355663E+02  0.95294742374E+02  0.00000000000E+00 0. -1.
        -11    1    4    4    0    0 -0.13956314931E+03 -0.95237897025E+02 -0.92608224345E+03  0.94136945527E+03  0.00000000000E+00 0.  1.
         11    1    4    4    0    0 -0.39378646965E+02  0.60432223218E+01 -0.10004258016E+03  0.10768340735E+03  0.00000000000E+00 0. -1.
         21    1    1    2  503  501  0.11355630457E+02 -0.30485927797E+02 -0.22634879474E+02  0.39631804217E+02  0.00000000000E+00 0.  1.
         -4    1    1    2    0  502  0.14494003964E+03  0.48001557427E+02 -0.24205405132E+03  0.28618512953E+03  0.00000000000E+00 0.  1.
<scales pt_clust_5="13000.00000" pt_clust_6="13000.00000" pt_clust_7="13000.00000" pt_clust_8="13000.00000" pt_clust_9="32.53217" pt_clust_10="162.50947"></scales>
<clustering>
<clus scale="   32.532">  1  9  2 -1</clus>
<clus scale="   80.525">  5  6 -1 -1</clus>
<clus scale="   87.200">  7  8 -1 -1</clus>
<clus scale="  102.573">  2  5  1 -1</clus>
<clus scale="  162.509">  1 10  2 -1</clus>
<clus scale="   32.532">  1  5  2 -1</clus>
</clustering>
</event>
<event>
10    4  0.3043429E-005  0.1051114E+03  0.7546771E-02  0.1279394E+00
         21   -1    0    0  501  502  0.00000000000E+00  0.00000000000E+00  0.48607680193E+03  0.48607680193E+03  0.00000000000E+00 0. -1.
          4   -1    0    0  503    0 -0.00000000000E+00 -0.00000000000E+00 -0.39653575091E+03  0.39653575091E+03  0.00000000000E+00 0. -1.
         24    2    1    2    0    0 -0.41961752666E+02 -0.37549255339E+02 -0.32988028807E+03  0.34229180874E+03  0.71916219357E+02 0.  0.
         23    2    1    2    0    0 -0.24348894148E+02  0.24850668850E+02  0.35090474891E+00  0.98778249107E+02  0.92447795939E+02 0.  0.
        -11    1    3    3    0    0 -0.13531093448E+02 -0.51374622890E+02 -0.13891392672E+03  0.14872633057E+03  0.00000000000E+00 0.  1.
         12    1    3    3    0    0 -0.28430659219E+02  0.13825367551E+02 -0.19096636135E+03  0.19356547817E+03  0.00000000000E+00 0. -1.
        -13    1    4    4    0    0  0.30534133600E+01 -0.30620378055E+02  0.16387145699E+02  0.34863583143E+02  0.00000000000E+00 0. -1.
         13    1    4    4    0    0 -0.27402307508E+02  0.55471046905E+02 -0.16036240950E+02  0.63914665965E+02  0.00000000000E+00 0.  1.
         21    1    1    2  503  502 -0.29923723403E+02  0.28755795966E+02  0.12606945178E+03  0.13272464615E+03  0.00000000000E+00 0. -1.
          3    1    1    2  501    0  0.96234370217E+02 -0.16057209478E+02  0.29300098256E+03  0.30881784885E+03  0.00000000000E+00 0. -1.
<scales pt_clust_5="13000.00000" pt_clust_6="13000.00000" pt_clust_7="13000.00000" pt_clust_8="13000.00000" pt_clust_9="41.50090" pt_clust_10="71.46180"></scales>
<clustering>
<clus scale="   41.501">  1  9  2 -1</clus>
<clus scale="   71.462">  1 10  2 -1</clus>
<clus scale="   71.916">  5  6 -1 -1</clus>
<clus scale="   87.600">  2  5  1 -1</clus>
<clus scale="   92.448">  7  8 -1 -1</clus>
<clus scale="   41.501">  1  5  2 -1</clus>
</clustering>
</event>
<event>
10    4  0.3043429E-005  0.9118224E+02  0.7546771E-02  0.1304146E+00
          4   -1    0    0  503    0 -0.00000000000E+00  0.00000000000E+00  0.21312034800E+03  0.21312034800E+03  0.00000000000E+00 0. -1.
         21   -1    0    0  501  502  0.00000000000E+00 -0.00000000000E+00 -0.17601030754E+03  0.17601030754E+03  0.00000000000E+00 0. -1.
         24    2    1    2    0    0  0.12929088629E+02  0.11032073393E+02  0.13469329016E+03  0.15979131504E+03  0.84274040906E+02 0.  0.
         23    2    1    2    0    0  0.17651447970E+02  0.18218896706E+02  0.22624709301E+02  0.97102663463E+02  0.90959045553E+02 0.  0.
        -13    1    3    3    0    0 -0.24580414845E+00 -0.33406763630E+02  0.28460386023E+02  0.43886966726E+02  0.00000000000E+00 0.  1.
         14    1    3    3    0    0  0.13174892778E+02  0.44438837023E+02  0.10623290414E+03  0.11590434831E+03  0.00000000000E+00 0. -1.
        -11    1    4    4    0    0  0.32850272927E+02 -0.15446717925E+02  0.41900440568E+02  0.55438149732E+02  0.00000000000E+00 0. -1.
         11    1    4    4    0    0 -0.15198824957E+02  0.33665614631E+02 -0.19275731267E+02  0.41664513730E+02  0.00000000000E+00 0.  1.
         21    1    1    2  503  502 -0.15592562425E+02 -0.12609690090E+02 -0.16013552845E+02  0.25662543948E+02  0.00000000000E+00 0. -1.
          3    1    1    2  501    0 -0.14987974174E+02 -0.16641280009E+02 -0.10419440615E+03  0.10657413309E+03  0.00000000000E+00 0. -1.
<scales pt_clust_5="13000.00000" pt_clust_6="13000.00000" pt_clust_7="13000.00000" pt_clust_8="13000.00000" pt_clust_9="20.05324" pt_clust_10="35.90971"></scales>
<clustering>
<clus scale="   20.053">  2  9  1 -1</clus>
<clus scale="   35.910">  2 10  1 -1</clus>
<clus scale="   84.274">  5  6 -1 -1</clus>
<clus scale="   84.515">  1  5  2 -1</clus>
<clus scale="   90.959">  7  8 -1 -1</clus>
<clus scale="   20.053">  2  5  1 -1</clus>
</clustering>
</event>
<event>
10    4  0.3043429E-005  0.2901965E+03  0.7546771E-02  0.1114811E+00
         21   -1    0    0  503  502  0.00000000000E+00  0.00000000000E+00  0.21473818219E+03  0.21473818219E+03  0.00000000000E+00 0. -1.
          2   -1    0    0  502    0 -0.00000000000E+00 -0.00000000000E+00 -0.85086004567E+03  0.85086004567E+03  0.00000000000E+00 0. -1.
         24    2    1    2    0    0  0.90815069037E+02  0.74749977848E+02 -0.20771167575E+03  0.25849374652E+03  0.99196475718E+02 0.  0.
         23    2    1    2    0    0 -0.26340545175E+02 -0.32873119271E+03 -0.40879705808E+03  0.53329825616E+03  0.92379510414E+02 0.  0.
        -13    1    3    3    0    0  0.28661256524E+02  0.59809507665E+02 -0.36422912693E+02  0.75665536420E+02  0.00000000000E+00 0.  1.
         14    1    3    3    0    0  0.62153812513E+02  0.14940470183E+02 -0.17128876306E+03  0.18282821010E+03  0.00000000000E+00 0. -1.
        -13    1    4    4    0    0 -0.53736889082E+02 -0.22762543285E+03 -0.31750438095E+03  0.39434759141E+03  0.00000000000E+00 0. -1.
         13    1    4    4    0    0  0.27396343906E+02 -0.10110575986E+03 -0.91292677137E+02  0.13895066475E+03  0.00000000000E+00 0.  1.
         21    1    1    2  503  501 -0.19654485251E+02  0.26952414906E+02  0.20197962795E+02  0.38996014679E+02  0.00000000000E+00 0. -1.
          1    1    1    2  501    0 -0.44820038610E+02  0.22702879996E+03 -0.39811092442E+02  0.23481021050E+03  0.00000000000E+00 0. -1.
<scales pt_clust_5="13000.00000" pt_clust_6="13000.00000" pt_clust_7="13000.00000" pt_clust_8="13000.00000" pt_clust_9="29.21669" pt_clust_10="285.66031"></scales>
<clustering>
<clus scale="   29.217">  9 10 -1 -1</clus>
<clus scale="   92.380">  7  8 -1 -1</clus>
<clus scale="   99.196">  5  6 -1 -1</clus>
<clus scale="  153.866">  2  5  1 -1</clus>
<clus scale="  285.660">  1  9  2 -1</clus>
<clus scale="  285.660">  1  5  2 -1</clus>
</clustering>
</event>
<event>
10    4  0.3043429E-005  0.2325536E+03  0.7546771E-02  0.1154246E+00
         21   -1    0    0  501  502  0.00000000000E+00  0.00000000000E+00  0.42223209527E+03  0.42223209527E+03  0.00000000000E+00 0. -1.
          2   -1    0    0  503    0 -0.00000000000E+00 -0.00000000000E+00 -0.33389540225E+03  0.33389540225E+03  0.00000000000E+00 0. -1.
         24    2    1    2    0    0 -0.72240446178E+02 -0.27975846750E+02 -0.22811815609E+02  0.11160770215E+03  0.77036161525E+02 0.  0.
         23    2    1    2    0    0 -0.10369733171E+03 -0.14097885046E+03  0.77602451887E+02  0.21188761688E+03  0.90807757194E+02 0.  0.
        -13    1    3    3    0    0 -0.76163076891E+00 -0.32302366654E+02  0.85624322612E+01  0.33426609447E+02  0.00000000000E+00 0.  1.
         14    1    3    3    0    0 -0.71478815410E+02  0.43265199046E+01 -0.31374247871E+02  0.78181092703E+02  0.00000000000E+00 0. -1.
        -13    1    4    4    0    0 -0.56209571739E+02 -0.36993880436E+02 -0.97827869498E+01  0.67998279870E+02  0.00000000000E+00 0.  1.
         13    1    4    4    0    0 -0.47487759969E+02 -0.10398497002E+03  0.87385238837E+02  0.14388933701E+03  0.00000000000E+00 0. -1.
         21    1    1    2  503  502 -0.49545665213E+02  0.51811214636E+00  0.12679922804E+03  0.13613627589E+03  0.00000000000E+00 0. -1.
          1    1    1    2  501    0  0.22548344310E+03  0.16843658506E+03 -0.93253171295E+02  0.29649590260E+03  0.00000000000E+00 0. -1.
<scales pt_clust_5="13000.00000" pt_clust_6="13000.00000" pt_clust_7="13000.00000" pt_clust_8="13000.00000" pt_clust_9="49.54837" pt_clust_10="214.09154"></scales>
<clustering>
<clus scale="   49.548">  1  9  2 -1</clus>
<clus scale="   77.036">  5  6 -1 -1</clus>
<clus scale="   90.808">  7  8 -1 -1</clus>
<clus scale="  114.376">  2  5  1 -1</clus>
<clus scale="  214.092">  1 10  2 -1</clus>
<clus scale="   49.548">  1  5  2 -1</clus>
</clustering>
</event>
<event>
10    4  0.3043429E-005  0.4134632E+03  0.7546771E-02  0.1097942E+00
          2   -1    0    0  503    0 -0.00000000000E+00  0.00000000000E+00  0.82622203749E+03  0.82622203749E+03  0.00000000000E+00 0. -1.
         21   -1    0    0  501  502  0.00000000000E+00 -0.00000000000E+00 -0.33373519358E+03  0.33373519358E+03  0.00000000000E+00 0.  1.
         24    2    1    2    0    0  0.11428386489E+02 -0.52947311059E+01  0.94927228487E+02  0.12493050186E+03  0.80235960711E+02 0.  0.
         23    2    1    2    0    0 -0.36297321249E+03  0.18144723799E+03  0.30136741599E+02  0.41636564898E+03  0.88201345218E+02 0.  0.
        -13    1    3    3    0    0  0.36677853384E+02  0.22307882707E+02  0.41503424548E+02  0.59711312235E+02  0.00000000000E+00 0.  1.
         14    1    3    3    0    0 -0.25249466895E+02 -0.27602613813E+02  0.53423803940E+02  0.65219189624E+02  0.00000000000E+00 0. -1.
        -13    1    4    4    0    0 -0.28591180661E+03  0.16033750654E+03  0.55648292662E+02  0.33249121739E+03  0.00000000000E+00 0.  1.
         13    1    4    4    0    0 -0.77061405877E+02  0.21109731455E+02 -0.25511551063E+02  0.83874431596E+02  0.00000000000E+00 0. -1.
         21    1    1    2  503  502 -0.39441976439E+02 -0.68057432316E+02  0.12006842920E+03  0.14354062592E+03  0.00000000000E+00 0. -1.
          1    1    1    2  501    0  0.39098680244E+03 -0.10809507457E+03  0.24735444462E+03  0.47512045431E+03  0.00000000000E+00 0. -1.
<scales pt_clust_5="13000.00000" pt_clust_6="13000.00000" pt_clust_7="13000.00000" pt_clust_8="13000.00000" pt_clust_9="78.66056" pt_clust_10="403.94621"></scales>
<clustering>
<clus scale="   78.661">  1  9  2 -1</clus>
<clus scale="   80.236">  5  6 -1 -1</clus>
<clus scale="   81.993">  1  5  2 -1</clus>
<clus scale="   88.201">  7  8 -1 -1</clus>
<clus scale="  403.946">  2 10  1 -1</clus>
<clus scale="  403.946">  2  5  1 -1</clus>
</clustering>
</event>
<event>
10    4  0.3043429E-005  0.2169387E+03  0.7546771E-02  0.1174318E+00
          2   -1    0    0  502    0 -0.00000000000E+00  0.00000000000E+00  0.16912424256E+04  0.16912424256E+04  0.00000000000E+00 0. -1.
         21   -1    0    0  503  502  0.00000000000E+00 -0.00000000000E+00 -0.60684378625E+02  0.60684378625E+02  0.00000000000E+00 0.  1.
         24    2    1    2    0    0 -0.88575776737E+01 -0.47727677010E+02  0.20092920070E+03  0.22117461798E+03  0.78671977927E+02 0.  0.
         23    2    1    2    0    0  0.14641897011E+03 -0.14834852464E+03  0.33141255267E+03  0.40198376980E+03  0.91163981654E+02 0.  0.
        -11    1    3    3    0    0  0.95655108862E+01  0.19490795590E+02  0.62994424200E+02  0.66630980719E+02  0.00000000000E+00 0.  1.
         12    1    3    3    0    0 -0.18423088560E+02 -0.67218472600E+02  0.13793477650E+03  0.15454363726E+03  0.00000000000E+00 0. -1.
        -11    1    4    4    0    0  0.10355829021E+03 -0.12480824536E+03  0.17723183752E+03  0.24023434769E+03  0.00000000000E+00 0.  1.
         11    1    4    4    0    0  0.42860679899E+02 -0.23540279277E+02  0.15418071515E+03  0.16174942211E+03  0.00000000000E+00 0. -1.
         21    1    1    2  503  501  0.32755135720E+01  0.43238034603E+02  0.97644457572E+02  0.10683958405E+03  0.00000000000E+00 0. -1.
          1    1    1    2  501    0 -0.14083690601E+03  0.15283816704E+03  0.10005718360E+04  0.10219288324E+04  0.00000000000E+00 0. -1.
<scales pt_clust_5="13000.00000" pt_clust_6="13000.00000" pt_clust_7="13000.00000" pt_clust_8="13000.00000" pt_clust_9="43.36193" pt_clust_10="196.85421"></scales>
<clustering>
<clus scale="   43.362">  2  9  1 -1</clus>
<clus scale="   78.672">  5  6 -1 -1</clus>
<clus scale="   88.609">  1  5  2 -1</clus>
<clus scale="   91.164">  7  8 -1 -1</clus>
<clus scale="  196.854">  2 10  1 -1</clus>
<clus scale="   43.362">  2  5  1 -1</clus>
</clustering>
</event>
<event>
10    4  0.3043429E-005  0.6814586E+03  0.7546771E-02  0.1033304E+00
          2   -1    0    0  503    0 -0.00000000000E+00  0.00000000000E+00  0.18201058513E+04  0.18201058513E+04  0.00000000000E+00 0. -1.
         21   -1    0    0  501  502  0.00000000000E+00 -0.00000000000E+00 -0.59939351473E+03  0.59939351473E+03  0.00000000000E+00 0. -1.
         24    2    1    2    0    0 -0.46424963565E+02  0.57774164710E+02  0.16932280915E+03  0.20181710539E+03  0.81035788251E+02 0.  0.
         23    2    1    2    0    0 -0.54308092848E+03  0.12688056334E+03  0.28777391558E+02  0.56573339209E+03  0.90501715075E+02 0.  0.
        -13    1    3    3    0    0  0.15917782752E+02  0.22037843458E+02  0.13781948879E+02  0.30479246495E+02  0.00000000000E+00 0.  1.
         14    1    3    3    0    0 -0.62342746317E+02  0.35736321252E+02  0.15554086027E+03  0.17133785889E+03  0.00000000000E+00 0. -1.
        -11    1    4    4    0    0 -0.69164478916E+02 -0.36890904226E+01 -0.19058762905E+02  0.71837114192E+02  0.00000000000E+00 0.  1.
         11    1    4    4    0    0 -0.47391644956E+03  0.13056965376E+03  0.47836154463E+02  0.49389627790E+03  0.00000000000E+00 0. -1.
         21    1    1    2  503  502 -0.16571829304E+03 -0.85935942038E+02 -0.15961924904E+03  0.24561319885E+03  0.00000000000E+00 0.  1.
          1    1    1    2  501    0  0.75522418508E+03 -0.98718786008E+02  0.11822313849E+04  0.14063356697E+04  0.00000000000E+00 0. -1.
<scales pt_clust_5="13000.00000" pt_clust_6="13000.00000" pt_clust_7="13000.00000" pt_clust_8="13000.00000" pt_clust_9="187.06922" pt_clust_10="675.42265"></scales>
<clustering>
<clus scale="   81.036">  5  6 -1 -1</clus>
<clus scale="   90.502">  7  8 -1 -1</clus>
<clus scale="  109.818">  1  5  2 -1</clus>
<clus scale="  187.069">  2  9  1 -1</clus>
<clus scale="  675.423">  2 10  1 -1</clus>
<clus scale="  187.069">  2  5  1 -1</clus>
</clustering>
</event>
<event>
10    4  0.3043429E-005  0.1065406E+03  0.7546771E-02  0.1268441E+00
         21   -1    0    0  503  502  0.00000000000E+00  0.00000000000E+00  0.80796781071E+02  0.80796781071E+02  0.00000000000E+00 0. -1.
          2   -1    0    0  502    0 -0.00000000000E+00 -0.00000000000E+00 -0.68404560850E+03  0.68404560850E+03  0.00000000000E+00 0. -1.
         24    2    1    2    0    0  0.47055511696E+02  0.39176407553E+02 -0.36002985714E+03  0.37693774749E+03  0.93335713220E+02 0.  0.
         23    2    1    2    0    0  0.27267698281E+02 -0.41160901066E+02 -0.38816261166E+02  0.10993719457E+03  0.90231576916E+02 0.  0.
        -13    1    3    3    0    0 -0.14369832003E+02  0.46547443177E+02 -0.18456490044E+03  0.19088572239E+03  0.00000000000E+00 0.  1.
         14    1    3    3    0    0  0.61425343699E+02 -0.73710356240E+01 -0.17546495670E+03  0.18605202510E+03  0.00000000000E+00 0. -1.
        -13    1    4    4    0    0  0.48795401506E+02 -0.15959254891E+00 -0.40770707776E+02  0.63586691143E+02  0.00000000000E+00 0.  1.
         13    1    4    4    0    0 -0.21527703226E+02 -0.41001308517E+02  0.19544466109E+01  0.46350503426E+02  0.00000000000E+00 0. -1.
         21    1    1    2  503  501  0.15598419856E+01  0.30061849316E+02  0.22167327674E+02  0.37383663645E+02  0.00000000000E+00 0. -1.
          1    1    1    2  501    0 -0.75883051963E+02 -0.28077355803E+02 -0.22657003680E+03  0.24058378387E+03  0.00000000000E+00 0. -1.
<scales pt_clust_5="13000.00000" pt_clust_6="13000.00000" pt_clust_7="13000.00000" pt_clust_8="13000.00000" pt_clust_9="30.10229" pt_clust_10="79.36831"></scales>
<clustering>
<clus scale="   30.102">  1  9  2 -1</clus>
<clus scale="   79.368">  1 10  2 -1</clus>
<clus scale="   90.232">  7  8 -1 -1</clus>
<clus scale="   93.336">  5  6 -1 -1</clus>
<clus scale="  103.832">  1  7  2 -1</clus>
<clus scale="   30.102">  1  5  2 -1</clus>
</clustering>
</event>
<event>
10    4  0.3043429E-005  0.1990438E+03  0.7546771E-02  0.1151657E+00
          2   -1    0    0  503    0 -0.00000000000E+00  0.00000000000E+00  0.27713772160E+03  0.27713772160E+03  0.00000000000E+00 0. -1.
         21   -1    0    0  501  502  0.00000000000E+00 -0.00000000000E+00 -0.49241891803E+03  0.49241891803E+03  0.00000000000E+00 0.  1.
         24    2    1    2    0    0 -0.43272369611E+02  0.12011611878E+03  0.69987482069E+02  0.16644698515E+03  0.80659601142E+02 0.  0.
         23    2    1    2    0    0  0.23787280541E+02 -0.18682188003E+03 -0.33286837091E+03  0.39344459148E+03  0.92352826905E+02 0.  0.
        -13    1    3    3    0    0  0.23754844771E+02  0.28914277238E+02  0.12161572054E+02  0.39347578236E+02  0.00000000000E+00 0.  1.
         14    1    3    3    0    0 -0.67027214382E+02  0.91201841541E+02  0.57825910015E+02  0.12709940691E+03  0.00000000000E+00 0. -1.
        -13    1    4    4    0    0  0.46805543271E+02 -0.71735474157E+02 -0.19096135026E+03  0.20929160142E+03  0.00000000000E+00 0. -1.
         13    1    4    4    0    0 -0.23018262730E+02 -0.11508640588E+03 -0.14190702065E+03  0.18415299006E+03  0.00000000000E+00 0.  1.
         21    1    1    2  503  502  0.52970101870E+02  0.10781052069E+03 -0.22055185327E+02  0.12212850307E+03  0.00000000000E+00 0.  1.
          1    1    1    2  501    0 -0.33485012800E+02 -0.41104759432E+02  0.69654877744E+02  0.87536559926E+02  0.00000000000E+00 0. -1.
<scales pt_clust_5="13000.00000" pt_clust_6="13000.00000" pt_clust_7="13000.00000" pt_clust_8="13000.00000" pt_clust_9="112.43177" pt_clust_10="53.01745"></scales>
<clustering>
<clus scale="   53.017">  2 10  1 -1</clus>
<clus scale="   80.660">  5  6 -1 -1</clus>
<clus scale="   92.353">  7  8 -1 -1</clus>
<clus scale="  112.432">  1  9  2 -1</clus>
<clus scale="  193.895">  1  5  2 -1</clus>
<clus scale="   53.017">  2  5  1 -1</clus>
</clustering>
</event>
<event>
10    4  0.3043429E-005  0.1546861E+03  0.7546771E-02  0.1205493E+00
         -1   -1    0    0    0  501 -0.00000000000E+00  0.00000000000E+00  0.28691676131E+03  0.28691676131E+03  0.00000000000E+00 0.  1.
         21   -1    0    0  501  502  0.00000000000E+00 -0.00000000000E+00 -0.55703034473E+03  0.55703034473E+03  0.00000000000E+00 0. -1.
         23    2    1    2    0    0 -0.45736749174E+02 -0.64680066778E+02  0.84462706861E+02  0.14812646497E+03  0.92369581091E+02 0.  0.
         24    2    1    2    0    0 -0.10904281707E+03 -0.82844167058E+01 -0.30657271403E+03  0.33611020638E+03  0.83810944004E+02 0.  0.
        -11    1    4    4    0    0 -0.82342976237E+02  0.21864316539E+02 -0.13315671460E+03  0.15807948860E+03  0.00000000000E+00 0.  1.
         12    1    4    4    0    0 -0.26699840831E+02 -0.30148733245E+02 -0.17341599943E+03  0.17803071779E+03  0.00000000000E+00 0. -1.
        -13    1    3    3    0    0  0.14392271210E+02 -0.42440336822E+02  0.68837611047E+02  0.82139736759E+02  0.00000000000E+00 0.  1.
         13    1    3    3    0    0 -0.60129020384E+02 -0.22239729955E+02  0.15625095814E+02  0.65986728211E+02  0.00000000000E+00 0. -1.
         21    1    1    2  503  502 -0.17173003668E+02 -0.12784783640E+02 -0.14353651049E+03  0.14512440384E+03  0.00000000000E+00 0.  1.
         -2    1    1    2    0  503  0.17195256991E+03  0.85749267123E+02  0.95532934232E+02  0.21458603085E+03  0.00000000000E+00 0.  1.
<scales pt_clust_5="13000.00000" pt_clust_6="13000.00000" pt_clust_7="13000.00000" pt_clust_8="13000.00000" pt_clust_9="21.40941" pt_clust_10="130.01361"></scales>
<clustering>
<clus scale="   21.409">  2  9  1 -1</clus>
<clus scale="   83.811">  5  6 -1 -1</clus>
<clus scale="   92.370">  7  8 -1 -1</clus>
<clus scale="  122.715">  1  7  2 -1</clus>
<clus scale="  130.014">  2 10  1 -1</clus>
<clus scale="   21.409">  2  5  1 -1</clus>
</clustering>
</event>
<event>
10    4  0.3043429E-005  0.1600428E+03  0.7546771E-02  0.1215751E+00
         21   -1    0    0  503  502  0.00000000000E+00  0.00000000000E+00  0.29609095632E+03  0.29609095632E+03  0.00000000000E+00 0. -1.
          2   -1    0    0  502    0 -0.00000000000E+00 -0.00000000000E+00 -0.43252920973E+03  0.43252920973E+03  0.00000000000E+00 0. -1.
         24    2    1    2    0    0  0.35982734802E+02  0.10471032899E+02 -0.42607231977E+02  0.10081699874E+03  0.83332414365E+02 0.  0.
         23    2    1    2    0    0  0.61042485694E+02  0.93259373956E+02 -0.29915513927E+03  0.33219552867E+03  0.91850835724E+02 0.  0.
        -11    1    3    3    0    0 -0.13634248817E+01  0.41066380839E+02 -0.91979694161E+01  0.42105928371E+02  0.00000000000E+00 0.  1.
         12    1    3    3    0    0  0.37346159684E+02 -0.30595347940E+02 -0.33409262561E+02  0.58711070366E+02  0.00000000000E+00 0. -1.
        -11    1    4    4    0    0  0.58363549548E+02  0.42923641711E+02 -0.82686356922E+02  0.10993532897E+03  0.00000000000E+00 0.  1.
         11    1    4    4    0    0  0.26789361454E+01  0.50335732245E+02 -0.21646878235E+03  0.22226019970E+03  0.00000000000E+00 0. -1.
         21    1    1    2  503  501 -0.28834579980E+02 -0.12977491169E+01  0.16291211242E+03  0.16544930803E+03  0.00000000000E+00 0. -1.
          1    1    1    2  501    0 -0.68190640516E+02 -0.10243265774E+03  0.42412005428E+02  0.13015833062E+03  0.00000000000E+00 0. -1.
<scales pt_clust_5="13000.00000" pt_clust_6="13000.00000" pt_clust_7="13000.00000" pt_clust_8="13000.00000" pt_clust_9="28.86377" pt_clust_10="131.06157"></scales>
<clustering>
<clus scale="   28.864">  1  9  2 -1</clus>
<clus scale="   83.332">  5  6 -1 -1</clus>
<clus scale="   89.025">  2  5  1 -1</clus>
<clus scale="   91.851">  7  8 -1 -1</clus>
<clus scale="  131.062">  1 10  2 -1</clus>
<clus scale="   28.864">  1  5  2 -1</clus>
</clustering>
</event>
<event>
10    4  0.3043429E-005  0.2653328E+03  0.7546771E-02  0.1104472E+00
          4   -1    0    0  503    0 -0.00000000000E+00  0.00000000000E+00  0.14506172304E+04  0.14506172304E+04  0.00000000000E+00 0. -1.
         21   -1    0    0  501  502  0.00000000000E+00 -0.00000000000E+00 -0.13498892413E+03  0.13498892413E+03  0.00000000000E+00 0.  1.
         23    2    1    2    0    0  0.40359937552E+02  0.16500857775E+03  0.29559807786E+03  0.35266378251E+03  0.90204016356E+02 0.  0.
         24    2    1    2    0    0 -0.11826279666E+03 -0.34877508794E+03  0.79629286834E+03  0.88096004179E+03  0.79863082963E+02 0.  0.
        -13    1    4    4    0    0 -0.10922652859E+03 -0.35067785581E+03  0.78171468989E+03  0.86370321841E+03  0.00000000000E+00 0.  1.
         14    1    4    4    0    0 -0.90362680687E+01  0.19027678729E+01  0.14578178453E+02  0.17256823381E+02  0.00000000000E+00 0. -1.
        -13    1    3    3    0    0  0.51752325637E+02  0.62776510329E+02  0.18232714895E+03  0.19965566033E+03  0.00000000000E+00 0.  1.
         13    1    3    3    0    0 -0.11392388086E+02  0.10223206742E+03  0.11327092891E+03  0.15300812218E+03  0.00000000000E+00 0. -1.
         21    1    1    2  503  502  0.78542976279E+02  0.83169654992E+02  0.88785718998E+01  0.11473891961E+03  0.00000000000E+00 0.  1.
          3    1    1    2  501    0 -0.64011716815E+00  0.10059685520E+03  0.21485878815E+03  0.23724341059E+03  0.00000000000E+00 0. -1.
<scales pt_clust_5="13000.00000" pt_clust_6="13000.00000" pt_clust_7="13000.00000" pt_clust_8="13000.00000" pt_clust_9="148.48443" pt_clust_10="100.59894"></scales>
<clustering>
<clus scale="   79.863">  5  6 -1 -1</clus>
<clus scale="   90.204">  7  8 -1 -1</clus>
<clus scale="  100.599">  2 10  1 -1</clus>
<clus scale="  148.484">  2  9  1 -1</clus>
<clus scale="  261.998">  2  5  1 -1</clus>
<clus scale="  100.599">  2  5  1 -1</clus>
</clustering>
</event>
<event>
10    4  0.3043429E-005  0.9551863E+02  0.7546771E-02  0.1293193E+00
         21   -1    0    0  503  502  0.00000000000E+00  0.00000000000E+00  0.26700878555E+03  0.26700878555E+03  0.00000000000E+00 0. -1.
         -1   -1    0    0    0  501 -0.00000000000E+00 -0.00000000000E+00 -0.13837279780E+03  0.13837279780E+03  0.00000000000E+00 0.  1.
         23    2    1    2    0    0 -0.19927670992E+02 -0.62624906797E+02 -0.24540024182E+02  0.11132614483E+03  0.86442505247E+02 0.  0.
         24    2    1    2    0    0 -0.63655809663E+02  0.33555327566E+01  0.15501119518E+02  0.10369865729E+03  0.80310678696E+02 0.  0.
        -13    1    4    4    0    0 -0.46550578764E+02  0.34309079385E+02 -0.11802193847E+02  0.59020005855E+02  0.00000000000E+00 0.  1.
         14    1    4    4    0    0 -0.17105230899E+02 -0.30953546629E+02  0.27303313365E+02  0.44678651431E+02  0.00000000000E+00 0. -1.
        -11    1    3    3    0    0  0.28763804026E+02 -0.50388251242E+02 -0.17680317865E+02  0.60654150106E+02  0.00000000000E+00 0.  1.
         11    1    3    3    0    0 -0.48691475018E+02 -0.12236655555E+02 -0.68597063167E+01  0.50671994725E+02  0.00000000000E+00 0. -1.
         21    1    1    2  503  501  0.59236772544E+02  0.26791054693E+02  0.23415577667E+02  0.69101701213E+02  0.00000000000E+00 0.  1.
         -2    1    1    2    0  502  0.24346708111E+02  0.32478319347E+02  0.11425931475E+03  0.12125508002E+03  0.00000000000E+00 0.  1.
<scales pt_clust_5="13000.00000" pt_clust_6="13000.00000" pt_clust_7="13000.00000" pt_clust_8="13000.00000" pt_clust_9="76.27839" pt_clust_10="40.59068"></scales>
<clustering>
<clus scale="   40.591">  1 10  2 -1</clus>
<clus scale="   76.278">  1  9  2 -1</clus>
<clus scale="   80.311">  5  6 -1 -1</clus>
<clus scale="   86.443">  7  8 -1 -1</clus>
<clus scale="   90.007">  1  5  2 -1</clus>
<clus scale="   40.591">  1  5  2 -1</clus>
</clustering>
</event>
<event>
10    4  0.3043429E-005  0.1503487E+03  0.7546771E-02  0.1201926E+00
          2   -1    0    0  503    0 -0.00000000000E+00  0.00000000000E+00  0.10042303695E+04  0.10042303695E+04  0.00000000000E+00 0. -1.
         21   -1    0    0  501  502  0.00000000000E+00 -0.00000000000E+00 -0.76322214277E+02  0.76322214277E+02  0.00000000000E+00 0. -1.
         24    2    1    2    0    0 -0.11896873066E+03  0.10133858952E+03  0.45644899995E+03  0.48892950508E+03  0.79267286985E+02 0.  0.
         23    2    1    2    0    0 -0.52881091540E+01 -0.10425997345E+03  0.21624005631E+03  0.25634234666E+03  0.89741465198E+02 0.  0.
        -11    1    3    3    0    0 -0.31825639158E+02  0.43896095549E+02  0.26873760253E+03  0.27415258074E+03  0.00000000000E+00 0.  1.
         12    1    3    3    0    0 -0.87143091498E+02  0.57442493968E+02  0.18771139742E+03  0.21477692434E+03  0.00000000000E+00 0. -1.
        -13    1    4    4    0    0 -0.15603190742E+02 -0.15469886386E+02  0.13099154816E+03  0.13282154432E+03  0.00000000000E+00 0.  1.
         13    1    4    4    0    0  0.10315081588E+02 -0.88790087063E+02  0.85248508150E+02  0.12352080234E+03  0.00000000000E+00 0. -1.
         21    1    1    2  503  502  0.25697939827E+02 -0.36011364933E+02 -0.13636844429E+02  0.46294341356E+02  0.00000000000E+00 0. -1.
          1    1    1    2  501    0  0.98558899983E+02  0.38932748864E+02  0.26885594337E+03  0.28898639065E+03  0.00000000000E+00 0. -1.
<scales pt_clust_5="13000.00000" pt_clust_6="13000.00000" pt_clust_7="13000.00000" pt_clust_8="13000.00000" pt_clust_9="44.24028" pt_clust_10="108.68727"></scales>
<clustering>
<clus scale="   44.240">  2  9  1 -1</clus>
<clus scale="   79.267">  5  6 -1 -1</clus>
<clus scale="   89.741">  7  8 -1 -1</clus>
<clus scale="  108.687">  2 10  1 -1</clus>
<clus scale="  144.342">  1  5  2 -1</clus>
<clus scale="   44.240">  2  5  1 -1</clus>
</clustering>
</event>
<event>
10    4  0.3043429E-005  0.1659888E+03  0.7546771E-02  0.1184191E+00
          2   -1    0    0  503    0 -0.00000000000E+00  0.00000000000E+00  0.75528776843E+03  0.75528776843E+03  0.00000000000E+00 0. -1.
         21   -1    0    0  501  502  0.00000000000E+00 -0.00000000000E+00 -0.17947231399E+03  0.17947231399E+03  0.00000000000E+00 0. -1.
         24    2    1    2    0    0 -0.15732512709E+03 -0.19359545402E+02  0.56278982940E+03  0.58997171153E+03  0.78792389968E+02 0.  0.
         23    2    1    2    0    0  0.81547212230E+02 -0.70889067904E+02  0.96179503263E+02  0.17203850743E+03  0.93121122313E+02 0.  0.
        -11    1    3    3    0    0 -0.58672669261E+02  0.30140011340E+02  0.18607734400E+03  0.19742259331E+03  0.00000000000E+00 0.  1.
         12    1    3    3    0    0 -0.98652457829E+02 -0.49499556742E+02  0.37671248541E+03  0.39254911822E+03  0.00000000000E+00 0. -1.
        -13    1    4    4    0    0 -0.18047303104E+02 -0.19536899118E+02  0.39071036521E+01  0.26882355466E+02  0.00000000000E+00 0.  1.
         13    1    4    4    0    0  0.99594515334E+02 -0.51352168786E+02  0.92272399611E+02  0.14515615197E+03  0.00000000000E+00 0. -1.
         21    1    1    2  503  502  0.38447429620E+02 -0.32716677408E+01 -0.56792634190E+02  0.68660847304E+02  0.00000000000E+00 0. -1.
          1    1    1    2  501    0  0.37330485241E+02  0.93520281047E+02 -0.26361244038E+02  0.10408901615E+03  0.00000000000E+00 0. -1.
<scales pt_clust_5="13000.00000" pt_clust_6="13000.00000" pt_clust_7="13000.00000" pt_clust_8="13000.00000" pt_clust_9="38.58638" pt_clust_10="108.93217"></scales>
<clustering>
<clus scale="   38.586">  2  9  1 -1</clus>
<clus scale="   78.792">  5  6 -1 -1</clus>
<clus scale="   93.121">  7  8 -1 -1</clus>
<clus scale="  108.932">  2 10  1 -1</clus>
<clus scale="  158.395">  1  5  2 -1</clus>
<clus scale="   38.586">  2  5  1 -1</clus>
</clustering>
</event>
<event>
10    4  0.3043429E-005  0.1148468E+03  0.7546771E-02  0.1255527E+00
         21   -1    0    0  503  502  0.00000000000E+00  0.00000000000E+00  0.23476190130E+03  0.23476190130E+03  0.00000000000E+00 0.  1.
         -3   -1    0    0    0  501 -0.00000000000E+00 -0.00000000000E+00 -0.18573632517E+03  0.18573632517E+03  0.00000000000E+00 0.  1.
         23    2    1    2    0    0 -0.36940520749E+02  0.46627321727E+02 -0.66866099037E+01  0.10918810029E+03  0.91316051647E+02 0.  0.
         24    2    1    2    0    0  0.55941807624E+02 -0.70282100206E+02  0.14375825527E+03  0.18783312549E+03  0.80906041953E+02 0.  0.
        -13    1    4    4    0    0  0.41256052236E+00 -0.62476526312E+02  0.93970858751E+02  0.11284506565E+03  0.00000000000E+00 0.  1.
         14    1    4    4    0    0  0.55529247101E+02 -0.78055738939E+01  0.49787396520E+02  0.74988059847E+02  0.00000000000E+00 0. -1.
        -13    1    3    3    0    0 -0.72896766932E+01  0.66118824674E+02 -0.22662346099E+02  0.70273894820E+02  0.00000000000E+00 0. -1.
         13    1    3    3    0    0 -0.29650844056E+02 -0.19491502947E+02  0.15975736195E+02  0.38914205470E+02  0.00000000000E+00 0.  1.
         21    1    1    2  503  501 -0.31371372091E+02 -0.14988819138E+02 -0.11115252986E+02  0.36501733315E+02  0.00000000000E+00 0. -1.
         -4    1    1    2    0  502  0.12370085217E+02  0.38643597617E+02 -0.76930816249E+02  0.86975267368E+02  0.00000000000E+00 0.  1.
<scales pt_clust_5="13000.00000" pt_clust_6="13000.00000" pt_clust_7="13000.00000" pt_clust_8="13000.00000" pt_clust_9="34.76820" pt_clust_10="31.25505"></scales>
<clustering>
<clus scale="   34.768">  2  9  1 -1</clus>
<clus scale="   31.255">  1 10  2 -1</clus>
<clus scale="   80.906">  5  6 -1 -1</clus>
<clus scale="   91.316">  7  8 -1 -1</clus>
<clus scale="  106.757">  1  5  2 -1</clus>
<clus scale="   31.255">  1  5  2 -1</clus>
</clustering>
</event>
<event>
10    4  0.3043429E-005  0.1313272E+03  0.7546771E-02  0.1227808E+00
          2   -1    0    0  503    0 -0.00000000000E+00  0.00000000000E+00  0.29558329057E+03  0.29558329057E+03  0.00000000000E+00 0. -1.
         21   -1    0    0  501  502  0.00000000000E+00 -0.00000000000E+00 -0.16414510090E+03  0.16414510090E+03  0.00000000000E+00 0.  1.
         24    2    1    2    0    0 -0.83651350978E+02  0.64024313025E+02  0.20840545566E+03  0.24608167051E+03  0.77631781075E+02 0.  0.
         23    2    1    2    0    0  0.20335196975E+02 -0.77820804525E+02 -0.44771283734E+02  0.12679649972E+03  0.87196827010E+02 0.  0.
        -13    1    3    3    0    0 -0.73497385171E+02  0.84448584337E+01  0.12731968370E+03  0.14725312601E+03  0.00000000000E+00 0.  1.
         14    1    3    3    0    0 -0.10153965807E+02  0.55579454592E+02  0.81085771962E+02  0.98828544505E+02  0.00000000000E+00 0. -1.
        -11    1    4    4    0    0  0.44162766535E+02 -0.81807609550E+02 -0.27009060016E+02  0.96810765162E+02  0.00000000000E+00 0.  1.
         11    1    4    4    0    0 -0.23827569560E+02  0.39868050250E+01 -0.17762223718E+02  0.29985734556E+02  0.00000000000E+00 0. -1.
         21    1    1    2  503  502  0.22419467186E+02 -0.15642603967E+02 -0.22786853515E+02  0.35588822134E+02  0.00000000000E+00 0.  1.
          1    1    1    2  501    0  0.40896686817E+02  0.29439095467E+02 -0.94091287405E+01  0.51261399105E+02  0.00000000000E+00 0. -1.
<scales pt_clust_5="13000.00000" pt_clust_6="13000.00000" pt_clust_7="13000.00000" pt_clust_8="13000.00000" pt_clust_9="27.33722" pt_clust_10="52.74584"></scales>
<clustering>
<clus scale="   27.337">  2  9  1 -1</clus>
<clus scale="   52.746">  2 10  1 -1</clus>
<clus scale="   77.632">  5  6 -1 -1</clus>
<clus scale="   87.197">  7  8 -1 -1</clus>
<clus scale="  125.181">  1  5  2 -1</clus>
<clus scale="   27.337">  2  5  1 -1</clus>
</clustering>
</event>
<event>
10    4  0.3043429E-005  0.4515366E+03  0.7546771E-02  0.1078601E+00
         21   -1    0    0  501  502  0.00000000000E+00  0.00000000000E+00  0.18773377416E+03  0.18773377416E+03  0.00000000000E+00 0. -1.
          2   -1    0    0  503    0 -0.00000000000E+00 -0.00000000000E+00 -0.27944833734E+04  0.27944833734E+04  0.00000000000E+00 0. -1.
         24    2    1    2    0    0 -0.25173974467E+02 -0.65165142251E+02 -0.74275515966E+03  0.75016069587E+03  0.78585098339E+02 0.  0.
         23    2    1    2    0    0 -0.31433650306E+03 -0.39666660495E+03 -0.97036395524E+03  0.10983529400E+04  0.92850108455E+02 0.  0.
        -13    1    3    3    0    0 -0.32112129479E+02 -0.48246038744E+01 -0.11569218374E+03  0.12016300196E+03  0.00000000000E+00 0.  1.
         14    1    3    3    0    0  0.69381550118E+01 -0.60340538376E+02 -0.62706297592E+03  0.62999769391E+03  0.00000000000E+00 0. -1.
        -11    1    4    4    0    0 -0.46537313329E+02 -0.10068892986E+03 -0.27575007697E+03  0.29722396787E+03  0.00000000000E+00 0.  1.
         11    1    4    4    0    0 -0.26779918973E+03 -0.29597767509E+03 -0.69461387827E+03  0.80112897218E+03  0.00000000000E+00 0. -1.
         21    1    1    2  503  502  0.60410946299E+02  0.15444491276E+03 -0.20779260663E+02  0.16713614565E+03  0.00000000000E+00 0. -1.
          1    1    1    2  501    0  0.27909953122E+03  0.30738683444E+03 -0.87285122371E+03  0.96656736602E+03  0.00000000000E+00 0. -1.
<scales pt_clust_5="13000.00000" pt_clust_6="13000.00000" pt_clust_7="13000.00000" pt_clust_8="13000.00000" pt_clust_9="162.63453" pt_clust_10="441.88726"></scales>
<clustering>
<clus scale="   78.585">  5  6 -1 -1</clus>
<clus scale="   92.850">  7  8 -1 -1</clus>
<clus scale="  105.147">  2  5  1 -1</clus>
<clus scale="  162.635">  1  9  2 -1</clus>
<clus scale="  441.887">  1 10  2 -1</clus>
<clus scale="  162.635">  1  5  2 -1</clus>
</clustering>
</event>
<event>
10    4  0.3043429E-005  0.2272392E+03  0.7546771E-02  0.1134924E+00
         21   -1    0    0  501  502  0.00000000000E+00  0.00000000000E+00  0.13445034100E+03  0.13445034100E+03  0.00000000000E+00 0. -1.
          2   -1    0    0  503    0 -0.00000000000E+00 -0.00000000000E+00 -0.10125378882E+04  0.10125378882E+04  0.00000000000E+00 0. -1.
         24    2    1    2    0    0  0.16237013649E+03  0.61587130014E+02 -0.16209170649E+03  0.25981489787E+03  0.10522843739E+03 0.  0.
         23    2    1    2    0    0 -0.17682941723E+03  0.13051050245E+03 -0.20724941023E+03  0.31527661204E+03  0.90251814455E+02 0.  0.
        -11    1    3    3    0    0  0.13315819554E+03  0.82899257078E+02 -0.15927717876E+03  0.22354554690E+03  0.00000000000E+00 0.  1.
         12    1    3    3    0    0  0.29211940948E+02 -0.21312127064E+02 -0.28145277339E+01  0.36269350977E+02  0.00000000000E+00 0. -1.
        -13    1    4    4    0    0 -0.36065468176E+02  0.72878379784E+02 -0.45231886745E+02  0.93047836156E+02  0.00000000000E+00 0.  1.
         13    1    4    4    0    0 -0.14076394905E+03  0.57632122668E+02 -0.16201752348E+03  0.22222877588E+03  0.00000000000E+00 0. -1.
         21    1    1    2  503  502 -0.31176531458E+02  0.99921043337E+01 -0.14158501077E+02  0.35669054032E+02  0.00000000000E+00 0.  1.
          1    1    1    2  501    0  0.45635812198E+02 -0.20208973680E+03 -0.49458792937E+03  0.53622766522E+03  0.00000000000E+00 0. -1.
<scales pt_clust_5="13000.00000" pt_clust_6="13000.00000" pt_clust_7="13000.00000" pt_clust_8="13000.00000" pt_clust_9="32.73864" pt_clust_10="208.54812"></scales>
<clustering>
<clus scale="   32.739">  1  9  2 -1</clus>
<clus scale="   90.252">  7  8 -1 -1</clus>
<clus scale="  105.228">  5  6 -1 -1</clus>
<clus scale="  194.639">  2  5  1 -1</clus>
<clus scale="  208.548">  1 10  2 -1</clus>
<clus scale="   32.739">  1  5  2 -1</clus>
</clustering>
</event>
<event>
10    4  0.3043429E-005  0.1616494E+03  0.7546771E-02  0.1212750E+00
         -1   -1    0    0    0  501 -0.00000000000E+00  0.00000000000E+00  0.52242647683E+03  0.52242647683E+03  0.00000000000E+00 0.  1.
         21   -1    0    0  501  502  0.00000000000E+00 -0.00000000000E+00 -0.23489125055E+03  0.23489125055E+03  0.00000000000E+00 0.  1.
         24    2    1    2    0    0  0.44517009321E+02  0.31046038801E+02  0.54148940348E+02  0.11069031944E+03  0.79841207614E+02 0.  0.
         23    2    1    2    0    0  0.90367719612E+02  0.46526559706E+02  0.35027018431E+03  0.37563018944E+03  0.89876535860E+02 0.  0.
        -11    1    3    3    0    0  0.59374597504E+02  0.27208335226E+02  0.12757797222E+02  0.66546207438E+02  0.00000000000E+00 0.  1.
         12    1    3    3    0    0 -0.14857588183E+02  0.38377035750E+01  0.41391143125E+02  0.44144112003E+02  0.00000000000E+00 0. -1.
        -11    1    4    4    0    0  0.10841754438E+03  0.33873533155E+02  0.29702352782E+03  0.31800118908E+03  0.00000000000E+00 0.  1.
         11    1    4    4    0    0 -0.18049824773E+02  0.12653026551E+02  0.53246656493E+02  0.57629000364E+02  0.00000000000E+00 0. -1.
         21    1    1    2  503  502 -0.55480529059E+01 -0.53899281932E+02 -0.12804645753E+03  0.13903887503E+03  0.00000000000E+00 0.  1.
         -2    1    1    2    0  503 -0.12933667603E+03 -0.23673316574E+02  0.11162559158E+02  0.13195834347E+03  0.00000000000E+00 0.  1.
<scales pt_clust_5="13000.00000" pt_clust_6="13000.00000" pt_clust_7="13000.00000" pt_clust_8="13000.00000" pt_clust_9="54.18407" pt_clust_10="134.36051"></scales>
<clustering>
<clus scale="   54.184">  2  9  1 -1</clus>
<clus scale="   79.841">  5  6 -1 -1</clus>
<clus scale="   89.877">  7  8 -1 -1</clus>
<clus scale="   92.073">  1  5  2 -1</clus>
<clus scale="  134.361">  2 10  1 -1</clus>
<clus scale="   54.184">  2  5  1 -1</clus>
</clustering>
</event>
<event>
10    4  0.3043429E-005  0.1336102E+03  0.7546771E-02  0.1243730E+00
          4   -1    0    0  502    0 -0.00000000000E+00  0.00000000000E+00  0.37757453266E+03  0.37757453266E+03  0.00000000000E+00 0. -1.
         21   -1    0    0  503  502  0.00000000000E+00 -0.00000000000E+00 -0.19727797022E+03  0.19727797022E+03  0.00000000000E+00 0. -1.
         24    2    1    2    0    0  0.31407584694E+02  0.86545312531E+01  0.14586040885E+03  0.16971964653E+03  0.80424885825E+02 0.  0.
         23    2    1    2    0    0 -0.45688192222E+02  0.80883529863E+02  0.41767355419E+02  0.13370611004E+03  0.86621334390E+02 0.  0.
        -13    1    3    3    0    0  0.17111909139E+02 -0.30417894825E+02  0.28041621514E+02  0.44770507000E+02  0.00000000000E+00 0.  1.
         14    1    3    3    0    0  0.14295675556E+02  0.39072426078E+02  0.11781878734E+03  0.12494913953E+03  0.00000000000E+00 0. -1.
        -11    1    4    4    0    0 -0.54882724763E+02  0.10661135649E+02  0.13995158914E+02  0.57633651313E+02  0.00000000000E+00 0.  1.
         11    1    4    4    0    0  0.91945325407E+01  0.70222394215E+02  0.27772196505E+02  0.76072458726E+02  0.00000000000E+00 0. -1.
         21    1    1    2  503  501 -0.21131326010E+02  0.97809073862E+01 -0.11699746073E+03  0.11929209910E+03  0.00000000000E+00 0. -1.
          3    1    1    2  501    0  0.35411933537E+02 -0.99318968502E+02  0.10966625890E+03  0.15213464721E+03  0.00000000000E+00 0. -1.
<scales pt_clust_5="13000.00000" pt_clust_6="13000.00000" pt_clust_7="13000.00000" pt_clust_8="13000.00000" pt_clust_9="23.28517" pt_clust_10="101.72722"></scales>
<clustering>
<clus scale="   23.285">  2  9  1 -1</clus>
<clus scale="   80.425">  5  6 -1 -1</clus>
<clus scale="   85.833">  1  5  2 -1</clus>
<clus scale="   86.621">  7  8 -1 -1</clus>
<clus scale="  101.727">  2 10  1 -1</clus>
<clus scale="   23.285">  2  5  1 -1</clus>
</clustering>
</event>
<event>
10    4  0.3043429E-005  0.2487958E+03  0.7546771E-02  0.1133420E+00
         21   -1    0    0  501  502  0.00000000000E+00  0.00000000000E+00  0.59604586103E+03  0.59604586103E+03  0.00000000000E+00 0. -1.
          2   -1    0    0  503    0 -0.00000000000E+00 -0.00000000000E+00 -0.24002259254E+03  0.24002259254E+03  0.00000000000E+00 0. -1.
         24    2    1    2    0    0  0.11445512735E+03  0.43092395494E+02 -0.42849020204E+02  0.15790291787E+03  0.90223955874E+02 0.  0.
         23    2    1    2    0    0 -0.45369765330E+02 -0.25351918330E+03  0.14117100263E+03  0.30749631183E+03  0.91073255670E+02 0.  0.
        -11    1    3    3    0    0  0.42470630351E+01  0.39737417859E+02 -0.10220421177E+01  0.39976799430E+02  0.00000000000E+00 0.  1.
         12    1    3    3    0    0  0.11020806431E+03  0.33549776343E+01 -0.41826978086E+02  0.11792611844E+03  0.00000000000E+00 0. -1.
        -11    1    4    4    0    0 -0.16993133962E+02 -0.12740823856E+03  0.19556097951E+02  0.13001564068E+03  0.00000000000E+00 0.  1.
         11    1    4    4    0    0 -0.28376631368E+02 -0.12611094474E+03  0.12161490468E+03  0.17748067115E+03  0.00000000000E+00 0. -1.
         21    1    1    2  503  502  0.23916738550E+02 -0.31751504348E+01  0.61584253175E+02  0.66141607194E+02  0.00000000000E+00 0. -1.
          1    1    1    2  501    0 -0.93002100566E+02  0.21360193824E+03  0.19611703289E+03  0.30452761668E+03  0.00000000000E+00 0. -1.
<scales pt_clust_5="13000.00000" pt_clust_6="13000.00000" pt_clust_7="13000.00000" pt_clust_8="13000.00000" pt_clust_9="24.12658" pt_clust_10="231.52751"></scales>
<clustering>
<clus scale="   24.127">  1  9  2 -1</clus>
<clus scale="   90.224">  5  6 -1 -1</clus>
<clus scale="   91.073">  7  8 -1 -1</clus>
<clus scale="  153.839">  2  5  1 -1</clus>
<clus scale="  231.528">  1 10  2 -1</clus>
<clus scale="   24.127">  1  5  2 -1</clus>
</clustering>
</event>
<event>
10    4  0.3043429E-005  0.1141688E+03  0.7546771E-02  0.1256413E+00
         -1   -1    0    0    0  501 -0.00000000000E+00  0.00000000000E+00  0.14857900062E+04  0.14857900062E+04  0.00000000000E+00 0.  1.
         21   -1    0    0  503  502  0.00000000000E+00 -0.00000000000E+00 -0.28786385509E+02  0.28786385509E+02  0.00000000000E+00 0. -1.
         24    2    1    2    0    0 -0.60495907629E+02 -0.29171201829E+02  0.11128178791E+04  0.11178246727E+04  0.81594443208E+02 0.  0.
         23    2    1    2    0    0  0.65811420394E+02  0.42155283095E+02  0.26790934768E+03  0.29355304577E+03  0.91048125498E+02 0.  0.
        -13    1    3    3    0    0 -0.52032201165E+02 -0.23705212048E+02  0.32828779512E+03  0.33322989581E+03  0.00000000000E+00 0.  1.
         14    1    3    3    0    0 -0.84637064638E+01 -0.54659897815E+01  0.78453008394E+03  0.78459477692E+03  0.00000000000E+00 0. -1.
        -11    1    4    4    0    0  0.31649595520E+02  0.16951327552E+02  0.18185178004E+02  0.40246056967E+02  0.00000000000E+00 0. -1.
         11    1    4    4    0    0  0.34161824873E+02  0.25203955544E+02  0.24972416968E+03  0.25330698880E+03  0.00000000000E+00 0.  1.
         21    1    1    2  503  501 -0.44025504546E+01 -0.39452572929E+02  0.29548797766E+02  0.49487568243E+02  0.00000000000E+00 0. -1.
         -2    1    1    2    0  502 -0.91296230996E+00  0.26468491663E+02  0.46727596159E+02  0.53711104940E+02  0.00000000000E+00 0.  1.
<scales pt_clust_5="13000.00000" pt_clust_6="13000.00000" pt_clust_7="13000.00000" pt_clust_8="13000.00000" pt_clust_9="29.40870" pt_clust_10="26.48423"></scales>
<clustering>
<clus scale="   26.484">  2 10  1 -1</clus>
<clus scale="   29.409">  2  9  1 -1</clus>
<clus scale="   81.594">  5  6 -1 -1</clus>
<clus scale="   91.048">  7  8 -1 -1</clus>
<clus scale="  106.782">  1  5  2 -1</clus>
<clus scale="   26.484">  2  5  1 -1</clus>
</clustering>
</event>
<event>
10    4  0.3043429E-005  0.1735741E+03  0.7546771E-02  0.1192341E+00
         21   -1    0    0  503  502  0.00000000000E+00  0.00000000000E+00  0.25493599639E+03  0.25493599639E+03  0.00000000000E+00 0. -1.
          2   -1    0    0  502    0 -0.00000000000E+00 -0.00000000000E+00 -0.33582925316E+03  0.33582925316E+03  0.00000000000E+00 0. -1.
         24    2    1    2    0    0 -0.24135124685E+02  0.88084108360E+02  0.31718559012E+02  0.12548130200E+03  0.79988597799E+02 0.  0.
         23    2    1    2    0    0 -0.98983995184E+02  0.26306079852E+02 -0.21546783535E+03  0.25475448183E+03  0.89351087297E+02 0.  0.
        -13    1    3    3    0    0 -0.32367795147E+02 -0.49865718602E+00  0.10357644272E+02  0.33988286461E+02  0.00000000000E+00 0.  1.
         14    1    3    3    0    0  0.82326704625E+01  0.88582765546E+02  0.21360914740E+02  0.91493015544E+02  0.00000000000E+00 0. -1.
        -11    1    4    4    0    0 -0.22117326414E+02  0.17615305035E+02 -0.27509075005E+01  0.28408495055E+02  0.00000000000E+00 0.  1.
         11    1    4    4    0    0 -0.76866668770E+02  0.86907748173E+01 -0.21271692785E+03  0.22634598677E+03  0.00000000000E+00 0. -1.
         21    1    1    2  503  501 -0.33185033584E+01 -0.23804652075E+02  0.30916459200E+02  0.39159946047E+02  0.00000000000E+00 0. -1.
          1    1    1    2  501    0  0.12643762323E+03 -0.90585536138E+02  0.71939560369E+02  0.17136951967E+03  0.00000000000E+00 0. -1.
<scales pt_clust_5="13000.00000" pt_clust_6="13000.00000" pt_clust_7="13000.00000" pt_clust_8="13000.00000" pt_clust_9="24.03485" pt_clust_10="148.80976"></scales>
<clustering>
<clus scale="   24.035">  1  9  2 -1</clus>
<clus scale="   79.989">  5  6 -1 -1</clus>
<clus scale="   89.351">  7  8 -1 -1</clus>
<clus scale="  115.636">  2  5  1 -1</clus>
<clus scale="  148.810">  1 10  2 -1</clus>
<clus scale="   24.035">  1  5  2 -1</clus>
</clustering>
</event>
<event>
10    4  0.4934877E-005  0.3186083E+03  0.7546771E-02  0.1123957E+00
         21   -1    0    0  501  502  0.00000000000E+00  0.00000000000E+00  0.71406061059E+02  0.71406061059E+02  0.00000000000E+00 0.  1.
          2   -1    0    0  503    0 -0.00000000000E+00 -0.00000000000E+00 -0.23088125332E+04  0.23088125332E+04  0.00000000000E+00 0. -1.
         23    2    1    2    0    0  0.25773042549E+01 -0.23044971585E+02 -0.21883466375E+03  0.23760814258E+03  0.89617554927E+02 0.  0.
         24    2    1    2    0    0 -0.29004761647E+03 -0.13552118599E+03 -0.72251872974E+03  0.79469603462E+03  0.83754766641E+02 0.  0.
        -11    1    4    4    0    0 -0.29415751907E+03 -0.13512893282E+03 -0.69285117006E+03  0.76474258308E+03  0.00000000000E+00 0.  1.
         12    1    4    4    0    0  0.41099026021E+01 -0.39225317523E+00 -0.29667559679E+02  0.29953451542E+02  0.00000000000E+00 0. -1.
        -13    1    3    3    0    0 -0.36393503479E+02 -0.60878524427E+01 -0.16470368450E+03  0.16878641157E+03  0.00000000000E+00 0. -1.
         13    1    3    3    0    0  0.38970807734E+02 -0.16957119142E+02 -0.54130979245E+02  0.68821731009E+02  0.00000000000E+00 0.  1.
         21    1    1    2  503  502  0.23921645934E+02  0.74100026350E+01 -0.10856945116E+02  0.27295174307E+02  0.00000000000E+00 0.  1.
          1    1    1    2  501    0  0.26354866628E+03  0.15115615494E+03 -0.12851961335E+04  0.13206192427E+04  0.00000000000E+00 0. -1.
<scales pt_clust_5="13000.00000" pt_clust_6="13000.00000" pt_clust_7="13000.00000" pt_clust_8="13000.00000" pt_clust_9="25.04303" pt_clust_10="307.40283"></scales>
<clustering>
<clus scale="   25.043">  1  9  2 -1</clus>
<clus scale="   83.755">  5  6 -1 -1</clus>
<clus scale="   89.618">  7  8 -1 -1</clus>
<clus scale="   92.469">  2  7  1 -1</clus>
<clus scale="  307.403">  1 10  2 -1</clus>
<clus scale="   25.043">  1  5  2 -1</clus>
</clustering>
</event>
<event>
10    4  0.3043429E-005  0.1217827E+03  0.7546771E-02  0.1246329E+00
         21   -1    0    0  501  502  0.00000000000E+00  0.00000000000E+00  0.37468594923E+03  0.37468594923E+03  0.00000000000E+00 0.  1.
          2   -1    0    0  503    0 -0.00000000000E+00 -0.00000000000E+00 -0.83898872449E+03  0.83898872449E+03  0.00000000000E+00 0. -1.
         24    2    1    2    0    0 -0.52740740571E+02  0.38342707330E+02 -0.48626160843E+03  0.49706521175E+03  0.79823079212E+02 0.  0.
         23    2    1    2    0    0  0.47864752258E+02 -0.81870072164E+02 -0.32414559090E+03  0.35170452505E+03  0.98142578013E+02 0.  0.
        -13    1    3    3    0    0 -0.33853762131E+01  0.51157707595E+02 -0.27485294991E+03  0.27959384095E+03  0.00000000000E+00 0.  1.
         14    1    3    3    0    0 -0.49355364358E+02 -0.12815000264E+02 -0.21140865852E+03  0.21747137080E+03  0.00000000000E+00 0. -1.
        -13    1    4    4    0    0  0.68321820460E+02 -0.45268385315E+02 -0.27574461625E+03  0.28766680596E+03  0.00000000000E+00 0.  1.
         13    1    4    4    0    0 -0.20457068202E+02 -0.36601686849E+02 -0.48400974642E+02  0.64037719087E+02  0.00000000000E+00 0. -1.
         21    1    1    2  503  502 -0.42114448808E+02  0.20062747259E+02  0.25917783967E+03  0.26334253968E+03  0.00000000000E+00 0.  1.
          1    1    1    2  501    0  0.46990437121E+02  0.23464617574E+02  0.86926584401E+02  0.10156239725E+03  0.00000000000E+00 0. -1.
<scales pt_clust_5="13000.00000" pt_clust_6="13000.00000" pt_clust_7="13000.00000" pt_clust_8="13000.00000" pt_clust_9="46.64912" pt_clust_10="41.88955"></scales>
<clustering>
<clus scale="   46.649">  1  9  2 -1</clus>
<clus scale="   41.890">  1 10  2 -1</clus>
<clus scale="   79.823">  5  6 -1 -1</clus>
<clus scale="   98.143">  7  8 -1 -1</clus>
<clus scale="  107.568">  2  5  1 -1</clus>
<clus scale="   46.649">  1  5  2 -1</clus>
</clustering>
</event>
<event>
10    4  0.3043429E-005  0.3311831E+03  0.7546771E-02  0.1112753E+00
         21   -1    0    0  501  502  0.00000000000E+00  0.00000000000E+00  0.17420950698E+03  0.17420950698E+03  0.00000000000E+00 0. -1.
          2   -1    0    0  503    0 -0.00000000000E+00 -0.00000000000E+00 -0.16174382046E+04  0.16174382046E+04  0.00000000000E+00 0. -1.
         23    2    1    2    0    0 -0.82042558694E+02  0.20300341257E+02 -0.18807871906E+03  0.22112515871E+03  0.79872685959E+02 0.  0.
         24    2    1    2    0    0  0.28790834988E+03 -0.11253285235E+03 -0.34572672663E+03  0.47101194311E+03  0.82282563526E+02 0.  0.
        -11    1    4    4    0    0  0.71885746071E+02  0.41636207025E+01 -0.55847645114E+02  0.91125494184E+02  0.00000000000E+00 0.  1.
         12    1    4    4    0    0  0.21602260381E+03 -0.11669647306E+03 -0.28987908151E+03  0.37988644893E+03  0.00000000000E+00 0. -1.
        -13    1    3    3    0    0 -0.29884827204E+02  0.43087002334E+02 -0.53055017698E+02  0.74595090790E+02  0.00000000000E+00 0.  1.
         13    1    3    3    0    0 -0.52157731490E+02 -0.22786661077E+02 -0.13502370136E+03  0.14653006792E+03  0.00000000000E+00 0. -1.
         21    1    1    2  503  502  0.60716048334E+02 -0.13147053739E+02  0.61343408694E+02  0.87305769211E+02  0.00000000000E+00 0. -1.
          1    1    1    2  501    0 -0.26658183952E+03  0.10537956483E+03 -0.97076666066E+03  0.10122048406E+04  0.00000000000E+00 0. -1.
<scales pt_clust_5="13000.00000" pt_clust_6="13000.00000" pt_clust_7="13000.00000" pt_clust_8="13000.00000" pt_clust_9="62.12313" pt_clust_10="320.79891"></scales>
<clustering>
<clus scale="   62.123">  1  9  2 -1</clus>
<clus scale="   79.873">  7  8 -1 -1</clus>
<clus scale="   82.283">  5  6 -1 -1</clus>
<clus scale="  109.051">  2  7  1 -1</clus>
<clus scale="  320.799">  1 10  2 -1</clus>
<clus scale="   62.123">  1  5  2 -1</clus>
</clustering>
</event>
<event>
10    4  0.3043429E-005  0.1114935E+03  0.7546771E-02  0.1271915E+00
          2   -1    0    0  503    0 -0.00000000000E+00  0.00000000000E+00  0.56749570561E+03  0.56749570561E+03  0.00000000000E+00 0. -1.
         21   -1    0    0  501  502  0.00000000000E+00 -0.00000000000E+00 -0.72288471881E+02  0.72288471881E+02  0.00000000000E+00 0. -1.
         24    2    1    2    0    0 -0.23226745962E+02 -0.11080571121E+02  0.72181211882E+02  0.11085573466E+03  0.80103718847E+02 0.  0.
         23    2    1    2    0    0 -0.61394564436E+02 -0.35885166489E+01  0.24218643284E+02  0.11198743670E+03  0.90401732855E+02 0.  0.
        -13    1    3    3    0    0 -0.12294416908E+01  0.33870723066E+02  0.32908049828E+02  0.47240630302E+02  0.00000000000E+00 0.  1.
         14    1    3    3    0    0 -0.21997304271E+02 -0.44951294187E+02  0.39273162054E+02  0.63615104354E+02  0.00000000000E+00 0. -1.
        -13    1    4    4    0    0  0.17331217779E+02 -0.13372018427E+02 -0.11793353921E+02  0.24864938834E+02  0.00000000000E+00 0. -1.
         13    1    4    4    0    0 -0.78725782215E+02  0.97835017778E+01  0.36011997205E+02  0.87122497870E+02  0.00000000000E+00 0.  1.
         21    1    1    2  503  502  0.51819033834E+01 -0.20605011728E+02  0.23416623374E+02  0.31618932322E+02  0.00000000000E+00 0.  1.
          1    1    1    2  501    0  0.79439407014E+02  0.35274099498E+02  0.37539075519E+03  0.38532207381E+03  0.00000000000E+00 0. -1.
<scales pt_clust_5="13000.00000" pt_clust_6="13000.00000" pt_clust_7="13000.00000" pt_clust_8="13000.00000" pt_clust_9="21.24661" pt_clust_10="65.25594"></scales>
<clustering>
<clus scale="   21.247">  2  9  1 -1</clus>
<clus scale="   80.104">  5  6 -1 -1</clus>
<clus scale="   84.714">  1  5  2 -1</clus>
<clus scale="   65.256">  2 10  1 -1</clus>
<clus scale="   90.402">  7  8 -1 -1</clus>
<clus scale="   21.247">  2  5  1 -1</clus>
</clustering>
</event>
<event>
10    4  0.3043429E-005  0.2510893E+03  0.7546771E-02  0.1126754E+00
         21   -1    0    0  501  502  0.00000000000E+00  0.00000000000E+00  0.61594716828E+03  0.61594716828E+03  0.00000000000E+00 0. -1.
          2   -1    0    0  503    0 -0.00000000000E+00 -0.00000000000E+00 -0.29920499206E+03  0.29920499206E+03  0.00000000000E+00 0. -1.
         24    2    1    2    0    0 -0.15022647484E+03  0.37433578203E+02 -0.28560283224E+02  0.17680789812E+03  0.80474073699E+02 0.  0.
         23    2    1    2    0    0  0.14067350582E+03 -0.21832537926E+03  0.30617156177E+03  0.41144587571E+03  0.89953748852E+02 0.  0.
        -13    1    3    3    0    0 -0.22134971146E+02  0.18587011057E+00 -0.37030293785E+02  0.43142023053E+02  0.00000000000E+00 0.  1.
         14    1    3    3    0    0 -0.12809150370E+03  0.37247708092E+02  0.84700105609E+01  0.13366587506E+03  0.00000000000E+00 0. -1.
        -11    1    4    4    0    0  0.14511183604E+03 -0.15896062357E+03  0.23537911790E+03  0.31895023741E+03  0.00000000000E+00 0. -1.
         11    1    4    4    0    0 -0.44383302288E+01 -0.59364755690E+02  0.70792443873E+02  0.92495638291E+02  0.00000000000E+00 0.  1.
         21    1    1    2  503  502 -0.17272497431E+02 -0.13586231410E+02  0.11451401365E+03  0.11660353414E+03  0.00000000000E+00 0. -1.
          1    1    1    2  501    0  0.26825466460E+02  0.19447803247E+03 -0.75383115978E+02  0.21029485238E+03  0.00000000000E+00 0. -1.
<scales pt_clust_5="13000.00000" pt_clust_6="13000.00000" pt_clust_7="13000.00000" pt_clust_8="13000.00000" pt_clust_9="21.97555" pt_clust_10="234.42310"></scales>
<clustering>
<clus scale="   21.976">  1  9  2 -1</clus>
<clus scale="   80.474">  5  6 -1 -1</clus>
<clus scale="   89.954">  7  8 -1 -1</clus>
<clus scale="  176.278">  2  5  1 -1</clus>
<clus scale="  234.423">  1 10  2 -1</clus>
<clus scale="   21.976">  1  5  2 -1</clus>
</clustering>
</event>
<event>
10    4  0.3043429E-005  0.1774421E+03  0.7546771E-02  0.1182282E+00
         21   -1    0    0  501  502  0.00000000000E+00  0.00000000000E+00  0.98574644035E+02  0.98574644035E+02  0.00000000000E+00 0. -1.
          2   -1    0    0  503    0 -0.00000000000E+00 -0.00000000000E+00 -0.12369421776E+04  0.12369421776E+04  0.00000000000E+00 0. -1.
         24    2    1    2    0    0 -0.35286206675E+02  0.14962132869E+03 -0.54700197786E+03  0.57394128156E+03  0.81029454588E+02 0.  0.
         23    2    1    2    0    0 -0.70157214650E+02  0.10001221769E+03 -0.17286914825E+03  0.22959434457E+03  0.88911991226E+02 0.  0.
        -13    1    3    3    0    0  0.11116010560E+02  0.23395445544E+02 -0.29533922702E+02  0.39283140826E+02  0.00000000000E+00 0.  1.
         14    1    3    3    0    0 -0.46402217234E+02  0.12622588315E+03 -0.51746805516E+03  0.53465814073E+03  0.00000000000E+00 0. -1.
        -11    1    4    4    0    0 -0.49678673362E+02  0.17035211477E+01 -0.69835702275E+02  0.85719880329E+02  0.00000000000E+00 0.  1.
         11    1    4    4    0    0 -0.20478541288E+02  0.98308696543E+02 -0.10303344598E+03  0.14387446424E+03  0.00000000000E+00 0. -1.
         21    1    1    2  503  502  0.13990105241E+03 -0.13377231010E+03 -0.17869563802E+03  0.26343778480E+03  0.00000000000E+00 0. -1.
          1    1    1    2  501    0 -0.34457631089E+02 -0.11586123628E+03 -0.23980076943E+03  0.26854341071E+03  0.00000000000E+00 0. -1.
<scales pt_clust_5="13000.00000" pt_clust_6="13000.00000" pt_clust_7="13000.00000" pt_clust_8="13000.00000" pt_clust_9="157.86047" pt_clust_10="120.87667"></scales>
<clustering>
<clus scale="   81.029">  5  6 -1 -1</clus>
<clus scale="   88.912">  7  8 -1 -1</clus>
<clus scale="  120.877">  1 10  2 -1</clus>
<clus scale="  135.314">  1  7  2 -1</clus>
<clus scale="  157.860">  1  9  2 -1</clus>
<clus scale="  120.877">  1  5  2 -1</clus>
</clustering>
</event>
<event>
10    4  0.3043429E-005  0.2986861E+03  0.7546771E-02  0.1133726E+00
         21   -1    0    0  503  502  0.00000000000E+00  0.00000000000E+00  0.10063886405E+04  0.10063886405E+04  0.00000000000E+00 0. -1.
          2   -1    0    0  502    0 -0.00000000000E+00 -0.00000000000E+00 -0.17406110044E+03  0.17406110044E+03  0.00000000000E+00 0. -1.
         24    2    1    2    0    0 -0.20494548015E+02 -0.27374834523E+02 -0.24875399856E+02  0.91351422091E+02  0.80974617854E+02 0.  0.
         23    2    1    2    0    0 -0.24056293470E+03  0.14416165204E+03  0.20476927585E+03  0.35921682924E+03  0.91941104003E+02 0.  0.
        -13    1    3    3    0    0 -0.18609678834E+01 -0.37969236537E+02  0.19015985528E+02  0.42505691740E+02  0.00000000000E+00 0.  1.
         14    1    3    3    0    0 -0.18633580132E+02  0.10594402014E+02 -0.43891385384E+02  0.48845730351E+02  0.00000000000E+00 0. -1.
        -13    1    4    4    0    0 -0.32022109294E+02 -0.28852014270E+01  0.53959914951E+02  0.62812517005E+02  0.00000000000E+00 0.  1.
         13    1    4    4    0    0 -0.20854082541E+03  0.14704685347E+03  0.15080936090E+03  0.29640431224E+03  0.00000000000E+00 0. -1.
         21    1    1    2  503  501 -0.11252608578E+02 -0.20586282200E+02  0.13751091679E+03  0.13949791558E+03  0.00000000000E+00 0. -1.
          1    1    1    2  501    0  0.27231009130E+03 -0.96200535322E+02  0.51492274723E+03  0.59038357398E+03  0.00000000000E+00 0. -1.
<scales pt_clust_5="13000.00000" pt_clust_6="13000.00000" pt_clust_7="13000.00000" pt_clust_8="13000.00000" pt_clust_9="23.46095" pt_clust_10="284.18341"></scales>
<clustering>
<clus scale="   23.461">  1  9  2 -1</clus>
<clus scale="   80.975">  5  6 -1 -1</clus>
<clus scale="   88.249">  2  5  1 -1</clus>
<clus scale="   91.941">  7  8 -1 -1</clus>
<clus scale="  284.183">  1 10  2 -1</clus>
<clus scale="   23.461">  1  5  2 -1</clus>
</clustering>
</event>
<event>
10    4  0.3043429E-005  0.1806680E+03  0.7546771E-02  0.1187292E+00
          4   -1    0    0  502    0 -0.00000000000E+00  0.00000000000E+00  0.27094017531E+03  0.27094017531E+03  0.00000000000E+00 0. -1.
         21   -1    0    0  503  502  0.00000000000E+00 -0.00000000000E+00 -0.24927941261E+03  0.24927941261E+03  0.00000000000E+00 0.  1.
         24    2    1    2    0    0 -0.54355977839E+02  0.56454986194E+02  0.78118666760E+02  0.13864758944E+03  0.83539752018E+02 0.  0.
         23    2    1    2    0    0  0.18925878766E+02 -0.16584412820E+03 -0.80056689079E+02  0.20833892270E+03  0.95569710162E+02 0.  0.
        -13    1    3    3    0    0 -0.19500104961E+02 -0.21571631944E+02  0.19113676472E+02  0.34798304937E+02  0.00000000000E+00 0.  1.
         14    1    3    3    0    0 -0.34855872879E+02  0.78026618139E+02  0.59004990287E+02  0.10384928450E+03  0.00000000000E+00 0. -1.
        -11    1    4    4    0    0  0.36998638057E+02 -0.13180429334E+03 -0.22001023166E+02  0.13865538569E+03  0.00000000000E+00 0. -1.
         11    1    4    4    0    0 -0.18072759291E+02 -0.34039834861E+02 -0.58055665913E+02  0.69683537011E+02  0.00000000000E+00 0.  1.
         21    1    1    2  503  501 -0.19424192710E+02 -0.17967052102E+02 -0.13478027324E+02  0.29694636624E+02  0.00000000000E+00 0.  1.
          3    1    1    2  501    0  0.54854291784E+02  0.12735619411E+03  0.37076812347E+02  0.14353843916E+03  0.00000000000E+00 0. -1.
<scales pt_clust_5="13000.00000" pt_clust_6="13000.00000" pt_clust_7="13000.00000" pt_clust_8="13000.00000" pt_clust_9="26.45967" pt_clust_10="153.32121"></scales>
<clustering>
<clus scale="   26.460">  2  9  1 -1</clus>
<clus scale="   83.540">  5  6 -1 -1</clus>
<clus scale="   95.570">  7  8 -1 -1</clus>
<clus scale="  114.647">  1  5  2 -1</clus>
<clus scale="  153.321">  2 10  1 -1</clus>
<clus scale="   26.460">  2  5  1 -1</clus>
</clustering>
</event>
<event>
10    4  0.3043429E-005  0.9715265E+02  0.7546771E-02  0.1292224E+00
         21   -1    0    0  501  502  0.00000000000E+00  0.00000000000E+00  0.53819057087E+02  0.53819057087E+02  0.00000000000E+00 0. -1.
          2   -1    0    0  503    0 -0.00000000000E+00 -0.00000000000E+00 -0.70090418669E+03  0.70090418669E+03  0.00000000000E+00 0. -1.
         24    2    1    2    0    0  0.37954846497E+02 -0.28598545272E+01 -0.20569021316E+03  0.22431623377E+03  0.80997282682E+02 0.  0.
         23    2    1    2    0    0  0.31334731976E+02  0.91446217048E+02 -0.11252941076E+03  0.17441233306E+03  0.91719777567E+02 0.  0.
        -11    1    3    3    0    0 -0.11450391675E+02 -0.23485222463E+02 -0.26159407214E+02  0.36972716014E+02  0.00000000000E+00 0.  1.
         12    1    3    3    0    0  0.49405238172E+02  0.20625367936E+02 -0.17953080595E+03  0.18734351776E+03  0.00000000000E+00 0. -1.
        -13    1    4    4    0    0  0.49886654305E+02  0.23878299404E+02 -0.21039795064E+02  0.59173680268E+02  0.00000000000E+00 0.  1.
         13    1    4    4    0    0 -0.18551922329E+02  0.67567917644E+02 -0.91489615700E+02  0.11523865279E+03  0.00000000000E+00 0. -1.
         21    1    1    2  503  502 -0.32563108892E+02 -0.22756920980E+02 -0.36095916904E+02  0.53676333057E+02  0.00000000000E+00 0. -1.
          1    1    1    2  501    0 -0.36726469580E+02 -0.65829441541E+02 -0.29276958877E+03  0.30231834389E+03  0.00000000000E+00 0. -1.
<scales pt_clust_5="13000.00000" pt_clust_6="13000.00000" pt_clust_7="13000.00000" pt_clust_8="13000.00000" pt_clust_9="39.72699" pt_clust_10="79.19207"></scales>
<clustering>
<clus scale="   39.727">  1  9  2 -1</clus>
<clus scale="   79.192">  1 10  2 -1</clus>
<clus scale="   80.997">  5  6 -1 -1</clus>
<clus scale="   87.102">  2  5  1 -1</clus>
<clus scale="   91.720">  7  8 -1 -1</clus>
<clus scale="   39.727">  1  5  2 -1</clus>
</clustering>
</event>
<event>
10    4  0.4098848E-005  0.3973638E+03  0.7546771E-02  0.1088697E+00
          2   -1    0    0  503    0 -0.00000000000E+00  0.00000000000E+00  0.33555859737E+04  0.33555859737E+04  0.00000000000E+00 0. -1.
         21   -1    0    0  501  502  0.00000000000E+00 -0.00000000000E+00 -0.89171231122E+02  0.89171231122E+02  0.00000000000E+00 0. -1.
         23    2    1    2    0    0  0.66918903783E+02 -0.30162181600E+02  0.31301304826E+03  0.33419968115E+03  0.91237939563E+02 0.  0.
         24    2    1    2    0    0 -0.42570849504E+03 -0.70719185424E+02  0.22734661277E+04  0.23154526640E+04  0.80273779304E+02 0.  0.
        -13    1    4    4    0    0 -0.52228706800E+02 -0.29079438425E+01  0.16508551466E+03  0.17317482814E+03  0.00000000000E+00 0.  1.
         14    1    4    4    0    0 -0.37347978824E+03 -0.67811241582E+02  0.21083806130E+04  0.21422778359E+04  0.00000000000E+00 0. -1.
        -13    1    3    3    0    0  0.54443308702E+02  0.90755803749E+01  0.77681838689E+02  0.95293798768E+02  0.00000000000E+00 0. -1.
         13    1    3    3    0    0  0.12475595082E+02 -0.39237761975E+02  0.23533120957E+03  0.23890588238E+03  0.00000000000E+00 0.  1.
         21    1    1    2  503  502 -0.28015578946E+01 -0.25190945404E+02  0.20730534017E+02  0.32744274272E+02  0.00000000000E+00 0. -1.
          1    1    1    2  501    0  0.36159114915E+03  0.12607231243E+03  0.65920503255E+03  0.76236058532E+03  0.00000000000E+00 0. -1.
<scales pt_clust_5="13000.00000" pt_clust_6="13000.00000" pt_clust_7="13000.00000" pt_clust_8="13000.00000" pt_clust_9="25.34625" pt_clust_10="389.17108"></scales>
<clustering>
<clus scale="   25.346">  2  9  1 -1</clus>
<clus scale="   80.274">  5  6 -1 -1</clus>
<clus scale="   91.238">  7  8 -1 -1</clus>
<clus scale="  117.765">  1  7  2 -1</clus>
<clus scale="  389.171">  2 10  1 -1</clus>
<clus scale="   25.346">  2  5  1 -1</clus>
</clustering>
</event>
<event>
10    4  0.3043429E-005  0.1518834E+03  0.7546771E-02  0.1208839E+00
         21   -1    0    0  503  502  0.00000000000E+00  0.00000000000E+00  0.34949302659E+03  0.34949302659E+03  0.00000000000E+00 0.  1.
         -1   -1    0    0    0  501 -0.00000000000E+00 -0.00000000000E+00 -0.17312717148E+03  0.17312717148E+03  0.00000000000E+00 0.  1.
         23    2    1    2    0    0 -0.73808667780E+02  0.41708450076E+02 -0.33603146532E+02  0.12801141257E+03  0.89835605656E+02 0.  0.
         24    2    1    2    0    0 -0.12840857424E+02  0.10383310245E+03  0.51294901016E+02  0.14104056308E+03  0.79467432197E+02 0.  0.
        -11    1    4    4    0    0 -0.42859637344E+02  0.68696589066E+02  0.49270363132E+02  0.94782585667E+02  0.00000000000E+00 0.  1.
         12    1    4    4    0    0  0.30018779920E+02  0.35136513384E+02  0.20245378839E+01  0.46257977413E+02  0.00000000000E+00 0. -1.
        -11    1    3    3    0    0 -0.51186415450E+02 -0.13156116869E+02  0.10738355447E+02  0.53929999215E+02  0.00000000000E+00 0.  1.
         11    1    3    3    0    0 -0.22622252331E+02  0.54864566945E+02 -0.44341501979E+02  0.74081413353E+02  0.00000000000E+00 0. -1.
         21    1    1    2  503  501  0.29440545745E+02  0.21527847692E+00  0.64363803330E+02  0.70777759626E+02  0.00000000000E+00 0.  1.
         -2    1    1    2    0  502  0.57208979459E+02 -0.14575683100E+03  0.94310297299E+02  0.18279046280E+03  0.00000000000E+00 0.  1.
<scales pt_clust_5="13000.00000" pt_clust_6="13000.00000" pt_clust_7="13000.00000" pt_clust_8="13000.00000" pt_clust_9="29.44133" pt_clust_10="129.43534"></scales>
<clustering>
<clus scale="   29.441">  1  9  2 -1</clus>
<clus scale="   79.467">  5  6 -1 -1</clus>
<clus scale="   89.836">  7  8 -1 -1</clus>
<clus scale="  120.654">  2  7  1 -1</clus>
<clus scale="  129.435">  1 10  2 -1</clus>
<clus scale="   29.441">  1  5  2 -1</clus>
</clustering>
</event>
<event>
10    4  0.3043429E-005  0.9174145E+02  0.7546771E-02  0.1305549E+00
         21   -1    0    0  501  502  0.00000000000E+00  0.00000000000E+00  0.18328235861E+03  0.18328235861E+03  0.00000000000E+00 0. -1.
          2   -1    0    0  503    0 -0.00000000000E+00 -0.00000000000E+00 -0.17841431740E+03  0.17841431740E+03  0.00000000000E+00 0. -1.
         24    2    1    2    0    0  0.77163309860E+01  0.78243057420E+01 -0.10548636995E+03  0.13308864976E+03  0.80401821656E+02 0.  0.
         23    2    1    2    0    0  0.23780146151E+02 -0.11139917833E+02  0.38290282773E+02  0.10244850898E+03  0.91323371143E+02 0.  0.
        -13    1    3    3    0    0  0.18659374222E+02  0.40038475119E+02 -0.76752610812E+02  0.88556281554E+02  0.00000000000E+00 0.  1.
         14    1    3    3    0    0 -0.10943043236E+02 -0.32214169377E+02 -0.28733759136E+02  0.44532368206E+02  0.00000000000E+00 0. -1.
        -11    1    4    4    0    0 -0.31478809338E+02 -0.17775015438E+02  0.24130728651E+01  0.36231057558E+02  0.00000000000E+00 0.  1.
         11    1    4    4    0    0  0.55258955489E+02  0.66350976048E+01  0.35877209908E+02  0.66217451421E+02  0.00000000000E+00 0. -1.
         21    1    1    2  503  502 -0.74558751623E+01  0.24254682186E+02  0.87236748997E+02  0.90852242999E+02  0.00000000000E+00 0. -1.
          1    1    1    2  501    0 -0.24040601975E+02 -0.20939070095E+02 -0.15172620615E+02  0.35307274266E+02  0.00000000000E+00 0. -1.
<scales pt_clust_5="13000.00000" pt_clust_6="13000.00000" pt_clust_7="13000.00000" pt_clust_8="13000.00000" pt_clust_9="25.37478" pt_clust_10="30.87929"></scales>
<clustering>
<clus scale="   25.375">  1  9  2 -1</clus>
<clus scale="   30.879">  1 10  2 -1</clus>
<clus scale="   80.402">  5  6 -1 -1</clus>
<clus scale="   80.876">  2  5  1 -1</clus>
<clus scale="   91.323">  7  8 -1 -1</clus>
<clus scale="   25.375">  1  5  2 -1</clus>
</clustering>
</event>
<event>
10    4  0.3043429E-005  0.2028033E+03  0.7546771E-02  0.1148586E+00
          2   -1    0    0  503    0 -0.00000000000E+00  0.00000000000E+00  0.16703465949E+04  0.16703465949E+04  0.00000000000E+00 0. -1.
         21   -1    0    0  501  502  0.00000000000E+00 -0.00000000000E+00 -0.25572407759E+03  0.25572407759E+03  0.00000000000E+00 0. -1.
         23    2    1    2    0    0 -0.23688092852E+02 -0.19347635444E+03  0.90790229919E+03  0.93296783079E+03  0.90267175310E+02 0.  0.
         24    2    1    2    0    0  0.14946104233E+03  0.12549400988E+03  0.69653466409E+03  0.72741419011E+03  0.76704080824E+02 0.  0.
        -13    1    4    4    0    0  0.13937753860E+03  0.10631262249E+03  0.50300112032E+03  0.53267119221E+03  0.00000000000E+00 0.  1.
         14    1    4    4    0    0  0.10083503727E+02  0.19181387387E+02  0.19353354377E+03  0.19474299790E+03  0.00000000000E+00 0. -1.
        -11    1    3    3    0    0 -0.43173732926E+02 -0.10114090491E+03  0.62878473446E+03  0.63832883074E+03  0.00000000000E+00 0.  1.
         11    1    3    3    0    0  0.19485640074E+02 -0.92335449536E+02  0.27911756473E+03  0.29463900005E+03  0.00000000000E+00 0. -1.
         21    1    1    2  503  502 -0.55814189268E+01 -0.28339628230E+02 -0.14484606049E+02  0.32312390469E+02  0.00000000000E+00 0. -1.
          1    1    1    2  501    0 -0.12019153055E+03  0.96321972799E+02 -0.17532983995E+03  0.23337626108E+03  0.00000000000E+00 0. -1.
<scales pt_clust_5="13000.00000" pt_clust_6="13000.00000" pt_clust_7="13000.00000" pt_clust_8="13000.00000" pt_clust_9="28.88402" pt_clust_10="144.03964"></scales>
<clustering>
<clus scale="   28.884">  2  9  1 -1</clus>
<clus scale="   76.704">  5  6 -1 -1</clus>
<clus scale="   90.267">  7  8 -1 -1</clus>
<clus scale="  144.040">  2 10  1 -1</clus>
<clus scale="  197.141">  2  5  1 -1</clus>
<clus scale="   28.884">  2  5  1 -1</clus>
</clustering>
</event>
<event>
10    4  0.3043429E-005  0.2016183E+03  0.7546771E-02  0.1167563E+00
         -1   -1    0    0    0  501 -0.00000000000E+00  0.00000000000E+00  0.33544174686E+03  0.33544174686E+03  0.00000000000E+00 0.  1.
         21   -1    0    0  501  502  0.00000000000E+00 -0.00000000000E+00 -0.45723838307E+03  0.45723838307E+03  0.00000000000E+00 0.  1.
         24    2    1    2    0    0 -0.39436263049E+02 -0.84841597723E+02  0.31412817209E+01  0.12496616860E+03  0.82785023386E+02 0.  0.
         23    2    1    2    0    0  0.39045101054E+02 -0.10450240826E+03  0.19221692579E+03  0.24002693755E+03  0.90665930431E+02 0.  0.
        -11    1    3    3    0    0 -0.48646279971E+02 -0.96075641799E+02  0.11341150792E+02  0.10828486138E+03  0.00000000000E+00 0.  1.
         12    1    3    3    0    0  0.92100169214E+01  0.11234044076E+02 -0.81998690712E+01  0.16681307227E+02  0.00000000000E+00 0. -1.
        -11    1    4    4    0    0  0.30848110900E+02  0.66067359681E+01  0.32520877061E+02  0.45308524044E+02  0.00000000000E+00 0. -1.
         11    1    4    4    0    0  0.81969901547E+01 -0.11110914422E+03  0.15969604873E+03  0.19471841351E+03  0.00000000000E+00 0.  1.
         21    1    1    2  503  502 -0.96384298488E+01 -0.22465696096E+02 -0.16474707243E+03  0.16655090725E+03  0.00000000000E+00 0.  1.
         -2    1    1    2    0  503  0.10029591844E+02  0.21180970208E+03 -0.15240777129E+03  0.26113611653E+03  0.00000000000E+00 0.  1.
<scales pt_clust_5="13000.00000" pt_clust_6="13000.00000" pt_clust_7="13000.00000" pt_clust_8="13000.00000" pt_clust_9="24.44600" pt_clust_10="180.08224"></scales>
<clustering>
<clus scale="   24.446">  2  9  1 -1</clus>
<clus scale="   82.785">  5  6 -1 -1</clus>
<clus scale="   90.666">  7  8 -1 -1</clus>
<clus scale="  128.794">  1  5  2 -1</clus>
<clus scale="  180.082">  2 10  1 -1</clus>
<clus scale="   24.446">  2  5  1 -1</clus>
</clustering>
</event>
<event>
10    4  0.3043429E-005  0.1567739E+03  0.7546771E-02  0.1199068E+00
         21   -1    0    0  503  502  0.00000000000E+00  0.00000000000E+00  0.74644170668E+02  0.74644170668E+02  0.00000000000E+00 0. -1.
          2   -1    0    0  502    0 -0.00000000000E+00 -0.00000000000E+00 -0.14390688377E+04  0.14390688377E+04  0.00000000000E+00 0. -1.
         24    2    1    2    0    0  0.12567677203E+03  0.29454626649E+02 -0.40634496409E+03  0.43333779217E+03  0.77480231217E+02 0.  0.
         23    2    1    2    0    0 -0.56803170196E+01 -0.11381239927E+03 -0.71772630837E+02  0.17426763022E+03  0.11060003695E+03 0.  0.
        -13    1    3    3    0    0  0.66047214493E+02  0.30046624687E+02 -0.11519001449E+03  0.13613880283E+03  0.00000000000E+00 0.  1.
         14    1    3    3    0    0  0.59629557538E+02 -0.59199803773E+00 -0.29115494960E+03  0.29719898935E+03  0.00000000000E+00 0. -1.
        -13    1    4    4    0    0 -0.19877283612E+02  0.17642875783E+02 -0.11552165485E+02  0.28979820515E+02  0.00000000000E+00 0.  1.
         13    1    4    4    0    0  0.14196966593E+02 -0.13145527506E+03 -0.60220465352E+02  0.14528780970E+03  0.00000000000E+00 0. -1.
         21    1    1    2  503  501 -0.17643401725E+02 -0.15767739384E+02 -0.31530870684E+02  0.39422164271E+02  0.00000000000E+00 0.  1.
          1    1    1    2  501    0 -0.10235305329E+03  0.10012551201E+03 -0.85477620144E+03  0.86668542172E+03  0.00000000000E+00 0. -1.
<scales pt_clust_5="13000.00000" pt_clust_6="13000.00000" pt_clust_7="13000.00000" pt_clust_8="13000.00000" pt_clust_9="23.66244" pt_clust_10="143.33009"></scales>
<clustering>
<clus scale="   23.662">  1  9  2 -1</clus>
<clus scale="   77.480">  5  6 -1 -1</clus>
<clus scale="  110.600">  7  8 -1 -1</clus>
<clus scale="  143.330">  1 10  2 -1</clus>
<clus scale="  135.458">  2  5  1 -1</clus>
<clus scale="   23.662">  1  5  2 -1</clus>
</clustering>
</event>
<event>
10    4  0.3043429E-005  0.1807866E+03  0.7546771E-02  0.1174720E+00
         -3   -1    0    0    0  501 -0.00000000000E+00  0.00000000000E+00  0.23261810699E+04  0.23261810699E+04  0.00000000000E+00 0.  1.
         21   -1    0    0  503  502  0.00000000000E+00 -0.00000000000E+00 -0.91724005107E+02  0.91724005107E+02  0.00000000000E+00 0.  1.
         24    2    1    2    0    0  0.65438403666E+02  0.11114476620E+03  0.12677729118E+03  0.19771302946E+03  0.79891280689E+02 0.  0.
         23    2    1    2    0    0  0.13239565625E+03  0.47923873454E+02  0.47883571871E+03  0.50612637814E+03  0.83993795586E+02 0.  0.
        -13    1    3    3    0    0  0.70543436338E+02  0.57985376882E+02  0.49765843886E+02  0.10399672860E+03  0.00000000000E+00 0.  1.
         14    1    3    3    0    0 -0.51050326724E+01  0.53159389317E+02  0.77011447297E+02  0.93716300855E+02  0.00000000000E+00 0. -1.
        -11    1    4    4    0    0  0.10464658060E+03  0.27973412190E+01  0.37792182516E+03  0.39215256965E+03  0.00000000000E+00 0.  1.
         11    1    4    4    0    0  0.27749075653E+02  0.45126532235E+02  0.10091389355E+03  0.11397380849E+03  0.00000000000E+00 0. -1.
         21    1    1    2  503  501 -0.11968719935E+03  0.10872142996E+03  0.19491210137E+03  0.25325106571E+03  0.00000000000E+00 0.  1.
         -4    1    1    2    0  502 -0.78146860573E+02 -0.26779006961E+03  0.14339319535E+04  0.14608146017E+04  0.00000000000E+00 0.  1.
<scales pt_clust_5="13000.00000" pt_clust_6="13000.00000" pt_clust_7="13000.00000" pt_clust_8="13000.00000" pt_clust_9="164.93728" pt_clust_10="160.09015"></scales>
<clustering>
<clus scale="   79.891">  5  6 -1 -1</clus>
<clus scale="   83.994">  7  8 -1 -1</clus>
<clus scale="  151.717">  1  5  2 -1</clus>
<clus scale="  164.937">  2  9  1 -1</clus>
<clus scale="  160.090">  2 10  1 -1</clus>
<clus scale="  164.937">  2  5  1 -1</clus>
</clustering>
</event>
<event>
10    4  0.3043429E-005  0.1076649E+03  0.7546771E-02  0.1269648E+00
          4   -1    0    0  503    0 -0.00000000000E+00  0.00000000000E+00  0.40235168582E+03  0.40235168582E+03  0.00000000000E+00 0. -1.
         21   -1    0    0  501  502  0.00000000000E+00 -0.00000000000E+00 -0.36391933564E+03  0.36391933564E+03  0.00000000000E+00 0. -1.
         24    2    1    2    0    0 -0.61915734545E+02  0.16475344063E+02  0.25236350943E+03  0.27262083206E+03  0.80807066723E+02 0.  0.
         23    2    1    2    0    0 -0.83064809882E+01 -0.81890532626E+02  0.64144298722E+02  0.13910723515E+03  0.91985188218E+02 0.  0.
        -11    1    3    3    0    0 -0.21686294104E+02  0.37080528851E+02  0.53123126243E+02  0.68317841840E+02  0.00000000000E+00 0.  1.
         12    1    3    3    0    0 -0.40229440441E+02 -0.20605184788E+02  0.19924038319E+03  0.20430299022E+03  0.00000000000E+00 0. -1.
        -13    1    4    4    0    0  0.21507964791E+02 -0.60039686227E+00  0.45796943389E+02  0.50599536062E+02  0.00000000000E+00 0.  1.
         13    1    4    4    0    0 -0.29814445779E+02 -0.81290135764E+02  0.18347355332E+02  0.88507699085E+02  0.00000000000E+00 0. -1.
         21    1    1    2  503  502 -0.42568949215E+02  0.84306210088E+02 -0.18254848793E+03  0.20553248634E+03  0.00000000000E+00 0. -1.
          3    1    1    2  501    0  0.11279116475E+03 -0.18891021526E+02 -0.95526970048E+02  0.14901046791E+03  0.00000000000E+00 0. -1.
<scales pt_clust_5="13000.00000" pt_clust_6="13000.00000" pt_clust_7="13000.00000" pt_clust_8="13000.00000" pt_clust_9="94.44391" pt_clust_10="92.16966"></scales>
<clustering>
<clus scale="   80.807">  5  6 -1 -1</clus>
<clus scale="   91.985">  7  8 -1 -1</clus>
<clus scale="   94.444">  2  9  1 -1</clus>
<clus scale="   92.170">  2 10  1 -1</clus>
<clus scale="   98.287">  1  5  2 -1</clus>
<clus scale="   94.444">  2  5  1 -1</clus>
</clustering>
</event>
<event>
10    4  0.3043429E-005  0.2149469E+03  0.7546771E-02  0.1176939E+00
         21   -1    0    0  501  502  0.00000000000E+00  0.00000000000E+00  0.10283697202E+03  0.10283697202E+03  0.00000000000E+00 0. -1.
          2   -1    0    0  503    0 -0.00000000000E+00 -0.00000000000E+00 -0.13038007288E+04  0.13038007288E+04  0.00000000000E+00 0. -1.
         24    2    1    2    0    0  0.24525596532E+02  0.73480959737E+01 -0.40642818045E+03  0.41529407852E+03  0.81423623077E+02 0.  0.
         23    2    1    2    0    0 -0.21119605262E+03  0.59162388993E+02 -0.22064146944E+03  0.32433427474E+03  0.91684801468E+02 0.  0.
        -13    1    3    3    0    0  0.40201873627E+02 -0.19512560533E+01 -0.92996315390E+02  0.10133268337E+03  0.00000000000E+00 0.  1.
         14    1    3    3    0    0 -0.15676277095E+02  0.92993520269E+01 -0.31343186506E+03  0.31396139515E+03  0.00000000000E+00 0. -1.
        -11    1    4    4    0    0 -0.22681435622E+02  0.39590128332E+02 -0.63164448820E+02  0.77920301450E+02  0.00000000000E+00 0.  1.
         11    1    4    4    0    0 -0.18851461699E+03  0.19572260661E+02 -0.15747702062E+03  0.24641397329E+03  0.00000000000E+00 0. -1.
         21    1    1    2  503  502  0.25735685169E+02 -0.46727248587E+00  0.29434987544E+02  0.39101947859E+02  0.00000000000E+00 0. -1.
          1    1    1    2  501    0  0.16093477092E+03 -0.66043212480E+02 -0.60332909442E+03  0.62790739969E+03  0.00000000000E+00 0. -1.
<scales pt_clust_5="13000.00000" pt_clust_6="13000.00000" pt_clust_7="13000.00000" pt_clust_8="13000.00000" pt_clust_9="25.73993" pt_clust_10="194.41218"></scales>
<clustering>
<clus scale="   25.740">  1  9  2 -1</clus>
<clus scale="   81.424">  5  6 -1 -1</clus>
<clus scale="   85.844">  2  5  1 -1</clus>
<clus scale="   91.685">  7  8 -1 -1</clus>
<clus scale="  194.412">  1 10  2 -1</clus>
<clus scale="   25.740">  1  5  2 -1</clus>
</clustering>
</event>
<event>
10    4  0.3043429E-005  0.1296627E+03  0.7546771E-02  0.1230828E+00
          2   -1    0    0  502    0 -0.00000000000E+00  0.00000000000E+00  0.43592799111E+03  0.43592799111E+03  0.00000000000E+00 0. -1.
         21   -1    0    0  503  502  0.00000000000E+00 -0.00000000000E+00 -0.44726143545E+03  0.44726143545E+03  0.00000000000E+00 0.  1.
         23    2    1    2    0    0 -0.44619322341E+02 -0.10312396878E+03  0.35600469124E+03  0.38444743808E+03  0.91842558750E+02 0.  0.
         24    2    1    2    0    0  0.45933656372E+02  0.79052151191E+01  0.62764650730E+01  0.93623699435E+02  0.80954369050E+02 0.  0.
        -13    1    4    4    0    0  0.35354239325E+02  0.66814963472E+01 -0.35479622778E+02  0.50530864470E+02  0.00000000000E+00 0.  1.
         14    1    4    4    0    0  0.10579417047E+02  0.12237187720E+01  0.41756087851E+02  0.43092834965E+02  0.00000000000E+00 0. -1.
        -11    1    3    3    0    0  0.26238562252E+02 -0.31935085896E+02  0.14466399119E+03  0.15045259123E+03  0.00000000000E+00 0.  1.
         11    1    3    3    0    0 -0.70857884593E+02 -0.71188882882E+02  0.21134070005E+03  0.23399484685E+03  0.00000000000E+00 0. -1.
         21    1    1    2  503  501 -0.36543857217E+02  0.42069173539E+02 -0.31028141703E+03  0.31524566074E+03  0.00000000000E+00 0.  1.
          1    1    1    2  501    0  0.35229523186E+02  0.53149580120E+02 -0.63333183632E+02  0.89872628313E+02  0.00000000000E+00 0. -1.
<scales pt_clust_5="13000.00000" pt_clust_6="13000.00000" pt_clust_7="13000.00000" pt_clust_8="13000.00000" pt_clust_9="55.72494" pt_clust_10="78.44596"></scales>
<clustering>
<clus scale="   55.725">  2  9  1 -1</clus>
<clus scale="   78.446">  2 10  1 -1</clus>
<clus scale="   80.954">  5  6 -1 -1</clus>
<clus scale="   91.843">  7  8 -1 -1</clus>
<clus scale="  122.192">  2  5  1 -1</clus>
<clus scale="   55.725">  2  5  1 -1</clus>
</clustering>
</event>
<event>
10    4  0.3043429E-005  0.4727626E+03  0.7546771E-02  0.1080226E+00
         21   -1    0    0  501  502  0.00000000000E+00  0.00000000000E+00  0.14246778223E+04  0.14246778223E+04  0.00000000000E+00 0. -1.
          2   -1    0    0  503    0 -0.00000000000E+00 -0.00000000000E+00 -0.62473153772E+03  0.62473153772E+03  0.00000000000E+00 0. -1.
         24    2    1    2    0    0 -0.14009593876E+02  0.33543418117E+02 -0.41638076208E+02  0.97067257997E+02  0.79792816501E+02 0.  0.
         23    2    1    2    0    0 -0.90247313390E+02  0.40971402361E+03 -0.27616021025E+03  0.50967537663E+03  0.86570024287E+02 0.  0.
        -11    1    3    3    0    0  0.33213230954E+02  0.93175382096E+01 -0.14003213097E+02  0.37229359459E+02  0.00000000000E+00 0.  1.
         12    1    3    3    0    0 -0.47222824830E+02  0.24225879907E+02 -0.27634863111E+02  0.59837898537E+02  0.00000000000E+00 0. -1.
        -11    1    4    4    0    0  0.66398001217E+01  0.87235590157E+02 -0.29684052790E+02  0.92386568968E+02  0.00000000000E+00 0.  1.
         11    1    4    4    0    0 -0.96887113512E+02  0.32247843345E+03 -0.24647615746E+03  0.41728880766E+03  0.00000000000E+00 0. -1.
         21    1    1    2  503  502 -0.26343251016E+03  0.34707274673E+02  0.56620314755E+03  0.62544966753E+03  0.00000000000E+00 0.  1.
          1    1    1    2  501    0  0.36768941743E+03 -0.47796471640E+03  0.55154142348E+03  0.81721705784E+03  0.00000000000E+00 0. -1.
<scales pt_clust_5="13000.00000" pt_clust_6="13000.00000" pt_clust_7="13000.00000" pt_clust_8="13000.00000" pt_clust_9="266.68884" pt_clust_10="464.76888"></scales>
<clustering>
<clus scale="   79.793">  5  6 -1 -1</clus>
<clus scale="   86.570">  7  8 -1 -1</clus>
<clus scale="   87.683">  2  5  1 -1</clus>
<clus scale="  266.689">  1  9  2 -1</clus>
<clus scale="  464.769">  1 10  2 -1</clus>
<clus scale="  266.689">  1  5  2 -1</clus>
</clustering>
</event>
<event>
10    4  0.3043429E-005  0.2463139E+03  0.7546771E-02  0.1134578E+00
         21   -1    0    0  501  502  0.00000000000E+00  0.00000000000E+00  0.16619378863E+03  0.16619378863E+03  0.00000000000E+00 0. -1.
          2   -1    0    0  503    0 -0.00000000000E+00 -0.00000000000E+00 -0.12051188364E+04  0.12051188364E+04  0.00000000000E+00 0. -1.
         23    2    1    2    0    0 -0.12487170852E+03  0.16057834528E+02 -0.35965702050E+03  0.39200020357E+03  0.91979288775E+02 0.  0.
         24    2    1    2    0    0  0.98151090600E+02  0.21411598634E+03 -0.63012917279E+03  0.67687141102E+03  0.74918892548E+02 0.  0.
        -11    1    4    4    0    0  0.75958444438E+02  0.76908795089E+02 -0.26703211346E+03  0.28808123448E+03  0.00000000000E+00 0.  1.
         12    1    4    4    0    0  0.22192646162E+02  0.13720719125E+03 -0.36309705933E+03  0.38879017653E+03  0.00000000000E+00 0. -1.
        -11    1    3    3    0    0 -0.41475986464E+02  0.49643806177E+02 -0.17615934853E+03  0.18766161307E+03  0.00000000000E+00 0.  1.
         11    1    3    3    0    0 -0.83395722052E+02 -0.33585971649E+02 -0.18349767197E+03  0.20433859049E+03  0.00000000000E+00 0. -1.
         21    1    1    2  503  502  0.24669154348E+02  0.29297655992E+02  0.25901257998E+00  0.38301265127E+02  0.00000000000E+00 0. -1.
          1    1    1    2  501    0  0.20514635684E+01 -0.25947147686E+03 -0.49397867108E+02  0.26413974537E+03  0.00000000000E+00 0. -1.
<scales pt_clust_5="13000.00000" pt_clust_6="13000.00000" pt_clust_7="13000.00000" pt_clust_8="13000.00000" pt_clust_9="38.30039" pt_clust_10="234.64372"></scales>
<clustering>
<clus scale="   38.300">  1  9  2 -1</clus>
<clus scale="   74.919">  5  6 -1 -1</clus>
<clus scale="   91.979">  7  8 -1 -1</clus>
<clus scale="  154.124">  2  7  1 -1</clus>
<clus scale="  234.644">  1 10  2 -1</clus>
<clus scale="   38.300">  1  5  2 -1</clus>
</clustering>
</event>
<event>
10    4  0.3043429E-005  0.1243159E+03  0.7546771E-02  0.1240562E+00
          2   -1    0    0  503    0 -0.00000000000E+00  0.00000000000E+00  0.12888188102E+04  0.12888188102E+04  0.00000000000E+00 0. -1.
         21   -1    0    0  501  502  0.00000000000E+00 -0.00000000000E+00 -0.93201047076E+02  0.93201047076E+02  0.00000000000E+00 0.  1.
         24    2    1    2    0    0 -0.60381621931E+02  0.58473135812E+02  0.10070913265E+04  0.10133378517E+04  0.74535990301E+02 0.  0.
         23    2    1    2    0    0  0.75391436467E+02 -0.59153734237E+02  0.22547467625E+03  0.26100436152E+03  0.90007855984E+02 0.  0.
        -13    1    3    3    0    0 -0.24765461344E+02 -0.11481187839E+02  0.13572942670E+03  0.13844718495E+03  0.00000000000E+00 0.  1.
         14    1    3    3    0    0 -0.35616160587E+02  0.69954323652E+02  0.87136189980E+03  0.87489066672E+03  0.00000000000E+00 0. -1.
        -11    1    4    4    0    0  0.95910472998E+02 -0.42441757482E+02  0.17534576102E+03  0.20431900919E+03  0.00000000000E+00 0.  1.
         11    1    4    4    0    0 -0.20519036532E+02 -0.16711976755E+02  0.50128915227E+02  0.56685352332E+02  0.00000000000E+00 0. -1.
         21    1    1    2  503  502  0.15255453131E+02  0.13397994902E+02 -0.62730891637E+02  0.65934815410E+02  0.00000000000E+00 0.  1.
          1    1    1    2  501    0 -0.30265267667E+02 -0.12717396477E+02  0.25782652011E+02  0.41742828664E+02  0.00000000000E+00 0. -1.
<scales pt_clust_5="13000.00000" pt_clust_6="13000.00000" pt_clust_7="13000.00000" pt_clust_8="13000.00000" pt_clust_9="20.30357" pt_clust_10="27.56366"></scales>
<clustering>
<clus scale="   20.304">  2  9  1 -1</clus>
<clus scale="   27.564">  2 10  1 -1</clus>
<clus scale="   74.536">  5  6 -1 -1</clus>
<clus scale="   90.008">  7  8 -1 -1</clus>
<clus scale="  113.616">  1  5  2 -1</clus>
<clus scale="   20.304">  2  5  1 -1</clus>
</clustering>
</event>
<event>
10    4  0.3043429E-005  0.1811845E+03  0.7546771E-02  0.1185137E+00
         21   -1    0    0  501  502  0.00000000000E+00  0.00000000000E+00  0.55892723690E+03  0.55892723690E+03  0.00000000000E+00 0.  1.
         -1   -1    0    0    0  501 -0.00000000000E+00 -0.00000000000E+00 -0.77213688005E+03  0.77213688005E+03  0.00000000000E+00 0.  1.
         23    2    1    2    0    0  0.33530697358E+02  0.63601400861E+02 -0.15797029582E+03  0.19762655132E+03  0.94510282870E+02 0.  0.
         24    2    1    2    0    0 -0.15622748389E+00  0.96536937416E+02 -0.56796439562E+03  0.58161603511E+03  0.79838918516E+02 0.  0.
        -11    1    4    4    0    0  0.14644168498E+02  0.10645450323E+03 -0.48811186375E+03  0.49980016452E+03  0.00000000000E+00 0.  1.
         12    1    4    4    0    0 -0.14800395982E+02 -0.99175658093E+01 -0.79852531871E+02  0.81815870582E+02  0.00000000000E+00 0. -1.
        -11    1    3    3    0    0 -0.31037312165E+02  0.58180038282E+01 -0.34302216642E+02  0.46624092287E+02  0.00000000000E+00 0.  1.
         11    1    3    3    0    0  0.64568009523E+02  0.57783397033E+02 -0.12366807918E+03  0.15100245903E+03  0.00000000000E+00 0. -1.
         21    1    1    2  503  502  0.13094454991E+02  0.15518923447E+02  0.79145791774E+02  0.81708984157E+02  0.00000000000E+00 0.  1.
         -2    1    1    2    0  503 -0.46468924865E+02 -0.17565726172E+03  0.43357925652E+03  0.47011254637E+03  0.00000000000E+00 0.  1.
<scales pt_clust_5="13000.00000" pt_clust_6="13000.00000" pt_clust_7="13000.00000" pt_clust_8="13000.00000" pt_clust_9="20.30521" pt_clust_10="162.64550"></scales>
<clustering>
<clus scale="   20.305">  1  9  2 -1</clus>
<clus scale="   79.839">  5  6 -1 -1</clus>
<clus scale="   94.510">  7  8 -1 -1</clus>
<clus scale="  119.250">  2  7  1 -1</clus>
<clus scale="  162.646">  1 10  2 -1</clus>
<clus scale="   20.305">  1  5  2 -1</clus>
</clustering>
</event>
<event>
10    4  0.3043429E-005  0.1739698E+03  0.7546771E-02  0.1181398E+00
         21   -1    0    0  503  502  0.00000000000E+00  0.00000000000E+00  0.88248933484E+02  0.88248933484E+02  0.00000000000E+00 0.  1.
         -1   -1    0    0    0  501 -0.00000000000E+00 -0.00000000000E+00 -0.13245405693E+04  0.13245405693E+04  0.00000000000E+00 0.  1.
         24    2    1    2    0    0 -0.55827047430E+02 -0.12621312461E+03 -0.25117773614E+03  0.29762323209E+03  0.80267808598E+02 0.  0.
         23    2    1    2    0    0  0.88883442149E+02 -0.66332466445E+02 -0.16948621768E+03  0.22159162574E+03  0.89872177123E+02 0.  0.
        -13    1    3    3    0    0 -0.67117161102E+02 -0.77889627190E+02 -0.12385034431E+03  0.16096712436E+03  0.00000000000E+00 0.  1.
         14    1    3    3    0    0  0.11290113672E+02 -0.48323497422E+02 -0.12732739183E+03  0.13665610773E+03  0.00000000000E+00 0. -1.
        -13    1    4    4    0    0  0.35627102176E+02 -0.80070239763E+02 -0.10835028211E+03  0.13935679868E+03  0.00000000000E+00 0.  1.
         13    1    4    4    0    0  0.53256339974E+02  0.13737773318E+02 -0.61135935563E+02  0.82234827052E+02  0.00000000000E+00 0. -1.
         21    1    1    2  503  501  0.83241524726E+02  0.17391398608E+02 -0.47948410660E+02  0.97625110853E+02  0.00000000000E+00 0.  1.
         -2    1    1    2    0  502 -0.11629791945E+03  0.17515419245E+03 -0.76767927132E+03  0.79594953409E+03  0.00000000000E+00 0.  1.
<scales pt_clust_5="13000.00000" pt_clust_6="13000.00000" pt_clust_7="13000.00000" pt_clust_8="13000.00000" pt_clust_9="85.03889" pt_clust_10="148.95808"></scales>
<clustering>
<clus scale="   80.268">  5  6 -1 -1</clus>
<clus scale="   85.039">  1  9  2 -1</clus>
<clus scale="   89.872">  7  8 -1 -1</clus>
<clus scale="  146.450">  2  5  1 -1</clus>
<clus scale="  148.958">  1 10  2 -1</clus>
<clus scale="   85.039">  1  5  2 -1</clus>
</clustering>
</event>
<event>
10    4  0.3043429E-005  0.1393273E+03  0.7546771E-02  0.1230977E+00
         -1   -1    0    0    0  501 -0.00000000000E+00  0.00000000000E+00  0.84601701211E+02  0.84601701211E+02  0.00000000000E+00 0.  1.
         21   -1    0    0  503  502  0.00000000000E+00 -0.00000000000E+00 -0.77333568944E+03  0.77333568944E+03  0.00000000000E+00 0.  1.
         23    2    1    2    0    0  0.29112862886E+02 -0.19337018613E+02 -0.73976370856E+01  0.97595334437E+02  0.90822052361E+02 0.  0.
         24    2    1    2    0    0  0.66973559733E+02 -0.13924450058E+02 -0.17667998537E+03  0.21008372020E+03  0.90774469152E+02 0.  0.
        -11    1    4    4    0    0  0.76652351038E+02 -0.35392677543E+02 -0.10558643235E+03  0.13519141704E+03  0.00000000000E+00 0.  1.
         12    1    4    4    0    0 -0.96787913051E+01  0.21468227485E+02 -0.71093553015E+02  0.74892303162E+02  0.00000000000E+00 0. -1.
        -11    1    3    3    0    0  0.15157552451E+01  0.34057500211E+02 -0.14550456950E+02  0.37066516319E+02  0.00000000000E+00 0.  1.
         11    1    3    3    0    0  0.27597107641E+02 -0.53394518825E+02  0.71528198643E+01  0.60528818117E+02  0.00000000000E+00 0. -1.
         21    1    1    2  503  501  0.49757212963E+02  0.40621621992E+02 -0.23476513375E+03  0.24339384635E+03  0.00000000000E+00 0.  1.
         -2    1    1    2    0  502 -0.14584363558E+03 -0.73601533198E+01 -0.26989123203E+03  0.30686448967E+03  0.00000000000E+00 0.  1.
<scales pt_clust_5="13000.00000" pt_clust_6="13000.00000" pt_clust_7="13000.00000" pt_clust_8="13000.00000" pt_clust_9="64.23314" pt_clust_10="105.69811"></scales>
<clustering>
<clus scale="   64.233">  2  9  1 -1</clus>
<clus scale="   90.774">  5  6 -1 -1</clus>
<clus scale="   90.822">  7  8 -1 -1</clus>
<clus scale="   98.185">  1  7  2 -1</clus>
<clus scale="  105.698">  2 10  1 -1</clus>
<clus scale="   64.233">  2  5  1 -1</clus>
</clustering>
</event>
<event>
10    4  0.3043429E-005  0.1442431E+03  0.7546771E-02  0.1210829E+00
          4   -1    0    0  503    0 -0.00000000000E+00  0.00000000000E+00  0.69149175956E+03  0.69149175956E+03  0.00000000000E+00 0. -1.
         21   -1    0    0  501  502  0.00000000000E+00 -0.00000000000E+00 -0.20090735054E+03  0.20090735054E+03  0.00000000000E+00 0.  1.
         24    2    1    2    0    0  0.25460254167E+02  0.97878743476E+02  0.46634059664E+03  0.48416223237E+03  0.81920950988E+02 0.  0.
         23    2    1    2    0    0 -0.98288129789E+02 -0.15441490963E+03  0.10308968052E+02  0.20713033397E+03  0.96395952498E+02 0.  0.
        -11    1    3    3    0    0  0.45850100290E+02  0.65605417213E+02  0.20539635498E+03  0.22044038900E+03  0.00000000000E+00 0.  1.
         12    1    3    3    0    0 -0.20389846124E+02  0.32273326263E+02  0.26094424166E+03  0.26372184337E+03  0.00000000000E+00 0. -1.
        -13    1    4    4    0    0 -0.79721943725E+01 -0.98764052925E+02 -0.82743383374E+01  0.99430170010E+02  0.00000000000E+00 0.  1.
         13    1    4    4    0    0 -0.90315935416E+02 -0.55650856700E+02  0.18583306389E+02  0.10770016396E+03  0.00000000000E+00 0. -1.
         21    1    1    2  503  502  0.48370870639E+02  0.87142862685E+02 -0.60783285209E+02  0.11673999916E+03  0.00000000000E+00 0.  1.
          3    1    1    2  501    0  0.24457004983E+02 -0.30606696534E+02  0.74718129535E+02  0.84366544594E+02  0.00000000000E+00 0. -1.
<scales pt_clust_5="13000.00000" pt_clust_6="13000.00000" pt_clust_7="13000.00000" pt_clust_8="13000.00000" pt_clust_9="94.36352" pt_clust_10="39.17801"></scales>
<clustering>
<clus scale="   39.178">  2 10  1 -1</clus>
<clus scale="   81.921">  5  6 -1 -1</clus>
<clus scale="   94.364">  2  9  1 -1</clus>
<clus scale="   96.396">  7  8 -1 -1</clus>
<clus scale="  135.000">  1  5  2 -1</clus>
<clus scale="   39.178">  2  5  1 -1</clus>
</clustering>
</event>
<event>
10    4  0.3043429E-005  0.2053954E+03  0.7546771E-02  0.1146178E+00
          2   -1    0    0  503    0 -0.00000000000E+00  0.00000000000E+00  0.61932592288E+03  0.61932592288E+03  0.00000000000E+00 0. -1.
         21   -1    0    0  501  502  0.00000000000E+00 -0.00000000000E+00 -0.11603063172E+03  0.11603063172E+03  0.00000000000E+00 0.  1.
         24    2    1    2    0    0  0.20237844727E+03  0.19714873727E+02  0.33340910400E+03  0.39866434328E+03  0.80161810144E+02 0.  0.
         23    2    1    2    0    0 -0.15492585242E+03 -0.41015745648E+02  0.15193355429E+03  0.23873336486E+03  0.90694561245E+02 0.  0.
        -13    1    3    3    0    0  0.55744170636E+02  0.41342734593E+02  0.12411401432E+03  0.14220029119E+03  0.00000000000E+00 0.  1.
         14    1    3    3    0    0  0.14663427664E+03 -0.21627860867E+02  0.20929508968E+03  0.25646405209E+03  0.00000000000E+00 0. -1.
        -13    1    4    4    0    0 -0.11406936805E+03 -0.33823025377E+02  0.50701487837E+02  0.12933081088E+03  0.00000000000E+00 0.  1.
         13    1    4    4    0    0 -0.40856484372E+02 -0.71927202711E+01  0.10123206645E+03  0.10940255399E+03  0.00000000000E+00 0. -1.
         21    1    1    2  503  502 -0.15875258090E+02  0.50605256958E+02  0.12904068086E+02  0.54584162761E+02  0.00000000000E+00 0.  1.
          1    1    1    2  501    0 -0.31577336760E+02 -0.29304385036E+02  0.50485647886E+01  0.43374683694E+02  0.00000000000E+00 0. -1.
<scales pt_clust_5="13000.00000" pt_clust_6="13000.00000" pt_clust_7="13000.00000" pt_clust_8="13000.00000" pt_clust_9="49.76373" pt_clust_10="43.07987"></scales>
<clustering>
<clus scale="   43.080">  2 10  1 -1</clus>
<clus scale="   49.764">  2  9  1 -1</clus>
<clus scale="   80.162">  5  6 -1 -1</clus>
<clus scale="   90.695">  7  8 -1 -1</clus>
<clus scale="  200.967">  1  5  2 -1</clus>
<clus scale="   43.080">  2  5  1 -1</clus>
</clustering>
</event>
<event>
10    4  0.3043429E-005  0.1369758E+03  0.7546771E-02  0.1233705E+00
         21   -1    0    0  501  502  0.00000000000E+00  0.00000000000E+00  0.10721865832E+03  0.10721865832E+03  0.00000000000E+00 0.  1.
          2   -1    0    0  503    0 -0.00000000000E+00 -0.00000000000E+00 -0.54152415281E+03  0.54152415281E+03  0.00000000000E+00 0. -1.
         23    2    1    2    0    0  0.40226921731E+02 -0.16084747740E+02 -0.39177562196E+02  0.10898796913E+03  0.92013975536E+02 0.  0.
         24    2    1    2    0    0  0.74677870789E+02  0.86651594920E+02 -0.48253950373E+02  0.14797104904E+03  0.80509032651E+02 0.  0.
        -11    1    4    4    0    0  0.54361749762E+02  0.10110297311E+03 -0.36903666851E+02  0.12057732638E+03  0.00000000000E+00 0.  1.
         12    1    4    4    0    0  0.20316121027E+02 -0.14451378190E+02 -0.11350283523E+02  0.27393722660E+02  0.00000000000E+00 0. -1.
        -13    1    3    3    0    0  0.68381590510E+02 -0.35108434297E+01 -0.15741968434E+02  0.70257935583E+02  0.00000000000E+00 0.  1.
         13    1    3    3    0    0 -0.28154668779E+02 -0.12573904310E+02 -0.23435593762E+02  0.38730033548E+02  0.00000000000E+00 0. -1.
         21    1    1    2  503  502 -0.27279003390E+02  0.85659334073E+01 -0.36557240054E+01  0.28825050894E+02  0.00000000000E+00 0. -1.
          1    1    1    2  501    0 -0.87625789131E+02 -0.79132780587E+02 -0.34321825791E+03  0.36295874207E+03  0.00000000000E+00 0. -1.
<scales pt_clust_5="13000.00000" pt_clust_6="13000.00000" pt_clust_7="13000.00000" pt_clust_8="13000.00000" pt_clust_9="28.59229" pt_clust_10="110.81817"></scales>
<clustering>
<clus scale="   28.592">  1  9  2 -1</clus>
<clus scale="   80.509">  5  6 -1 -1</clus>
<clus scale="   92.014">  7  8 -1 -1</clus>
<clus scale="   97.691">  2  7  1 -1</clus>
<clus scale="  110.818">  1 10  2 -1</clus>
<clus scale="   28.592">  1  5  2 -1</clus>
</clustering>
</event>
<event>
10    4  0.3043429E-005  0.2356798E+03  0.7546771E-02  0.1134620E+00
          2   -1    0    0  503    0 -0.00000000000E+00  0.00000000000E+00  0.19867268407E+04  0.19867268407E+04  0.00000000000E+00 0. -1.
         21   -1    0    0  501  502  0.00000000000E+00 -0.00000000000E+00 -0.65559489467E+02  0.65559489467E+02  0.00000000000E+00 0.  1.
         24    2    1    2    0    0 -0.11677308203E+03 -0.84508151407E+02  0.25951617404E+03  0.30788839031E+03  0.81664165693E+02 0.  0.
         23    2    1    2    0    0 -0.13460877026E+03  0.87963587395E+02  0.85573747859E+03  0.87533240418E+03  0.89794609046E+02 0.  0.
        -13    1    3    3    0    0 -0.87839907339E+02 -0.15906932812E+02  0.11777842364E+03  0.14778578047E+03  0.00000000000E+00 0.  1.
         14    1    3    3    0    0 -0.28933174689E+02 -0.68601218595E+02  0.14173775039E+03  0.16010260984E+03  0.00000000000E+00 0. -1.
        -13    1    4    4    0    0  0.77660746071E+01  0.28233938656E+02  0.16153251596E+03  0.16416522445E+03  0.00000000000E+00 0. -1.
         13    1    4    4    0    0 -0.14237484487E+03  0.59729648739E+02  0.69420496263E+03  0.71116717973E+03  0.00000000000E+00 0.  1.
         21    1    1    2  503  502 -0.35240957093E+02  0.71379677481E+00  0.55295486417E+02  0.65574578770E+02  0.00000000000E+00 0.  1.
          1    1    1    2  501    0  0.28662280938E+03 -0.41692327630E+01  0.75061821218E+03  0.80349095690E+03  0.00000000000E+00 0. -1.
<scales pt_clust_5="13000.00000" pt_clust_6="13000.00000" pt_clust_7="13000.00000" pt_clust_8="13000.00000" pt_clust_9="35.24819" pt_clust_10="217.90338"></scales>
<clustering>
<clus scale="   35.248">  2  9  1 -1</clus>
<clus scale="   81.664">  5  6 -1 -1</clus>
<clus scale="   89.795">  7  8 -1 -1</clus>
<clus scale="  175.761">  1  5  2 -1</clus>
<clus scale="  217.903">  2 10  1 -1</clus>
<clus scale="   35.248">  2  5  1 -1</clus>
</clustering>
</event>
<event>
10    4  0.3043429E-005  0.1023404E+03  0.7546771E-02  0.1279325E+00
         -1   -1    0    0    0  501 -0.00000000000E+00  0.00000000000E+00  0.87119739694E+02  0.87119739694E+02  0.00000000000E+00 0.  1.
         21   -1    0    0  503  502  0.00000000000E+00 -0.00000000000E+00 -0.51045000182E+03  0.51045000182E+03  0.00000000000E+00 0. -1.
         24    2    1    2    0    0  0.11441817599E+02  0.45980723824E+02  0.28519209349E+02  0.98702159300E+02  0.81753463505E+02 0.  0.
         23    2    1    2    0    0 -0.23648058620E+02 -0.48437047973E+02 -0.12873563677E+03  0.16614392286E+03  0.90141891693E+02 0.  0.
        -13    1    3    3    0    0 -0.18570109767E+02  0.51918457181E+02  0.37658829621E+02  0.66772469036E+02  0.00000000000E+00 0.  1.
         14    1    3    3    0    0  0.30011927366E+02 -0.59377333563E+01 -0.91396202714E+01  0.31929690264E+02  0.00000000000E+00 0. -1.
        -11    1    4    4    0    0  0.25822641612E+02 -0.17037866113E+02 -0.91817234605E+02  0.96889123600E+02  0.00000000000E+00 0. -1.
         11    1    4    4    0    0 -0.49470700232E+02 -0.31399181860E+02 -0.36918402162E+02  0.69254799264E+02  0.00000000000E+00 0.  1.
         21    1    1    2  503  501  0.41455024697E+02 -0.74052754315E+01 -0.24742358904E+03  0.25098165190E+03  0.00000000000E+00 0. -1.
         -2    1    1    2    0  502 -0.29248783676E+02  0.98615995804E+01 -0.75690245671E+02  0.81742007454E+02  0.00000000000E+00 0.  1.
<scales pt_clust_5="13000.00000" pt_clust_6="13000.00000" pt_clust_7="13000.00000" pt_clust_8="13000.00000" pt_clust_9="24.63187" pt_clust_10="30.86653"></scales>
<clustering>
<clus scale="   30.867">  2 10  1 -1</clus>
<clus scale="   24.632">  2  9  1 -1</clus>
<clus scale="   81.753">  5  6 -1 -1</clus>
<clus scale="   90.142">  7  8 -1 -1</clus>
<clus scale="   95.035">  1  5  2 -1</clus>
<clus scale="   30.867">  2  5  1 -1</clus>
</clustering>
</event>
<event>
10    4  0.3043429E-005  0.9864146E+02  0.7546771E-02  0.1287442E+00
         21   -1    0    0  501  502  0.00000000000E+00  0.00000000000E+00  0.18676449624E+03  0.18676449624E+03  0.00000000000E+00 0.  1.
          2   -1    0    0  503    0 -0.00000000000E+00 -0.00000000000E+00 -0.27086814247E+03  0.27086814247E+03  0.00000000000E+00 0. -1.
         23    2    1    2    0    0 -0.37325918474E+02 -0.40475770741E+02 -0.76805320976E+02  0.13025910775E+03  0.89648567272E+02 0.  0.
         24    2    1    2    0    0 -0.99097364871E+01  0.28040694341E+02  0.13401307778E+03  0.15948311133E+03  0.81184200217E+02 0.  0.
        -13    1    4    4    0    0 -0.11770149358E+02  0.30421957396E+02  0.14472376363E+03  0.14835430451E+03  0.00000000000E+00 0.  1.
         14    1    4    4    0    0  0.18604128706E+01 -0.23812630551E+01 -0.10710685847E+02  0.11128806814E+02  0.00000000000E+00 0. -1.
        -13    1    3    3    0    0 -0.50066668171E+02  0.63886078335E+01 -0.61027735476E+02  0.79195139176E+02  0.00000000000E+00 0.  1.
         13    1    3    3    0    0  0.12740749698E+02 -0.46864378574E+02 -0.15777585501E+02  0.51063968571E+02  0.00000000000E+00 0. -1.
         21    1    1    2  503  502  0.26384959858E+02  0.86746158571E+01 -0.29662511403E+01  0.27932305899E+02  0.00000000000E+00 0.  1.
          1    1    1    2  501    0  0.20850695103E+02  0.37604605428E+01 -0.13834515189E+03  0.13995811374E+03  0.00000000000E+00 0. -1.
<scales pt_clust_5="13000.00000" pt_clust_6="13000.00000" pt_clust_7="13000.00000" pt_clust_8="13000.00000" pt_clust_9="29.18352" pt_clust_10="21.18710"></scales>
<clustering>
<clus scale="   21.187">  1 10  2 -1</clus>
<clus scale="   29.184">  2  9  1 -1</clus>
<clus scale="   81.184">  5  6 -1 -1</clus>
<clus scale="   89.649">  7  8 -1 -1</clus>
<clus scale="   91.017">  1  5  2 -1</clus>
<clus scale="   21.187">  1  5  2 -1</clus>
</clustering>
</event>
<event>
10    4  0.3043429E-005  0.2203818E+03  0.7546771E-02  0.1135218E+00
          2   -1    0    0  502    0 -0.00000000000E+00  0.00000000000E+00  0.99443346234E+03  0.99443346234E+03  0.00000000000E+00 0. -1.
         21   -1    0    0  503  502  0.00000000000E+00 -0.00000000000E+00 -0.88599409850E+02  0.88599409850E+02  0.00000000000E+00 0. -1.
         23    2    1    2    0    0  0.23978879493E+03  0.16942833432E+02  0.69235751655E+03  0.73843436209E+03  0.90225554086E+02 0.  0.
         24    2    1    2    0    0 -0.12829217244E+03 -0.18280186226E+02  0.84371419446E+02  0.16842592357E+03  0.66751094316E+02 0.  0.
        -11    1    4    4    0    0 -0.15176221639E+02  0.17866887494E+02  0.29307244219E+02  0.37529427596E+02  0.00000000000E+00 0.  1.
         12    1    4    4    0    0 -0.11311595081E+03 -0.36147073720E+02  0.55064175227E+02  0.13089649597E+03  0.00000000000E+00 0. -1.
        -13    1    3    3    0    0  0.20577237703E+03 -0.74010628032E+01  0.63425576424E+03  0.66684137646E+03  0.00000000000E+00 0. -1.
         13    1    3    3    0    0  0.34016417894E+02  0.24343896235E+02  0.58101752312E+02  0.71592985634E+02  0.00000000000E+00 0.  1.
         21    1    1    2  503  501 -0.42708779873E+02 -0.14835081173E+02  0.29268342782E+02  0.53858661336E+02  0.00000000000E+00 0.  1.
          1    1    1    2  501    0 -0.68787842611E+02  0.16172433967E+02  0.99836773706E+02  0.12231392519E+03  0.00000000000E+00 0. -1.
<scales pt_clust_5="13000.00000" pt_clust_6="13000.00000" pt_clust_7="13000.00000" pt_clust_8="13000.00000" pt_clust_9="35.18930" pt_clust_10="119.86930"></scales>
<clustering>
<clus scale="   35.189">  9 10 -1 -1</clus>
<clus scale="   66.751">  5  6 -1 -1</clus>
<clus scale="   90.226">  7  8 -1 -1</clus>
<clus scale="  119.869">  2  9  1 -1</clus>
<clus scale="  211.857">  2  5  1 -1</clus>
<clus scale="  119.869">  2  5  1 -1</clus>
</clustering>
</event>
<event>
10    4  0.3043429E-005  0.1479699E+03  0.7546771E-02  0.1218993E+00
         21   -1    0    0  501  502  0.00000000000E+00  0.00000000000E+00  0.16615628379E+03  0.16615628379E+03  0.00000000000E+00 0. -1.
          2   -1    0    0  503    0 -0.00000000000E+00 -0.00000000000E+00 -0.15635875738E+04  0.15635875738E+04  0.00000000000E+00 0. -1.
         24    2    1    2    0    0  0.29877388168E+02 -0.66776432034E+02 -0.25827518835E+03  0.28105148816E+03  0.83259329074E+02 0.  0.
         23    2    1    2    0    0  0.12778712852E+03 -0.18725721123E+02 -0.13207059693E+03  0.20538191071E+03  0.89771286200E+02 0.  0.
        -11    1    3    3    0    0  0.52584417042E+02 -0.70282044025E+02 -0.20892231886E+03  0.22661249292E+03  0.00000000000E+00 0.  1.
         12    1    3    3    0    0 -0.22707028873E+02  0.35056119906E+01 -0.49352869488E+02  0.54438995237E+02  0.00000000000E+00 0. -1.
        -11    1    4    4    0    0  0.30741677593E+02 -0.11579295126E+02  0.89493960112E+01  0.34047356810E+02  0.00000000000E+00 0.  1.
         11    1    4    4    0    0  0.97045450926E+02 -0.71464259978E+01 -0.14101999294E+03  0.17133455390E+03  0.00000000000E+00 0. -1.
         21    1    1    2  503  502 -0.18978443208E+02  0.36558423299E+02  0.10954663765E+03  0.11703488985E+03  0.00000000000E+00 0. -1.
          1    1    1    2  501    0 -0.13868607348E+03  0.48943729858E+02 -0.11166321424E+04  0.11262755689E+04  0.00000000000E+00 0. -1.
<scales pt_clust_5="13000.00000" pt_clust_6="13000.00000" pt_clust_7="13000.00000" pt_clust_8="13000.00000" pt_clust_9="41.19101" pt_clust_10="117.62745"></scales>
<clustering>
<clus scale="   41.191">  1  9  2 -1</clus>
<clus scale="   83.259">  5  6 -1 -1</clus>
<clus scale="   89.771">  7  8 -1 -1</clus>
<clus scale="  105.198">  2  5  1 -1</clus>
<clus scale="  117.627">  1 10  2 -1</clus>
<clus scale="   41.191">  1  5  2 -1</clus>
</clustering>
</event>
<event>
10    4  0.3043429E-005  0.1372983E+03  0.7546771E-02  0.1220371E+00
          2   -1    0    0  502    0 -0.00000000000E+00  0.00000000000E+00  0.16137127295E+04  0.16137127295E+04  0.00000000000E+00 0. -1.
         21   -1    0    0  503  502  0.00000000000E+00 -0.00000000000E+00 -0.84939672530E+02  0.84939672530E+02  0.00000000000E+00 0. -1.
         24    2    1    2    0    0  0.95086723491E+02 -0.43593680243E+02  0.14091533466E+04  0.14151263238E+04  0.76990025566E+02 0.  0.
         23    2    1    2    0    0 -0.69417867193E+02  0.51567775430E+02  0.16550647597E+03  0.20804773019E+03  0.91724526184E+02 0.  0.
        -11    1    3    3    0    0  0.42986775320E+01 -0.26700233289E+02  0.13812188421E+03  0.14074457710E+03  0.00000000000E+00 0.  1.
         12    1    3    3    0    0  0.90788045959E+02 -0.16893446954E+02  0.12710314624E+04  0.12743817467E+04  0.00000000000E+00 0. -1.
        -13    1    4    4    0    0 -0.21280227514E+02  0.55186901341E+02  0.14307135199E+03  0.15481554807E+03  0.00000000000E+00 0. -1.
         13    1    4    4    0    0 -0.48137639679E+02 -0.36191259115E+01  0.22435123975E+02  0.53232182127E+02  0.00000000000E+00 0.  1.
         21    1    1    2  503  501 -0.17184097849E+02  0.18902699621E+02 -0.38735608423E+02  0.46400998177E+02  0.00000000000E+00 0. -1.
          1    1    1    2  501    0 -0.84847584487E+01 -0.26876794808E+02 -0.71511572131E+01  0.29077349855E+02  0.00000000000E+00 0. -1.
<scales pt_clust_5="13000.00000" pt_clust_6="13000.00000" pt_clust_7="13000.00000" pt_clust_8="13000.00000" pt_clust_9="25.54614" pt_clust_10="24.57444"></scales>
<clustering>
<clus scale="   25.546">  2  9  1 -1</clus>
<clus scale="   24.574">  2 10  1 -1</clus>
<clus scale="   76.990">  5  6 -1 -1</clus>
<clus scale="   91.725">  7  8 -1 -1</clus>
<clus scale="  127.925">  1  5  2 -1</clus>
<clus scale="   25.546">  2  5  1 -1</clus>
</clustering>
</event>
<event>
10    4  0.3043429E-005  0.2969123E+03  0.7546771E-02  0.1087629E+00
         21   -1    0    0  503  502  0.00000000000E+00  0.00000000000E+00  0.88352950766E+03  0.88352950766E+03  0.00000000000E+00 0. -1.
          2   -1    0    0  502    0 -0.00000000000E+00 -0.00000000000E+00 -0.14823700822E+03  0.14823700822E+03  0.00000000000E+00 0. -1.
         23    2    1    2    0    0  0.25990213042E+03 -0.14113003601E+03  0.25466854619E+03  0.40301306014E+03  0.10048210670E+03 0.  0.
         24    2    1    2    0    0 -0.25646207477E+03  0.69286192483E+02  0.30169847930E+03  0.40971662733E+03  0.79198295640E+02 0.  0.
        -13    1    4    4    0    0 -0.53021251243E+02  0.30932239255E+02  0.30538476807E+02  0.68561323458E+02  0.00000000000E+00 0.  1.
         14    1    4    4    0    0 -0.20344082352E+03  0.38353953228E+02  0.27116000249E+03  0.34115530387E+03  0.00000000000E+00 0. -1.
        -11    1    3    3    0    0  0.63564615178E+02  0.10226786468E+02  0.49242994012E+02  0.81055042554E+02  0.00000000000E+00 0.  1.
         11    1    3    3    0    0  0.19633751524E+03 -0.15135682248E+03  0.20542555218E+03  0.32195801759E+03  0.00000000000E+00 0. -1.
         21    1    1    2  503  501 -0.10107520020E+02  0.19746162034E+02  0.16249807501E+03  0.16400517449E+03  0.00000000000E+00 0. -1.
          1    1    1    2  501    0  0.66674643722E+01  0.52097681490E+02  0.16427398939E+02  0.55031653925E+02  0.00000000000E+00 0. -1.
<scales pt_clust_5="13000.00000" pt_clust_6="13000.00000" pt_clust_7="13000.00000" pt_clust_8="13000.00000" pt_clust_9="22.18272" pt_clust_10="53.43418"></scales>
<clustering>
<clus scale="   22.183">  1  9  2 -1</clus>
<clus scale="   53.434">  1 10  2 -1</clus>
<clus scale="   79.198">  5  6 -1 -1</clus>
<clus scale="  100.482">  7  8 -1 -1</clus>
<clus scale="  290.401">  1  5  2 -1</clus>
<clus scale="   22.183">  1  5  2 -1</clus>
</clustering>
</event>
<event>
10    4  0.3043429E-005  0.3935867E+03  0.7546771E-02  0.1080157E+00
          2   -1    0    0  503    0 -0.00000000000E+00  0.00000000000E+00  0.10256316922E+04  0.10256316922E+04  0.00000000000E+00 0. -1.
         21   -1    0    0  501  502  0.00000000000E+00 -0.00000000000E+00 -0.31316142170E+03  0.31316142170E+03  0.00000000000E+00 0. -1.
         24    2    1    2    0    0 -0.44892629743E+00 -0.10609551068E+03  0.38234314773E+03  0.41074048582E+03  0.10613672861E+03 0.  0.
         23    2    1    2    0    0  0.25531069854E+03 -0.21580055078E+03  0.90287388931E+02  0.35835372092E+03  0.92261293011E+02 0.  0.
        -13    1    3    3    0    0 -0.26942621280E+00 -0.12789724886E+03  0.31577419943E+03  0.34069212477E+03  0.00000000000E+00 0.  1.
         14    1    3    3    0    0 -0.17950008463E+00  0.21801738187E+02  0.66568948298E+02  0.70048361050E+02  0.00000000000E+00 0. -1.
        -13    1    4    4    0    0  0.95696158391E+02 -0.34172875886E+02  0.42401237171E+01  0.10170309153E+03  0.00000000000E+00 0. -1.
         13    1    4    4    0    0  0.15961454015E+03 -0.18162767490E+03  0.86047265214E+02  0.25665062939E+03  0.00000000000E+00 0.  1.
         21    1    1    2  503  502 -0.16691276618E+02 -0.62185056050E+02  0.22340306710E+02  0.68151810064E+02  0.00000000000E+00 0. -1.
          1    1    1    2  501    0 -0.23817049563E+03  0.38408111751E+03  0.21749942715E+03  0.50154709712E+03  0.00000000000E+00 0. -1.
<scales pt_clust_5="13000.00000" pt_clust_6="13000.00000" pt_clust_7="13000.00000" pt_clust_8="13000.00000" pt_clust_9="64.38618" pt_clust_10="382.62056"></scales>
<clustering>
<clus scale="   64.386">  2  9  1 -1</clus>
<clus scale="   92.261">  7  8 -1 -1</clus>
<clus scale="  106.137">  5  6 -1 -1</clus>
<clus scale="  152.242">  1  5  2 -1</clus>
<clus scale="  382.621">  2 10  1 -1</clus>
<clus scale="   64.386">  2  5  1 -1</clus>
</clustering>
</event>
<event>
10    4  0.3043429E-005  0.1632144E+03  0.7546771E-02  0.1208199E+00
          2   -1    0    0  503    0 -0.00000000000E+00  0.00000000000E+00  0.18298024656E+03  0.18298024656E+03  0.00000000000E+00 0. -1.
         21   -1    0    0  501  502  0.00000000000E+00 -0.00000000000E+00 -0.49743436339E+03  0.49743436339E+03  0.00000000000E+00 0. -1.
         24    2    1    2    0    0  0.45726435930E+02  0.28706663826E+02 -0.44673118342E+02  0.10661744255E+03  0.80353046379E+02 0.  0.
         23    2    1    2    0    0  0.10573647459E+03 -0.53774540118E+01 -0.31078494506E+03  0.34084835240E+03  0.91548884156E+02 0.  0.
        -11    1    3    3    0    0  0.61549186247E+02  0.84181373606E+01 -0.92057629241E+01  0.62800584673E+02  0.00000000000E+00 0.  1.
         12    1    3    3    0    0 -0.15822750317E+02  0.20288526465E+02 -0.35467355418E+02  0.43816857876E+02  0.00000000000E+00 0. -1.
        -13    1    4    4    0    0  0.25674023640E+02  0.29742083481E+02 -0.39049050247E+02  0.55394723077E+02  0.00000000000E+00 0.  1.
         13    1    4    4    0    0  0.80062450949E+02 -0.35119537493E+02 -0.27173589481E+03  0.28545362932E+03  0.00000000000E+00 0. -1.
         21    1    1    2  503  502  0.29323214819E+02 -0.12682501592E+02 -0.24611656211E+02  0.40329026710E+02  0.00000000000E+00 0. -1.
          1    1    1    2  501    0 -0.18078612534E+03 -0.10646708222E+02  0.65615602781E+02  0.19261978828E+03  0.00000000000E+00 0. -1.
<scales pt_clust_5="13000.00000" pt_clust_6="13000.00000" pt_clust_7="13000.00000" pt_clust_8="13000.00000" pt_clust_9="31.94835" pt_clust_10="135.12129"></scales>
<clustering>
<clus scale="   31.948">  2  9  1 -1</clus>
<clus scale="   80.353">  5  6 -1 -1</clus>
<clus scale="   91.549">  7  8 -1 -1</clus>
<clus scale="   98.572">  1  5  2 -1</clus>
<clus scale="  135.121">  2 10  1 -1</clus>
<clus scale="   31.948">  2  5  1 -1</clus>
</clustering>
</event>
<event>
10    4  0.3043429E-005  0.1401099E+03  0.7546771E-02  0.1238548E+00
         21   -1    0    0  501  502  0.00000000000E+00  0.00000000000E+00  0.92294628732E+02  0.92294628732E+02  0.00000000000E+00 0.  1.
          2   -1    0    0  503    0 -0.00000000000E+00 -0.00000000000E+00 -0.13416742134E+04  0.13416742134E+04  0.00000000000E+00 0. -1.
         24    2    1    2    0    0  0.85369552841E+01  0.40578749880E+01 -0.38359626030E+03  0.39227999499E+03  0.81536234864E+02 0.  0.
         23    2    1    2    0    0  0.58852169693E+02 -0.13196976041E+03 -0.89176323383E+02  0.19256167747E+03  0.90818431155E+02 0.  0.
        -11    1    3    3    0    0  0.28826926543E+02 -0.30208122812E+02 -0.21798658741E+03  0.22194971202E+03  0.00000000000E+00 0.  1.
         12    1    3    3    0    0 -0.20289971258E+02  0.34265997800E+02 -0.16560967289E+03  0.17033028296E+03  0.00000000000E+00 0. -1.
        -11    1    4    4    0    0  0.79373122669E+02 -0.10687474054E+03 -0.89016011086E+02  0.16014416317E+03  0.00000000000E+00 0.  1.
         11    1    4    4    0    0 -0.20520952976E+02 -0.25095019867E+02 -0.16031229686E+00  0.32417514298E+02  0.00000000000E+00 0. -1.
         21    1    1    2  503  502  0.22943084461E+02  0.69717229225E+02 -0.88959601589E+01  0.73932504912E+02  0.00000000000E+00 0.  1.
          1    1    1    2  501    0 -0.90332209438E+02  0.58194656195E+02 -0.76771104081E+03  0.77519466475E+03  0.00000000000E+00 0. -1.
<scales pt_clust_5="13000.00000" pt_clust_6="13000.00000" pt_clust_7="13000.00000" pt_clust_8="13000.00000" pt_clust_9="73.39535" pt_clust_10="106.69025"></scales>
<clustering>
<clus scale="   73.395">  1  9  2 -1</clus>
<clus scale="   81.536">  5  6 -1 -1</clus>
<clus scale="   82.677">  2  5  1 -1</clus>
<clus scale="   90.818">  7  8 -1 -1</clus>
<clus scale="  106.690">  1 10  2 -1</clus>
<clus scale="   73.395">  1  5  2 -1</clus>
</clustering>
</event>
<event>
10    4  0.3043429E-005  0.1291924E+03  0.7546771E-02  0.1230991E+00
          2   -1    0    0  502    0 -0.00000000000E+00  0.00000000000E+00  0.52134021107E+03  0.52134021107E+03  0.00000000000E+00 0. -1.
         21   -1    0    0  503  502  0.00000000000E+00 -0.00000000000E+00 -0.15127611046E+03  0.15127611046E+03  0.00000000000E+00 0. -1.
         23    2    1    2    0    0 -0.17192205136E+02 -0.14003590457E+03  0.31897026704E+03  0.35984209708E+03  0.88536303767E+02 0.  0.
         24    2    1    2    0    0 -0.55356991814E+01  0.47706812213E+02  0.84746696893E+02  0.12567614671E+03  0.79409743241E+02 0.  0.
        -13    1    4    4    0    0 -0.41309026708E+02  0.30256729377E+02  0.35267586314E+02  0.62174818090E+02  0.00000000000E+00 0.  1.
         14    1    4    4    0    0  0.35773327526E+02  0.17450082835E+02  0.49479110580E+02  0.63501328624E+02  0.00000000000E+00 0. -1.
        -13    1    3    3    0    0 -0.26955687062E+01 -0.60286579449E+02  0.23700320345E+03  0.24456544359E+03  0.00000000000E+00 0.  1.
         13    1    3    3    0    0 -0.14496636429E+02 -0.79749325125E+02  0.81967063594E+02  0.11527665349E+03  0.00000000000E+00 0. -1.
         21    1    1    2  503  501  0.32114108057E+02  0.21587991492E+02 -0.88830558183E+02  0.96892855155E+02  0.00000000000E+00 0. -1.
          1    1    1    2  501    0 -0.93862037395E+01  0.70741100870E+02  0.55177694858E+02  0.90205222591E+02  0.00000000000E+00 0. -1.
<scales pt_clust_5="13000.00000" pt_clust_6="13000.00000" pt_clust_7="13000.00000" pt_clust_8="13000.00000" pt_clust_9="38.69570" pt_clust_10="77.21398"></scales>
<clustering>
<clus scale="   38.696">  2  9  1 -1</clus>
<clus scale="   77.214">  2 10  1 -1</clus>
<clus scale="   79.410">  5  6 -1 -1</clus>
<clus scale="   88.536">  7  8 -1 -1</clus>
<clus scale="  123.117">  2  5  1 -1</clus>
<clus scale="   38.696">  2  5  1 -1</clus>
</clustering>
</event>
<event>
10    4  0.3043429E-005  0.3191306E+03  0.7546771E-02  0.1076371E+00
         21   -1    0    0  501  502  0.00000000000E+00  0.00000000000E+00  0.14214745074E+03  0.14214745074E+03  0.00000000000E+00 0.  1.
          2   -1    0    0  503    0 -0.00000000000E+00 -0.00000000000E+00 -0.12371605825E+04  0.12371605825E+04  0.00000000000E+00 0. -1.
         23    2    1    2    0    0  0.23961864393E+03 -0.18371086724E+03 -0.38239381635E+03  0.49571183693E+03  0.91314934335E+02 0.  0.
         24    2    1    2    0    0 -0.26889119084E+03  0.15858744365E+03 -0.27146452601E+03  0.42157440825E+03  0.81114382326E+02 0.  0.
        -13    1    4    4    0    0 -0.17129623950E+03  0.56023344124E+02 -0.16610310636E+03  0.24509438732E+03  0.00000000000E+00 0.  1.
         14    1    4    4    0    0 -0.97594951338E+02  0.10256409953E+03 -0.10536141965E+03  0.17648002093E+03  0.00000000000E+00 0. -1.
        -13    1    3    3    0    0  0.23147255110E+03 -0.13944106667E+03 -0.33384233096E+03  0.42950442946E+03  0.00000000000E+00 0.  1.
         13    1    3    3    0    0  0.81460928306E+01 -0.44269800564E+02 -0.48551485395E+02  0.66207407474E+02  0.00000000000E+00 0. -1.
         21    1    1    2  503  502  0.30852499402E+01 -0.22116297005E+02 -0.54553131334E+01  0.22987166024E+02  0.00000000000E+00 0.  1.
          1    1    1    2  501    0  0.26187296969E+02  0.47239720591E+02 -0.43569947621E+03  0.43903462198E+03  0.00000000000E+00 0. -1.
<scales pt_clust_5="13000.00000" pt_clust_6="13000.00000" pt_clust_7="13000.00000" pt_clust_8="13000.00000" pt_clust_9="22.33046" pt_clust_10="53.78980"></scales>
<clustering>
<clus scale="   22.330">  1  9  2 -1</clus>
<clus scale="   53.790">  1 10  2 -1</clus>
<clus scale="   81.114">  5  6 -1 -1</clus>
<clus scale="   91.315">  7  8 -1 -1</clus>
<clus scale="  316.363">  1  5  2 -1</clus>
<clus scale="   22.330">  1  5  2 -1</clus>
</clustering>
</event>
<event>
10    4  0.3043429E-005  0.1632143E+03  0.7546771E-02  0.1208592E+00
          2   -1    0    0  502    0 -0.00000000000E+00  0.00000000000E+00  0.10438380284E+04  0.10438380284E+04  0.00000000000E+00 0. -1.
         21   -1    0    0  503  502  0.00000000000E+00 -0.00000000000E+00 -0.11824474454E+03  0.11824474454E+03  0.00000000000E+00 0. -1.
         24    2    1    2    0    0 -0.49927244183E+02 -0.22230138647E+02  0.12370957209E+03  0.15675822018E+03  0.79260157654E+02 0.  0.
         23    2    1    2    0    0  0.99790685155E+01  0.14428033757E+03  0.80182727088E+03  0.82017821455E+03  0.94068771036E+02 0.  0.
        -13    1    3    3    0    0 -0.45637634471E+02 -0.33580732759E+02  0.13091176801E+03  0.14264764385E+03  0.00000000000E+00 0.  1.
         14    1    3    3    0    0 -0.42896097125E+01  0.11350594112E+02 -0.72021959228E+01  0.14110576327E+02  0.00000000000E+00 0. -1.
        -13    1    4    4    0    0 -0.36099547622E+02  0.10608367722E+03  0.48876951555E+03  0.50145045941E+03  0.00000000000E+00 0.  1.
         13    1    4    4    0    0  0.46078616138E+02  0.38196660348E+02  0.31305775533E+03  0.31872775515E+03  0.00000000000E+00 0. -1.
         21    1    1    2  503  501 -0.18271043239E+02  0.10330045249E+02 -0.30802539201E+02  0.37273814899E+02  0.00000000000E+00 0. -1.
          1    1    1    2  501    0  0.58219218906E+02 -0.13238024417E+03  0.30858980103E+02  0.14787252331E+03  0.00000000000E+00 0. -1.
<scales pt_clust_5="13000.00000" pt_clust_6="13000.00000" pt_clust_7="13000.00000" pt_clust_8="13000.00000" pt_clust_9="20.98907" pt_clust_10="133.37905"></scales>
<clustering>
<clus scale="   20.989">  2  9  1 -1</clus>
<clus scale="   79.260">  5  6 -1 -1</clus>
<clus scale="   94.069">  7  8 -1 -1</clus>
<clus scale="   97.744">  1  5  2 -1</clus>
<clus scale="  133.379">  2 10  1 -1</clus>
<clus scale="   20.989">  2  5  1 -1</clus>
</clustering>
</event>
<event>
10    4  0.3043429E-005  0.1204913E+03  0.7546771E-02  0.1244847E+00
          2   -1    0    0  503    0 -0.00000000000E+00  0.00000000000E+00  0.52629744060E+03  0.52629744060E+03  0.00000000000E+00 0. -1.
         21   -1    0    0  501  502  0.00000000000E+00 -0.00000000000E+00 -0.24803648633E+03  0.24803648633E+03  0.00000000000E+00 0. -1.
         24    2    1    2    0    0 -0.72098061773E+02  0.71353463385E+01  0.25752232093E+03  0.27912324140E+03  0.79642918284E+02 0.  0.
         23    2    1    2    0    0  0.99480073474E+02 -0.44907434306E+01  0.20996162381E+03  0.24853173263E+03  0.88134481641E+02 0.  0.
        -11    1    3    3    0    0 -0.11952176344E+02  0.21346476199E+02  0.14660267101E+02  0.28521044808E+02  0.00000000000E+00 0.  1.
         12    1    3    3    0    0 -0.60145885428E+02 -0.14211129860E+02  0.24286205383E+03  0.25060219659E+03  0.00000000000E+00 0. -1.
        -11    1    4    4    0    0  0.33561085776E+02  0.22267181363E+02  0.15054836531E+03  0.15584281871E+03  0.00000000000E+00 0.  1.
         11    1    4    4    0    0  0.65918987698E+02 -0.26757924793E+02  0.59413258502E+02  0.92688913923E+02  0.00000000000E+00 0. -1.
         21    1    1    2  503  502 -0.20759574746E+02 -0.49095578660E+02 -0.19240330980E+03  0.19965061835E+03  0.00000000000E+00 0. -1.
          1    1    1    2  501    0 -0.66224369549E+01  0.46450975752E+02  0.31803193178E+01  0.47028334550E+02  0.00000000000E+00 0. -1.
<scales pt_clust_5="13000.00000" pt_clust_6="13000.00000" pt_clust_7="13000.00000" pt_clust_8="13000.00000" pt_clust_9="27.93169" pt_clust_10="46.92068"></scales>
<clustering>
<clus scale="   46.921">  2 10  1 -1</clus>
<clus scale="   27.932">  2  9  1 -1</clus>
<clus scale="   79.643">  5  6 -1 -1</clus>
<clus scale="   88.134">  7  8 -1 -1</clus>
<clus scale="  114.427">  1  5  2 -1</clus>
<clus scale="   46.921">  2  5  1 -1</clus>
</clustering>
</event>
<event>
10    4  0.3043429E-005  0.5107497E+03  0.7546771E-02  0.1011011E+00
         21   -1    0    0  501  502  0.00000000000E+00  0.00000000000E+00  0.40084324814E+03  0.40084324814E+03  0.00000000000E+00 0.  1.
         -1   -1    0    0    0  501 -0.00000000000E+00 -0.00000000000E+00 -0.66062814292E+03  0.66062814292E+03  0.00000000000E+00 0.  1.
         24    2    1    2    0    0  0.48604558988E+02 -0.26777860980E+03  0.47281593029E+02  0.28748617486E+03  0.79655286544E+02 0.  0.
         23    2    1    2    0    0  0.78189729907E+02 -0.15820296322E+03 -0.70573576410E+02  0.21109988933E+03  0.91873402854E+02 0.  0.
        -11    1    3    3    0    0  0.19037336102E+02 -0.15929412843E+03  0.66043606074E+02  0.17349004992E+03  0.00000000000E+00 0.  1.
         12    1    3    3    0    0  0.29567222886E+02 -0.10848448137E+03 -0.18762013045E+02  0.11399612494E+03  0.00000000000E+00 0. -1.
        -13    1    4    4    0    0  0.14915864697E+02 -0.92521421004E+02 -0.74641033715E+02  0.11980809772E+03  0.00000000000E+00 0.  1.
         13    1    4    4    0    0  0.63273865210E+02 -0.65681542214E+02  0.40674573053E+01  0.91291791609E+02  0.00000000000E+00 0. -1.
         21    1    1    2  503  502 -0.10608720151E+02 -0.26434335273E+02  0.15207500311E+02  0.32289117211E+02  0.00000000000E+00 0. -1.
         -2    1    1    2    0  503 -0.11618556874E+03  0.45241590829E+03 -0.25170041171E+03  0.53059620967E+03  0.00000000000E+00 0.  1.
<scales pt_clust_5="13000.00000" pt_clust_6="13000.00000" pt_clust_7="13000.00000" pt_clust_8="13000.00000" pt_clust_9="28.48366" pt_clust_10="458.64693"></scales>
<clustering>
<clus scale="   28.484">  1  9  2 -1</clus>
<clus scale="   79.655">  5  6 -1 -1</clus>
<clus scale="   91.873">  7  8 -1 -1</clus>
<clus scale="  141.197">  5  7 -1 -1</clus>
<clus scale="  458.647">  1 10  2 -1</clus>
<clus scale="   28.484">  1  5  2 -1</clus>
</clustering>
</event>
<event>
10    4  0.3043429E-005  0.1558789E+03  0.7546771E-02  0.1194274E+00
         21   -1    0    0  501  502  0.00000000000E+00  0.00000000000E+00  0.33987170811E+03  0.33987170811E+03  0.00000000000E+00 0.  1.
          4   -1    0    0  503    0 -0.00000000000E+00 -0.00000000000E+00 -0.21441375855E+03  0.21441375855E+03  0.00000000000E+00 0. -1.
         23    2    1    2    0    0  0.84887753412E+02  0.97958875159E+02 -0.88637867866E+02  0.17875138787E+03  0.85402079278E+02 0.  0.
         24    2    1    2    0    0 -0.70922292036E+02 -0.11226752308E+03  0.94129115651E+01  0.15534511623E+03  0.80059565242E+02 0.  0.
        -13    1    4    4    0    0 -0.43009357668E+02 -0.49685658643E+02  0.43502363143E+02  0.78809422792E+02  0.00000000000E+00 0.  1.
         14    1    4    4    0    0 -0.27912934368E+02 -0.62581864434E+02 -0.34089451578E+02  0.76535693437E+02  0.00000000000E+00 0. -1.
        -11    1    3    3    0    0 -0.10417334349E+02  0.41594117124E+02 -0.36744703368E+02  0.56469147858E+02  0.00000000000E+00 0.  1.
         11    1    3    3    0    0  0.95305087761E+02  0.56364758036E+02 -0.51893164498E+02  0.12228224002E+03  0.00000000000E+00 0. -1.
         21    1    1    2  503  502  0.32923213583E+02  0.40792353028E+01  0.84047926982E+02  0.90358354253E+02  0.00000000000E+00 0.  1.
          3    1    1    2  501    0 -0.46888674959E+02  0.10229412615E+02  0.12063497888E+03  0.12983060830E+03  0.00000000000E+00 0. -1.
<scales pt_clust_5="13000.00000" pt_clust_6="13000.00000" pt_clust_7="13000.00000" pt_clust_8="13000.00000" pt_clust_9="33.17496" pt_clust_10="32.93409"></scales>
<clustering>
<clus scale="   33.175">  1  9  2 -1</clus>
<clus scale="   32.934">  1 10  2 -1</clus>
<clus scale="   80.060">  5  6 -1 -1</clus>
<clus scale="   85.402">  7  8 -1 -1</clus>
<clus scale="  153.017">  1  5  2 -1</clus>
<clus scale="   33.175">  1  5  2 -1</clus>
</clustering>
</event>
<event>
10    4  0.3043429E-005  0.2494612E+03  0.7546771E-02  0.1114904E+00
          2   -1    0    0  503    0 -0.00000000000E+00  0.00000000000E+00  0.15803476476E+04  0.15803476476E+04  0.00000000000E+00 0. -1.
         21   -1    0    0  501  502  0.00000000000E+00 -0.00000000000E+00 -0.15576084397E+03  0.15576084397E+03  0.00000000000E+00 0. -1.
         24    2    1    2    0    0  0.31858918525E+02 -0.24101943859E+03  0.12920176448E+04  0.13171625925E+04  0.80637088887E+02 0.  0.
         23    2    1    2    0    0  0.43770190347E+02  0.17523804301E+03  0.17890361233E+03  0.27380074208E+03  0.10166682142E+03 0.  0.
        -13    1    3    3    0    0  0.36818310588E+02 -0.87962906706E+02  0.34904240365E+03  0.36183374704E+03  0.00000000000E+00 0.  1.
         14    1    3    3    0    0 -0.49593920630E+01 -0.15305653188E+03  0.94297524117E+03  0.95532884547E+03  0.00000000000E+00 0. -1.
        -11    1    4    4    0    0  0.15865471494E+01  0.12088072621E+03  0.56630460412E+02  0.13349785072E+03  0.00000000000E+00 0.  1.
         11    1    4    4    0    0  0.42183643198E+02  0.54357316798E+02  0.12227315192E+03  0.14030289136E+03  0.00000000000E+00 0. -1.
         21    1    1    2  503  502 -0.52228525513E+02 -0.47382412962E+01  0.80639409576E+01  0.53059371949E+02  0.00000000000E+00 0. -1.
          1    1    1    2  501    0 -0.23400583359E+02  0.70519636875E+02 -0.54398394471E+02  0.92085785046E+02  0.00000000000E+00 0. -1.
<scales pt_clust_5="13000.00000" pt_clust_6="13000.00000" pt_clust_7="13000.00000" pt_clust_8="13000.00000" pt_clust_9="52.44301" pt_clust_10="85.60088"></scales>
<clustering>
<clus scale="   52.443">  2  9  1 -1</clus>
<clus scale="   80.637">  5  6 -1 -1</clus>
<clus scale="   85.601">  2 10  1 -1</clus>
<clus scale="  101.667">  7  8 -1 -1</clus>
<clus scale="  241.655">  1  5  2 -1</clus>
<clus scale="   52.443">  2  5  1 -1</clus>
</clustering>
</event>
<event>
10    4  0.3043429E-005  0.9456691E+02  0.7546771E-02  0.1297805E+00
          2   -1    0    0  502    0 -0.00000000000E+00  0.00000000000E+00  0.88250020529E+03  0.88250020529E+03  0.00000000000E+00 0. -1.
         21   -1    0    0  503  502  0.00000000000E+00 -0.00000000000E+00 -0.71043720998E+02  0.71043720998E+02  0.00000000000E+00 0.  1.
         23    2    1    2    0    0  0.48393083903E+02  0.11313944674E+02  0.52453746338E+03  0.53443807751E+03  0.89524367027E+02 0.  0.
         24    2    1    2    0    0  0.30178110343E+01 -0.16151302875E+02  0.22220546792E+03  0.23657132007E+03  0.79503130360E+02 0.  0.
        -11    1    4    4    0    0  0.27140222619E+02  0.22185369538E+02  0.80448376345E+02  0.87753766653E+02  0.00000000000E+00 0.  1.
         12    1    4    4    0    0 -0.24122411584E+02 -0.38336672413E+02  0.14175709158E+03  0.14881755342E+03  0.00000000000E+00 0. -1.
        -13    1    3    3    0    0  0.73114684786E+01 -0.37693809992E+02  0.20482554862E+03  0.20839334503E+03  0.00000000000E+00 0.  1.
         13    1    3    3    0    0  0.41081615425E+02  0.49007754665E+02  0.31971191476E+03  0.32604473248E+03  0.00000000000E+00 0. -1.
         21    1    1    2  503  501 -0.16517418388E+02  0.13741115983E+02 -0.54191713284E+02  0.58295670228E+02  0.00000000000E+00 0.  1.
          1    1    1    2  501    0 -0.34893476550E+02 -0.89037577817E+01  0.11890526627E+03  0.12423885848E+03  0.00000000000E+00 0. -1.
<scales pt_clust_5="13000.00000" pt_clust_6="13000.00000" pt_clust_7="13000.00000" pt_clust_8="13000.00000" pt_clust_9="21.48589" pt_clust_10="38.41136"></scales>
<clustering>
<clus scale="   21.486">  2  9  1 -1</clus>
<clus scale="   38.411">  2 10  1 -1</clus>
<clus scale="   79.503">  5  6 -1 -1</clus>
<clus scale="   85.141">  2  5  1 -1</clus>
<clus scale="   89.524">  7  8 -1 -1</clus>
<clus scale="   21.486">  2  5  1 -1</clus>
</clustering>
</event>
<event>
10    4  0.3043429E-005  0.2000096E+03  0.7546771E-02  0.1150790E+00
         21   -1    0    0  501  502  0.00000000000E+00  0.00000000000E+00  0.50665325165E+03  0.50665325165E+03  0.00000000000E+00 0. -1.
          2   -1    0    0  503    0 -0.00000000000E+00 -0.00000000000E+00 -0.19471484075E+03  0.19471484075E+03  0.00000000000E+00 0. -1.
         24    2    1    2    0    0  0.13421842578E+03 -0.15197901507E+03 -0.59035093376E+00  0.21854186796E+03  0.81535223642E+02 0.  0.
         23    2    1    2    0    0  0.74516428735E+01  0.14200999339E+03  0.26498352436E+03  0.31471195056E+03  0.92763023007E+02 0.  0.
        -11    1    3    3    0    0  0.79163868873E+02 -0.71945702561E+02  0.38697832462E+02  0.11375686568E+03  0.00000000000E+00 0.  1.
         12    1    3    3    0    0  0.55054556911E+02 -0.80033312509E+02 -0.39288183396E+02  0.10478500228E+03  0.00000000000E+00 0. -1.
        -13    1    4    4    0    0  0.27854104810E+02  0.46329191210E+02  0.16987541352E+03  0.17826918194E+03  0.00000000000E+00 0. -1.
         13    1    4    4    0    0 -0.20402461937E+02  0.95680802185E+02  0.95108110844E+02  0.13644276862E+03  0.00000000000E+00 0.  1.
         21    1    1    2  503  502 -0.22561047102E+02 -0.12250036177E+02  0.38945644128E+02  0.46645765394E+02  0.00000000000E+00 0. -1.
          1    1    1    2  501    0 -0.11910902156E+03  0.22219057853E+02  0.85995933444E+01  0.12146850848E+03  0.00000000000E+00 0. -1.
<scales pt_clust_5="13000.00000" pt_clust_6="13000.00000" pt_clust_7="13000.00000" pt_clust_8="13000.00000" pt_clust_9="25.67225" pt_clust_10="123.97905"></scales>
<clustering>
<clus scale="   25.672">  1  9  2 -1</clus>
<clus scale="   81.535">  5  6 -1 -1</clus>
<clus scale="   92.763">  7  8 -1 -1</clus>
<clus scale="  123.979">  1 10  2 -1</clus>
<clus scale="  195.056">  2  5  1 -1</clus>
<clus scale="   25.672">  1  5  2 -1</clus>
</clustering>
</event>
<event>
10    4  0.3043429E-005  0.1041446E+03  0.7546771E-02  0.1275452E+00
          4   -1    0    0  503    0 -0.00000000000E+00  0.00000000000E+00  0.63113638526E+03  0.63113638526E+03  0.00000000000E+00 0. -1.
         21   -1    0    0  501  502  0.00000000000E+00 -0.00000000000E+00 -0.36006000473E+02  0.36006000473E+02  0.00000000000E+00 0.  1.
         23    2    1    2    0    0  0.18712859636E+02 -0.34067100948E+02  0.23585311159E+03  0.25493646708E+03  0.88629416796E+02 0.  0.
         24    2    1    2    0    0 -0.14952099598E+02  0.69682482599E+02  0.29808178151E+03  0.31681411121E+03  0.80244743968E+02 0.  0.
        -13    1    4    4    0    0  0.18910072939E+02  0.33365006132E+02  0.46007688963E+02  0.59895925876E+02  0.00000000000E+00 0.  1.
         14    1    4    4    0    0 -0.33862172537E+02  0.36317476467E+02  0.25207409254E+03  0.25691818534E+03  0.00000000000E+00 0. -1.
        -11    1    3    3    0    0 -0.11864868234E+02  0.23844458357E+02  0.10863230302E+03  0.11184949956E+03  0.00000000000E+00 0.  1.
         11    1    3    3    0    0  0.30577727870E+02 -0.57911559306E+02  0.12722080857E+03  0.14308696753E+03  0.00000000000E+00 0. -1.
         21    1    1    2  503  502  0.24598638352E+02 -0.97562347983E+01  0.43716674812E+01  0.26821420596E+02  0.00000000000E+00 0. -1.
          3    1    1    2  501    0 -0.28359398390E+02 -0.25859146853E+02  0.56823824214E+02  0.68570386840E+02  0.00000000000E+00 0. -1.
<scales pt_clust_5="13000.00000" pt_clust_6="13000.00000" pt_clust_7="13000.00000" pt_clust_8="13000.00000" pt_clust_9="26.46275" pt_clust_10="36.07218"></scales>
<clustering>
<clus scale="   26.463">  2  9  1 -1</clus>
<clus scale="   36.072">  2 10  1 -1</clus>
<clus scale="   80.245">  5  6 -1 -1</clus>
<clus scale="   88.629">  7  8 -1 -1</clus>
<clus scale="   97.109">  2  5  1 -1</clus>
<clus scale="   26.463">  2  5  1 -1</clus>
</clustering>
</event>
<event>
10    4  0.3043429E-005  0.1338685E+03  0.7546771E-02  0.1238752E+00
         21   -1    0    0  501  502  0.00000000000E+00  0.00000000000E+00  0.13179291557E+03  0.13179291557E+03  0.00000000000E+00 0. -1.
          2   -1    0    0  503    0 -0.00000000000E+00 -0.00000000000E+00 -0.91909631492E+03  0.91909631492E+03  0.00000000000E+00 0. -1.
         23    2    1    2    0    0  0.12602631398E+02  0.43910665671E+01 -0.37904452948E+03  0.39045193395E+03  0.92735374121E+02 0.  0.
         24    2    1    2    0    0 -0.13387192832E+02  0.10184031066E+03 -0.43079096978E+03  0.45007753198E+03  0.80238764560E+02 0.  0.
        -11    1    4    4    0    0 -0.28505021305E+02  0.19361069994E+02 -0.53917302841E+02  0.63987989627E+02  0.00000000000E+00 0.  1.
         12    1    4    4    0    0  0.15117828474E+02  0.82479240668E+02 -0.37687366694E+03  0.38608954235E+03  0.00000000000E+00 0. -1.
        -13    1    3    3    0    0 -0.38687665315E+02  0.34863925317E+01 -0.11253965089E+03  0.11905487559E+03  0.00000000000E+00 0.  1.
         13    1    3    3    0    0  0.51290296713E+02  0.90467403544E+00 -0.26650487859E+03  0.27139705836E+03  0.00000000000E+00 0. -1.
         21    1    1    2  503  502  0.41956394610E+02  0.49883991543E+01  0.70693640266E+02  0.82357840846E+02  0.00000000000E+00 0. -1.
          1    1    1    2  501    0 -0.41171833176E+02 -0.11121977638E+03 -0.48161540358E+02  0.12800192372E+03  0.00000000000E+00 0. -1.
<scales pt_clust_5="13000.00000" pt_clust_6="13000.00000" pt_clust_7="13000.00000" pt_clust_8="13000.00000" pt_clust_9="42.25190" pt_clust_10="107.15646"></scales>
<clustering>
<clus scale="   42.252">  1  9  2 -1</clus>
<clus scale="   80.239">  5  6 -1 -1</clus>
<clus scale="   92.735">  7  8 -1 -1</clus>
<clus scale="   94.396">  2  7  1 -1</clus>
<clus scale="  107.156">  1 10  2 -1</clus>
<clus scale="   42.252">  1  5  2 -1</clus>
</clustering>
</event>
<event>
10    4  0.3043429E-005  0.1416999E+03  0.7546771E-02  0.1232948E+00
          2   -1    0    0  503    0 -0.00000000000E+00  0.00000000000E+00  0.10928845889E+04  0.10928845889E+04  0.00000000000E+00 0. -1.
         21   -1    0    0  501  502  0.00000000000E+00 -0.00000000000E+00 -0.81616495369E+02  0.81616495369E+02  0.00000000000E+00 0.  1.
         24    2    1    2    0    0  0.21312185901E+02  0.33561806887E+02 -0.17410401676E+02  0.91838573165E+02  0.80935760237E+02 0.  0.
         23    2    1    2    0    0  0.85415327109E+02 -0.59600728523E+02  0.24190116121E+03  0.27894576476E+03  0.91905075699E+02 0.  0.
        -13    1    3    3    0    0 -0.21870844426E+02  0.18881436092E+01 -0.29661705172E+02  0.36901431895E+02  0.00000000000E+00 0.  1.
         14    1    3    3    0    0  0.43183030327E+02  0.31673663278E+02  0.12251303496E+02  0.54937141270E+02  0.00000000000E+00 0. -1.
        -11    1    4    4    0    0  0.10305121026E+03 -0.38378076258E+02  0.20757296808E+03  0.23490203437E+03  0.00000000000E+00 0.  1.
         11    1    4    4    0    0 -0.17635883148E+02 -0.21222652265E+02  0.34328193128E+02  0.44043730394E+02  0.00000000000E+00 0. -1.
         21    1    1    2  503  502 -0.64508142900E+01 -0.36005338141E+02  0.92023265323E+02  0.99026656716E+02  0.00000000000E+00 0. -1.
          1    1    1    2  501    0 -0.10027669872E+03  0.62044259776E+02  0.69475406872E+03  0.70469008967E+03  0.00000000000E+00 0. -1.
<scales pt_clust_5="13000.00000" pt_clust_6="13000.00000" pt_clust_7="13000.00000" pt_clust_8="13000.00000" pt_clust_9="36.57865" pt_clust_10="107.85327"></scales>
<clustering>
<clus scale="   36.579">  1  9  2 -1</clus>
<clus scale="   80.936">  5  6 -1 -1</clus>
<clus scale="   89.625">  1  5  2 -1</clus>
<clus scale="   91.905">  7  8 -1 -1</clus>
<clus scale="  107.853">  2 10  1 -1</clus>
<clus scale="  107.853">  2  5  1 -1</clus>
</clustering>
</event>
<event>
10    4  0.3043429E-005  0.1395513E+03  0.7546771E-02  0.1215464E+00
         21   -1    0    0  503  502  0.00000000000E+00  0.00000000000E+00  0.55026431594E+02  0.55026431594E+02  0.00000000000E+00 0.  1.
          2   -1    0    0  502    0 -0.00000000000E+00 -0.00000000000E+00 -0.61494479648E+03  0.61494479648E+03  0.00000000000E+00 0. -1.
         23    2    1    2    0    0 -0.12342902029E+03  0.25780044556E+02 -0.36640645487E+03  0.39727453717E+03  0.87601563700E+02 0.  0.
         24    2    1    2    0    0  0.67666502559E+02 -0.40908464327E+02 -0.80010008625E+02  0.13822310280E+03  0.80322889927E+02 0.  0.
        -13    1    4    4    0    0  0.23484720654E+02  0.14653668713E+02  0.42941436911E+01  0.28012529000E+02  0.00000000000E+00 0.  1.
         14    1    4    4    0    0  0.44181781905E+02 -0.55562133041E+02 -0.84304152316E+02  0.11021057380E+03  0.00000000000E+00 0. -1.
        -11    1    3    3    0    0 -0.20736189735E+02  0.41506614763E+02 -0.78369008328E+02  0.91074091267E+02  0.00000000000E+00 0. -1.
         11    1    3    3    0    0 -0.10269283055E+03 -0.15726570208E+02 -0.28803744654E+03  0.30620044590E+03  0.00000000000E+00 0.  1.
         21    1    1    2  503  501  0.20656191605E+02 -0.29385493082E+00 -0.78856885386E+01  0.22112184109E+02  0.00000000000E+00 0.  1.
          1    1    1    2  501    0  0.35106326122E+02  0.15422274703E+02 -0.10561621286E+03  0.11236140400E+03  0.00000000000E+00 0. -1.
<scales pt_clust_5="13000.00000" pt_clust_6="13000.00000" pt_clust_7="13000.00000" pt_clust_8="13000.00000" pt_clust_9="20.65828" pt_clust_10="39.67199"></scales>
<clustering>
<clus scale="   20.658">  1  9  2 -1</clus>
<clus scale="   39.672">  1 10  2 -1</clus>
<clus scale="   80.323">  5  6 -1 -1</clus>
<clus scale="   87.602">  7  8 -1 -1</clus>
<clus scale="  135.101">  1  5  2 -1</clus>
<clus scale="   20.658">  1  5  2 -1</clus>
</clustering>
</event>
<event>
10    4  0.3043429E-005  0.2413383E+03  0.7546771E-02  0.1142581E+00
          2   -1    0    0  502    0 -0.00000000000E+00  0.00000000000E+00  0.20921215536E+04  0.20921215536E+04  0.00000000000E+00 0. -1.
         21   -1    0    0  503  502  0.00000000000E+00 -0.00000000000E+00 -0.65596908787E+02  0.65596908787E+02  0.00000000000E+00 0. -1.
         23    2    1    2    0    0 -0.55223006080E+02  0.85640488082E+02  0.28110740800E+03  0.31252874448E+03  0.90933864407E+02 0.  0.
         24    2    1    2    0    0  0.25096415311E+03  0.30764206192E+01  0.13296282957E+04  0.13554598207E+04  0.79796304272E+02 0.  0.
        -13    1    4    4    0    0  0.26091993471E+02 -0.98247074128E+01  0.62063384371E+02  0.68038082561E+02  0.00000000000E+00 0.  1.
         14    1    4    4    0    0  0.22487215964E+03  0.12901128032E+02  0.12675649113E+04  0.12874217381E+04  0.00000000000E+00 0. -1.
        -13    1    3    3    0    0 -0.50866880552E+02  0.52986898074E+01  0.15229246061E+03  0.16065026987E+03  0.00000000000E+00 0.  1.
         13    1    3    3    0    0 -0.43561255286E+01  0.80341798274E+02  0.12881494739E+03  0.15187847462E+03  0.00000000000E+00 0. -1.
         21    1    1    2  503  501  0.20016942428E+02  0.28276875958E+01  0.14041346291E+02  0.24613679265E+02  0.00000000000E+00 0.  1.
          1    1    1    2  501    0 -0.21575808946E+03 -0.91544596297E+02  0.40174759477E+03  0.46511621793E+03  0.00000000000E+00 0. -1.
<scales pt_clust_5="13000.00000" pt_clust_6="13000.00000" pt_clust_7="13000.00000" pt_clust_8="13000.00000" pt_clust_9="20.21568" pt_clust_10="227.76468"></scales>
<clustering>
<clus scale="   20.216">  2  9  1 -1</clus>
<clus scale="   79.796">  5  6 -1 -1</clus>
<clus scale="   90.934">  7  8 -1 -1</clus>
<clus scale="  135.022">  1  7  2 -1</clus>
<clus scale="  227.765">  2 10  1 -1</clus>
<clus scale="   20.216">  2  5  1 -1</clus>
</clustering>
</event>
<event>
10    4  0.3043429E-005  0.1086851E+03  0.7546771E-02  0.1268531E+00
          2   -1    0    0  503    0 -0.00000000000E+00  0.00000000000E+00  0.65395075645E+03  0.65395075645E+03  0.00000000000E+00 0. -1.
         21   -1    0    0  501  502  0.00000000000E+00 -0.00000000000E+00 -0.93266900017E+02  0.93266900017E+02  0.00000000000E+00 0. -1.
         24    2    1    2    0    0 -0.65847339047E+01  0.47112068480E+02  0.20529732502E+03  0.22543272262E+03  0.80062569602E+02 0.  0.
         23    2    1    2    0    0 -0.12223013934E+02 -0.88047161508E+02  0.74027890186E+02  0.14856626909E+03  0.93220722301E+02 0.  0.
        -11    1    3    3    0    0  0.29521021811E+02 -0.39041379687E+01  0.81137939180E+02  0.86429729818E+02  0.00000000000E+00 0.  1.
         12    1    3    3    0    0 -0.36105755716E+02  0.51016206449E+02  0.12415938584E+03  0.13900299280E+03  0.00000000000E+00 0. -1.
        -11    1    4    4    0    0  0.31223284342E+02 -0.53030004006E+02  0.79055752356E+01  0.62044926705E+02  0.00000000000E+00 0. -1.
         11    1    4    4    0    0 -0.43446298277E+02 -0.35017157502E+02  0.66122314951E+02  0.86521342384E+02  0.00000000000E+00 0.  1.
         21    1    1    2  503  502  0.13692902233E+02  0.94089222269E+02  0.88095434503E+01  0.95487618959E+02  0.00000000000E+00 0. -1.
          1    1    1    2  501    0  0.51148456064E+01 -0.53154129241E+02  0.27254909778E+03  0.27773104580E+03  0.00000000000E+00 0. -1.
<scales pt_clust_5="13000.00000" pt_clust_6="13000.00000" pt_clust_7="13000.00000" pt_clust_8="13000.00000" pt_clust_9="70.55425" pt_clust_10="53.39968"></scales>
<clustering>
<clus scale="   53.400">  2 10  1 -1</clus>
<clus scale="   70.554">  2  9  1 -1</clus>
<clus scale="   80.063">  5  6 -1 -1</clus>
<clus scale="   93.221">  7  8 -1 -1</clus>
<clus scale="   97.634">  1  5  2 -1</clus>
<clus scale="   53.400">  2  5  1 -1</clus>
</clustering>
</event>
<event>
10    4  0.3043429E-005  0.4169301E+03  0.7546771E-02  0.1085642E+00
          2   -1    0    0  503    0 -0.00000000000E+00  0.00000000000E+00  0.18096515173E+04  0.18096515173E+04  0.00000000000E+00 0. -1.
         21   -1    0    0  501  502  0.00000000000E+00 -0.00000000000E+00 -0.28496872375E+03  0.28496872375E+03  0.00000000000E+00 0. -1.
         24    2    1    2    0    0 -0.38590657991E+01 -0.76163717444E+02  0.29264776707E+03  0.31284063668E+03  0.80067122746E+02 0.  0.
         23    2    1    2    0    0 -0.16729992207E+02 -0.97281717308E+02  0.14415602171E+03  0.19699606608E+03  0.91010253799E+02 0.  0.
        -11    1    3    3    0    0  0.30439238440E+02 -0.64139219631E+02  0.22649365592E+03  0.23735998589E+03  0.00000000000E+00 0.  1.
         12    1    3    3    0    0 -0.34298304239E+02 -0.12024497813E+02  0.66154111147E+02  0.75480650786E+02  0.00000000000E+00 0. -1.
        -13    1    4    4    0    0 -0.36629028222E+02 -0.99854872432E+01  0.74283789755E+02  0.83423480414E+02  0.00000000000E+00 0. -1.
         13    1    4    4    0    0  0.19899036015E+02 -0.87296230065E+02  0.69872231953E+02  0.11357258567E+03  0.00000000000E+00 0.  1.
         21    1    1    2  503  502  0.23652045946E+03  0.50045404205E+03  0.10551787660E+04  0.11915529380E+04  0.00000000000E+00 0. -1.
          1    1    1    2  501    0 -0.21593140145E+03 -0.32700860730E+03  0.32700238817E+02  0.39323060028E+03  0.00000000000E+00 0. -1.
<scales pt_clust_5="13000.00000" pt_clust_6="13000.00000" pt_clust_7="13000.00000" pt_clust_8="13000.00000" pt_clust_9="416.93008" pt_clust_10="13000.00000"></scales>
<clustering>
<clus scale="   80.067">  5  6 -1 -1</clus>
<clus scale="   91.010">  7  8 -1 -1</clus>
<clus scale="  110.574">  1  5  2 -1</clus>
<clus scale="  140.688">  1  7  2 -1</clus>
<clus scale="  416.930">  1  9  2 -1</clus>
<clus scale="  416.930">  2  5  1 -1</clus>
</clustering>
</event>
<event>
10    4  0.3043429E-005  0.3763219E+03  0.7546771E-02  0.1078549E+00
         21   -1    0    0  503  502  0.00000000000E+00  0.00000000000E+00  0.44267637800E+03  0.44267637800E+03  0.00000000000E+00 0.  1.
         -1   -1    0    0    0  501 -0.00000000000E+00 -0.00000000000E+00 -0.10825890743E+04  0.10825890743E+04  0.00000000000E+00 0.  1.
         24    2    1    2    0    0 -0.12483282202E+03 -0.10903623461E+03  0.20277910521E+03  0.27534140108E+03  0.84978748675E+02 0.  0.
         23    2    1    2    0    0  0.15967262472E+03  0.33942563342E+03 -0.16507719833E+03  0.41981721500E+03  0.91054406223E+02 0.  0.
        -11    1    3    3    0    0 -0.59527363889E+02 -0.10512910914E+03  0.12928429871E+03  0.17694650754E+03  0.00000000000E+00 0.  1.
         12    1    3    3    0    0 -0.65305458128E+02 -0.39071254764E+01  0.73494806503E+02  0.98394893535E+02  0.00000000000E+00 0. -1.
        -13    1    4    4    0    0  0.14999840930E+02  0.17185227748E+02 -0.38204743933E+02  0.44496401423E+02  0.00000000000E+00 0. -1.
         13    1    4    4    0    0  0.14467278379E+03  0.32224040567E+03 -0.12687245440E+03  0.37532081357E+03  0.00000000000E+00 0.  1.
         21    1    1    2  503  501  0.87036171699E+02  0.92723117299E+02 -0.12402822198E+03  0.17763972391E+03  0.00000000000E+00 0.  1.
         -2    1    1    2    0  502 -0.12187597440E+03 -0.32311251610E+03 -0.55358638122E+03  0.65246711233E+03  0.00000000000E+00 0.  1.
<scales pt_clust_5="13000.00000" pt_clust_6="13000.00000" pt_clust_7="13000.00000" pt_clust_8="13000.00000" pt_clust_9="127.17261" pt_clust_10="365.14028"></scales>
<clustering>
<clus scale="   84.979">  5  6 -1 -1</clus>
<clus scale="   91.054">  7  8 -1 -1</clus>
<clus scale="  127.173">  2  9  1 -1</clus>
<clus scale="  181.892">  2  5  1 -1</clus>
<clus scale="  365.140">  1 10  2 -1</clus>
<clus scale="  365.140">  1  5  2 -1</clus>
</clustering>
</event>
<event>
10    4  0.3043429E-005  0.2117615E+03  0.7546771E-02  0.1175822E+00
          2   -1    0    0  502    0 -0.00000000000E+00  0.00000000000E+00  0.12021006274E+04  0.12021006274E+04  0.00000000000E+00 0. -1.
         21   -1    0    0  503  502  0.00000000000E+00 -0.00000000000E+00 -0.11086236846E+03  0.11086236846E+03  0.00000000000E+00 0. -1.
         24    2    1    2    0    0 -0.18870806771E+02 -0.59776896057E+02  0.19920320486E+03  0.22173927119E+03  0.74545307791E+02 0.  0.
         23    2    1    2    0    0  0.60758985029E+02 -0.16228670499E+03  0.58354294561E+03  0.61547572797E+03  0.90881095171E+02 0.  0.
        -11    1    3    3    0    0 -0.83920173061E+01 -0.29483381575E+02  0.18350361653E+03  0.18604642707E+03  0.00000000000E+00 0.  1.
         12    1    3    3    0    0 -0.10478789465E+02 -0.30293514483E+02  0.15699588325E+02  0.35692844128E+02  0.00000000000E+00 0. -1.
        -11    1    4    4    0    0  0.48853102252E+02 -0.65510140794E+02  0.14711950425E+03  0.16829246173E+03  0.00000000000E+00 0.  1.
         11    1    4    4    0    0  0.11905882777E+02 -0.96776564195E+02  0.43642344137E+03  0.44718326623E+03  0.00000000000E+00 0. -1.
         21    1    1    2  503  501  0.25687762650E+02  0.34914262729E+02 -0.49733127565E+02  0.65971591380E+02  0.00000000000E+00 0. -1.
          1    1    1    2  501    0 -0.67575940908E+02  0.18714933832E+03  0.35822523602E+03  0.40977640530E+03  0.00000000000E+00 0. -1.
<scales pt_clust_5="13000.00000" pt_clust_6="13000.00000" pt_clust_7="13000.00000" pt_clust_8="13000.00000" pt_clust_9="43.34590" pt_clust_10="191.26830"></scales>
<clustering>
<clus scale="   43.346">  2  9  1 -1</clus>
<clus scale="   74.545">  5  6 -1 -1</clus>
<clus scale="   90.881">  7  8 -1 -1</clus>
<clus scale="   92.076">  1  5  2 -1</clus>
<clus scale="  191.268">  2 10  1 -1</clus>
<clus scale="   43.346">  2  5  1 -1</clus>
</clustering>
</event>
<event>
10    4  0.3043429E-005  0.1569302E+03  0.7546771E-02  0.1222056E+00
          2   -1    0    0  503    0 -0.00000000000E+00  0.00000000000E+00  0.47755108656E+03  0.47755108656E+03  0.00000000000E+00 0. -1.
         21   -1    0    0  501  502  0.00000000000E+00 -0.00000000000E+00 -0.19264317178E+03  0.19264317178E+03  0.00000000000E+00 0. -1.
         24    2    1    2    0    0  0.13526758546E+02 -0.11125656284E+02  0.14329656835E+03  0.16518177905E+03  0.80276772524E+02 0.  0.
         23    2    1    2    0    0 -0.13309352398E+03  0.51122742260E+00  0.82693233518E+02  0.18133673563E+03  0.91272631924E+02 0.  0.
        -11    1    3    3    0    0  0.26203847297E+02 -0.16738237671E+02  0.12275109745E+02  0.33428857784E+02  0.00000000000E+00 0.  1.
         12    1    3    3    0    0 -0.12677088751E+02  0.56125813872E+01  0.13102145860E+03  0.13175292127E+03  0.00000000000E+00 0. -1.
        -11    1    4    4    0    0 -0.46613875791E+02  0.41826190825E+02  0.49776295164E+02  0.79999770096E+02  0.00000000000E+00 0.  1.
         11    1    4    4    0    0 -0.86479648191E+02 -0.41314963402E+02  0.32916938354E+02  0.10133696553E+03  0.00000000000E+00 0. -1.
         21    1    1    2  503  502  0.20123483316E+01 -0.23121766699E+02 -0.11151408117E+03  0.11390371346E+03  0.00000000000E+00 0. -1.
          1    1    1    2  501    0  0.11755441710E+03  0.33736195561E+02  0.17043219409E+03  0.20977203020E+03  0.00000000000E+00 0. -1.
<scales pt_clust_5="13000.00000" pt_clust_6="13000.00000" pt_clust_7="13000.00000" pt_clust_8="13000.00000" pt_clust_9="23.20917" pt_clust_10="127.65742"></scales>
<clustering>
<clus scale="   23.209">  2  9  1 -1</clus>
<clus scale="   80.277">  5  6 -1 -1</clus>
<clus scale="   82.699">  1  5  2 -1</clus>
<clus scale="   91.273">  7  8 -1 -1</clus>
<clus scale="  127.657">  2 10  1 -1</clus>
<clus scale="   23.209">  2  5  1 -1</clus>
</clustering>
</event>
<event>
10    4  0.3043429E-005  0.2043776E+03  0.7546771E-02  0.1150196E+00
         21   -1    0    0  503  502  0.00000000000E+00  0.00000000000E+00  0.20220421478E+03  0.20220421478E+03  0.00000000000E+00 0.  1.
         -1   -1    0    0    0  501 -0.00000000000E+00 -0.00000000000E+00 -0.72955458333E+03  0.72955458333E+03  0.00000000000E+00 0.  1.
         24    2    1    2    0    0  0.49010916751E+02 -0.15029169410E+03 -0.70301726678E+02  0.19113188510E+03  0.81236700152E+02 0.  0.
         23    2    1    2    0    0 -0.18516760597E+03 -0.12878560118E+02 -0.90810483058E+02  0.22551586808E+03  0.90321444341E+02 0.  0.
        -13    1    3    3    0    0  0.97486330279E+01 -0.13522899031E+03 -0.50902262690E+02  0.14482042678E+03  0.00000000000E+00 0.  1.
         14    1    3    3    0    0  0.39262283723E+02 -0.15062703791E+02 -0.19399463989E+02  0.46311458319E+02  0.00000000000E+00 0. -1.
        -13    1    4    4    0    0 -0.12287556679E+03 -0.12835700025E+02 -0.10657058905E+02  0.12400295566E+03  0.00000000000E+00 0.  1.
         13    1    4    4    0    0 -0.62292039184E+02 -0.42860093772E-01 -0.80153424153E+02  0.10151291241E+03  0.00000000000E+00 0. -1.
         21    1    1    2  503  501  0.15158001572E+01 -0.23043684958E+02  0.41262688256E+02  0.47285499983E+02  0.00000000000E+00 0.  1.
         -2    1    1    2    0  502  0.13464088907E+03  0.18621393918E+03 -0.40750084707E+03  0.46782554496E+03  0.00000000000E+00 0.  1.
<scales pt_clust_5="13000.00000" pt_clust_6="13000.00000" pt_clust_7="13000.00000" pt_clust_8="13000.00000" pt_clust_9="23.09349" pt_clust_10="183.33647"></scales>
<clustering>
<clus scale="   23.093">  1  9  2 -1</clus>
<clus scale="   81.237">  5  6 -1 -1</clus>
<clus scale="   90.321">  7  8 -1 -1</clus>
<clus scale="  185.401">  2  5  1 -1</clus>
<clus scale="  183.336">  1 10  2 -1</clus>
<clus scale="   23.093">  1  5  2 -1</clus>
</clustering>
</event>
<event>
10    4  0.3043429E-005  0.2182633E+03  0.7546771E-02  0.1135740E+00
          4   -1    0    0  503    0 -0.00000000000E+00  0.00000000000E+00  0.86427816133E+03  0.86427816133E+03  0.00000000000E+00 0. -1.
         21   -1    0    0  501  502  0.00000000000E+00 -0.00000000000E+00 -0.16291773846E+03  0.16291773846E+03  0.00000000000E+00 0.  1.
         23    2    1    2    0    0  0.18729214290E+03  0.11164937830E+00  0.49783399449E+03  0.53916831681E+03  0.88235075359E+02 0.  0.
         24    2    1    2    0    0 -0.26155774507E+03 -0.34515526262E+01  0.76928346740E+02  0.28435586041E+03  0.80721233841E+02 0.  0.
        -11    1    4    4    0    0 -0.22660508559E+03 -0.31461979658E+02  0.60459832813E+02  0.23663286408E+03  0.00000000000E+00 0.  1.
         12    1    4    4    0    0 -0.34952659481E+02  0.28010427032E+02  0.16468513927E+02  0.47722996326E+02  0.00000000000E+00 0. -1.
        -13    1    3    3    0    0  0.38563292656E+02  0.24653095318E+02  0.20227558534E+03  0.20738928389E+03  0.00000000000E+00 0. -1.
         13    1    3    3    0    0  0.14872885024E+03 -0.24541445940E+02  0.29555840916E+03  0.33177903292E+03  0.00000000000E+00 0.  1.
         21    1    1    2  503  502  0.31443396311E+02  0.70958703142E+01 -0.28315492583E+02  0.42904611259E+02  0.00000000000E+00 0. -1.
          3    1    1    2  501    0  0.42822205867E+02 -0.37559670663E+01  0.15491357422E+03  0.16076711131E+03  0.00000000000E+00 0. -1.
<scales pt_clust_5="13000.00000" pt_clust_6="13000.00000" pt_clust_7="13000.00000" pt_clust_8="13000.00000" pt_clust_9="32.23412" pt_clust_10="43.69307"></scales>
<clustering>
<clus scale="   32.234">  2  9  1 -1</clus>
<clus scale="   43.693">  2 10  1 -1</clus>
<clus scale="   80.721">  5  6 -1 -1</clus>
<clus scale="   88.235">  7  8 -1 -1</clus>
<clus scale="  215.335">  2  5  1 -1</clus>
<clus scale="   32.234">  2  5  1 -1</clus>
</clustering>
</event>
<event>
10    4  0.3043429E-005  0.1999495E+03  0.7546771E-02  0.1150678E+00
         21   -1    0    0  501  502  0.00000000000E+00  0.00000000000E+00  0.22463253979E+03  0.22463253979E+03  0.00000000000E+00 0.  1.
          2   -1    0    0  503    0 -0.00000000000E+00 -0.00000000000E+00 -0.98273619159E+03  0.98273619159E+03  0.00000000000E+00 0. -1.
         23    2    1    2    0    0 -0.19850930358E+03  0.75025104750E+02 -0.50348180836E+03  0.55349922435E+03  0.88502825142E+02 0.  0.
         24    2    1    2    0    0  0.94265915305E+02 -0.13252983574E+03 -0.30504786815E+03  0.35450684518E+03  0.78553683986E+02 0.  0.
        -11    1    4    4    0    0  0.85306129710E+02 -0.14255016245E+03 -0.27054455418E+03  0.31747762185E+03  0.00000000000E+00 0.  1.
         12    1    4    4    0    0  0.89597855952E+01  0.10020326713E+02 -0.34503313973E+02  0.37029223331E+02  0.00000000000E+00 0. -1.
        -11    1    3    3    0    0 -0.13444331142E+03  0.92886775116E+02 -0.35554504822E+03  0.39129942281E+03  0.00000000000E+00 0. -1.
         11    1    3    3    0    0 -0.64065992164E+02 -0.17861670366E+02 -0.14793676014E+03  0.16219980154E+03  0.00000000000E+00 0.  1.
         21    1    1    2  503  502  0.33522267077E+02  0.25671307537E+01  0.15677033029E+03  0.16033486523E+03  0.00000000000E+00 0.  1.
          1    1    1    2  501    0  0.70721121197E+02  0.54937600232E+02 -0.10634430557E+03  0.13902779661E+03  0.00000000000E+00 0. -1.
<scales pt_clust_5="13000.00000" pt_clust_6="13000.00000" pt_clust_7="13000.00000" pt_clust_8="13000.00000" pt_clust_9="33.62042" pt_clust_10="96.59751"></scales>
<clustering>
<clus scale="   33.620">  1  9  2 -1</clus>
<clus scale="   78.554">  5  6 -1 -1</clus>
<clus scale="   88.503">  7  8 -1 -1</clus>
<clus scale="   96.598">  1 10  2 -1</clus>
<clus scale="  195.749">  1  5  2 -1</clus>
<clus scale="   33.620">  1  5  2 -1</clus>
</clustering>
</event>
<event>
10    4  0.3043429E-005  0.1432092E+03  0.7546771E-02  0.1211385E+00
         21   -1    0    0  501  502  0.00000000000E+00  0.00000000000E+00  0.82409903938E+02  0.82409903938E+02  0.00000000000E+00 0. -1.
          2   -1    0    0  503    0 -0.00000000000E+00 -0.00000000000E+00 -0.65349817624E+03  0.65349817624E+03  0.00000000000E+00 0. -1.
         24    2    1    2    0    0  0.85605657047E+00  0.13133901613E+03 -0.46852393417E+03  0.49295906138E+03  0.79014488063E+02 0.  0.
         23    2    1    2    0    0 -0.53698573412E+01 -0.64633505313E+02 -0.82619219492E+02  0.13856907279E+03  0.90383223708E+02 0.  0.
        -11    1    3    3    0    0  0.30336528156E+02  0.74811656240E+02 -0.17692844792E+03  0.19447561424E+03  0.00000000000E+00 0.  1.
         12    1    3    3    0    0 -0.29480471585E+02  0.56527359885E+02 -0.29159548625E+03  0.29848344715E+03  0.00000000000E+00 0. -1.
        -11    1    4    4    0    0 -0.41197964057E+02 -0.33116614934E+02 -0.13459130878E+02  0.54544758054E+02  0.00000000000E+00 0. -1.
         11    1    4    4    0    0  0.35828106716E+02 -0.31516890379E+02 -0.69160088614E+02  0.84024314738E+02  0.00000000000E+00 0.  1.
         21    1    1    2  503  502 -0.19024530789E+02  0.64026252516E+01 -0.18897434541E+02  0.27568812345E+02  0.00000000000E+00 0. -1.
          1    1    1    2  501    0  0.23538331560E+02 -0.73108136064E+02 -0.10476840994E+01  0.76811133655E+02  0.00000000000E+00 0. -1.
<scales pt_clust_5="13000.00000" pt_clust_6="13000.00000" pt_clust_7="13000.00000" pt_clust_8="13000.00000" pt_clust_9="20.07303" pt_clust_10="71.44878"></scales>
<clustering>
<clus scale="   20.073">  1  9  2 -1</clus>
<clus scale="   71.449">  1 10  2 -1</clus>
<clus scale="   79.014">  5  6 -1 -1</clus>
<clus scale="   90.383">  7  8 -1 -1</clus>
<clus scale="  136.320">  2  5  1 -1</clus>
<clus scale="   20.073">  1  5  2 -1</clus>
</clustering>
</event>
<event>
10    4  0.3046653E-005  0.4618230E+03  0.7546771E-02  0.1079679E+00
         21   -1    0    0  501  502  0.00000000000E+00  0.00000000000E+00  0.16152396851E+04  0.16152396851E+04  0.00000000000E+00 0. -1.
          2   -1    0    0  503    0 -0.00000000000E+00 -0.00000000000E+00 -0.18059315861E+03  0.18059315861E+03  0.00000000000E+00 0. -1.
         23    2    1    2    0    0  0.11850023601E+01 -0.16667173988E+02  0.40780528134E+02  0.10377975348E+03  0.93957367136E+02 0.  0.
         24    2    1    2    0    0  0.21480933827E+02  0.46135091246E+03  0.82905326720E+03  0.95232630492E+03  0.79309370480E+02 0.  0.
        -13    1    4    4    0    0 -0.27540443976E+02  0.16019161425E+03  0.25984821563E+03  0.30649783767E+03  0.00000000000E+00 0.  1.
         14    1    4    4    0    0  0.49021377804E+02  0.30115929821E+03  0.56920505157E+03  0.64582846725E+03  0.00000000000E+00 0. -1.
        -13    1    3    3    0    0  0.24001313177E+02 -0.31179158197E+02  0.59184620888E+02  0.71070544459E+02  0.00000000000E+00 0.  1.
         13    1    3    3    0    0 -0.22816310817E+02  0.14511984209E+02 -0.18404092754E+02  0.32709209025E+02  0.00000000000E+00 0. -1.
         21    1    1    2  503  502 -0.29635250329E+02  0.17681259404E+01  0.22493515831E+02  0.37246913777E+02  0.00000000000E+00 0. -1.
          1    1    1    2  501    0  0.69693141420E+01 -0.44645186441E+03  0.54231921527E+03  0.70247987148E+03  0.00000000000E+00 0. -1.
<scales pt_clust_5="13000.00000" pt_clust_6="13000.00000" pt_clust_7="13000.00000" pt_clust_8="13000.00000" pt_clust_9="29.68795" pt_clust_10="454.96230"></scales>
<clustering>
<clus scale="   29.688">  2  9  1 -1</clus>
<clus scale="   79.309">  5  6 -1 -1</clus>
<clus scale="   93.957">  7  8 -1 -1</clus>
<clus scale="   95.461">  2  7  1 -1</clus>
<clus scale="  454.962">  1 10  2 -1</clus>
<clus scale="  454.962">  1  5  2 -1</clus>
</clustering>
</event>
<event>
10    4  0.3043429E-005  0.1569382E+03  0.7546771E-02  0.1214028E+00
         21   -1    0    0  501  502  0.00000000000E+00  0.00000000000E+00  0.14154513133E+03  0.14154513133E+03  0.00000000000E+00 0.  1.
         -1   -1    0    0    0  501 -0.00000000000E+00 -0.00000000000E+00 -0.98803650934E+03  0.98803650934E+03  0.00000000000E+00 0.  1.
         23    2    1    2    0    0  0.44124376781E+01  0.16768367534E+02 -0.32480919609E+02  0.97284879669E+02  0.90048264379E+02 0.  0.
         24    2    1    2    0    0 -0.11464107260E+03 -0.70631233872E+02 -0.66479635283E+02  0.17002167156E+03  0.79727537077E+02 0.  0.
        -11    1    4    4    0    0 -0.46782776078E+02 -0.72791555184E+02 -0.23481303345E+02  0.89658297165E+02  0.00000000000E+00 0.  1.
         12    1    4    4    0    0 -0.67858296525E+02  0.21603213120E+01 -0.42998331938E+02  0.80363374400E+02  0.00000000000E+00 0. -1.
        -13    1    3    3    0    0  0.42682210665E+02  0.28838131954E+02 -0.20046836048E+02  0.55274628876E+02  0.00000000000E+00 0.  1.
         13    1    3    3    0    0 -0.38269772987E+02 -0.12069764420E+02 -0.12434083562E+02  0.42010250793E+02  0.00000000000E+00 0. -1.
         21    1    1    2  503  502 -0.28103143341E+02  0.59306835919E+02  0.30253830617E+02  0.72266048178E+02  0.00000000000E+00 0.  1.
         -2    1    1    2    0  503  0.13833177827E+03 -0.54439695803E+01 -0.77778465374E+03  0.79000904126E+03  0.00000000000E+00 0.  1.
<scales pt_clust_5="13000.00000" pt_clust_6="13000.00000" pt_clust_7="13000.00000" pt_clust_8="13000.00000" pt_clust_9="65.62840" pt_clust_10="135.17822"></scales>
<clustering>
<clus scale="   65.628">  1  9  2 -1</clus>
<clus scale="   79.728">  5  6 -1 -1</clus>
<clus scale="   90.048">  7  8 -1 -1</clus>
<clus scale="   97.923">  2  7  1 -1</clus>
<clus scale="  135.178">  1 10  2 -1</clus>
<clus scale="   65.628">  1  5  2 -1</clus>
</clustering>
</event>
<event>
10    4  0.3043429E-005  0.1498772E+03  0.7546771E-02  0.1202767E+00
          2   -1    0    0  503    0 -0.00000000000E+00  0.00000000000E+00  0.15457442486E+03  0.15457442486E+03  0.00000000000E+00 0. -1.
         21   -1    0    0  501  502  0.00000000000E+00 -0.00000000000E+00 -0.35085395758E+03  0.35085395758E+03  0.00000000000E+00 0. -1.
         23    2    1    2    0    0 -0.12387858066E+03 -0.81563072189E+02 -0.40212270977E+02  0.17921173100E+03  0.92202930006E+02 0.  0.
         24    2    1    2    0    0  0.16355793657E+02  0.11099528532E+03 -0.56130587000E+02  0.14915963816E+03  0.80687604435E+02 0.  0.
        -13    1    4    4    0    0 -0.11988158141E+02  0.91209516180E+02 -0.11502425122E+02  0.92710288324E+02  0.00000000000E+00 0.  1.
         14    1    4    4    0    0  0.28343951799E+02  0.19785769135E+02 -0.44628161878E+02  0.56449349832E+02  0.00000000000E+00 0. -1.
        -11    1    3    3    0    0 -0.80873495837E+02 -0.54554676099E+02 -0.70245226213E+02  0.12021283966E+03  0.00000000000E+00 0.  1.
         11    1    3    3    0    0 -0.43005084819E+02 -0.27008396090E+02  0.30032955236E+02  0.58998891344E+02  0.00000000000E+00 0. -1.
         21    1    1    2  503  502 -0.32488346615E+01  0.22306909879E+02 -0.73984507067E+01  0.23725307751E+02  0.00000000000E+00 0. -1.
          1    1    1    2  501    0  0.11077162166E+03 -0.51739123005E+02 -0.92538224039E+02  0.15333170554E+03  0.00000000000E+00 0. -1.
<scales pt_clust_5="13000.00000" pt_clust_6="13000.00000" pt_clust_7="13000.00000" pt_clust_8="13000.00000" pt_clust_9="22.54225" pt_clust_10="119.75197"></scales>
<clustering>
<clus scale="   22.542">  1  9  2 -1</clus>
<clus scale="   80.688">  5  6 -1 -1</clus>
<clus scale="   92.203">  7  8 -1 -1</clus>
<clus scale="  119.752">  2 10  1 -1</clus>
<clus scale="  143.081">  2  5  1 -1</clus>
<clus scale="  119.752">  2  5  1 -1</clus>
</clustering>
</event>
<event>
10    4  0.3043429E-005  0.1227854E+03  0.7546771E-02  0.1242266E+00
          2   -1    0    0  503    0 -0.00000000000E+00  0.00000000000E+00  0.32624929532E+03  0.32624929532E+03  0.00000000000E+00 0. -1.
         21   -1    0    0  501  502  0.00000000000E+00 -0.00000000000E+00 -0.12968818501E+03  0.12968818501E+03  0.00000000000E+00 0. -1.
         24    2    1    2    0    0  0.28831384348E+02  0.68423129742E+02  0.19247533194E+03  0.22101264292E+03  0.79289731485E+02 0.  0.
         23    2    1    2    0    0 -0.48606952850E+02 -0.11673510300E+03 -0.12327992485E+02  0.15661385466E+03  0.91576197417E+02 0.  0.
        -13    1    3    3    0    0 -0.20500070600E+02  0.52511071410E+02  0.90517993074E+02  0.10663570033E+03  0.00000000000E+00 0.  1.
         14    1    3    3    0    0  0.49331454947E+02  0.15912058333E+02  0.10195733887E+03  0.11437694259E+03  0.00000000000E+00 0. -1.
        -13    1    4    4    0    0 -0.17674727283E+02 -0.50540796151E+02 -0.51001215881E+02  0.73945196473E+02  0.00000000000E+00 0.  1.
         13    1    4    4    0    0 -0.30932225568E+02 -0.66194306850E+02  0.38673223396E+02  0.82668658182E+02  0.00000000000E+00 0. -1.
         21    1    1    2  503  502 -0.11932806626E+02  0.32806375712E+02 -0.74618150916E+01  0.35697742867E+02  0.00000000000E+00 0. -1.
          1    1    1    2  501    0  0.31708375129E+02  0.15505597546E+02  0.23875585946E+02  0.42613239877E+02  0.00000000000E+00 0. -1.
<scales pt_clust_5="13000.00000" pt_clust_6="13000.00000" pt_clust_7="13000.00000" pt_clust_8="13000.00000" pt_clust_9="34.90917" pt_clust_10="35.74331"></scales>
<clustering>
<clus scale="   34.909">  2  9  1 -1</clus>
<clus scale="   35.743">  2 10  1 -1</clus>
<clus scale="   79.290">  5  6 -1 -1</clus>
<clus scale="   91.576">  7  8 -1 -1</clus>
<clus scale="  113.916">  1  5  2 -1</clus>
<clus scale="   34.909">  2  5  1 -1</clus>
</clustering>
</event>
<event>
10    4  0.3043429E-005  0.3227507E+03  0.7546771E-02  0.1074566E+00
         21   -1    0    0  503  502  0.00000000000E+00  0.00000000000E+00  0.91697961409E+03  0.91697961409E+03  0.00000000000E+00 0.  1.
          2   -1    0    0  502    0 -0.00000000000E+00 -0.00000000000E+00 -0.36290275477E+03  0.36290275477E+03  0.00000000000E+00 0. -1.
         24    2    1    2    0    0 -0.10123572719E+03  0.32644777775E+03 -0.19658135499E+03  0.40240718576E+03  0.80439355782E+02 0.  0.
         23    2    1    2    0    0  0.87709852860E+02 -0.14988012447E+03  0.45231356711E+03  0.49214777472E+03  0.86399069302E+02 0.  0.
        -13    1    3    3    0    0  0.24597230150E+01  0.31871061755E+02 -0.45186591770E+02  0.55350184196E+02  0.00000000000E+00 0.  1.
         14    1    3    3    0    0 -0.10369545021E+03  0.29457671600E+03 -0.15139476322E+03  0.34705700156E+03  0.00000000000E+00 0. -1.
        -13    1    4    4    0    0  0.57884514967E+02 -0.12355354224E+03  0.41768535150E+03  0.43940544800E+03  0.00000000000E+00 0.  1.
         13    1    4    4    0    0  0.29825337893E+02 -0.26326582227E+02  0.34628215609E+02  0.52742326726E+02  0.00000000000E+00 0. -1.
         21    1    1    2  503  501  0.38886743044E+02 -0.33632500517E+02  0.20818677302E+03  0.21444126547E+03  0.00000000000E+00 0.  1.
          1    1    1    2  501    0 -0.25360868712E+02 -0.14293515277E+03  0.90157874186E+02  0.17088614291E+03  0.00000000000E+00 0. -1.
<scales pt_clust_5="13000.00000" pt_clust_6="13000.00000" pt_clust_7="13000.00000" pt_clust_8="13000.00000" pt_clust_9="51.41327" pt_clust_10="150.25836"></scales>
<clustering>
<clus scale="   51.413">  1  9  2 -1</clus>
<clus scale="   80.439">  5  6 -1 -1</clus>
<clus scale="   86.399">  7  8 -1 -1</clus>
<clus scale="  150.258">  1 10  2 -1</clus>
<clus scale="  321.207">  2  5  1 -1</clus>
<clus scale="   51.413">  1  5  2 -1</clus>
</clustering>
</event>
<event>
10    4  0.3043429E-005  0.2388613E+03  0.7546771E-02  0.1120970E+00
         21   -1    0    0  501  502  0.00000000000E+00  0.00000000000E+00  0.14773670023E+03  0.14773670023E+03  0.00000000000E+00 0. -1.
          2   -1    0    0  503    0 -0.00000000000E+00 -0.00000000000E+00 -0.86984794302E+03  0.86984794302E+03  0.00000000000E+00 0. -1.
         24    2    1    2    0    0 -0.13566959163E+02 -0.16912917045E+03 -0.17898376937E+03  0.26019565266E+03  0.82932799847E+02 0.  0.
         23    2    1    2    0    0 -0.24890032064E+02  0.28101839841E+03 -0.42529281993E+03  0.51818718222E+03  0.89739173114E+02 0.  0.
        -11    1    3    3    0    0  0.25325216929E+02 -0.11830437548E+03 -0.14093300186E+03  0.18574014882E+03  0.00000000000E+00 0.  1.
         12    1    3    3    0    0 -0.38892176092E+02 -0.50824794971E+02 -0.38050767507E+02  0.74455503845E+02  0.00000000000E+00 0. -1.
        -13    1    4    4    0    0 -0.63822595677E+01  0.26885956906E+03 -0.41304407420E+03  0.49288092714E+03  0.00000000000E+00 0. -1.
         13    1    4    4    0    0 -0.18507772496E+02  0.12158829347E+02 -0.12248745732E+02  0.25306255074E+02  0.00000000000E+00 0.  1.
         21    1    1    2  503  502  0.77893770898E+01  0.46174446846E+02 -0.32248714104E+02  0.56857132344E+02  0.00000000000E+00 0. -1.
          1    1    1    2  501    0  0.30667614136E+02 -0.15806367481E+03 -0.85585939394E+02  0.18234467602E+03  0.00000000000E+00 0. -1.
<scales pt_clust_5="13000.00000" pt_clust_6="13000.00000" pt_clust_7="13000.00000" pt_clust_8="13000.00000" pt_clust_9="46.82685" pt_clust_10="145.46733"></scales>
<clustering>
<clus scale="   46.827">  1  9  2 -1</clus>
<clus scale="   82.933">  5  6 -1 -1</clus>
<clus scale="   89.739">  7  8 -1 -1</clus>
<clus scale="  145.467">  1 10  2 -1</clus>
<clus scale="  236.388">  2  5  1 -1</clus>
<clus scale="   46.827">  1  5  2 -1</clus>
</clustering>
</event>
<event>
10    4  0.3043429E-005  0.3889067E+03  0.7546771E-02  0.1097067E+00
         21   -1    0    0  501  502  0.00000000000E+00  0.00000000000E+00  0.40113406021E+03  0.40113406021E+03  0.00000000000E+00 0. -1.
          2   -1    0    0  503    0 -0.00000000000E+00 -0.00000000000E+00 -0.17051235727E+04  0.17051235727E+04  0.00000000000E+00 0. -1.
         24    2    1    2    0    0  0.32219455421E+02  0.53499080711E+02 -0.16516218742E+03  0.19417525350E+03  0.80778932720E+02 0.  0.
         23    2    1    2    0    0 -0.12808616942E+03 -0.39876484541E+03 -0.12012992250E+04  0.12754500196E+04  0.90738391127E+02 0.  0.
        -11    1    3    3    0    0  0.47025521026E+02  0.33882935484E+02 -0.50393647877E+02  0.76804769977E+02  0.00000000000E+00 0.  1.
         12    1    3    3    0    0 -0.14806065604E+02  0.19616145227E+02 -0.11476853955E+03  0.11737048352E+03  0.00000000000E+00 0. -1.
        -13    1    4    4    0    0 -0.69896792982E+02 -0.15384276780E+03 -0.36769677322E+03  0.40466538759E+03  0.00000000000E+00 0.  1.
         13    1    4    4    0    0 -0.58189376435E+02 -0.24492207761E+03 -0.83360245181E+03  0.87078463198E+03  0.00000000000E+00 0. -1.
         21    1    1    2  503  502  0.18889138380E+02 -0.45764415710E+02  0.20689474000E+03  0.21273602124E+03  0.00000000000E+00 0. -1.
          1    1    1    2  501    0  0.76977575615E+02  0.39103018041E+03 -0.14442283998E+03  0.42389633856E+03  0.00000000000E+00 0. -1.
<scales pt_clust_5="13000.00000" pt_clust_6="13000.00000" pt_clust_7="13000.00000" pt_clust_8="13000.00000" pt_clust_9="49.50941" pt_clust_10="378.17316"></scales>
<clustering>
<clus scale="   49.509">  1  9  2 -1</clus>
<clus scale="   80.779">  5  6 -1 -1</clus>
<clus scale="   90.738">  7  8 -1 -1</clus>
<clus scale="  100.800">  2  5  1 -1</clus>
<clus scale="  378.173">  1 10  2 -1</clus>
<clus scale="   49.509">  1  5  2 -1</clus>
</clustering>
</event>
<event>
10    4  0.3043429E-005  0.1366860E+03  0.7546771E-02  0.1218517E+00
         -1   -1    0    0    0  501 -0.00000000000E+00  0.00000000000E+00  0.49039200345E+03  0.49039200345E+03  0.00000000000E+00 0.  1.
         21   -1    0    0  501  502  0.00000000000E+00 -0.00000000000E+00 -0.25552629176E+03  0.25552629176E+03  0.00000000000E+00 0.  1.
         24    2    1    2    0    0 -0.99400912929E+02  0.45099560058E+02  0.42550720002E+03  0.44662044056E+03  0.80615934178E+02 0.  0.
         23    2    1    2    0    0  0.10984570502E+03  0.29895350824E+02 -0.15297161310E+03  0.20825482354E+03  0.83725421477E+02 0.  0.
        -11    1    3    3    0    0 -0.10938980642E+03  0.52225268078E+02  0.35686527260E+03  0.37689047635E+03  0.00000000000E+00 0.  1.
         12    1    3    3    0    0  0.99888934943E+01 -0.71257080201E+01  0.68641927424E+02  0.69729964208E+02  0.00000000000E+00 0. -1.
        -13    1    4    4    0    0  0.10707139061E+03  0.15037268979E+01 -0.14163366956E+03  0.17755742800E+03  0.00000000000E+00 0.  1.
         13    1    4    4    0    0  0.27743144041E+01  0.28391623926E+02 -0.11337943539E+02  0.30697395545E+02  0.00000000000E+00 0. -1.
         21    1    1    2  503  502 -0.18902507960E+02 -0.45803082646E+02 -0.34728546772E+02  0.60508670023E+02  0.00000000000E+00 0.  1.
         -2    1    1    2    0  503  0.84577158712E+01 -0.29191828236E+02 -0.29413284561E+01  0.30534361080E+02  0.00000000000E+00 0.  1.
<scales pt_clust_5="13000.00000" pt_clust_6="13000.00000" pt_clust_7="13000.00000" pt_clust_8="13000.00000" pt_clust_9="26.40225" pt_clust_10="82.88434"></scales>
<clustering>
<clus scale="   26.402">  9 10 -1 -1</clus>
<clus scale="   80.616">  5  6 -1 -1</clus>
<clus scale="   82.884">  2  9  1 -1</clus>
<clus scale="   83.725">  7  8 -1 -1</clus>
<clus scale="  134.804">  1  5  2 -1</clus>
<clus scale="   82.884">  2  5  1 -1</clus>
</clustering>
</event>
<event>
10    4  0.3043429E-005  0.3101802E+03  0.7546771E-02  0.1112910E+00
          2   -1    0    0  503    0 -0.00000000000E+00  0.00000000000E+00  0.18322048803E+04  0.18322048803E+04  0.00000000000E+00 0. -1.
         21   -1    0    0  501  502  0.00000000000E+00 -0.00000000000E+00 -0.46673668972E+03  0.46673668972E+03  0.00000000000E+00 0.  1.
         24    2    1    2    0    0 -0.64555874558E+02 -0.77304288082E+02  0.86614759934E+03  0.87571663103E+03  0.80774625531E+02 0.  0.
         23    2    1    2    0    0  0.32762249908E+03 -0.21313768802E+02  0.56345698459E+03  0.65839181211E+03  0.90582703194E+02 0.  0.
        -13    1    3    3    0    0 -0.46497615083E+02 -0.20519604384E+01  0.21460136525E+03  0.21959049323E+03  0.00000000000E+00 0.  1.
         14    1    3    3    0    0 -0.18058259475E+02 -0.75252327644E+02  0.65154623409E+03  0.65612613780E+03  0.00000000000E+00 0. -1.
        -11    1    4    4    0    0  0.57885973717E+02 -0.11488682201E+02  0.18027282146E+03  0.18968675739E+03  0.00000000000E+00 0.  1.
         11    1    4    4    0    0  0.26973652536E+03 -0.98250866012E+01  0.38318416314E+03  0.46870505472E+03  0.00000000000E+00 0. -1.
         21    1    1    2  503  502 -0.29779900004E+02 -0.10704284718E+03 -0.33467195683E+03  0.35263342477E+03  0.00000000000E+00 0.  1.
          1    1    1    2  501    0 -0.23328672451E+03  0.20566090406E+03  0.27053556343E+03  0.41219970206E+03  0.00000000000E+00 0. -1.
<scales pt_clust_5="13000.00000" pt_clust_6="13000.00000" pt_clust_7="13000.00000" pt_clust_8="13000.00000" pt_clust_9="111.10812" pt_clust_10="296.65897"></scales>
<clustering>
<clus scale="   80.775">  5  6 -1 -1</clus>
<clus scale="   90.583">  7  8 -1 -1</clus>
<clus scale="  111.108">  2  9  1 -1</clus>
<clus scale="  132.210">  1  5  2 -1</clus>
<clus scale="  296.659">  2 10  1 -1</clus>
<clus scale="  111.108">  2  5  1 -1</clus>
</clustering>
</event>
<event>
10    4  0.3043429E-005  0.2022119E+03  0.7546771E-02  0.1148785E+00
          2   -1    0    0  502    0 -0.00000000000E+00  0.00000000000E+00  0.10388150146E+04  0.10388150146E+04  0.00000000000E+00 0. -1.
         21   -1    0    0  503  502  0.00000000000E+00 -0.00000000000E+00 -0.13286937553E+03  0.13286937553E+03  0.00000000000E+00 0. -1.
         24    2    1    2    0    0 -0.46701820258E+02  0.17872011900E+03  0.58215224476E+03  0.61585103010E+03  0.79052604314E+02 0.  0.
         23    2    1    2    0    0 -0.70927872155E+02 -0.18663188711E+03  0.28514205491E+03  0.35934437859E+03  0.89219765804E+02 0.  0.
        -13    1    3    3    0    0  0.24987081730E+01  0.91800322757E+02  0.18785698381E+03  0.20910234137E+03  0.00000000000E+00 0.  1.
         14    1    3    3    0    0 -0.49200528431E+02  0.86919796238E+02  0.39429526095E+03  0.40674868873E+03  0.00000000000E+00 0. -1.
        -11    1    4    4    0    0 -0.88842792084E+02 -0.16646715132E+03  0.22652096612E+03  0.29481536979E+03  0.00000000000E+00 0. -1.
         11    1    4    4    0    0  0.17914919928E+02 -0.20164735799E+02  0.58621088794E+02  0.64529008804E+02  0.00000000000E+00 0.  1.
         21    1    1    2  503  501 -0.14128487943E+02  0.36153850880E+02 -0.26314095633E+02  0.46895060870E+02  0.00000000000E+00 0. -1.
          1    1    1    2  501    0  0.13175818036E+03 -0.28242082761E+02  0.64965435065E+02  0.14959392061E+03  0.00000000000E+00 0. -1.
<scales pt_clust_5="13000.00000" pt_clust_6="13000.00000" pt_clust_7="13000.00000" pt_clust_8="13000.00000" pt_clust_9="38.81643" pt_clust_10="126.15384"></scales>
<clustering>
<clus scale="   38.816">  2  9  1 -1</clus>
<clus scale="   79.053">  5  6 -1 -1</clus>
<clus scale="   89.220">  7  8 -1 -1</clus>
<clus scale="  126.154">  2 10  1 -1</clus>
<clus scale="  197.936">  1  5  2 -1</clus>
<clus scale="   38.816">  2  5  1 -1</clus>
</clustering>
</event>
<event>
10    4  0.3043429E-005  0.9964429E+02  0.7546771E-02  0.1284036E+00
         -1   -1    0    0    0  501 -0.00000000000E+00  0.00000000000E+00  0.13312177244E+03  0.13312177244E+03  0.00000000000E+00 0.  1.
         21   -1    0    0  503  502  0.00000000000E+00 -0.00000000000E+00 -0.92333263047E+03  0.92333263047E+03  0.00000000000E+00 0. -1.
         23    2    1    2    0    0 -0.35305863722E+02  0.16197703872E+01  0.44719344922E+02  0.10770325394E+03  0.91384043631E+02 0.  0.
         24    2    1    2    0    0  0.34979072884E+02  0.68839650609E+02 -0.37729859995E+02  0.12113242070E+03  0.85364442086E+02 0.  0.
        -11    1    4    4    0    0  0.13903896548E+02  0.78097675069E+02 -0.28942739582E+01  0.79378473229E+02  0.00000000000E+00 0.  1.
         12    1    4    4    0    0  0.21075176336E+02 -0.92580244607E+01 -0.34835586037E+02  0.41753947467E+02  0.00000000000E+00 0. -1.
        -11    1    3    3    0    0 -0.93992058145E+01  0.42530749074E+02  0.27851286182E+01  0.43645923386E+02  0.00000000000E+00 0.  1.
         11    1    3    3    0    0 -0.25906657907E+02 -0.40910978687E+02  0.41934216304E+02  0.64057330557E+02  0.00000000000E+00 0. -1.
         21    1    1    2  503  501 -0.26364886133E+02 -0.12009840920E+03 -0.72828508518E+03  0.73859183614E+03  0.00000000000E+00 0. -1.
         -2    1    1    2    0  502  0.26691676971E+02  0.49638988200E+02 -0.68915257773E+02  0.89026892134E+02  0.00000000000E+00 0.  1.
<scales pt_clust_5="13000.00000" pt_clust_6="13000.00000" pt_clust_7="13000.00000" pt_clust_8="13000.00000" pt_clust_9="77.04609" pt_clust_10="56.36022"></scales>
<clustering>
<clus scale="   56.360">  2 10  1 -1</clus>
<clus scale="   77.046">  2  9  1 -1</clus>
<clus scale="   85.364">  5  6 -1 -1</clus>
<clus scale="   91.384">  7  8 -1 -1</clus>
<clus scale="   94.154">  2  5  1 -1</clus>
<clus scale="   56.360">  2  5  1 -1</clus>
</clustering>
</event>
<event>
10    4  0.3043429E-005  0.2638314E+03  0.7546771E-02  0.1105456E+00
         21   -1    0    0  503  502  0.00000000000E+00  0.00000000000E+00  0.39826698463E+03  0.39826698463E+03  0.00000000000E+00 0. -1.
          2   -1    0    0  502    0 -0.00000000000E+00 -0.00000000000E+00 -0.40972480775E+03  0.40972480775E+03  0.00000000000E+00 0. -1.
         23    2    1    2    0    0  0.80822074105E+01 -0.22539051162E+03 -0.10616643009E+03  0.26586794585E+03  0.92456740958E+02 0.  0.
         24    2    1    2    0    0  0.10968218257E+03  0.28185507065E+03 -0.11374461786E+02  0.31314524230E+03  0.80362319311E+02 0.  0.
        -13    1    4    4    0    0  0.30624731200E+01  0.43814610360E+02  0.23802004827E+02  0.49956323488E+02  0.00000000000E+00 0.  1.
         14    1    4    4    0    0  0.10661970945E+03  0.23804046029E+03 -0.35176466613E+02  0.26318891881E+03  0.00000000000E+00 0. -1.
        -13    1    3    3    0    0  0.37148895982E+02 -0.37937063409E+02 -0.33217108086E+02  0.62630962969E+02  0.00000000000E+00 0. -1.
         13    1    3    3    0    0 -0.29066688572E+02 -0.18745344821E+03 -0.72949322001E+02  0.20323698288E+03  0.00000000000E+00 0.  1.
         21    1    1    2  503  501 -0.36205079393E+02  0.28075645331E+01  0.12165665647E+03  0.12696075085E+03  0.00000000000E+00 0. -1.
          1    1    1    2  501    0 -0.81559310587E+02 -0.59272123566E+02 -0.15573587716E+02  0.10201785339E+03  0.00000000000E+00 0. -1.
<scales pt_clust_5="13000.00000" pt_clust_6="13000.00000" pt_clust_7="13000.00000" pt_clust_8="13000.00000" pt_clust_9="36.31377" pt_clust_10="105.24814"></scales>
<clustering>
<clus scale="   36.314">  1  9  2 -1</clus>
<clus scale="   80.362">  5  6 -1 -1</clus>
<clus scale="   92.457">  7  8 -1 -1</clus>
<clus scale="  105.248">  1 10  2 -1</clus>
<clus scale="  259.840">  1  5  2 -1</clus>
<clus scale="   36.314">  1  5  2 -1</clus>
</clustering>
</event>
<event>
10    4  0.3043429E-005  0.1158280E+03  0.7546771E-02  0.1253933E+00
         21   -1    0    0  501  502  0.00000000000E+00  0.00000000000E+00  0.11452138347E+03  0.11452138347E+03  0.00000000000E+00 0. -1.
          2   -1    0    0  503    0 -0.00000000000E+00 -0.00000000000E+00 -0.36760932628E+03  0.36760932628E+03  0.00000000000E+00 0. -1.
         23    2    1    2    0    0 -0.58255149042E+02  0.90376932986E+02 -0.16481631710E+03  0.21687397517E+03  0.91149604033E+02 0.  0.
         24    2    1    2    0    0 -0.20473470974E+02 -0.29283863452E+02 -0.89903440980E+01  0.88238239272E+02  0.80177633480E+02 0.  0.
        -11    1    4    4    0    0  0.18168499027E+02 -0.21574046627E+02  0.23855046830E+02  0.36940453490E+02  0.00000000000E+00 0.  1.
         12    1    4    4    0    0 -0.38641970001E+02 -0.77098168251E+01 -0.32845390928E+02  0.51297785783E+02  0.00000000000E+00 0. -1.
        -11    1    3    3    0    0 -0.63361135651E+02  0.15885522363E+02 -0.64296821482E+02  0.91657321500E+02  0.00000000000E+00 0.  1.
         11    1    3    3    0    0  0.51059866089E+01  0.74491410623E+02 -0.10051949562E+03  0.12521665367E+03  0.00000000000E+00 0. -1.
         21    1    1    2  503  502 -0.14937314808E+02 -0.40052563040E+02  0.12154888246E+02  0.44441787633E+02  0.00000000000E+00 0.  1.
          1    1    1    2  501    0  0.93665934825E+02 -0.21040506494E+02 -0.91436169852E+02  0.13257670767E+03  0.00000000000E+00 0. -1.
<scales pt_clust_5="13000.00000" pt_clust_6="13000.00000" pt_clust_7="13000.00000" pt_clust_8="13000.00000" pt_clust_9="42.74729" pt_clust_10="95.15538"></scales>
<clustering>
<clus scale="   42.747">  1  9  2 -1</clus>
<clus scale="   80.178">  5  6 -1 -1</clus>
<clus scale="   91.150">  7  8 -1 -1</clus>
<clus scale="   95.155">  1 10  2 -1</clus>
<clus scale="  107.407">  1  5  2 -1</clus>
<clus scale="   42.747">  1  5  2 -1</clus>
</clustering>
</event>
<event>
10    4  0.3043429E-005  0.1373094E+03  0.7546771E-02  0.1219709E+00
          2   -1    0    0  503    0 -0.00000000000E+00  0.00000000000E+00  0.12435496834E+03  0.12435496834E+03  0.00000000000E+00 0. -1.
         21   -1    0    0  501  502  0.00000000000E+00 -0.00000000000E+00 -0.47101468080E+03  0.47101468080E+03  0.00000000000E+00 0.  1.
         23    2    1    2    0    0  0.50128964606E+02  0.78872291994E+02  0.15264833092E+02  0.13192561330E+03  0.91856413920E+02 0.  0.
         24    2    1    2    0    0 -0.25323885238E+02 -0.13916009629E+03 -0.18592705688E+03  0.24693645342E+03  0.80011936495E+02 0.  0.
        -13    1    4    4    0    0 -0.48963900230E+02 -0.62860168106E+02 -0.11626960851E+03  0.14095207030E+03  0.00000000000E+00 0.  1.
         14    1    4    4    0    0  0.23640014991E+02 -0.76299928187E+02 -0.69657448371E+02  0.10598438311E+03  0.00000000000E+00 0. -1.
        -13    1    3    3    0    0  0.65368112858E+01  0.79938106904E+02 -0.11100319062E+02  0.80969425838E+02  0.00000000000E+00 0.  1.
         13    1    3    3    0    0  0.43592153320E+02 -0.10658149103E+01  0.26365152154E+02  0.50956187461E+02  0.00000000000E+00 0. -1.
         21    1    1    2  503  502  0.52444653471E-01  0.35309074442E+02 -0.17775127981E+03  0.18122431118E+03  0.00000000000E+00 0.  1.
          1    1    1    2  501    0 -0.24857524021E+02  0.24978729858E+02  0.17537911391E+01  0.35283271236E+02  0.00000000000E+00 0. -1.
<scales pt_clust_5="13000.00000" pt_clust_6="13000.00000" pt_clust_7="13000.00000" pt_clust_8="13000.00000" pt_clust_9="46.22314" pt_clust_10="35.23967"></scales>
<clustering>
<clus scale="   35.240">  2 10  1 -1</clus>
<clus scale="   46.223">  2  9  1 -1</clus>
<clus scale="   80.012">  5  6 -1 -1</clus>
<clus scale="   91.856">  7  8 -1 -1</clus>
<clus scale="  129.685">  2  5  1 -1</clus>
<clus scale="   35.240">  2  5  1 -1</clus>
</clustering>
</event>
<event>
10    4  0.3043429E-005  0.1123719E+03  0.7546771E-02  0.1259063E+00
         -1   -1    0    0    0  501 -0.00000000000E+00  0.00000000000E+00  0.68822609810E+03  0.68822609810E+03  0.00000000000E+00 0.  1.
         21   -1    0    0  501  502  0.00000000000E+00 -0.00000000000E+00 -0.44122098831E+02  0.44122098831E+02  0.00000000000E+00 0. -1.
         23    2    1    2    0    0 -0.19826399253E+02  0.31471299538E+02  0.17027451641E+03  0.19604507634E+03  0.89759301577E+02 0.  0.
         24    2    1    2    0    0  0.10603896934E+03 -0.46829691454E+02  0.26464824566E+03  0.30033558932E+03  0.82009080337E+02 0.  0.
        -13    1    4    4    0    0  0.88221545163E+02 -0.85843660637E+01  0.22736163264E+03  0.24402877775E+03  0.00000000000E+00 0.  1.
         14    1    4    4    0    0  0.17817424178E+02 -0.38245325390E+02  0.37286613022E+02  0.56306811570E+02  0.00000000000E+00 0. -1.
        -13    1    3    3    0    0 -0.92260608144E+01 -0.28234147101E+02  0.94127882382E+02  0.98703320625E+02  0.00000000000E+00 0.  1.
         13    1    3    3    0    0 -0.10600338439E+02  0.59705446639E+02  0.76146634024E+02  0.97341755720E+02  0.00000000000E+00 0. -1.
         21    1    1    2  503  502 -0.29857580769E+02  0.27457498547E+01  0.15286336797E+02  0.33655406168E+02  0.00000000000E+00 0. -1.
         -2    1    1    2    0  503 -0.56354989319E+02  0.12612642061E+02  0.19389490041E+03  0.20231212511E+03  0.00000000000E+00 0.  1.
<scales pt_clust_5="13000.00000" pt_clust_6="13000.00000" pt_clust_7="13000.00000" pt_clust_8="13000.00000" pt_clust_9="29.98357" pt_clust_10="61.33300"></scales>
<clustering>
<clus scale="   29.984">  2  9  1 -1</clus>
<clus scale="   61.333">  2 10  1 -1</clus>
<clus scale="   82.009">  5  6 -1 -1</clus>
<clus scale="   89.759">  7  8 -1 -1</clus>
<clus scale="  106.284">  2  5  1 -1</clus>
<clus scale="   29.984">  2  5  1 -1</clus>
</clustering>
</event>
<event>
10    4  0.3043429E-005  0.1375425E+03  0.7546771E-02  0.1219731E+00
          2   -1    0    0  503    0 -0.00000000000E+00  0.00000000000E+00  0.65008120041E+03  0.65008120041E+03  0.00000000000E+00 0. -1.
         21   -1    0    0  501  502  0.00000000000E+00 -0.00000000000E+00 -0.96727043899E+02  0.96727043899E+02  0.00000000000E+00 0. -1.
         24    2    1    2    0    0 -0.54413927381E+01  0.10849177742E+03  0.44022555525E+03  0.46082111964E+03  0.82203955439E+02 0.  0.
         23    2    1    2    0    0  0.48934179323E+02 -0.43746189061E+02  0.81121716333E+00  0.11555019244E+03  0.95094195075E+02 0.  0.
        -11    1    3    3    0    0  0.34700162129E+02  0.62765375081E+02  0.18431872404E+03  0.19778014458E+03  0.00000000000E+00 0.  1.
         12    1    3    3    0    0 -0.40141554867E+02  0.45726402336E+02  0.25590683121E+03  0.26304097506E+03  0.00000000000E+00 0. -1.
        -11    1    4    4    0    0  0.51012966017E+02  0.62437625492E+01  0.28084330138E+02  0.58566516645E+02  0.00000000000E+00 0.  1.
         11    1    4    4    0    0 -0.20787866942E+01 -0.49989951610E+02 -0.27273112975E+02  0.56983675798E+02  0.00000000000E+00 0. -1.
         21    1    1    2  503  502  0.26573075217E+02 -0.18534562668E+02  0.28895206720E+01  0.32527029828E+02  0.00000000000E+00 0.  1.
          1    1    1    2  501    0 -0.70065861801E+02 -0.46211025689E+02  0.10942786342E+03  0.13790990239E+03  0.00000000000E+00 0. -1.
<scales pt_clust_5="13000.00000" pt_clust_6="13000.00000" pt_clust_7="13000.00000" pt_clust_8="13000.00000" pt_clust_9="32.39843" pt_clust_10="82.01722"></scales>
<clustering>
<clus scale="   32.398">  2  9  1 -1</clus>
<clus scale="   82.017">  2 10  1 -1</clus>
<clus scale="   82.204">  5  6 -1 -1</clus>
<clus scale="   95.094">  7  8 -1 -1</clus>
<clus scale="  128.967">  1  5  2 -1</clus>
<clus scale="   32.398">  2  5  1 -1</clus>
</clustering>
</event>
<event>
10    4  0.4232817E-005  0.1296399E+03  0.7546771E-02  0.1229326E+00
         21   -1    0    0  503  502  0.00000000000E+00  0.00000000000E+00  0.26334826716E+03  0.26334826716E+03  0.00000000000E+00 0. -1.
          2   -1    0    0  502    0 -0.00000000000E+00 -0.00000000000E+00 -0.10608286893E+04  0.10608286893E+04  0.00000000000E+00 0. -1.
         24    2    1    2    0    0  0.70138379847E+02 -0.52314057074E+02 -0.27980656565E+03  0.30408911098E+03  0.80760883740E+02 0.  0.
         23    2    1    2    0    0 -0.99724579574E+02  0.96085965819E+02 -0.16344309530E+03  0.22695782748E+03  0.74958024622E+02 0.  0.
        -13    1    3    3    0    0  0.79465794952E+02 -0.51399816729E+02 -0.17575283155E+03  0.19961415662E+03  0.00000000000E+00 0.  1.
         14    1    3    3    0    0 -0.93274151051E+01 -0.91424034432E+00 -0.10405373410E+03  0.10447495436E+03  0.00000000000E+00 0. -1.
        -11    1    4    4    0    0 -0.16472230519E+02  0.39345941499E+02 -0.97836275788E+02  0.10673038157E+03  0.00000000000E+00 0.  1.
         11    1    4    4    0    0 -0.83252349055E+02  0.56740024320E+02 -0.65606819510E+02  0.12022744591E+03  0.00000000000E+00 0. -1.
         21    1    1    2  503  501 -0.42127457729E+02 -0.73349160308E+01  0.21450918966E+03  0.21872977880E+03  0.00000000000E+00 0. -1.
          1    1    1    2  501    0  0.71713657456E+02 -0.36436992714E+02 -0.56873995086E+03  0.57440023921E+03  0.00000000000E+00 0. -1.
<scales pt_clust_5="13000.00000" pt_clust_6="13000.00000" pt_clust_7="13000.00000" pt_clust_8="13000.00000" pt_clust_9="42.76124" pt_clust_10="78.38138"></scales>
<clustering>
<clus scale="   42.761">  1  9  2 -1</clus>
<clus scale="   74.958">  7  8 -1 -1</clus>
<clus scale="   78.381">  1 10  2 -1</clus>
<clus scale="   80.761">  5  6 -1 -1</clus>
<clus scale="  126.107">  1  7  2 -1</clus>
<clus scale="   42.761">  1  5  2 -1</clus>
</clustering>
</event>
<event>
10    4  0.3043429E-005  0.1571158E+03  0.7546771E-02  0.1208119E+00
          2   -1    0    0  502    0 -0.00000000000E+00  0.00000000000E+00  0.12497399336E+03  0.12497399336E+03  0.00000000000E+00 0. -1.
         21   -1    0    0  503  502  0.00000000000E+00 -0.00000000000E+00 -0.51747071852E+03  0.51747071852E+03  0.00000000000E+00 0. -1.
         24    2    1    2    0    0  0.22406346451E+02  0.89916628912E+02 -0.15153459138E+03  0.19317368547E+03  0.75936130121E+02 0.  0.
         23    2    1    2    0    0  0.11489597312E+03  0.86421794668E+01 -0.14637088610E+03  0.20802390035E+03  0.92594464810E+02 0.  0.
        -13    1    3    3    0    0  0.20157063101E+02  0.34023125966E+02 -0.12529276301E+03  0.13138552720E+03  0.00000000000E+00 0.  1.
         14    1    3    3    0    0  0.22492833501E+01  0.55893502947E+02 -0.26241828372E+02  0.61788158279E+02  0.00000000000E+00 0. -1.
        -13    1    4    4    0    0  0.88327262918E+02  0.15743293622E+02 -0.15509162787E+03  0.17917301612E+03  0.00000000000E+00 0.  1.
         13    1    4    4    0    0  0.26568710201E+02 -0.71011141553E+01  0.87207417693E+01  0.28850884233E+02  0.00000000000E+00 0. -1.
         21    1    1    2  503  501  0.64298365932E+01 -0.33961557374E+02 -0.74836003967E+02  0.82432746331E+02  0.00000000000E+00 0. -1.
          1    1    1    2  501    0 -0.14373215616E+03 -0.64597251005E+02 -0.19755243703E+02  0.15881437972E+03  0.00000000000E+00 0. -1.
<scales pt_clust_5="13000.00000" pt_clust_6="13000.00000" pt_clust_7="13000.00000" pt_clust_8="13000.00000" pt_clust_9="34.56487" pt_clust_10="126.93174"></scales>
<clustering>
<clus scale="   34.565">  2  9  1 -1</clus>
<clus scale="   75.936">  5  6 -1 -1</clus>
<clus scale="   92.594">  7  8 -1 -1</clus>
<clus scale="  110.689">  1  5  2 -1</clus>
<clus scale="  126.932">  2 10  1 -1</clus>
<clus scale="   34.565">  2  5  1 -1</clus>
</clustering>
</event>
<event>
10    4  0.3043429E-005  0.1102027E+03  0.7546771E-02  0.1267458E+00
         21   -1    0    0  501  502  0.00000000000E+00  0.00000000000E+00  0.16474729428E+03  0.16474729428E+03  0.00000000000E+00 0.  1.
          2   -1    0    0  503    0 -0.00000000000E+00 -0.00000000000E+00 -0.36614311300E+03  0.36614311300E+03  0.00000000000E+00 0. -1.
         24    2    1    2    0    0 -0.45433116640E+01 -0.41505807409E+02 -0.16185964550E+03  0.18600214087E+03  0.81577434614E+02 0.  0.
         23    2    1    2    0    0  0.43951145635E+01  0.86098697020E+02 -0.25860322365E+02  0.13325217775E+03  0.98260286691E+02 0.  0.
        -11    1    3    3    0    0 -0.42439548262E+02 -0.29848985030E+02 -0.96201094473E+02  0.10930108756E+03  0.00000000000E+00 0.  1.
         12    1    3    3    0    0  0.37896236598E+02 -0.11656822379E+02 -0.65658551028E+02  0.76701053313E+02  0.00000000000E+00 0. -1.
        -13    1    4    4    0    0 -0.35180439782E+02  0.12092217723E+02  0.14751422102E+02  0.40018614753E+02  0.00000000000E+00 0.  1.
         13    1    4    4    0    0  0.39575554345E+02  0.74006479297E+02 -0.40611744467E+02  0.93233562992E+02  0.00000000000E+00 0. -1.
         21    1    1    2  503  502 -0.30806438519E+02  0.18052082781E+02  0.84153296386E+02  0.91414942102E+02  0.00000000000E+00 0.  1.
          1    1    1    2  501    0  0.30954635619E+02 -0.62644972392E+02 -0.97829147236E+02  0.12022114656E+03  0.00000000000E+00 0. -1.
<scales pt_clust_5="13000.00000" pt_clust_6="13000.00000" pt_clust_7="13000.00000" pt_clust_8="13000.00000" pt_clust_9="35.70594" pt_clust_10="65.59802"></scales>
<clustering>
<clus scale="   35.706">  1  9  2 -1</clus>
<clus scale="   65.598">  1 10  2 -1</clus>
<clus scale="   81.577">  5  6 -1 -1</clus>
<clus scale="   95.627">  2  5  1 -1</clus>
<clus scale="   98.260">  7  8 -1 -1</clus>
<clus scale="   35.706">  1  5  2 -1</clus>
</clustering>
</event>
<event>
10    4  0.3043429E-005  0.1398924E+03  0.7546771E-02  0.1223924E+00
          2   -1    0    0  502    0 -0.00000000000E+00  0.00000000000E+00  0.30716041985E+03  0.30716041985E+03  0.00000000000E+00 0. -1.
         21   -1    0    0  503  502  0.00000000000E+00 -0.00000000000E+00 -0.33781717973E+03  0.33781717973E+03  0.00000000000E+00 0.  1.
         23    2    1    2    0    0  0.47553665724E+02 -0.31689478615E+02  0.12599364280E+03  0.16576068219E+03  0.91305156224E+02 0.  0.
         24    2    1    2    0    0  0.39210122814E+02  0.15921179613E+03  0.30854942006E+02  0.18566625789E+03  0.81449997614E+02 0.  0.
        -11    1    4    4    0    0 -0.16007875172E+02  0.17558166734E+02 -0.13455205800E+02  0.27305381332E+02  0.00000000000E+00 0.  1.
         12    1    4    4    0    0  0.55217997986E+02  0.14165362940E+03  0.44310147806E+02  0.15836087655E+03  0.00000000000E+00 0. -1.
        -11    1    3    3    0    0  0.41595400646E+02 -0.56371288952E+02  0.51191717036E+02  0.86766880007E+02  0.00000000000E+00 0.  1.
         11    1    3    3    0    0  0.59582650784E+01  0.24681810337E+02  0.74801925767E+02  0.78993802179E+02  0.00000000000E+00 0. -1.
         21    1    1    2  503  501  0.96422120728E+01 -0.96356709804E+02 -0.16254208470E+03  0.18920231784E+03  0.00000000000E+00 0.  1.
          1    1    1    2  501    0 -0.96406000611E+02 -0.31165607715E+02 -0.24963259991E+02  0.10434834166E+03  0.00000000000E+00 0. -1.
<scales pt_clust_5="13000.00000" pt_clust_6="13000.00000" pt_clust_7="13000.00000" pt_clust_8="13000.00000" pt_clust_9="96.83795" pt_clust_10="113.73562"></scales>
<clustering>
<clus scale="   81.450">  5  6 -1 -1</clus>
<clus scale="   91.305">  7  8 -1 -1</clus>
<clus scale="   96.838">  2  9  1 -1</clus>
<clus scale="  112.276">  1  7  2 -1</clus>
<clus scale="  113.736">  2 10  1 -1</clus>
<clus scale="   96.838">  2  5  1 -1</clus>
</clustering>
</event>
<event>
10    4  0.3043429E-005  0.1687524E+03  0.7546771E-02  0.1180451E+00
         21   -1    0    0  501  502  0.00000000000E+00  0.00000000000E+00  0.19090755337E+03  0.19090755337E+03  0.00000000000E+00 0. -1.
          2   -1    0    0  503    0 -0.00000000000E+00 -0.00000000000E+00 -0.83896410100E+03  0.83896410100E+03  0.00000000000E+00 0. -1.
         24    2    1    2    0    0 -0.19341992022E+03 -0.26215246838E+02 -0.49864219585E+03  0.54170428398E+03  0.81859557149E+02 0.  0.
         23    2    1    2    0    0  0.78590001170E+02 -0.40095719348E+02 -0.12526464359E+03  0.17829177401E+03  0.91173849056E+02 0.  0.
        -13    1    3    3    0    0 -0.28590938140E+02  0.72243316694E+01 -0.23607457211E+02  0.37774922207E+02  0.00000000000E+00 0.  1.
         14    1    3    3    0    0 -0.16482898208E+03 -0.33439578507E+02 -0.47503473864E+03  0.50392936178E+03  0.00000000000E+00 0. -1.
        -11    1    4    4    0    0 -0.41366536590E+01 -0.40062927398E+02 -0.62906596267E+02  0.74695313836E+02  0.00000000000E+00 0.  1.
         11    1    4    4    0    0  0.82726654829E+02 -0.32791950314E-01 -0.62358047327E+02  0.10359646018E+03  0.00000000000E+00 0. -1.
         21    1    1    2  503  502  0.63548129783E+02  0.54490343755E+02  0.12571693187E+03  0.15103744344E+03  0.00000000000E+00 0. -1.
          1    1    1    2  501    0  0.51281789268E+02  0.11820622431E+02 -0.14986664006E+03  0.15883815293E+03  0.00000000000E+00 0. -1.
<scales pt_clust_5="13000.00000" pt_clust_6="13000.00000" pt_clust_7="13000.00000" pt_clust_8="13000.00000" pt_clust_9="119.69847" pt_clust_10="52.62653"></scales>
<clustering>
<clus scale="   52.627">  1 10  2 -1</clus>
<clus scale="   81.860">  5  6 -1 -1</clus>
<clus scale="   91.174">  7  8 -1 -1</clus>
<clus scale="  119.698">  1  9  2 -1</clus>
<clus scale="  163.908">  2  5  1 -1</clus>
<clus scale="   52.627">  1  5  2 -1</clus>
</clustering>
</event>
<event>
10    4  0.3043429E-005  0.1328746E+03  0.7546771E-02  0.1240382E+00
         21   -1    0    0  501  502  0.00000000000E+00  0.00000000000E+00  0.58404798828E+03  0.58404798828E+03  0.00000000000E+00 0. -1.
          2   -1    0    0  503    0 -0.00000000000E+00 -0.00000000000E+00 -0.11057949663E+03  0.11057949663E+03  0.00000000000E+00 0. -1.
         23    2    1    2    0    0  0.11867621294E+02 -0.71631947632E+01 -0.36692250795E+02  0.10050830332E+03  0.92538888976E+02 0.  0.
         24    2    1    2    0    0  0.44818530203E+02  0.59368221772E+02  0.24719191067E+03  0.27073504188E+03  0.81610880370E+02 0.  0.
        -11    1    4    4    0    0 -0.11270627018E+02  0.31468723852E+02  0.15950442499E+03  0.16296922779E+03  0.00000000000E+00 0.  1.
         12    1    4    4    0    0  0.56089157221E+02  0.27899497920E+02  0.87687485681E+02  0.10776581409E+03  0.00000000000E+00 0. -1.
        -11    1    3    3    0    0 -0.11672756689E+02 -0.45605478503E+02 -0.27447200031E+02  0.54492767481E+02  0.00000000000E+00 0. -1.
         11    1    3    3    0    0  0.23540377983E+02  0.38442283740E+02 -0.92450507639E+01  0.46015535837E+02  0.00000000000E+00 0.  1.
         21    1    1    2  503  502  0.40230143241E+01  0.59805104766E+02  0.99068295522E+02  0.11579016529E+03  0.00000000000E+00 0. -1.
          1    1    1    2  501    0 -0.60709165821E+02 -0.11201013178E+03  0.16390053625E+03  0.20759397442E+03  0.00000000000E+00 0. -1.
<scales pt_clust_5="13000.00000" pt_clust_6="13000.00000" pt_clust_7="13000.00000" pt_clust_8="13000.00000" pt_clust_9="59.94026" pt_clust_10="104.85867"></scales>
<clustering>
<clus scale="   59.940">  1  9  2 -1</clus>
<clus scale="   81.611">  5  6 -1 -1</clus>
<clus scale="   92.539">  7  8 -1 -1</clus>
<clus scale="   93.385">  2  7  1 -1</clus>
<clus scale="  104.859">  1 10  2 -1</clus>
<clus scale="   59.940">  1  5  2 -1</clus>
</clustering>
</event>
<event>
10    4  0.3043429E-005  0.2032254E+03  0.7546771E-02  0.1179752E+00
          2   -1    0    0  503    0 -0.00000000000E+00  0.00000000000E+00  0.55981591140E+03  0.55981591140E+03  0.00000000000E+00 0. -1.
         21   -1    0    0  501  502  0.00000000000E+00 -0.00000000000E+00 -0.38342448415E+03  0.38342448415E+03  0.00000000000E+00 0.  1.
         23    2    1    2    0    0  0.14129447256E+01 -0.32182555192E+02  0.37082005089E+03  0.38300165221E+03  0.90249887432E+02 0.  0.
         24    2    1    2    0    0  0.19337366604E+03  0.58959256469E+01 -0.17774916569E+03  0.27513479564E+03  0.81708342395E+02 0.  0.
        -13    1    4    4    0    0  0.16367896007E+03 -0.17646708745E+02 -0.16962521306E+03  0.23637876640E+03  0.00000000000E+00 0.  1.
         14    1    4    4    0    0  0.29694705963E+02  0.23542634392E+02 -0.81239526252E+01  0.38756029242E+02  0.00000000000E+00 0. -1.
        -11    1    3    3    0    0  0.22597636938E+02 -0.55952910754E+02  0.28839170938E+03  0.29463733548E+03  0.00000000000E+00 0. -1.
         11    1    3    3    0    0 -0.21184692212E+02  0.23770355563E+02  0.82428341510E+02  0.88364316734E+02  0.00000000000E+00 0.  1.
         21    1    1    2  503  502 -0.17349519768E+03 -0.60167627704E+02 -0.49538530334E+02  0.19019672192E+03  0.00000000000E+00 0. -1.
          1    1    1    2  501    0 -0.21291413084E+02  0.86454257248E+02  0.32859072371E+02  0.94907225776E+02  0.00000000000E+00 0. -1.
<scales pt_clust_5="13000.00000" pt_clust_6="13000.00000" pt_clust_7="13000.00000" pt_clust_8="13000.00000" pt_clust_9="186.07614" pt_clust_10="89.03747"></scales>
<clustering>
<clus scale="   81.708">  5  6 -1 -1</clus>
<clus scale="   89.037">  2 10  1 -1</clus>
<clus scale="   90.250">  7  8 -1 -1</clus>
<clus scale="   95.331">  1  7  2 -1</clus>
<clus scale="  186.076">  1  9  2 -1</clus>
<clus scale="   89.037">  2  5  1 -1</clus>
</clustering>
</event>
<event>
10    4  0.3043429E-005  0.9609941E+02  0.7546771E-02  0.1288825E+00
         21   -1    0    0  501  502  0.00000000000E+00  0.00000000000E+00  0.30187554506E+03  0.30187554506E+03  0.00000000000E+00 0. -1.
         -3   -1    0    0    0  501 -0.00000000000E+00 -0.00000000000E+00 -0.13444293763E+03  0.13444293763E+03  0.00000000000E+00 0.  1.
         23    2    1    2    0    0 -0.64661242609E+01 -0.29203627175E+02 -0.35625741877E+02  0.10450209228E+03  0.93577941863E+02 0.  0.
         24    2    1    2    0    0 -0.62224690261E+02 -0.15273673407E+02  0.59399068633E+02  0.12816832013E+03  0.93774579459E+02 0.  0.
        -11    1    4    4    0    0 -0.32069689301E+02  0.22430746717E+02 -0.12920973119E+02  0.41213528318E+02  0.00000000000E+00 0.  1.
         12    1    4    4    0    0 -0.30155000960E+02 -0.37704420124E+02  0.72320041752E+02  0.86954791810E+02  0.00000000000E+00 0. -1.
        -13    1    3    3    0    0 -0.48860638094E+02 -0.97314853972E+01 -0.28243227711E+02  0.57269046391E+02  0.00000000000E+00 0.  1.
         13    1    3    3    0    0  0.42394513833E+02 -0.19472141778E+02 -0.73825141662E+01  0.47233045889E+02  0.00000000000E+00 0. -1.
         21    1    1    2  503  502 -0.18756681217E+02 -0.96913665628E+01  0.79860993564E+02  0.82604563852E+02  0.00000000000E+00 0. -1.
         -4    1    1    2    0  503  0.87447495739E+02  0.54168667145E+02  0.63798287105E+02  0.12104350643E+03  0.00000000000E+00 0.  1.
<scales pt_clust_5="13000.00000" pt_clust_6="13000.00000" pt_clust_7="13000.00000" pt_clust_8="13000.00000" pt_clust_9="21.11245" pt_clust_10="94.05127"></scales>
<clustering>
<clus scale="   21.112">  1  9  2 -1</clus>
<clus scale="   93.578">  7  8 -1 -1</clus>
<clus scale="   93.775">  5  6 -1 -1</clus>
<clus scale="   94.051">  1 10  2 -1</clus>
<clus scale="   95.908">  2  7  1 -1</clus>
<clus scale="   21.112">  1  5  2 -1</clus>
</clustering>
</event>
<event>
10    4  0.3043429E-005  0.1561521E+03  0.7546771E-02  0.1214701E+00
          2   -1    0    0  503    0 -0.00000000000E+00  0.00000000000E+00  0.73209527563E+03  0.73209527563E+03  0.00000000000E+00 0. -1.
         21   -1    0    0  501  502  0.00000000000E+00 -0.00000000000E+00 -0.12540330586E+03  0.12540330586E+03  0.00000000000E+00 0. -1.
         24    2    1    2    0    0 -0.12750643748E+03  0.20757228321E+02  0.33035924663E+03  0.36727499001E+03  0.95209938157E+02 0.  0.
         23    2    1    2    0    0 -0.60082155095E+02 -0.13173203728E+02  0.75306045307E+02  0.13016103714E+03  0.86530321110E+02 0.  0.
        -11    1    3    3    0    0 -0.15564286678E+02 -0.32017070963E+02  0.93180680821E+02  0.99749582110E+02  0.00000000000E+00 0.  1.
         12    1    3    3    0    0 -0.11194215080E+03  0.52774299284E+02  0.23717856581E+03  0.26752540790E+03  0.00000000000E+00 0. -1.
        -13    1    4    4    0    0 -0.33270934335E+02 -0.36163108924E+02  0.24560736831E+01  0.49201197307E+02  0.00000000000E+00 0. -1.
         13    1    4    4    0    0 -0.26811220760E+02  0.22989905196E+02  0.72849971624E+02  0.80959839829E+02  0.00000000000E+00 0.  1.
         21    1    1    2  503  502  0.10660187411E+03  0.23900423115E+02 -0.29952778754E+02  0.11328000152E+03  0.00000000000E+00 0. -1.
          1    1    1    2  501    0  0.80986718460E+02 -0.31484447708E+02  0.23097945658E+03  0.24678255282E+03  0.00000000000E+00 0. -1.
<scales pt_clust_5="13000.00000" pt_clust_6="13000.00000" pt_clust_7="13000.00000" pt_clust_8="13000.00000" pt_clust_9="123.76807" pt_clust_10="86.89146"></scales>
<clustering>
<clus scale="   86.530">  7  8 -1 -1</clus>
<clus scale="   86.891">  2 10  1 -1</clus>
<clus scale="   95.210">  5  6 -1 -1</clus>
<clus scale="   98.002">  2  7  1 -1</clus>
<clus scale="  123.768">  2  9  1 -1</clus>
<clus scale="   86.891">  2  5  1 -1</clus>
</clustering>
</event>
<event>
10    4  0.3043429E-005  0.1491593E+03  0.7546771E-02  0.1222176E+00
         21   -1    0    0  501  502  0.00000000000E+00  0.00000000000E+00  0.10897072079E+03  0.10897072079E+03  0.00000000000E+00 0. -1.
          2   -1    0    0  503    0 -0.00000000000E+00 -0.00000000000E+00 -0.11921331563E+04  0.11921331563E+04  0.00000000000E+00 0. -1.
         24    2    1    2    0    0  0.15415344982E+02  0.36972686556E+02 -0.11095635419E+03  0.14722639971E+03  0.88089090276E+02 0.  0.
         23    2    1    2    0    0  0.58523988226E+02  0.10042619882E+03 -0.84351931379E+00  0.15048178845E+03  0.95569757367E+02 0.  0.
        -11    1    3    3    0    0 -0.14584301131E+02 -0.19972214906E+02 -0.83471898333E+01  0.26101087829E+02  0.00000000000E+00 0.  1.
         12    1    3    3    0    0  0.29999646113E+02  0.56944901462E+02 -0.10260916435E+03  0.12112531188E+03  0.00000000000E+00 0. -1.
        -11    1    4    4    0    0  0.70079235980E+02  0.32145279357E+02 -0.17921041426E+02  0.79155429544E+02  0.00000000000E+00 0.  1.
         11    1    4    4    0    0 -0.11555247754E+02  0.68280919465E+02  0.17077522112E+02  0.71326358908E+02  0.00000000000E+00 0. -1.
         21    1    1    2  503  502  0.14288901412E+02 -0.17155195366E+02 -0.17662061517E+01  0.22396270131E+02  0.00000000000E+00 0. -1.
          1    1    1    2  501    0 -0.88228234619E+02 -0.12024369001E+03 -0.96959635587E+03  0.98099941880E+03  0.00000000000E+00 0. -1.
<scales pt_clust_5="13000.00000" pt_clust_6="13000.00000" pt_clust_7="13000.00000" pt_clust_8="13000.00000" pt_clust_9="22.32652" pt_clust_10="114.52050"></scales>
<clustering>
<clus scale="   22.327">  1  9  2 -1</clus>
<clus scale="   88.089">  5  6 -1 -1</clus>
<clus scale="   95.570">  7  8 -1 -1</clus>
<clus scale="   96.067">  2  5  1 -1</clus>
<clus scale="  114.520">  1 10  2 -1</clus>
<clus scale="   22.327">  1  5  2 -1</clus>
</clustering>
</event>
<event>
10    4  0.3043429E-005  0.2478761E+03  0.7546771E-02  0.1144855E+00
         21   -1    0    0  501  502  0.00000000000E+00  0.00000000000E+00  0.50821883671E+03  0.50821883671E+03  0.00000000000E+00 0.  1.
         -3   -1    0    0    0  501 -0.00000000000E+00 -0.00000000000E+00 -0.36016931043E+03  0.36016931043E+03  0.00000000000E+00 0.  1.
         24    2    1    2    0    0 -0.80851587348E+02 -0.54658739497E+02  0.18064413160E+03  0.22043508912E+03  0.80217013500E+02 0.  0.
         23    2    1    2    0    0 -0.82351775110E+01 -0.22441474382E+03 -0.23406612350E+02  0.24377002074E+03  0.91902982091E+02 0.  0.
        -11    1    3    3    0    0 -0.62346503888E+02  0.45108329391E+01  0.10935054181E+03  0.12595624302E+03  0.00000000000E+00 0.  1.
         12    1    3    3    0    0 -0.18505083460E+02 -0.59169572436E+02  0.71293589782E+02  0.94478846098E+02  0.00000000000E+00 0. -1.
        -13    1    4    4    0    0 -0.49207312404E+02 -0.14385159221E+03 -0.19754175141E+02  0.15331297274E+03  0.00000000000E+00 0.  1.
         13    1    4    4    0    0  0.40972134893E+02 -0.80563151616E+02 -0.36524372096E+01  0.90457048004E+02  0.00000000000E+00 0. -1.
         21    1    1    2  503  502  0.42704740472E+01  0.36266253000E+02  0.11349605344E+03  0.11922597117E+03  0.00000000000E+00 0. -1.
         -4    1    1    2    0  503  0.84816290812E+02  0.24280723032E+03 -0.12268404640E+03  0.28495706611E+03  0.00000000000E+00 0.  1.
<scales pt_clust_5="13000.00000" pt_clust_6="13000.00000" pt_clust_7="13000.00000" pt_clust_8="13000.00000" pt_clust_9="36.51682" pt_clust_10="230.20958"></scales>
<clustering>
<clus scale="   36.517">  1  9  2 -1</clus>
<clus scale="   80.217">  5  6 -1 -1</clus>
<clus scale="   91.903">  7  8 -1 -1</clus>
<clus scale="  118.010">  2  5  1 -1</clus>
<clus scale="  230.210">  1 10  2 -1</clus>
<clus scale="   36.517">  1  5  2 -1</clus>
</clustering>
</event>
<event>
10    4  0.3043429E-005  0.9235734E+02  0.7546771E-02  0.1302678E+00
          2   -1    0    0  503    0 -0.00000000000E+00  0.00000000000E+00  0.47432875877E+03  0.47432875877E+03  0.00000000000E+00 0. -1.
         21   -1    0    0  501  502  0.00000000000E+00 -0.00000000000E+00 -0.16880769626E+03  0.16880769626E+03  0.00000000000E+00 0. -1.
         23    2    1    2    0    0 -0.21612473085E+02  0.19830166678E+02  0.42574703019E+03  0.43587659852E+03  0.88699159602E+02 0.  0.
         24    2    1    2    0    0 -0.35378145549E+01  0.19527398526E+02 -0.29376629300E+02  0.87034362622E+02  0.79486844843E+02 0.  0.
        -11    1    4    4    0    0 -0.21002357687E+02 -0.25192892519E+02 -0.19039056751E+02  0.37924484754E+02  0.00000000000E+00 0.  1.
         12    1    4    4    0    0  0.17464543132E+02  0.44720291045E+02 -0.10337572548E+02  0.49109877868E+02  0.00000000000E+00 0. -1.
        -11    1    3    3    0    0 -0.36211462977E+02  0.48560969355E+02  0.30092592420E+03  0.30696229353E+03  0.00000000000E+00 0. -1.
         11    1    3    3    0    0  0.14598989893E+02 -0.28730802677E+02  0.12482110600E+03  0.12891430499E+03  0.00000000000E+00 0.  1.
         21    1    1    2  503  502  0.26211305972E+02  0.10409555067E+02 -0.41125085061E+02  0.49866461863E+02  0.00000000000E+00 0. -1.
          1    1    1    2  501    0 -0.10610183323E+01 -0.49767120271E+02 -0.49724253323E+02  0.70359032032E+02  0.00000000000E+00 0. -1.
<scales pt_clust_5="13000.00000" pt_clust_6="13000.00000" pt_clust_7="13000.00000" pt_clust_8="13000.00000" pt_clust_9="28.20268" pt_clust_10="46.20488"></scales>
<clustering>
<clus scale="   28.203">  2  9  1 -1</clus>
<clus scale="   46.205">  2 10  1 -1</clus>
<clus scale="   79.487">  5  6 -1 -1</clus>
<clus scale="   83.549">  2  5  1 -1</clus>
<clus scale="   88.699">  7  8 -1 -1</clus>
<clus scale="   28.203">  2  5  1 -1</clus>
</clustering>
</event>
<event>
10    4  0.3340151E-005  0.1696421E+03  0.7546771E-02  0.1203604E+00
         21   -1    0    0  501  502  0.00000000000E+00  0.00000000000E+00  0.68364626893E+03  0.68364626893E+03  0.00000000000E+00 0.  1.
         -3   -1    0    0    0  501 -0.00000000000E+00 -0.00000000000E+00 -0.21760873406E+03  0.21760873406E+03  0.00000000000E+00 0.  1.
         23    2    1    2    0    0  0.76135470819E+01  0.27813033722E+02 -0.10390703031E+03  0.14221089636E+03  0.92713198381E+02 0.  0.
         24    2    1    2    0    0 -0.55254378032E+02  0.14843964782E+03  0.50272046076E+03  0.53279101566E+03  0.77788362595E+02 0.  0.
        -11    1    4    4    0    0 -0.17326267355E+02  0.97436985450E+02  0.19616028843E+03  0.21971122965E+03  0.00000000000E+00 0.  1.
         12    1    4    4    0    0 -0.37928110677E+02  0.51002662371E+02  0.30656017233E+03  0.31307978601E+03  0.00000000000E+00 0. -1.
        -11    1    3    3    0    0  0.31303697594E+02  0.52840074708E+02 -0.55417524741E+02  0.82723013888E+02  0.00000000000E+00 0. -1.
         11    1    3    3    0    0 -0.23690150512E+02 -0.25027040986E+02 -0.48489505564E+02  0.59487882477E+02  0.00000000000E+00 0.  1.
         21    1    1    2  503  502 -0.10761585607E+02 -0.19240479079E+02  0.53861859244E+02  0.58198862886E+02  0.00000000000E+00 0.  1.
         -4    1    1    2    0  503  0.58402416558E+02 -0.15701220246E+03  0.13362245166E+02  0.16805422809E+03  0.00000000000E+00 0.  1.
<scales pt_clust_5="13000.00000" pt_clust_6="13000.00000" pt_clust_7="13000.00000" pt_clust_8="13000.00000" pt_clust_9="22.04558" pt_clust_10="150.75621"></scales>
<clustering>
<clus scale="   22.046">  1  9  2 -1</clus>
<clus scale="   77.788">  5  6 -1 -1</clus>
<clus scale="   92.713">  7  8 -1 -1</clus>
<clus scale="   96.902">  2  7  1 -1</clus>
<clus scale="  150.756">  1 10  2 -1</clus>
<clus scale="   22.046">  1  5  2 -1</clus>
</clustering>
</event>
<event>
10    4  0.3043429E-005  0.1686742E+03  0.7546771E-02  0.1212287E+00
         21   -1    0    0  501  502  0.00000000000E+00  0.00000000000E+00  0.19612786495E+03  0.19612786495E+03  0.00000000000E+00 0. -1.
          2   -1    0    0  503    0 -0.00000000000E+00 -0.00000000000E+00 -0.54260734663E+03  0.54260734663E+03  0.00000000000E+00 0. -1.
         24    2    1    2    0    0  0.32131809398E+01 -0.65610840664E+01 -0.34460132196E+02  0.88801621201E+02  0.81515979177E+02 0.  0.
         23    2    1    2    0    0 -0.15295594502E+03  0.54535293555E+02 -0.10763383094E+03  0.21461224707E+03  0.90020862410E+02 0.  0.
        -13    1    3    3    0    0 -0.12933858295E+02 -0.31374370402E+02 -0.45883583319E+02  0.57069598095E+02  0.00000000000E+00 0.  1.
         14    1    3    3    0    0  0.16147039235E+02  0.24813286336E+02  0.11423451123E+02  0.31732023106E+02  0.00000000000E+00 0. -1.
        -13    1    4    4    0    0 -0.18468996865E+02  0.29448375617E+02  0.77848690206E+01  0.35621831190E+02  0.00000000000E+00 0.  1.
         13    1    4    4    0    0 -0.13448694815E+03  0.25086917938E+02 -0.11541869996E+03  0.17899041588E+03  0.00000000000E+00 0. -1.
         21    1    1    2  503  502  0.13493789244E+03  0.48812775605E+02 -0.27798167045E+03  0.31283339173E+03  0.00000000000E+00 0. -1.
          1    1    1    2  501    0  0.14804871639E+02 -0.96786985093E+02  0.73596151902E+02  0.12248795158E+03  0.00000000000E+00 0. -1.
<scales pt_clust_5="13000.00000" pt_clust_6="13000.00000" pt_clust_7="13000.00000" pt_clust_8="13000.00000" pt_clust_9="142.64366" pt_clust_10="98.26713"></scales>
<clustering>
<clus scale="   81.516">  5  6 -1 -1</clus>
<clus scale="   81.843">  2  5  1 -1</clus>
<clus scale="   90.021">  7  8 -1 -1</clus>
<clus scale="   98.267">  1 10  2 -1</clus>
<clus scale="  142.644">  2  9  1 -1</clus>
<clus scale="   98.267">  1  5  2 -1</clus>
</clustering>
</event>
<event>
10    4  0.3043429E-005  0.1412032E+03  0.7546771E-02  0.1226258E+00
         21   -1    0    0  501  502  0.00000000000E+00  0.00000000000E+00  0.72121428531E+03  0.72121428531E+03  0.00000000000E+00 0. -1.
          2   -1    0    0  503    0 -0.00000000000E+00 -0.00000000000E+00 -0.20300515435E+03  0.20300515435E+03  0.00000000000E+00 0. -1.
         24    2    1    2    0    0 -0.49948205428E+02  0.41450666171E+02  0.21925074686E+03  0.24105514856E+03  0.76313260288E+02 0.  0.
         23    2    1    2    0    0  0.88187620238E+02  0.46426343278E+02 -0.15066948595E+03  0.20205405885E+03  0.90510148551E+02 0.  0.
        -13    1    3    3    0    0 -0.64692829810E+02  0.10397516714E+02  0.13498645453E+03  0.15004870373E+03  0.00000000000E+00 0.  1.
         14    1    3    3    0    0  0.14744624382E+02  0.31053149458E+02  0.84264292326E+02  0.91006444830E+02  0.00000000000E+00 0. -1.
        -13    1    4    4    0    0 -0.18609622949E+02  0.10118388202E+02 -0.31547707939E+02  0.37999443711E+02  0.00000000000E+00 0.  1.
         13    1    4    4    0    0  0.10679724319E+03  0.36307955076E+02 -0.11912177801E+03  0.16405461514E+03  0.00000000000E+00 0. -1.
         21    1    1    2  503  502  0.95559010972E+01  0.28297157531E+02  0.19397339307E+03  0.19625932230E+03  0.00000000000E+00 0. -1.
          1    1    1    2  501    0 -0.47795315907E+02 -0.11617416698E+03  0.25565447697E+03  0.28485090994E+03  0.00000000000E+00 0. -1.
<scales pt_clust_5="13000.00000" pt_clust_6="13000.00000" pt_clust_7="13000.00000" pt_clust_8="13000.00000" pt_clust_9="29.86711" pt_clust_10="108.38020"></scales>
<clustering>
<clus scale="   29.867">  1  9  2 -1</clus>
<clus scale="   76.313">  5  6 -1 -1</clus>
<clus scale="   90.510">  7  8 -1 -1</clus>
<clus scale="  104.000">  2  5  1 -1</clus>
<clus scale="  108.380">  1 10  2 -1</clus>
<clus scale="   29.867">  1  5  2 -1</clus>
</clustering>
</event>
<event>
10    4  0.3043429E-005  0.1147473E+03  0.7546771E-02  0.1256172E+00
          2   -1    0    0  503    0 -0.00000000000E+00  0.00000000000E+00  0.17545038749E+03  0.17545038749E+03  0.00000000000E+00 0. -1.
         21   -1    0    0  501  502  0.00000000000E+00 -0.00000000000E+00 -0.24187372700E+03  0.24187372700E+03  0.00000000000E+00 0. -1.
         23    2    1    2    0    0 -0.55014249034E+01 -0.68197059163E+02  0.74808978556E+02  0.13656174762E+03  0.91496574171E+02 0.  0.
         24    2    1    2    0    0  0.27153447044E+02  0.67241362088E+02  0.12592556048E+02  0.10858054871E+03  0.79827643259E+02 0.  0.
        -11    1    4    4    0    0 -0.15815267722E+02  0.60806474705E+02  0.16492222259E+02  0.64958013010E+02  0.00000000000E+00 0.  1.
         12    1    4    4    0    0  0.42968714766E+02  0.64348873829E+01 -0.38996662114E+01  0.43622535699E+02  0.00000000000E+00 0. -1.
        -11    1    3    3    0    0  0.23682547269E+02 -0.69090763707E+02  0.78393987309E+02  0.10714482685E+03  0.00000000000E+00 0. -1.
         11    1    3    3    0    0 -0.29183972172E+02  0.89370454385E+00 -0.35850087527E+01  0.29416920765E+02  0.00000000000E+00 0.  1.
         21    1    1    2  503  502  0.11110666504E+02  0.16861560889E+02 -0.12247239806E+03  0.12412593376E+03  0.00000000000E+00 0. -1.
          1    1    1    2  501    0 -0.32762688645E+02 -0.15905863814E+02 -0.31352476057E+02  0.48055884403E+02  0.00000000000E+00 0. -1.
<scales pt_clust_5="13000.00000" pt_clust_6="13000.00000" pt_clust_7="13000.00000" pt_clust_8="13000.00000" pt_clust_9="20.19305" pt_clust_10="30.80132"></scales>
<clustering>
<clus scale="   20.193">  2  9  1 -1</clus>
<clus scale="   30.801">  2 10  1 -1</clus>
<clus scale="   79.828">  5  6 -1 -1</clus>
<clus scale="   91.497">  7  8 -1 -1</clus>
<clus scale="  105.678">  2  5  1 -1</clus>
<clus scale="   20.193">  2  5  1 -1</clus>
</clustering>
</event>
<event>
10    4  0.3043429E-005  0.2549668E+03  0.7546771E-02  0.1110790E+00
         21   -1    0    0  501  502  0.00000000000E+00  0.00000000000E+00  0.14169010808E+03  0.14169010808E+03  0.00000000000E+00 0.  1.
          4   -1    0    0  503    0 -0.00000000000E+00 -0.00000000000E+00 -0.81324667762E+03  0.81324667762E+03  0.00000000000E+00 0. -1.
         23    2    1    2    0    0  0.44593381186E+02 -0.23528897027E+03 -0.55046477406E+03  0.60710377171E+03  0.90631412736E+02 0.  0.
         24    2    1    2    0    0 -0.23053829522E+02  0.23371082174E+03 -0.47804103891E+02  0.25248069078E+03  0.79429463126E+02 0.  0.
        -11    1    4    4    0    0 -0.14914286168E+01  0.20902139294E+03 -0.20890805753E+02  0.21006806714E+03  0.00000000000E+00 0.  1.
         12    1    4    4    0    0 -0.21562400906E+02  0.24689428799E+02 -0.26913298138E+02  0.42412623639E+02  0.00000000000E+00 0. -1.
        -13    1    3    3    0    0 -0.19948636388E+02 -0.10702227934E+03 -0.18818886737E+03  0.21740921363E+03  0.00000000000E+00 0.  1.
         13    1    3    3    0    0  0.64542017575E+02 -0.12826669093E+03 -0.36227590668E+03  0.38969455808E+03  0.00000000000E+00 0. -1.
         21    1    1    2  503  502  0.11818425246E+02  0.16169990007E+02 -0.10114085618E+02  0.22437434791E+02  0.00000000000E+00 0. -1.
          3    1    1    2  501    0 -0.33357976910E+02 -0.14591841481E+02 -0.63173605975E+02  0.72914888419E+02  0.00000000000E+00 0. -1.
<scales pt_clust_5="13000.00000" pt_clust_6="13000.00000" pt_clust_7="13000.00000" pt_clust_8="13000.00000" pt_clust_9="20.02857" pt_clust_10="35.78967"></scales>
<clustering>
<clus scale="   20.029">  1  9  2 -1</clus>
<clus scale="   35.790">  1 10  2 -1</clus>
<clus scale="   79.429">  5  6 -1 -1</clus>
<clus scale="   90.631">  7  8 -1 -1</clus>
<clus scale="  251.203">  1  5  2 -1</clus>
<clus scale="   20.029">  1  5  2 -1</clus>
</clustering>
</event>
<event>
10    4  0.3043429E-005  0.2099517E+03  0.7546771E-02  0.1169018E+00
          2   -1    0    0  503    0 -0.00000000000E+00  0.00000000000E+00  0.97093268022E+03  0.97093268022E+03  0.00000000000E+00 0. -1.
         21   -1    0    0  501  502  0.00000000000E+00 -0.00000000000E+00 -0.16082198314E+03  0.16082198314E+03  0.00000000000E+00 0. -1.
         24    2    1    2    0    0  0.97364689972E+00  0.70721364289E+02  0.31043725181E+03  0.32786217989E+03  0.78229548994E+02 0.  0.
         23    2    1    2    0    0  0.98853508900E+01  0.13068004757E+03  0.14631626405E+03  0.21487277051E+03  0.87102602647E+02 0.  0.
        -11    1    3    3    0    0 -0.18628493120E+02  0.81148483243E+02  0.24540123254E+03  0.25914062209E+03  0.00000000000E+00 0.  1.
         12    1    3    3    0    0  0.19602140020E+02 -0.10427118954E+02  0.65036019268E+02  0.68721557792E+02  0.00000000000E+00 0. -1.
        -13    1    4    4    0    0 -0.35624373869E+02  0.41209082549E+02  0.70421785859E+02  0.89030963275E+02  0.00000000000E+00 0. -1.
         13    1    4    4    0    0  0.45509724759E+02  0.89470965019E+02  0.75894478187E+02  0.12584180724E+03  0.00000000000E+00 0.  1.
         21    1    1    2  503  502  0.10294538909E+02  0.66609697537E+02 -0.63753059796E+02  0.92775438402E+02  0.00000000000E+00 0. -1.
          1    1    1    2  501    0 -0.21153536699E+02 -0.26801110939E+03  0.41711024102E+03  0.49624427456E+03  0.00000000000E+00 0. -1.
<scales pt_clust_5="13000.00000" pt_clust_6="13000.00000" pt_clust_7="13000.00000" pt_clust_8="13000.00000" pt_clust_9="67.40051" pt_clust_10="191.03109"></scales>
<clustering>
<clus scale="   67.401">  2  9  1 -1</clus>
<clus scale="   78.230">  5  6 -1 -1</clus>
<clus scale="   87.103">  7  8 -1 -1</clus>
<clus scale="  110.315">  1  5  2 -1</clus>
<clus scale="  191.031">  2 10  1 -1</clus>
<clus scale="   67.401">  2  5  1 -1</clus>
</clustering>
</event>
<event>
10    4  0.3043429E-005  0.2786771E+03  0.7546771E-02  0.1096868E+00
          2   -1    0    0  502    0 -0.00000000000E+00  0.00000000000E+00  0.29814071244E+04  0.29814071244E+04  0.00000000000E+00 0. -1.
         21   -1    0    0  503  502  0.00000000000E+00 -0.00000000000E+00 -0.47151459507E+02  0.47151459507E+02  0.00000000000E+00 0.  1.
         24    2    1    2    0    0 -0.25743128736E+03  0.74482773320E+02  0.19983277919E+04  0.20177644226E+04  0.78998417551E+02 0.  0.
         23    2    1    2    0    0  0.25135988611E+03 -0.29180323450E+02  0.54285952852E+03  0.60563186640E+03  0.89778651549E+02 0.  0.
        -13    1    3    3    0    0 -0.11128360239E+03  0.62333155844E+02  0.73907247914E+03  0.74999839460E+03  0.00000000000E+00 0.  1.
         14    1    3    3    0    0 -0.14614768497E+03  0.12149617476E+02  0.12592553128E+04  0.12677660280E+04  0.00000000000E+00 0. -1.
        -11    1    4    4    0    0  0.19160474087E+03 -0.23194314930E+02  0.31015625029E+03  0.36530432869E+03  0.00000000000E+00 0.  1.
         11    1    4    4    0    0  0.59755145237E+02 -0.59860085205E+01  0.23270327823E+03  0.24032753771E+03  0.00000000000E+00 0. -1.
         21    1    1    2  503  501  0.98429242205E+01  0.18184686426E+02  0.29213689466E+02  0.35791138985E+02  0.00000000000E+00 0. -1.
          1    1    1    2  501    0 -0.37715229719E+01 -0.63487136296E+02  0.36385465500E+03  0.36937115592E+03  0.00000000000E+00 0. -1.
<scales pt_clust_5="13000.00000" pt_clust_6="13000.00000" pt_clust_7="13000.00000" pt_clust_8="13000.00000" pt_clust_9="20.67767" pt_clust_10="62.42331"></scales>
<clustering>
<clus scale="   20.678">  2  9  1 -1</clus>
<clus scale="   62.423">  2 10  1 -1</clus>
<clus scale="   78.998">  5  6 -1 -1</clus>
<clus scale="   89.779">  7  8 -1 -1</clus>
<clus scale="  275.393">  1  5  2 -1</clus>
<clus scale="   20.678">  2  5  1 -1</clus>
</clustering>
</event>
<event>
10    4  0.3043429E-005  0.3056628E+03  0.7546771E-02  0.1082444E+00
         21   -1    0    0  503  502  0.00000000000E+00  0.00000000000E+00  0.19281990110E+03  0.19281990110E+03  0.00000000000E+00 0. -1.
          2   -1    0    0  502    0 -0.00000000000E+00 -0.00000000000E+00 -0.49060069248E+03  0.49060069248E+03  0.00000000000E+00 0. -1.
         24    2    1    2    0    0 -0.62284085445E+02  0.28246840672E+02 -0.22083261974E+02  0.10764953819E+03  0.80147122880E+02 0.  0.
         23    2    1    2    0    0 -0.63312695532E+02  0.14694826339E+03 -0.89959752871E+02  0.20490113702E+03  0.91046302993E+02 0.  0.
        -11    1    3    3    0    0  0.14935580540E+02  0.22872355328E+02 -0.62612228976E+00  0.27324132803E+02  0.00000000000E+00 0.  1.
         12    1    3    3    0    0 -0.77219665984E+02  0.53744853438E+01 -0.21457139684E+02  0.80325405389E+02  0.00000000000E+00 0. -1.
        -11    1    4    4    0    0 -0.54952069577E+02  0.30546173049E+02 -0.53736409514E+02  0.82706712824E+02  0.00000000000E+00 0.  1.
         11    1    4    4    0    0 -0.83606259559E+01  0.11640209034E+03 -0.36223343357E+02  0.12219442420E+03  0.00000000000E+00 0. -1.
         21    1    1    2  503  501 -0.42438740641E+02  0.32955350235E+01  0.23456204858E+02  0.48601448586E+02  0.00000000000E+00 0. -1.
          1    1    1    2  501    0  0.16803552162E+03 -0.17849063908E+03 -0.20919398139E+03  0.32226846978E+03  0.00000000000E+00 0. -1.
<scales pt_clust_5="13000.00000" pt_clust_6="13000.00000" pt_clust_7="13000.00000" pt_clust_8="13000.00000" pt_clust_9="42.56650" pt_clust_10="234.01580"></scales>
<clustering>
<clus scale="   42.567">  1  9  2 -1</clus>
<clus scale="   80.147">  5  6 -1 -1</clus>
<clus scale="   91.046">  7  8 -1 -1</clus>
<clus scale="  109.652">  5  7 -1 -1</clus>
<clus scale="  234.016">  1 10  2 -1</clus>
<clus scale="   42.567">  1  5  2 -1</clus>
</clustering>
</event>
<event>
10    4  0.3043429E-005  0.2211804E+03  0.7546771E-02  0.1153927E+00
         21   -1    0    0  503  502  0.00000000000E+00  0.00000000000E+00  0.36319853401E+03  0.36319853401E+03  0.00000000000E+00 0. -1.
          2   -1    0    0  502    0 -0.00000000000E+00 -0.00000000000E+00 -0.36327421372E+03  0.36327421372E+03  0.00000000000E+00 0. -1.
         23    2    1    2    0    0 -0.21672675824E+02  0.11661682366E+03  0.31925961366E+01  0.15120731286E+03  0.93724438403E+02 0.  0.
         24    2    1    2    0    0  0.12209349687E+03  0.12943629396E+03 -0.11814793561E+03  0.22822130078E+03  0.80408029886E+02 0.  0.
        -13    1    4    4    0    0  0.22926125722E+02  0.43354782977E+02 -0.75729466773E+02  0.90223037997E+02  0.00000000000E+00 0.  1.
         14    1    4    4    0    0  0.99167371149E+02  0.86081510980E+02 -0.42418468836E+02  0.13799826278E+03  0.00000000000E+00 0. -1.
        -11    1    3    3    0    0 -0.58734909900E+02  0.67284339679E+02  0.52674493559E+01  0.89469089801E+02  0.00000000000E+00 0. -1.
         11    1    3    3    0    0  0.37062234077E+02  0.49332483981E+02 -0.20748532193E+01  0.61738223058E+02  0.00000000000E+00 0.  1.
         21    1    1    2  503  501  0.26609612160E+02 -0.69533651858E+02  0.10581084056E+03  0.12937903300E+03  0.00000000000E+00 0. -1.
          1    1    1    2  501    0 -0.12703043321E+03 -0.17651946576E+03  0.90688191983E+01  0.21766510109E+03  0.00000000000E+00 0. -1.
<scales pt_clust_5="13000.00000" pt_clust_6="13000.00000" pt_clust_7="13000.00000" pt_clust_8="13000.00000" pt_clust_9="74.45133" pt_clust_10="206.04692"></scales>
<clustering>
<clus scale="   74.451">  1  9  2 -1</clus>
<clus scale="   80.408">  5  6 -1 -1</clus>
<clus scale="   93.724">  7  8 -1 -1</clus>
<clus scale="  133.944">  2  7  1 -1</clus>
<clus scale="  206.047">  1 10  2 -1</clus>
<clus scale="   74.451">  1  5  2 -1</clus>
</clustering>
</event>
<event>
10    4  0.3043429E-005  0.1151379E+03  0.7546771E-02  0.1264438E+00
          2   -1    0    0  503    0 -0.00000000000E+00  0.00000000000E+00  0.35266104946E+03  0.35266104946E+03  0.00000000000E+00 0. -1.
         21   -1    0    0  501  502  0.00000000000E+00 -0.00000000000E+00 -0.19140310557E+03  0.19140310557E+03  0.00000000000E+00 0.  1.
         23    2    1    2    0    0 -0.13780790820E+02 -0.68172526158E+02  0.19912945186E+03  0.22971366565E+03  0.90985856410E+02 0.  0.
         24    2    1    2    0    0  0.42487936799E+02 -0.36230760553E+02 -0.55978440954E+02  0.11360788602E+03  0.81579857383E+02 0.  0.
        -11    1    4    4    0    0  0.39086118493E+02 -0.40727667469E+02 -0.74942392841E+02  0.93823396874E+02  0.00000000000E+00 0.  1.
         12    1    4    4    0    0  0.34018183057E+01  0.44969069156E+01  0.18963951887E+02  0.19784489146E+02  0.00000000000E+00 0. -1.
        -13    1    3    3    0    0  0.94633282633E+01 -0.84559304280E+02  0.16152993988E+03  0.18256985512E+03  0.00000000000E+00 0.  1.
         13    1    3    3    0    0 -0.23244119083E+02  0.16386778122E+02  0.37599511983E+02  0.47143810522E+02  0.00000000000E+00 0. -1.
         21    1    1    2  503  502  0.63338841133E+01  0.76378397661E+02 -0.68764598801E+02  0.10296770254E+03  0.00000000000E+00 0.  1.
          1    1    1    2  501    0 -0.35041030092E+02  0.28024889050E+02  0.86871531784E+02  0.97774900822E+02  0.00000000000E+00 0. -1.
<scales pt_clust_5="13000.00000" pt_clust_6="13000.00000" pt_clust_7="13000.00000" pt_clust_8="13000.00000" pt_clust_9="70.55718" pt_clust_10="44.86948"></scales>
<clustering>
<clus scale="   44.869">  2 10  1 -1</clus>
<clus scale="   81.580">  5  6 -1 -1</clus>
<clus scale="   88.927">  2  5  1 -1</clus>
<clus scale="   70.557">  2  9  1 -1</clus>
<clus scale="   90.986">  7  8 -1 -1</clus>
<clus scale="   44.869">  2  5  1 -1</clus>
</clustering>
</event>
<event>
10    4  0.3043429E-005  0.1012521E+03  0.7546771E-02  0.1281989E+00
         21   -1    0    0  503  502  0.00000000000E+00  0.00000000000E+00  0.22955679454E+03  0.22955679454E+03  0.00000000000E+00 0. -1.
         -3   -1    0    0    0  501 -0.00000000000E+00 -0.00000000000E+00 -0.40707622217E+03  0.40707622217E+03  0.00000000000E+00 0.  1.
         24    2    1    2    0    0  0.13241409057E+02  0.27516332532E+02 -0.12297079704E+03  0.15028546886E+03  0.80817212013E+02 0.  0.
         23    2    1    2    0    0 -0.83047695631E+02 -0.11285250392E+02 -0.16967915647E+03  0.20951436603E+03  0.89894253474E+02 0.  0.
        -11    1    3    3    0    0  0.86406484554E+01  0.46571219717E+02 -0.12175671845E+03  0.13064546605E+03  0.00000000000E+00 0.  1.
         12    1    3    3    0    0  0.46007606013E+01 -0.19054887185E+02 -0.12140785892E+01  0.19640002815E+02  0.00000000000E+00 0. -1.
        -13    1    4    4    0    0 -0.61808177001E+01 -0.34512694660E+02 -0.21932928041E+02  0.41356764049E+02  0.00000000000E+00 0.  1.
         13    1    4    4    0    0 -0.76866877931E+02  0.23227444269E+02 -0.14774622842E+03  0.16815760198E+03  0.00000000000E+00 0. -1.
         21    1    1    2  503  501  0.45031544040E+02  0.83729071055E+01  0.18934982462E+03  0.19481093813E+03  0.00000000000E+00 0. -1.
         -4    1    1    2    0  502  0.24774742534E+02 -0.24603989246E+02 -0.74219298743E+02  0.82022243692E+02  0.00000000000E+00 0.  1.
<scales pt_clust_5="13000.00000" pt_clust_6="13000.00000" pt_clust_7="13000.00000" pt_clust_8="13000.00000" pt_clust_9="67.30437" pt_clust_10="34.91626"></scales>
<clustering>
<clus scale="   34.916">  1 10  2 -1</clus>
<clus scale="   67.304">  1  9  2 -1</clus>
<clus scale="   80.817">  5  6 -1 -1</clus>
<clus scale="   89.894">  7  8 -1 -1</clus>
<clus scale="   93.287">  2  5  1 -1</clus>
<clus scale="   34.916">  1  5  2 -1</clus>
</clustering>
</event>
<event>
10    4  0.3043429E-005  0.1450851E+03  0.7546771E-02  0.1209000E+00
         -1   -1    0    0    0  501 -0.00000000000E+00  0.00000000000E+00  0.29309722239E+03  0.29309722239E+03  0.00000000000E+00 0.  1.
         21   -1    0    0  503  502  0.00000000000E+00 -0.00000000000E+00 -0.18399071488E+03  0.18399071488E+03  0.00000000000E+00 0. -1.
         23    2    1    2    0    0 -0.81499599000E+02  0.62481645457E+02  0.12024255086E+03  0.18344301967E+03  0.92988869076E+02 0.  0.
         24    2    1    2    0    0  0.12548733802E+03 -0.49768104938E+02  0.98144577012E+01  0.15794611197E+03  0.81404633979E+02 0.  0.
        -13    1    4    4    0    0  0.26380142921E+02  0.16939871523E+02 -0.16775018400E+02  0.35556608810E+02  0.00000000000E+00 0.  1.
         14    1    4    4    0    0  0.99107195102E+02 -0.66707976461E+02  0.26589476101E+02  0.12238950316E+03  0.00000000000E+00 0. -1.
        -13    1    3    3    0    0 -0.48462505382E+02  0.77487225272E+02  0.11482253454E+03  0.14675523482E+03  0.00000000000E+00 0. -1.
         13    1    3    3    0    0 -0.33037093618E+02 -0.15005579815E+02  0.54200163181E+01  0.36687784850E+02  0.00000000000E+00 0.  1.
         21    1    1    2  503  501 -0.50181164516E+02  0.11033709088E+02 -0.66453372850E+02  0.83999659354E+02  0.00000000000E+00 0. -1.
         -2    1    1    2    0  502  0.61934254932E+01 -0.23747249606E+02  0.45502871803E+02  0.51699146275E+02  0.00000000000E+00 0.  1.
<scales pt_clust_5="13000.00000" pt_clust_6="13000.00000" pt_clust_7="13000.00000" pt_clust_8="13000.00000" pt_clust_9="47.61963" pt_clust_10="24.54162"></scales>
<clustering>
<clus scale="   24.542">  2 10  1 -1</clus>
<clus scale="   47.620">  2  9  1 -1</clus>
<clus scale="   81.405">  5  6 -1 -1</clus>
<clus scale="   92.989">  7  8 -1 -1</clus>
<clus scale="  137.947">  2  5  1 -1</clus>
<clus scale="   24.542">  2  5  1 -1</clus>
</clustering>
</event>
<event>
10    4  0.3043429E-005  0.3097106E+03  0.7546771E-02  0.1080485E+00
          2   -1    0    0  502    0 -0.00000000000E+00  0.00000000000E+00  0.73052641877E+03  0.73052641877E+03  0.00000000000E+00 0. -1.
         21   -1    0    0  503  502  0.00000000000E+00 -0.00000000000E+00 -0.71977051862E+03  0.71977051862E+03  0.00000000000E+00 0.  1.
         24    2    1    2    0    0  0.10423642090E+03  0.13132078603E+03 -0.56388626296E+03  0.59387215393E+03  0.81277533005E+02 0.  0.
         23    2    1    2    0    0  0.18077777495E+02  0.13903576929E+02 -0.72676320113E+02  0.11992695712E+03  0.92631053369E+02 0.  0.
        -13    1    3    3    0    0  0.50353433825E+02  0.11882993210E+03 -0.35298345232E+03  0.37583685114E+03  0.00000000000E+00 0.  1.
         14    1    3    3    0    0  0.53882987073E+02  0.12490853932E+02 -0.21090281063E+03  0.21803530279E+03  0.00000000000E+00 0. -1.
        -13    1    4    4    0    0  0.41910591617E+01  0.42953755039E+02 -0.31090878137E+01  0.43269579105E+02  0.00000000000E+00 0.  1.
         13    1    4    4    0    0  0.13886718333E+02 -0.29050178110E+02 -0.69567232300E+02  0.76657378015E+02  0.00000000000E+00 0. -1.
         21    1    1    2  503  501 -0.28884300443E+02 -0.79889116488E+01 -0.28034933961E+02  0.41037580869E+02  0.00000000000E+00 0. -1.
          1    1    1    2  501    0 -0.93429897951E+02 -0.13723545131E+03  0.67535341718E+03  0.69546024547E+03  0.00000000000E+00 0. -1.
<scales pt_clust_5="13000.00000" pt_clust_6="13000.00000" pt_clust_7="13000.00000" pt_clust_8="13000.00000" pt_clust_9="29.96874" pt_clust_10="166.35592"></scales>
<clustering>
<clus scale="   29.969">  2  9  1 -1</clus>
<clus scale="   81.278">  5  6 -1 -1</clus>
<clus scale="   92.631">  7  8 -1 -1</clus>
<clus scale="   92.764">  5  7 -1 -1</clus>
<clus scale="  166.356">  2 10  1 -1</clus>
<clus scale="   29.969">  2  5  1 -1</clus>
</clustering>
</event>
<event>
10    4  0.3043429E-005  0.1317702E+03  0.7546771E-02  0.1236388E+00
          2   -1    0    0  502    0 -0.00000000000E+00  0.00000000000E+00  0.12793608045E+04  0.12793608045E+04  0.00000000000E+00 0. -1.
         21   -1    0    0  503  502  0.00000000000E+00 -0.00000000000E+00 -0.61185848033E+02  0.61185848033E+02  0.00000000000E+00 0.  1.
         23    2    1    2    0    0 -0.16051770137E+02  0.45877100315E+02  0.25013305333E+03  0.27200157871E+03  0.95162738465E+02 0.  0.
         24    2    1    2    0    0  0.95856190361E+02  0.59578041538E+02  0.14270414135E+03  0.19909440323E+03  0.80846503790E+02 0.  0.
        -11    1    4    4    0    0  0.67620958481E+02  0.37209234924E+02  0.33566210990E+02  0.84165383085E+02  0.00000000000E+00 0.  1.
         12    1    4    4    0    0  0.28235231880E+02  0.22368806614E+02  0.10913793036E+03  0.11492902014E+03  0.00000000000E+00 0. -1.
        -11    1    3    3    0    0 -0.49336572725E+02  0.42940353357E+02  0.11032423952E+03  0.12825525011E+03  0.00000000000E+00 0. -1.
         11    1    3    3    0    0  0.33284802589E+02  0.29367469576E+01  0.13980881381E+03  0.14374632860E+03  0.00000000000E+00 0.  1.
         21    1    1    2  503  501 -0.20670785186E+00 -0.29320562402E+02 -0.67632379724E+01  0.30091186344E+02  0.00000000000E+00 0.  1.
          1    1    1    2  501    0 -0.79597712373E+02 -0.76134579451E+02  0.83210099980E+03  0.83935948429E+03  0.00000000000E+00 0. -1.
<scales pt_clust_5="13000.00000" pt_clust_6="13000.00000" pt_clust_7="13000.00000" pt_clust_8="13000.00000" pt_clust_9="29.32129" pt_clust_10="104.05398"></scales>
<clustering>
<clus scale="   29.321">  2  9  1 -1</clus>
<clus scale="   80.847">  5  6 -1 -1</clus>
<clus scale="   95.163">  7  8 -1 -1</clus>
<clus scale="  103.867">  1  7  2 -1</clus>
<clus scale="  104.054">  2 10  1 -1</clus>
<clus scale="   29.321">  2  5  1 -1</clus>
</clustering>
</event>
<event>
10    4  0.3043429E-005  0.1767122E+03  0.7546771E-02  0.1184055E+00
         21   -1    0    0  503  502  0.00000000000E+00  0.00000000000E+00  0.29905512606E+03  0.29905512606E+03  0.00000000000E+00 0. -1.
          2   -1    0    0  502    0 -0.00000000000E+00 -0.00000000000E+00 -0.27752257509E+03  0.27752257509E+03  0.00000000000E+00 0. -1.
         24    2    1    2    0    0  0.58690505437E-01  0.10852937849E+03 -0.66598572766E+02  0.15023573650E+03  0.79729399772E+02 0.  0.
         23    2    1    2    0    0  0.11643072537E+03  0.18122613935E+02 -0.66631668755E+02  0.16333180713E+03  0.91394512936E+02 0.  0.
        -13    1    3    3    0    0  0.36965717470E+02  0.51121335080E+02 -0.48652364881E+02  0.79667482556E+02  0.00000000000E+00 0.  1.
         14    1    3    3    0    0 -0.36907026964E+02  0.57408043409E+02 -0.17946207885E+02  0.70568253945E+02  0.00000000000E+00 0. -1.
        -11    1    4    4    0    0  0.73916156004E+02  0.28079075328E+02 -0.84883920718E+02  0.11600565756E+03  0.00000000000E+00 0. -1.
         11    1    4    4    0    0  0.42514569364E+02 -0.99564613933E+01  0.18252251963E+02  0.47326149573E+02  0.00000000000E+00 0.  1.
         21    1    1    2  503  501  0.22106751676E+02 -0.21986407672E+02  0.53626997817E+02  0.62031971489E+02  0.00000000000E+00 0. -1.
          1    1    1    2  501    0 -0.13859616755E+03 -0.10466558475E+03  0.10113579468E+03  0.20097818602E+03  0.00000000000E+00 0. -1.
<scales pt_clust_5="13000.00000" pt_clust_6="13000.00000" pt_clust_7="13000.00000" pt_clust_8="13000.00000" pt_clust_9="31.17869" pt_clust_10="151.24238"></scales>
<clustering>
<clus scale="   31.179">  1  9  2 -1</clus>
<clus scale="   79.729">  5  6 -1 -1</clus>
<clus scale="   91.395">  7  8 -1 -1</clus>
<clus scale="  131.673">  2  5  1 -1</clus>
<clus scale="  151.242">  1 10  2 -1</clus>
<clus scale="   31.179">  1  5  2 -1</clus>
</clustering>
</event>
<event>
10    4  0.3043429E-005  0.9345302E+02  0.7546771E-02  0.1302486E+00
          4   -1    0    0  503    0 -0.00000000000E+00  0.00000000000E+00  0.17699318007E+03  0.17699318007E+03  0.00000000000E+00 0. -1.
         21   -1    0    0  501  502  0.00000000000E+00 -0.00000000000E+00 -0.16764216320E+03  0.16764216320E+03  0.00000000000E+00 0.  1.
         24    2    1    2    0    0 -0.49371231843E+01  0.75098592684E+01  0.65943854389E+02  0.10408871072E+03  0.80031834889E+02 0.  0.
         23    2    1    2    0    0  0.34958481917E+02  0.42773027771E+01 -0.46510530877E+02  0.10951124063E+03  0.92677351950E+02 0.  0.
        -13    1    3    3    0    0  0.34056193988E+02  0.16901580673E+02  0.19517860798E+02  0.42736806950E+02  0.00000000000E+00 0.  1.
         14    1    3    3    0    0 -0.38993317172E+02 -0.93917214043E+01  0.46425993591E+02  0.61351903768E+02  0.00000000000E+00 0. -1.
        -13    1    4    4    0    0  0.23376631032E+02 -0.43677601249E+02 -0.27343155015E+02  0.56584873026E+02  0.00000000000E+00 0. -1.
         13    1    4    4    0    0  0.11581850885E+02  0.47954904026E+02 -0.19167375863E+02  0.52926367602E+02  0.00000000000E+00 0.  1.
         21    1    1    2  503  502 -0.10558289288E+02  0.30966669150E+02 -0.56312503839E+02  0.65126877398E+02  0.00000000000E+00 0.  1.
          3    1    1    2  501    0 -0.19463069445E+02 -0.42753831196E+02  0.46230197192E+02  0.65908514523E+02  0.00000000000E+00 0. -1.
<scales pt_clust_5="13000.00000" pt_clust_6="13000.00000" pt_clust_7="13000.00000" pt_clust_8="13000.00000" pt_clust_9="32.71715" pt_clust_10="44.83219"></scales>
<clustering>
<clus scale="   32.717">  2  9  1 -1</clus>
<clus scale="   44.832">  2 10  1 -1</clus>
<clus scale="   80.032">  5  6 -1 -1</clus>
<clus scale="   80.929">  1  5  2 -1</clus>
<clus scale="   92.677">  7  8 -1 -1</clus>
<clus scale="   32.717">  2  5  1 -1</clus>
</clustering>
</event>
<event>
10    4  0.3043429E-005  0.2736152E+03  0.7546771E-02  0.1117584E+00
         21   -1    0    0  501  502  0.00000000000E+00  0.00000000000E+00  0.50941942633E+03  0.50941942633E+03  0.00000000000E+00 0. -1.
          2   -1    0    0  503    0 -0.00000000000E+00 -0.00000000000E+00 -0.87173631223E+03  0.87173631223E+03  0.00000000000E+00 0. -1.
         24    2    1    2    0    0 -0.12343349739E+02 -0.15066820119E+03 -0.55602200756E+03  0.58177853357E+03  0.80327604806E+02 0.  0.
         23    2    1    2    0    0 -0.71982967402E+01  0.19084829723E+03  0.66602890552E+01  0.21681833293E+03  0.10242529966E+03 0.  0.
        -13    1    3    3    0    0 -0.25834545174E+02 -0.43425659163E+02 -0.29444821428E+03  0.29875234307E+03  0.00000000000E+00 0.  1.
         14    1    3    3    0    0  0.13491195436E+02 -0.10724254203E+03 -0.26157379329E+03  0.28302619050E+03  0.00000000000E+00 0. -1.
        -13    1    4    4    0    0 -0.15014789811E+02  0.24500912921E+02  0.37716882236E+02  0.47416261479E+02  0.00000000000E+00 0.  1.
         13    1    4    4    0    0  0.78164930705E+01  0.16634738431E+03 -0.31056593181E+02  0.16940207145E+03  0.00000000000E+00 0. -1.
         21    1    1    2  503  502  0.24114654572E+03 -0.16963110159E+03  0.91466125539E+02  0.30869470235E+03  0.00000000000E+00 0. -1.
          1    1    1    2  501    0 -0.22160489924E+03  0.12945100554E+03  0.95578707075E+02  0.27386416971E+03  0.00000000000E+00 0. -1.
<scales pt_clust_5="13000.00000" pt_clust_6="13000.00000" pt_clust_7="13000.00000" pt_clust_8="13000.00000" pt_clust_9="273.61521" pt_clust_10="13000.00000"></scales>
<clustering>
<clus scale="   80.328">  5  6 -1 -1</clus>
<clus scale="  102.425">  7  8 -1 -1</clus>
<clus scale="  171.189">  2  5  1 -1</clus>
<clus scale="  172.697">  2  7  1 -1</clus>
<clus scale="  273.615">  2  9  1 -1</clus>
<clus scale="  273.615">  1  5  2 -1</clus>
</clustering>
</event>
<event>
10    4  0.3043429E-005  0.2516141E+03  0.7546771E-02  0.1143141E+00
          2   -1    0    0  502    0 -0.00000000000E+00  0.00000000000E+00  0.95872244574E+03  0.95872244574E+03  0.00000000000E+00 0. -1.
         21   -1    0    0  503  502  0.00000000000E+00 -0.00000000000E+00 -0.12756714837E+03  0.12756714837E+03  0.00000000000E+00 0. -1.
         24    2    1    2    0    0 -0.86400842542E+02  0.31142431833E+02  0.11664628389E+03  0.16850899372E+03  0.79711785616E+02 0.  0.
         23    2    1    2    0    0  0.26070624975E+03 -0.11264323166E+03  0.52092165745E+03  0.60194798931E+03  0.10161575828E+03 0.  0.
        -11    1    3    3    0    0 -0.39771641047E+02  0.54988839014E+02  0.53149129350E+02  0.86199685605E+02  0.00000000000E+00 0.  1.
         12    1    3    3    0    0 -0.46629201495E+02 -0.23846407181E+02  0.63497154537E+02  0.82309308111E+02  0.00000000000E+00 0. -1.
        -11    1    4    4    0    0  0.67579327695E+02 -0.36218561794E+02  0.24418415526E+03  0.25593876500E+03  0.00000000000E+00 0.  1.
         11    1    4    4    0    0  0.19312692205E+03 -0.76424669863E+02  0.27673750220E+03  0.34600922431E+03  0.00000000000E+00 0. -1.
         21    1    1    2  503  501  0.22539257842E+02 -0.83002733101E+01 -0.20912132995E+01  0.24109870472E+02  0.00000000000E+00 0.  1.
          1    1    1    2  501    0 -0.19684466505E+03  0.89801073134E+02  0.19567856933E+03  0.29172274061E+03  0.00000000000E+00 0. -1.
<scales pt_clust_5="13000.00000" pt_clust_6="13000.00000" pt_clust_7="13000.00000" pt_clust_8="13000.00000" pt_clust_9="24.01901" pt_clust_10="230.18230"></scales>
<clustering>
<clus scale="   24.019">  2  9  1 -1</clus>
<clus scale="   79.712">  5  6 -1 -1</clus>
<clus scale="  101.616">  7  8 -1 -1</clus>
<clus scale="  117.555">  1  5  2 -1</clus>
<clus scale="  230.182">  2 10  1 -1</clus>
<clus scale="   24.019">  2  5  1 -1</clus>
</clustering>
</event>
<event>
10    4  0.3043429E-005  0.8279386E+02  0.7546771E-02  0.1323633E+00
          4   -1    0    0  503    0 -0.00000000000E+00  0.00000000000E+00  0.38952279529E+02  0.38952279529E+02  0.00000000000E+00 0. -1.
         21   -1    0    0  501  502  0.00000000000E+00 -0.00000000000E+00 -0.43206603046E+03  0.43206603046E+03  0.00000000000E+00 0. -1.
         23    2    1    2    0    0 -0.23802442763E+02 -0.33761585762E+02 -0.70409204886E+02  0.11285302123E+03  0.77922700891E+02 0.  0.
         24    2    1    2    0    0  0.19066777234E+02 -0.17964310513E+02 -0.26071024327E+03  0.27236509515E+03  0.74341480096E+02 0.  0.
        -13    1    4    4    0    0  0.22757319791E+02  0.80733241579E+01 -0.23476407695E+02  0.33678121760E+02  0.00000000000E+00 0.  1.
         14    1    4    4    0    0 -0.36905425571E+01 -0.26037634671E+02 -0.23723383557E+03  0.23868697339E+03  0.00000000000E+00 0. -1.
        -11    1    3    3    0    0 -0.50043039807E+02 -0.10193453933E+02 -0.30057492881E+02  0.59259304877E+02  0.00000000000E+00 0. -1.
         11    1    3    3    0    0  0.26240597044E+02 -0.23568131829E+02 -0.40351712005E+02  0.53593716357E+02  0.00000000000E+00 0.  1.
         21    1    1    2  503  502 -0.96855319020E+01  0.24231194370E+02 -0.17037610925E+02  0.31164731586E+02  0.00000000000E+00 0.  1.
          3    1    1    2  501    0  0.14421197431E+02  0.27494701904E+02 -0.44956691848E+02  0.54635462019E+02  0.00000000000E+00 0. -1.
<scales pt_clust_5="13000.00000" pt_clust_6="13000.00000" pt_clust_7="13000.00000" pt_clust_8="13000.00000" pt_clust_9="26.09522" pt_clust_10="33.75546"></scales>
<clustering>
<clus scale="   26.095">  1  9  2 -1</clus>
<clus scale="   33.755">  2 10  1 -1</clus>
<clus scale="   74.341">  5  6 -1 -1</clus>
<clus scale="   77.923">  7  8 -1 -1</clus>
<clus scale="   79.433">  2  5  1 -1</clus>
<clus scale="   33.755">  2  5  1 -1</clus>
</clustering>
</event>
<event>
10    4  0.3043429E-005  0.1839079E+03  0.7546771E-02  0.1165173E+00
         21   -1    0    0  503  502  0.00000000000E+00  0.00000000000E+00  0.15177916724E+03  0.15177916724E+03  0.00000000000E+00 0.  1.
          2   -1    0    0  502    0 -0.00000000000E+00 -0.00000000000E+00 -0.19789419103E+04  0.19789419103E+04  0.00000000000E+00 0. -1.
         24    2    1    2    0    0  0.10324254455E+03  0.12708667048E+03 -0.91812930339E+03  0.93618254439E+03  0.81647375038E+02 0.  0.
         23    2    1    2    0    0  0.28772349787E+02 -0.15783395328E+03  0.39256058331E+02  0.18873339202E+03  0.91322780438E+02 0.  0.
        -13    1    3    3    0    0  0.95649632614E+02  0.13891029519E+03 -0.83314992133E+03  0.85004924195E+03  0.00000000000E+00 0.  1.
         14    1    3    3    0    0  0.75929119364E+01 -0.11823624713E+02 -0.84979382061E+02  0.86133302435E+02  0.00000000000E+00 0. -1.
        -13    1    4    4    0    0 -0.95041322881E+01 -0.13673981661E+03  0.45849457946E+02  0.14453469747E+03  0.00000000000E+00 0.  1.
         13    1    4    4    0    0  0.38276482075E+02 -0.21094136672E+02 -0.65933996151E+01  0.44198694556E+02  0.00000000000E+00 0. -1.
         21    1    1    2  503  501  0.53421695948E+02  0.32539294227E+01 -0.17475614271E+02  0.56301534160E+02  0.00000000000E+00 0.  1.
          1    1    1    2  501    0 -0.18543659029E+03  0.27493353384E+02 -0.93081388373E+03  0.94950360697E+03  0.00000000000E+00 0. -1.
<scales pt_clust_5="13000.00000" pt_clust_6="13000.00000" pt_clust_7="13000.00000" pt_clust_8="13000.00000" pt_clust_9="53.52070" pt_clust_10="183.76836"></scales>
<clustering>
<clus scale="   53.521">  1  9  2 -1</clus>
<clus scale="   81.647">  5  6 -1 -1</clus>
<clus scale="   91.323">  7  8 -1 -1</clus>
<clus scale="  183.768">  1 10  2 -1</clus>
<clus scale="  179.300">  2  5  1 -1</clus>
<clus scale="   53.521">  1  5  2 -1</clus>
</clustering>
</event>
<event>
10    4  0.3043429E-005  0.1266904E+03  0.7546771E-02  0.1248258E+00
          2   -1    0    0  502    0 -0.00000000000E+00  0.00000000000E+00  0.74186153405E+03  0.74186153405E+03  0.00000000000E+00 0. -1.
         21   -1    0    0  503  502  0.00000000000E+00 -0.00000000000E+00 -0.74468300988E+02  0.74468300988E+02  0.00000000000E+00 0.  1.
         23    2    1    2    0    0 -0.38110923209E+01  0.31614510253E+01  0.60978943862E+02  0.10956637772E+03  0.90894666154E+02 0.  0.
         24    2    1    2    0    0 -0.82127034546E+02  0.27244107436E+02  0.15903175498E+03  0.19817268013E+03  0.80586728824E+02 0.  0.
        -11    1    4    4    0    0 -0.76437860970E+02  0.29161431427E+01  0.63463210588E+02  0.99392301405E+02  0.00000000000E+00 0.  1.
         12    1    4    4    0    0 -0.56891735757E+01  0.24327964293E+02  0.95568544395E+02  0.98780378722E+02  0.00000000000E+00 0. -1.
        -13    1    3    3    0    0  0.25940425823E+02  0.32691272318E+02  0.88270011213E+01  0.42656077251E+02  0.00000000000E+00 0.  1.
         13    1    3    3    0    0 -0.29751518144E+02 -0.29529821293E+02  0.52151942741E+02  0.66910300471E+02  0.00000000000E+00 0. -1.
         21    1    1    2  503  501 -0.20182012528E+02 -0.32889409082E+01 -0.19965779462E+02  0.28579067716E+02  0.00000000000E+00 0.  1.
          1    1    1    2  501    0  0.10612013939E+03 -0.27116617553E+02  0.46734831368E+03  0.48001170948E+03  0.00000000000E+00 0. -1.
<scales pt_clust_5="13000.00000" pt_clust_6="13000.00000" pt_clust_7="13000.00000" pt_clust_8="13000.00000" pt_clust_9="20.44825" pt_clust_10="97.75602"></scales>
<clustering>
<clus scale="   20.448">  2  9  1 -1</clus>
<clus scale="   80.587">  5  6 -1 -1</clus>
<clus scale="   90.895">  7  8 -1 -1</clus>
<clus scale="   91.917">  1  7  2 -1</clus>
<clus scale="   97.756">  2 10  1 -1</clus>
<clus scale="   20.448">  2  5  1 -1</clus>
</clustering>
</event>
<event>
10    4  0.3043429E-005  0.1064799E+03  0.7546771E-02  0.1272814E+00
          2   -1    0    0  503    0 -0.00000000000E+00  0.00000000000E+00  0.69556801167E+03  0.69556801167E+03  0.00000000000E+00 0. -1.
         21   -1    0    0  501  502  0.00000000000E+00 -0.00000000000E+00 -0.13642367478E+03  0.13642367478E+03  0.00000000000E+00 0.  1.
         24    2    1    2    0    0 -0.58604388567E+02  0.22787355398E+01  0.62106810191E+03  0.62860386251E+03  0.77314693027E+02 0.  0.
         23    2    1    2    0    0  0.79543335201E+01 -0.31495843274E+02 -0.39550244391E+02  0.10391769230E+03  0.90440065101E+02 0.  0.
        -11    1    3    3    0    0  0.27154573458E+01  0.22527249371E+02  0.65989568658E+02  0.69781615376E+02  0.00000000000E+00 0.  1.
         12    1    3    3    0    0 -0.61319845913E+02 -0.20248513831E+02  0.55507853326E+03  0.55882224714E+03  0.00000000000E+00 0. -1.
        -13    1    4    4    0    0  0.45648917196E+02 -0.58157105302E+00 -0.28858115316E+02  0.54008820443E+02  0.00000000000E+00 0.  1.
         13    1    4    4    0    0 -0.37694583676E+02 -0.30914272221E+02 -0.10692129075E+02  0.49908871853E+02  0.00000000000E+00 0. -1.
         21    1    1    2  503  502 -0.11452335686E+02  0.32229489409E+02 -0.13005782648E+02  0.36592982421E+02  0.00000000000E+00 0.  1.
          1    1    1    2  501    0  0.62102390733E+02 -0.30123816749E+01 -0.93677379839E+01  0.62877149213E+02  0.00000000000E+00 0. -1.
<scales pt_clust_5="13000.00000" pt_clust_6="13000.00000" pt_clust_7="13000.00000" pt_clust_8="13000.00000" pt_clust_9="34.20374" pt_clust_10="58.86551"></scales>
<clustering>
<clus scale="   34.204">  2  9  1 -1</clus>
<clus scale="   58.866">  2 10  1 -1</clus>
<clus scale="   77.315">  5  6 -1 -1</clus>
<clus scale="   90.440">  7  8 -1 -1</clus>
<clus scale="   95.583">  1  5  2 -1</clus>
<clus scale="   34.204">  2  5  1 -1</clus>
</clustering>
</event>
<event>
10    4  0.3043429E-005  0.2025057E+03  0.7546771E-02  0.1148511E+00
          2   -1    0    0  502    0 -0.00000000000E+00  0.00000000000E+00  0.47716162070E+03  0.47716162070E+03  0.00000000000E+00 0. -1.
         21   -1    0    0  503  502  0.00000000000E+00 -0.00000000000E+00 -0.13341670677E+03  0.13341670677E+03  0.00000000000E+00 0. -1.
         24    2    1    2    0    0  0.93068798519E+02 -0.17991696242E+03  0.22882795281E+03  0.31603985075E+03  0.80542166873E+02 0.  0.
         23    2    1    2    0    0 -0.11914297156E+03  0.10492418171E+03  0.77660477303E+02  0.19845175149E+03  0.90265255538E+02 0.  0.
        -13    1    3    3    0    0  0.45312677814E+02 -0.53141162559E+02  0.31326607790E+02  0.76541350160E+02  0.00000000000E+00 0.  1.
         14    1    3    3    0    0  0.47756120705E+02 -0.12677579987E+03  0.19750134502E+03  0.23949850059E+03  0.00000000000E+00 0. -1.
        -11    1    4    4    0    0 -0.52463497761E+02  0.52301451077E+02  0.85522501800E+02  0.11314574095E+03  0.00000000000E+00 0.  1.
         11    1    4    4    0    0 -0.66679473795E+02  0.52622730631E+02 -0.78620244974E+01  0.85306010538E+02  0.00000000000E+00 0. -1.
         21    1    1    2  503  501 -0.79475219035E+01  0.24604525435E+02  0.23072802714E+01  0.25958993018E+02  0.00000000000E+00 0. -1.
          1    1    1    2  501    0  0.34021694940E+02  0.50388255281E+02  0.34949203542E+02  0.70127732211E+02  0.00000000000E+00 0. -1.
<scales pt_clust_5="13000.00000" pt_clust_6="13000.00000" pt_clust_7="13000.00000" pt_clust_8="13000.00000" pt_clust_9="25.59849" pt_clust_10="88.56982"></scales>
<clustering>
<clus scale="   25.598">  9 10 -1 -1</clus>
<clus scale="   80.542">  5  6 -1 -1</clus>
<clus scale="   88.570">  2  9  1 -1</clus>
<clus scale="   90.265">  7  8 -1 -1</clus>
<clus scale="  198.363">  1  5  2 -1</clus>
<clus scale="   88.570">  2  5  1 -1</clus>
</clustering>
</event>
<event>
10    4  0.3043429E-005  0.1627167E+03  0.7546771E-02  0.1195468E+00
          2   -1    0    0  502    0 -0.00000000000E+00  0.00000000000E+00  0.15818717126E+04  0.15818717126E+04  0.00000000000E+00 0. -1.
         21   -1    0    0  503  502  0.00000000000E+00 -0.00000000000E+00 -0.52219419426E+02  0.52219419426E+02  0.00000000000E+00 0. -1.
         23    2    1    2    0    0  0.73588249828E+02 -0.33374789442E+02  0.85742338680E+02  0.14904493302E+03  0.91288204792E+02 0.  0.
         24    2    1    2    0    0  0.33755429387E+01  0.15429307648E+03  0.72901552502E+03  0.74954677977E+03  0.80864031532E+02 0.  0.
        -13    1    4    4    0    0 -0.18058471179E+02  0.10176150078E+03  0.31159065965E+03  0.32828379582E+03  0.00000000000E+00 0.  1.
         14    1    4    4    0    0  0.21434014117E+02  0.52531575709E+02  0.41742486538E+03  0.42126298395E+03  0.00000000000E+00 0. -1.
        -11    1    3    3    0    0  0.50071169721E+02 -0.51176771380E+01  0.98101740273E+02  0.11025998413E+03  0.00000000000E+00 0.  1.
         11    1    3    3    0    0  0.23517080107E+02 -0.28257112304E+02 -0.12359401593E+02  0.38784948889E+02  0.00000000000E+00 0. -1.
         21    1    1    2  503  501  0.18208405949E+02 -0.10140321864E+02  0.41378210752E+02  0.46330643205E+02  0.00000000000E+00 0.  1.
          1    1    1    2  501    0 -0.95172198716E+02 -0.11077796518E+03  0.67351621872E+03  0.68916877603E+03  0.00000000000E+00 0. -1.
<scales pt_clust_5="13000.00000" pt_clust_6="13000.00000" pt_clust_7="13000.00000" pt_clust_8="13000.00000" pt_clust_9="20.84160" pt_clust_10="141.20114"></scales>
<clustering>
<clus scale="   20.842">  2  9  1 -1</clus>
<clus scale="   80.864">  5  6 -1 -1</clus>
<clus scale="   91.288">  7  8 -1 -1</clus>
<clus scale="  131.051">  1  7  2 -1</clus>
<clus scale="  141.201">  2 10  1 -1</clus>
<clus scale="   20.842">  2  5  1 -1</clus>
</clustering>
</event>
<event>
10    4  0.3043429E-005  0.2833468E+03  0.7546771E-02  0.1124479E+00
          2   -1    0    0  503    0 -0.00000000000E+00  0.00000000000E+00  0.56136727449E+03  0.56136727449E+03  0.00000000000E+00 0. -1.
         21   -1    0    0  501  502  0.00000000000E+00 -0.00000000000E+00 -0.58625129185E+03  0.58625129185E+03  0.00000000000E+00 0. -1.
         23    2    1    2    0    0 -0.67790671594E+02  0.67932202035E+02  0.23025732666E+03  0.26431008445E+03  0.87355738398E+02 0.  0.
         24    2    1    2    0    0  0.14806392072E+03 -0.19353894927E+03 -0.89691579140E+02  0.27164587153E+03  0.79791294319E+02 0.  0.
        -11    1    4    4    0    0  0.99469813889E+02 -0.66829868764E+02 -0.53228483103E+02  0.13112492764E+03  0.00000000000E+00 0.  1.
         12    1    4    4    0    0  0.48594106831E+02 -0.12670908050E+03 -0.36463096038E+02  0.14052094390E+03  0.00000000000E+00 0. -1.
        -13    1    3    3    0    0  0.26733354319E+01  0.50682263009E+02  0.56117492249E+02  0.75663805365E+02  0.00000000000E+00 0.  1.
         13    1    3    3    0    0 -0.70464007026E+02  0.17249939027E+02  0.17413983442E+03  0.18864627909E+03  0.00000000000E+00 0. -1.
         21    1    1    2  503  502 -0.14777889377E+03  0.33035499169E+03 -0.16081474680E+03  0.39602323766E+03  0.00000000000E+00 0. -1.
          1    1    1    2  501    0  0.67505644649E+02 -0.20474824445E+03 -0.46350180837E+01  0.21563937270E+03  0.00000000000E+00 0. -1.
<scales pt_clust_5="13000.00000" pt_clust_6="13000.00000" pt_clust_7="13000.00000" pt_clust_8="13000.00000" pt_clust_9="271.88007" pt_clust_10="187.34872"></scales>
<clustering>
<clus scale="   79.791">  5  6 -1 -1</clus>
<clus scale="   87.356">  7  8 -1 -1</clus>
<clus scale="  129.774">  1  7  2 -1</clus>
<clus scale="  187.349">  2 10  1 -1</clus>
<clus scale="  271.880">  2  9  1 -1</clus>
<clus scale="  187.349">  2  5  1 -1</clus>
</clustering>
</event>
<event>
10    4  0.3043429E-005  0.9825906E+02  0.7546771E-02  0.1292728E+00
          2   -1    0    0  502    0 -0.00000000000E+00  0.00000000000E+00  0.19256156371E+03  0.19256156371E+03  0.00000000000E+00 0. -1.
         21   -1    0    0  503  502  0.00000000000E+00 -0.00000000000E+00 -0.11717883759E+03  0.11717883759E+03  0.00000000000E+00 0. -1.
         24    2    1    2    0    0 -0.48082497787E+00  0.28698751032E+02  0.22473230657E+02  0.87847106135E+02  0.79926331435E+02 0.  0.
         23    2    1    2    0    0  0.26841370155E+02 -0.77501504723E+01 -0.39026296380E+02  0.10672550656E+03  0.95324487705E+02 0.  0.
        -13    1    3    3    0    0  0.33170114579E+02  0.32411371720E+02  0.27042967873E+02  0.53684966511E+02  0.00000000000E+00 0.  1.
         14    1    3    3    0    0 -0.33650939557E+02 -0.37126206873E+01 -0.45697372160E+01  0.34162139624E+02  0.00000000000E+00 0. -1.
        -13    1    4    4    0    0  0.17962875477E+02  0.21099387102E+02 -0.62578628673E+02  0.68439270876E+02  0.00000000000E+00 0. -1.
         13    1    4    4    0    0  0.88784946783E+01 -0.28849537575E+02  0.23552332293E+02  0.38286235679E+02  0.00000000000E+00 0.  1.
         21    1    1    2  503  501 -0.63950061108E+00 -0.21382918162E+02  0.18400679827E+01  0.21471469450E+02  0.00000000000E+00 0. -1.
          1    1    1    2  501    0 -0.25721044566E+02  0.43431760241E+00  0.90095723866E+02  0.93696319161E+02  0.00000000000E+00 0. -1.
<scales pt_clust_5="13000.00000" pt_clust_6="13000.00000" pt_clust_7="13000.00000" pt_clust_8="13000.00000" pt_clust_9="21.39248" pt_clust_10="25.73189"></scales>
<clustering>
<clus scale="   21.392">  2  9  1 -1</clus>
<clus scale="   25.732">  2 10  1 -1</clus>
<clus scale="   79.926">  5  6 -1 -1</clus>
<clus scale="   83.404">  1  5  2 -1</clus>
<clus scale="   95.324">  7  8 -1 -1</clus>
<clus scale="   21.392">  2  5  1 -1</clus>
</clustering>
</event>
<event>
10    4  0.3043429E-005  0.9234832E+02  0.7546771E-02  0.1303236E+00
          2   -1    0    0  503    0 -0.00000000000E+00  0.00000000000E+00  0.60044279844E+03  0.60044279844E+03  0.00000000000E+00 0. -1.
         21   -1    0    0  501  502  0.00000000000E+00 -0.00000000000E+00 -0.71098502369E+02  0.71098502369E+02  0.00000000000E+00 0.  1.
         24    2    1    2    0    0 -0.67281185520E+01 -0.15210226407E+02  0.15560794429E+03  0.17627096077E+03  0.81123367288E+02 0.  0.
         23    2    1    2    0    0 -0.38156852906E+02  0.20736134157E+02  0.75351156612E+00  0.10076092219E+03  0.90918991288E+02 0.  0.
        -13    1    3    3    0    0  0.27833034794E+02  0.64086861969E+01  0.20526476946E+02  0.35172223990E+02  0.00000000000E+00 0.  1.
         14    1    3    3    0    0 -0.34561153346E+02 -0.21618912604E+02  0.13508146734E+03  0.14109873678E+03  0.00000000000E+00 0. -1.
        -13    1    4    4    0    0 -0.43091733606E+02  0.52089906338E+02  0.83707397389E+01  0.68119931968E+02  0.00000000000E+00 0. -1.
         13    1    4    4    0    0  0.49348806995E+01 -0.31353772181E+02 -0.76172281728E+01  0.32640990220E+02  0.00000000000E+00 0.  1.
         21    1    1    2  503  502 -0.16049703651E+02  0.22285833547E+02  0.17043034366E+02  0.32322072715E+02  0.00000000000E+00 0.  1.
          1    1    1    2  501    0  0.60934675109E+02 -0.27811741298E+02  0.35593980585E+03  0.36218734514E+03  0.00000000000E+00 0. -1.
<scales pt_clust_5="13000.00000" pt_clust_6="13000.00000" pt_clust_7="13000.00000" pt_clust_8="13000.00000" pt_clust_9="27.46364" pt_clust_10="65.81077"></scales>
<clustering>
<clus scale="   27.464">  2  9  1 -1</clus>
<clus scale="   65.811">  2 10  1 -1</clus>
<clus scale="   81.123">  5  6 -1 -1</clus>
<clus scale="   82.722">  1  5  2 -1</clus>
<clus scale="   90.919">  7  8 -1 -1</clus>
<clus scale="   27.464">  2  5  1 -1</clus>
</clustering>
</event>
<event>
10    4  0.3043429E-005  0.1279989E+03  0.7546771E-02  0.1250694E+00
         21   -1    0    0  501  502  0.00000000000E+00  0.00000000000E+00  0.31398929027E+03  0.31398929027E+03  0.00000000000E+00 0. -1.
          2   -1    0    0  503    0 -0.00000000000E+00 -0.00000000000E+00 -0.56824168315E+03  0.56824168315E+03  0.00000000000E+00 0. -1.
         24    2    1    2    0    0 -0.26275902558E+02 -0.78350160966E+01 -0.29344024279E+03  0.30547265818E+03  0.80340265597E+02 0.  0.
         23    2    1    2    0    0 -0.51756559857E+02  0.60921681959E+02 -0.14856809370E+03  0.19130310230E+03  0.90189831250E+02 0.  0.
        -11    1    3    3    0    0 -0.19365804032E+02 -0.19571103785E+02 -0.26594623994E+02  0.38279713878E+02  0.00000000000E+00 0.  1.
         12    1    3    3    0    0 -0.69100985255E+01  0.11736087688E+02 -0.26684561880E+03  0.26719294431E+03  0.00000000000E+00 0. -1.
        -13    1    4    4    0    0 -0.42640390073E+02 -0.53703215870E+00 -0.17197338820E+02  0.45980862667E+02  0.00000000000E+00 0.  1.
         13    1    4    4    0    0 -0.91161697842E+01  0.61458714118E+02 -0.13137075488E+03  0.14532223963E+03  0.00000000000E+00 0. -1.
         21    1    1    2  503  502  0.15596050750E+03  0.23393993099E+02  0.22083596205E+03  0.27136595392E+03  0.00000000000E+00 0. -1.
          1    1    1    2  501    0 -0.77928045083E+02 -0.76480658961E+02 -0.33080018437E+02  0.11408925903E+03  0.00000000000E+00 0. -1.
<scales pt_clust_5="13000.00000" pt_clust_6="13000.00000" pt_clust_7="13000.00000" pt_clust_8="13000.00000" pt_clust_9="90.82686" pt_clust_10="115.87786"></scales>
<clustering>
<clus scale="   80.340">  5  6 -1 -1</clus>
<clus scale="   84.890">  2  5  1 -1</clus>
<clus scale="   90.190">  7  8 -1 -1</clus>
<clus scale="  115.878">  1 10  2 -1</clus>
<clus scale="   90.827">  1  9  2 -1</clus>
<clus scale="  115.878">  1  5  2 -1</clus>
</clustering>
</event>
<event>
10    4  0.3043429E-005  0.1052799E+03  0.7546771E-02  0.1272988E+00
          2   -1    0    0  503    0 -0.00000000000E+00  0.00000000000E+00  0.23363604565E+03  0.23363604565E+03  0.00000000000E+00 0. -1.
         21   -1    0    0  501  502  0.00000000000E+00 -0.00000000000E+00 -0.63738800855E+03  0.63738800855E+03  0.00000000000E+00 0. -1.
         24    2    1    2    0    0  0.49416148325E+02 -0.15370848662E+01  0.12760000548E+03  0.15962244232E+03  0.82178125730E+02 0.  0.
         23    2    1    2    0    0 -0.66536203791E+02 -0.15404619307E+02  0.39847747282E+02  0.11989917723E+03  0.90131021446E+02 0.  0.
        -13    1    3    3    0    0  0.14872276791E+02  0.39162987770E+02  0.65264271831E+02  0.77552236626E+02  0.00000000000E+00 0.  1.
         14    1    3    3    0    0  0.34543871534E+02 -0.40700072636E+02  0.62335733646E+02  0.82070205692E+02  0.00000000000E+00 0. -1.
        -13    1    4    4    0    0 -0.26330800352E+02  0.33742912387E+02  0.36604722241E+02  0.56318743540E+02  0.00000000000E+00 0. -1.
         13    1    4    4    0    0 -0.40205403439E+02 -0.49147531694E+02  0.32430250412E+01  0.63580433694E+02  0.00000000000E+00 0.  1.
         21    1    1    2  503  502  0.78351572819E+02 -0.11649704348E+02 -0.39334764816E+03  0.40124438549E+03  0.00000000000E+00 0. -1.
          1    1    1    2  501    0 -0.61231517353E+02  0.28591408521E+02 -0.17785206750E+03  0.19025804917E+03  0.00000000000E+00 0. -1.
<scales pt_clust_5="13000.00000" pt_clust_6="13000.00000" pt_clust_7="13000.00000" pt_clust_8="13000.00000" pt_clust_9="28.09457" pt_clust_10="67.57786"></scales>
<clustering>
<clus scale="   67.578">  2 10  1 -1</clus>
<clus scale="   28.095">  2  9  1 -1</clus>
<clus scale="   82.178">  5  6 -1 -1</clus>
<clus scale="   90.131">  7  8 -1 -1</clus>
<clus scale="   98.557">  1  5  2 -1</clus>
<clus scale="   67.578">  2  5  1 -1</clus>
</clustering>
</event>
<event>
10    4  0.3043429E-005  0.9944369E+02  0.7546771E-02  0.1286256E+00
         -3   -1    0    0    0  501 -0.00000000000E+00  0.00000000000E+00  0.74987874001E+03  0.74987874001E+03  0.00000000000E+00 0.  1.
         21   -1    0    0  503  502  0.00000000000E+00 -0.00000000000E+00 -0.34660752018E+02  0.34660752018E+02  0.00000000000E+00 0.  1.
         23    2    1    2    0    0  0.87291946600E+01 -0.51000257003E+02  0.34218330029E+03  0.35783655044E+03  0.90996487709E+02 0.  0.
         24    2    1    2    0    0 -0.24770342471E+01  0.26933857620E+02  0.20009189707E+03  0.21774108030E+03  0.81503634224E+02 0.  0.
        -11    1    4    4    0    0  0.17791200513E+02 -0.18067486477E+02  0.12725941874E+03  0.12976101318E+03  0.00000000000E+00 0.  1.
         12    1    4    4    0    0 -0.20268234760E+02  0.45001344097E+02  0.72832478337E+02  0.87980067126E+02  0.00000000000E+00 0. -1.
        -11    1    3    3    0    0 -0.36218043673E+02 -0.23525730824E+01  0.15773885875E+03  0.16186052282E+03  0.00000000000E+00 0. -1.
         11    1    3    3    0    0  0.44947238333E+02 -0.48647683920E+02  0.18444444154E+03  0.19597602762E+03  0.00000000000E+00 0.  1.
         21    1    1    2  503  501  0.47597025291E+02  0.50210722444E+01  0.33918168996E+02  0.58661147032E+02  0.00000000000E+00 0. -1.
         -4    1    1    2    0  502 -0.53849185704E+02  0.19045327138E+02  0.13902462163E+03  0.15030071426E+03  0.00000000000E+00 0.  1.
<scales pt_clust_5="13000.00000" pt_clust_6="13000.00000" pt_clust_7="13000.00000" pt_clust_8="13000.00000" pt_clust_9="47.86113" pt_clust_10="46.48393"></scales>
<clustering>
<clus scale="   47.861">  2  9  1 -1</clus>
<clus scale="   46.484">  2 10  1 -1</clus>
<clus scale="   81.504">  5  6 -1 -1</clus>
<clus scale="   90.838">  2  5  1 -1</clus>
<clus scale="   90.996">  7  8 -1 -1</clus>
<clus scale="   47.861">  2  5  1 -1</clus>
</clustering>
</event>
<event>
10    4  0.3043429E-005  0.1019591E+03  0.7546771E-02  0.1282395E+00
         21   -1    0    0  503  502  0.00000000000E+00  0.00000000000E+00  0.62742347570E+03  0.62742347570E+03  0.00000000000E+00 0.  1.
         -3   -1    0    0    0  501 -0.00000000000E+00 -0.00000000000E+00 -0.12229221255E+03  0.12229221255E+03  0.00000000000E+00 0.  1.
         23    2    1    2    0    0 -0.26741018153E+02 -0.33891519834E+02 -0.58199728065E+02  0.11661712956E+03  0.91370834474E+02 0.  0.
         24    2    1    2    0    0 -0.31008305422E+02  0.96845820575E+02  0.25633573732E+03  0.28674161847E+03  0.78562825609E+02 0.  0.
        -11    1    4    4    0    0 -0.10561294385E+02  0.97560293032E+02  0.24364917832E+03  0.26266799160E+03  0.00000000000E+00 0.  1.
         12    1    4    4    0    0 -0.20447011037E+02 -0.71447245759E+00  0.12686558992E+02  0.24073626862E+02  0.00000000000E+00 0. -1.
        -13    1    3    3    0    0 -0.44351393743E+02  0.32287458111E-01  0.30101435050E+01  0.44453437813E+02  0.00000000000E+00 0.  1.
         13    1    3    3    0    0  0.17610375590E+02 -0.33923807292E+02 -0.61209871570E+02  0.72163691751E+02  0.00000000000E+00 0. -1.
         21    1    1    2  503  501 -0.31954407811E+02 -0.19911928799E+02  0.18568361819E+03  0.18946233174E+03  0.00000000000E+00 0.  1.
         -4    1    1    2    0  502  0.89703731387E+02 -0.43042371942E+02  0.12131163572E+03  0.15689460847E+03  0.00000000000E+00 0.  1.
<scales pt_clust_5="13000.00000" pt_clust_6="13000.00000" pt_clust_7="13000.00000" pt_clust_8="13000.00000" pt_clust_9="37.65062" pt_clust_10="93.64962"></scales>
<clustering>
<clus scale="   37.651">  1  9  2 -1</clus>
<clus scale="   78.563">  5  6 -1 -1</clus>
<clus scale="   91.371">  7  8 -1 -1</clus>
<clus scale="   93.650">  1 10  2 -1</clus>
<clus scale="   90.660">  1  5  2 -1</clus>
<clus scale="   37.651">  1  5  2 -1</clus>
</clustering>
</event>
<event>
10    4  0.3043429E-005  0.9072215E+02  0.7546771E-02  0.1308353E+00
         21   -1    0    0  503  502  0.00000000000E+00  0.00000000000E+00  0.21510656841E+03  0.21510656841E+03  0.00000000000E+00 0.  1.
         -1   -1    0    0    0  501 -0.00000000000E+00 -0.00000000000E+00 -0.28162835102E+03  0.28162835102E+03  0.00000000000E+00 0.  1.
         23    2    1    2    0    0  0.56936226062E+01  0.15783594714E+02 -0.18727852316E+03  0.20869977045E+03  0.90558322358E+02 0.  0.
         24    2    1    2    0    0  0.40033676327E+02  0.65086947563E+02  0.31623641163E+02  0.11455939965E+03  0.79276701396E+02 0.  0.
        -13    1    4    4    0    0  0.24160392674E+02  0.69909880424E+00  0.40989994103E+02  0.47585637853E+02  0.00000000000E+00 0.  1.
         14    1    4    4    0    0  0.15873283653E+02  0.64387848758E+02 -0.93663529403E+01  0.66973761796E+02  0.00000000000E+00 0. -1.
        -13    1    3    3    0    0  0.35952158560E+02  0.14507520927E+02 -0.16885996647E+03  0.17325332362E+03  0.00000000000E+00 0. -1.
         13    1    3    3    0    0 -0.30258535954E+02  0.12760737867E+01 -0.18418556688E+02  0.35446446830E+02  0.00000000000E+00 0.  1.
         21    1    1    2  503  501  0.10169818237E+02 -0.48390758511E+02  0.96477691861E+02  0.10841141886E+03  0.00000000000E+00 0.  1.
         -2    1    1    2    0  502 -0.55897117170E+02 -0.32479783765E+02 -0.73445924681E+01  0.65064330473E+02  0.00000000000E+00 0.  1.
<scales pt_clust_5="13000.00000" pt_clust_6="13000.00000" pt_clust_7="13000.00000" pt_clust_8="13000.00000" pt_clust_9="49.44786" pt_clust_10="69.66969"></scales>
<clustering>
<clus scale="   49.448">  1  9  2 -1</clus>
<clus scale="   69.670">  1 10  2 -1</clus>
<clus scale="   79.277">  5  6 -1 -1</clus>
<clus scale="   79.464">  1  5  2 -1</clus>
<clus scale="   90.558">  7  8 -1 -1</clus>
<clus scale="   49.448">  1  5  2 -1</clus>
</clustering>
</event>
<event>
10    4  0.3043429E-005  0.2406652E+03  0.7546771E-02  0.1153449E+00
          2   -1    0    0  502    0 -0.00000000000E+00  0.00000000000E+00  0.22059684656E+03  0.22059684656E+03  0.00000000000E+00 0. -1.
         21   -1    0    0  503  502  0.00000000000E+00 -0.00000000000E+00 -0.95599594533E+03  0.95599594533E+03  0.00000000000E+00 0. -1.
         23    2    1    2    0    0  0.24985448889E+02 -0.49960907246E+02 -0.24719419233E+03  0.26862889496E+03  0.89085069331E+02 0.  0.
         24    2    1    2    0    0  0.16686298726E+03 -0.79804201303E+02  0.13164150548E+03  0.24142590274E+03  0.82128031076E+02 0.  0.
        -11    1    4    4    0    0 -0.29791614225E+01 -0.23077132457E+02  0.13544600546E+02  0.26923700510E+02  0.00000000000E+00 0.  1.
         12    1    4    4    0    0  0.16984214868E+03 -0.56727068846E+02  0.11809690494E+03  0.21450220223E+03  0.00000000000E+00 0. -1.
        -11    1    3    3    0    0  0.16860186064E+02  0.23790832702E+02 -0.49244234990E+02  0.57229924642E+02  0.00000000000E+00 0.  1.
         11    1    3    3    0    0  0.81252628252E+01 -0.73751739949E+02 -0.19794995734E+03  0.21139897032E+03  0.00000000000E+00 0. -1.
         21    1    1    2  503  501 -0.35342199177E+02  0.39180731876E+02 -0.24151549677E+03  0.24721232973E+03  0.00000000000E+00 0.  1.
          1    1    1    2  501    0 -0.15650623697E+03  0.90584376673E+02 -0.37833091515E+03  0.41932566445E+03  0.00000000000E+00 0. -1.
<scales pt_clust_5="13000.00000" pt_clust_6="13000.00000" pt_clust_7="13000.00000" pt_clust_8="13000.00000" pt_clust_9="43.27693" pt_clust_10="239.98592"></scales>
<clustering>
<clus scale="   43.277">  9 10 -1 -1</clus>
<clus scale="   82.128">  5  6 -1 -1</clus>
<clus scale="   89.085">  7  8 -1 -1</clus>
<clus scale="  105.150">  1  7  2 -1</clus>
<clus scale="  239.986">  2  9  1 -1</clus>
<clus scale="  239.986">  2  5  1 -1</clus>
</clustering>
</event>
<event>
10    4  0.3043429E-005  0.4434647E+03  0.7546771E-02  0.1060070E+00
         21   -1    0    0  501  502  0.00000000000E+00  0.00000000000E+00  0.28799887960E+03  0.28799887960E+03  0.00000000000E+00 0. -1.
          2   -1    0    0  503    0 -0.00000000000E+00 -0.00000000000E+00 -0.13177674254E+04  0.13177674254E+04  0.00000000000E+00 0. -1.
         23    2    1    2    0    0 -0.39681227326E+02  0.15665870572E+03 -0.87900339924E+02  0.20549884793E+03  0.91579238171E+02 0.  0.
         24    2    1    2    0    0  0.31204378310E+03  0.25127763529E+03 -0.56740196629E+03  0.70045543792E+03  0.90449193490E+02 0.  0.
        -11    1    4    4    0    0  0.76034642851E+02  0.18063709580E+02 -0.91917965615E+02  0.12065022553E+03  0.00000000000E+00 0.  1.
         12    1    4    4    0    0  0.23600914025E+03  0.23321392571E+03 -0.47548400067E+03  0.57980521239E+03  0.00000000000E+00 0. -1.
        -11    1    3    3    0    0 -0.38983848545E+01  0.11480495521E+03 -0.17618258276E+02  0.11621436301E+03  0.00000000000E+00 0. -1.
         11    1    3    3    0    0 -0.35782842471E+02  0.41853750505E+02 -0.70282081648E+02  0.89284484920E+02  0.00000000000E+00 0.  1.
         21    1    1    2  503  502 -0.19623272408E+02 -0.10042178396E+02  0.56793169157E+02  0.60921114811E+02  0.00000000000E+00 0.  1.
          1    1    1    2  501    0 -0.25273928336E+03 -0.39789416261E+03 -0.43125940875E+03  0.63889090433E+03  0.00000000000E+00 0. -1.
<scales pt_clust_5="13000.00000" pt_clust_6="13000.00000" pt_clust_7="13000.00000" pt_clust_8="13000.00000" pt_clust_9="22.04355" pt_clust_10="434.14271"></scales>
<clustering>
<clus scale="   22.044">  1  9  2 -1</clus>
<clus scale="   90.449">  5  6 -1 -1</clus>
<clus scale="   91.579">  7  8 -1 -1</clus>
<clus scale="  184.737">  2  7  1 -1</clus>
<clus scale="  434.143">  1 10  2 -1</clus>
<clus scale="   22.044">  1  5  2 -1</clus>
</clustering>
</event>
<event>
10    4  0.3043429E-005  0.1537737E+03  0.7546771E-02  0.1197288E+00
          2   -1    0    0  503    0 -0.00000000000E+00  0.00000000000E+00  0.36139827126E+03  0.36139827126E+03  0.00000000000E+00 0. -1.
         21   -1    0    0  501  502  0.00000000000E+00 -0.00000000000E+00 -0.17492986527E+03  0.17492986527E+03  0.00000000000E+00 0. -1.
         24    2    1    2    0    0 -0.67708627141E+02 -0.10156939897E+03  0.15749763917E+03  0.21527356197E+03  0.81464097251E+02 0.  0.
         23    2    1    2    0    0  0.18632975051E+02  0.14632422549E+03 -0.35137909848E+02  0.17609488607E+03  0.89536414205E+02 0.  0.
        -13    1    3    3    0    0  0.15751457888E+02 -0.35979299743E+02  0.30319033646E+02  0.49617156678E+02  0.00000000000E+00 0.  1.
         14    1    3    3    0    0 -0.83460085030E+02 -0.65590099225E+02  0.12717860552E+03  0.16565640529E+03  0.00000000000E+00 0. -1.
        -13    1    4    4    0    0  0.14499168349E+02  0.12295268315E+03 -0.63477497450E+02  0.13912936735E+03  0.00000000000E+00 0. -1.
         13    1    4    4    0    0  0.41338067017E+01  0.23371542342E+02  0.28339587602E+02  0.36965518727E+02  0.00000000000E+00 0.  1.
         21    1    1    2  503  502 -0.32007574128E+02 -0.14327228616E+02 -0.32866792575E+01  0.35221535201E+02  0.00000000000E+00 0. -1.
          1    1    1    2  501    0  0.81083226218E+02 -0.30427597903E+02  0.67395355921E+02  0.10973815329E+03  0.00000000000E+00 0. -1.
<scales pt_clust_5="13000.00000" pt_clust_6="13000.00000" pt_clust_7="13000.00000" pt_clust_8="13000.00000" pt_clust_9="35.06785" pt_clust_10="83.28118"></scales>
<clustering>
<clus scale="   35.068">  2  9  1 -1</clus>
<clus scale="   81.464">  5  6 -1 -1</clus>
<clus scale="   83.281">  2 10  1 -1</clus>
<clus scale="   89.536">  7  8 -1 -1</clus>
<clus scale="  149.218">  1  5  2 -1</clus>
<clus scale="   35.068">  2  5  1 -1</clus>
</clustering>
</event>
<event>
10    4  0.3043429E-005  0.1157872E+03  0.7546771E-02  0.1256454E+00
          2   -1    0    0  503    0 -0.00000000000E+00  0.00000000000E+00  0.11757078305E+03  0.11757078305E+03  0.00000000000E+00 0. -1.
         21   -1    0    0  501  502  0.00000000000E+00 -0.00000000000E+00 -0.30972802016E+03  0.30972802016E+03  0.00000000000E+00 0. -1.
         23    2    1    2    0    0  0.12938772826E+02 -0.42559097625E+02 -0.40363745412E+02  0.11303334914E+03  0.95752897826E+02 0.  0.
         24    2    1    2    0    0 -0.81723677192E+02  0.62796613355E+02 -0.75501083923E+02  0.15015549085E+03  0.78892862135E+02 0.  0.
        -13    1    4    4    0    0 -0.11002070910E+02  0.54236537430E+02 -0.16761872415E+02  0.57823939018E+02  0.00000000000E+00 0.  1.
         14    1    4    4    0    0 -0.70721606282E+02  0.85600759255E+01 -0.58739211508E+02  0.92331551831E+02  0.00000000000E+00 0. -1.
        -11    1    3    3    0    0  0.37374308229E+02 -0.39261499897E+02 -0.60476266055E+02  0.81213810683E+02  0.00000000000E+00 0. -1.
         11    1    3    3    0    0 -0.24435535403E+02 -0.32975977281E+01  0.20112520643E+02  0.31819538460E+02  0.00000000000E+00 0.  1.
         21    1    1    2  503  502  0.66286746996E+02  0.36871871500E+02 -0.75381829544E+02  0.10693871123E+03  0.00000000000E+00 0.  1.
          1    1    1    2  501    0  0.24981573709E+01 -0.57109387230E+02 -0.91057823568E+00  0.57171251978E+02  0.00000000000E+00 0. -1.
<scales pt_clust_5="13000.00000" pt_clust_6="13000.00000" pt_clust_7="13000.00000" pt_clust_8="13000.00000" pt_clust_9="69.55521" pt_clust_10="57.16403"></scales>
<clustering>
<clus scale="   57.164">  2 10  1 -1</clus>
<clus scale="   69.555">  2  9  1 -1</clus>
<clus scale="   78.893">  5  6 -1 -1</clus>
<clus scale="   95.753">  7  8 -1 -1</clus>
<clus scale="  102.285">  2  5  1 -1</clus>
<clus scale="   57.164">  2  5  1 -1</clus>
</clustering>
</event>
<event>
10    4  0.3043429E-005  0.8891654E+02  0.7546771E-02  0.1313310E+00
         21   -1    0    0  501  502  0.00000000000E+00  0.00000000000E+00  0.13757440499E+03  0.13757440499E+03  0.00000000000E+00 0.  1.
          2   -1    0    0  503    0 -0.00000000000E+00 -0.00000000000E+00 -0.33977491359E+03  0.33977491359E+03  0.00000000000E+00 0. -1.
         23    2    1    2    0    0  0.63098360065E+02  0.18508449153E+02 -0.10517432660E+03  0.15166631718E+03  0.87275810277E+02 0.  0.
         24    2    1    2    0    0  0.49709045827E+02  0.12652862450E+02  0.61416339752E+02  0.10984633526E+03  0.75254012632E+02 0.  0.
        -13    1    4    4    0    0  0.51289988657E+02  0.12691805005E+02  0.77438225415E+02  0.93746592504E+02  0.00000000000E+00 0.  1.
         14    1    4    4    0    0 -0.15809428304E+01 -0.38942555545E-01 -0.16021885663E+02  0.16099742760E+02  0.00000000000E+00 0. -1.
        -11    1    3    3    0    0  0.77090737676E+01  0.44455803295E+02 -0.62503715178E+02  0.77087370405E+02  0.00000000000E+00 0. -1.
         11    1    3    3    0    0  0.55389286298E+02 -0.25947354142E+02 -0.42670611423E+02  0.74578946780E+02  0.00000000000E+00 0.  1.
         21    1    1    2  503  502 -0.55312546819E+02 -0.39350385522E+02 -0.28719337376E+02  0.73707062183E+02  0.00000000000E+00 0.  1.
          1    1    1    2  501    0 -0.57494859073E+02  0.81890739195E+01 -0.12972318438E+03  0.14212960394E+03  0.00000000000E+00 0. -1.
<scales pt_clust_5="13000.00000" pt_clust_6="13000.00000" pt_clust_7="13000.00000" pt_clust_8="13000.00000" pt_clust_9="75.40229" pt_clust_10="58.07515"></scales>
<clustering>
<clus scale="   58.075">  1 10  2 -1</clus>
<clus scale="   75.254">  5  6 -1 -1</clus>
<clus scale="   75.402">  2  9  1 -1</clus>
<clus scale="   77.151">  1  5  2 -1</clus>
<clus scale="   87.276">  7  8 -1 -1</clus>
<clus scale="   58.075">  1  5  2 -1</clus>
</clustering>
</event>
<event>
10    4  0.3043429E-005  0.1160562E+03  0.7546771E-02  0.1251127E+00
         21   -1    0    0  501  502  0.00000000000E+00  0.00000000000E+00  0.47096438531E+02  0.47096438531E+02  0.00000000000E+00 0. -1.
          2   -1    0    0  503    0 -0.00000000000E+00 -0.00000000000E+00 -0.11117875506E+04  0.11117875506E+04  0.00000000000E+00 0. -1.
         24    2    1    2    0    0 -0.70298025612E+02  0.62200819604E+02 -0.80596983430E+03  0.81563689044E+03  0.82857762908E+02 0.  0.
         23    2    1    2    0    0  0.43346625555E+02 -0.16688850462E+02 -0.25640697627E+03  0.27475199296E+03  0.87101506767E+02 0.  0.
        -13    1    3    3    0    0 -0.96116510702E+01  0.22372810774E+02 -0.44596874921E+02  0.50811492311E+02  0.00000000000E+00 0.  1.
         14    1    3    3    0    0 -0.60686374542E+02  0.39828008830E+02 -0.76137295938E+03  0.76482539812E+03  0.00000000000E+00 0. -1.
        -11    1    4    4    0    0  0.62613064100E+02 -0.86747532602E+01 -0.24006517957E+03  0.24824773430E+03  0.00000000000E+00 0.  1.
         11    1    4    4    0    0 -0.19266438545E+02 -0.80140972022E+01 -0.16341796695E+02  0.26504258666E+02  0.00000000000E+00 0. -1.
         21    1    1    2  503  502 -0.81806233346E+01 -0.28057521552E+02 -0.11862623276E+01  0.29249860377E+02  0.00000000000E+00 0.  1.
          1    1    1    2  501    0  0.35132023392E+02 -0.17454447589E+02 -0.11280391425E+01  0.39245245324E+02  0.00000000000E+00 0. -1.
<scales pt_clust_5="13000.00000" pt_clust_6="13000.00000" pt_clust_7="13000.00000" pt_clust_8="13000.00000" pt_clust_9="29.22580" pt_clust_10="45.34252"></scales>
<clustering>
<clus scale="   29.226">  1  9  2 -1</clus>
<clus scale="   45.343">  1 10  2 -1</clus>
<clus scale="   82.858">  5  6 -1 -1</clus>
<clus scale="   87.102">  7  8 -1 -1</clus>
<clus scale="  112.906">  2  5  1 -1</clus>
<clus scale="   29.226">  1  5  2 -1</clus>
</clustering>
</event>
<event>
10    4  0.3043429E-005  0.2064785E+03  0.7546771E-02  0.1152913E+00
         21   -1    0    0  501  502  0.00000000000E+00  0.00000000000E+00  0.54566747848E+03  0.54566747848E+03  0.00000000000E+00 0.  1.
          2   -1    0    0  503    0 -0.00000000000E+00 -0.00000000000E+00 -0.42811918133E+03  0.42811918133E+03  0.00000000000E+00 0. -1.
         24    2    1    2    0    0 -0.11993611592E+03  0.94521590605E+02 -0.30342208903E+02  0.17431669273E+03  0.78400616918E+02 0.  0.
         23    2    1    2    0    0 -0.84165434554E+02  0.15995100156E+03  0.14595697817E+03  0.24904732774E+03  0.89738446071E+02 0.  0.
        -11    1    3    3    0    0 -0.99165676274E+02  0.10821318822E+03 -0.25983254119E+02  0.14906057477E+03  0.00000000000E+00 0.  1.
         12    1    3    3    0    0 -0.20770439642E+02 -0.13691597611E+02 -0.43589547832E+01  0.25256117969E+02  0.00000000000E+00 0. -1.
        -11    1    4    4    0    0 -0.41281446549E+02  0.15110014993E+03  0.12551822404E+03  0.20072428280E+03  0.00000000000E+00 0.  1.
         11    1    4    4    0    0 -0.42883988004E+02  0.88508516281E+01  0.20438754122E+02  0.48323044934E+02  0.00000000000E+00 0. -1.
         21    1    1    2  503  502 -0.24743736812E+01 -0.31059463594E+02  0.19011594362E+03  0.19265223804E+03  0.00000000000E+00 0.  1.
          1    1    1    2  501    0  0.20657592415E+03 -0.22341312857E+03 -0.18818241573E+03  0.35777040130E+03  0.00000000000E+00 0. -1.
<scales pt_clust_5="13000.00000" pt_clust_6="13000.00000" pt_clust_7="13000.00000" pt_clust_8="13000.00000" pt_clust_9="31.15787" pt_clust_10="185.95808"></scales>
<clustering>
<clus scale="   31.158">  1  9  2 -1</clus>
<clus scale="   78.401">  5  6 -1 -1</clus>
<clus scale="   89.738">  7  8 -1 -1</clus>
<clus scale="  168.622">  2  5  1 -1</clus>
<clus scale="  185.958">  1 10  2 -1</clus>
<clus scale="   31.158">  1  5  2 -1</clus>
</clustering>
</event>
<event>
10    4  0.3043429E-005  0.1351033E+03  0.7546771E-02  0.1238537E+00
          2   -1    0    0  502    0 -0.00000000000E+00  0.00000000000E+00  0.19550727560E+04  0.19550727560E+04  0.00000000000E+00 0. -1.
         21   -1    0    0  503  502  0.00000000000E+00 -0.00000000000E+00 -0.21029347855E+02  0.21029347855E+02  0.00000000000E+00 0.  1.
         24    2    1    2    0    0 -0.25984300357E+02 -0.70279930609E+01  0.63599354248E+03  0.64261291075E+03  0.87971531913E+02 0.  0.
         23    2    1    2    0    0 -0.69135749999E+02  0.69557634774E+01  0.28826017014E+03  0.31348923154E+03  0.10175184534E+03 0.  0.
        -11    1    3    3    0    0 -0.30831108169E+01  0.29075822469E+02  0.83568990197E+02  0.88536349299E+02  0.00000000000E+00 0.  1.
         12    1    3    3    0    0 -0.22901189540E+02 -0.36103815530E+02  0.55242455229E+03  0.55407656145E+03  0.00000000000E+00 0. -1.
        -13    1    4    4    0    0 -0.26383153694E+02  0.53237012156E+02  0.12222435328E+03  0.13590085650E+03  0.00000000000E+00 0.  1.
         13    1    4    4    0    0 -0.42752596305E+02 -0.46281248678E+02  0.16603581686E+03  0.17758837505E+03  0.00000000000E+00 0. -1.
         21    1    1    2  503  501 -0.97621275745E+01  0.29913924124E+02  0.14585342139E+03  0.14920912346E+03  0.00000000000E+00 0.  1.
          1    1    1    2  501    0  0.10488217793E+03 -0.29841694541E+02  0.86393627416E+03  0.87079083814E+03  0.00000000000E+00 0. -1.
<scales pt_clust_5="13000.00000" pt_clust_6="13000.00000" pt_clust_7="13000.00000" pt_clust_8="13000.00000" pt_clust_9="31.46652" pt_clust_10="88.87901"></scales>
<clustering>
<clus scale="   31.467">  2  9  1 -1</clus>
<clus scale="   87.972">  5  6 -1 -1</clus>
<clus scale="   92.235">  1  5  2 -1</clus>
<clus scale="   88.879">  2 10  1 -1</clus>
<clus scale="  101.752">  7  8 -1 -1</clus>
<clus scale="   31.467">  2  5  1 -1</clus>
</clustering>
</event>
<event>
10    4  0.3043429E-005  0.3168346E+03  0.7546771E-02  0.1129457E+00
         21   -1    0    0  501  502  0.00000000000E+00  0.00000000000E+00  0.28918846842E+03  0.28918846842E+03  0.00000000000E+00 0. -1.
          2   -1    0    0  503    0 -0.00000000000E+00 -0.00000000000E+00 -0.67642839529E+03  0.67642839529E+03  0.00000000000E+00 0. -1.
         24    2    1    2    0    0  0.12154581771E+02 -0.14027829819E+02 -0.51593680424E+02  0.97348229289E+02  0.80437901630E+02 0.  0.
         23    2    1    2    0    0 -0.27425641274E+03  0.14311433623E+03 -0.37720226676E+03  0.49805374215E+03  0.10038768278E+03 0.  0.
        -13    1    3    3    0    0  0.45849069225E+02 -0.47424681905E+01 -0.38390011946E+02  0.59986841645E+02  0.00000000000E+00 0.  1.
         14    1    3    3    0    0 -0.33694487454E+02 -0.92853616289E+01 -0.13203668478E+02  0.37361387644E+02  0.00000000000E+00 0. -1.
        -13    1    4    4    0    0 -0.77685274199E+02  0.15541101098E+02 -0.15997881405E+03  0.17852100324E+03  0.00000000000E+00 0.  1.
         13    1    4    4    0    0 -0.19657113854E+03  0.12757323513E+03 -0.21722345271E+03  0.31953273891E+03  0.00000000000E+00 0. -1.
         21    1    1    2  503  502  0.84783011784E+01  0.41572726635E+02  0.48502164194E+02  0.64440927385E+02  0.00000000000E+00 0. -1.
          1    1    1    2  501    0  0.25362352979E+03 -0.17065923305E+03 -0.69461438852E+01  0.30577396489E+03  0.00000000000E+00 0. -1.
<scales pt_clust_5="13000.00000" pt_clust_6="13000.00000" pt_clust_7="13000.00000" pt_clust_8="13000.00000" pt_clust_9="42.42845" pt_clust_10="300.51031"></scales>
<clustering>
<clus scale="   42.428">  1  9  2 -1</clus>
<clus scale="   80.438">  5  6 -1 -1</clus>
<clus scale="   82.084">  2  5  1 -1</clus>
<clus scale="  100.388">  7  8 -1 -1</clus>
<clus scale="  300.510">  1 10  2 -1</clus>
<clus scale="   42.428">  1  5  2 -1</clus>
</clustering>
</event>
<event>
10    4  0.3043429E-005  0.1367160E+03  0.7546771E-02  0.1219963E+00
          2   -1    0    0  502    0 -0.00000000000E+00  0.00000000000E+00  0.39596156798E+03  0.39596156798E+03  0.00000000000E+00 0. -1.
         21   -1    0    0  503  502  0.00000000000E+00 -0.00000000000E+00 -0.15954534037E+03  0.15954534037E+03  0.00000000000E+00 0. -1.
         23    2    1    2    0    0  0.55622161904E+02 -0.30058269829E+02  0.24938715018E+02  0.11293973427E+03  0.90200441187E+02 0.  0.
         24    2    1    2    0    0 -0.17226762113E+03  0.59084968599E+02  0.26432078778E+02  0.20096847545E+03  0.80762036441E+02 0.  0.
        -13    1    4    4    0    0 -0.31483032836E+02  0.67186799659E+01 -0.26510794335E+02  0.41703048250E+02  0.00000000000E+00 0.  1.
         14    1    4    4    0    0 -0.14078458830E+03  0.52366288633E+02  0.52942873113E+02  0.15926542720E+03  0.00000000000E+00 0. -1.
        -13    1    3    3    0    0  0.48815700788E+02 -0.60978543333E+02  0.21959941760E+02  0.81139351936E+02  0.00000000000E+00 0. -1.
         13    1    3    3    0    0  0.68064611156E+01  0.30920273504E+02  0.29787732571E+01  0.31800382334E+02  0.00000000000E+00 0.  1.
         21    1    1    2  503  501  0.40113125027E+02 -0.27623070061E+02  0.88596814855E+01  0.49503441850E+02  0.00000000000E+00 0. -1.
          1    1    1    2  501    0  0.76532334202E+02 -0.14036287089E+01  0.17618575234E+03  0.19209525678E+03  0.00000000000E+00 0. -1.
<scales pt_clust_5="13000.00000" pt_clust_6="13000.00000" pt_clust_7="13000.00000" pt_clust_8="13000.00000" pt_clust_9="48.70418" pt_clust_10="78.88068"></scales>
<clustering>
<clus scale="   48.704">  2  9  1 -1</clus>
<clus scale="   78.881">  2 10  1 -1</clus>
<clus scale="   80.762">  5  6 -1 -1</clus>
<clus scale="   90.200">  7  8 -1 -1</clus>
<clus scale="  130.682">  2  5  1 -1</clus>
<clus scale="   48.704">  2  5  1 -1</clus>
</clustering>
</event>
<event>
10    4  0.3043429E-005  0.1638389E+03  0.7546771E-02  0.1185795E+00
         21   -1    0    0  501  502  0.00000000000E+00  0.00000000000E+00  0.43065299445E+03  0.43065299445E+03  0.00000000000E+00 0. -1.
          2   -1    0    0  503    0 -0.00000000000E+00 -0.00000000000E+00 -0.40198834553E+03  0.40198834553E+03  0.00000000000E+00 0. -1.
         24    2    1    2    0    0 -0.84101531458E+02 -0.10892000684E+03 -0.23738589120E+03  0.28598726428E+03  0.80622692265E+02 0.  0.
         23    2    1    2    0    0  0.41660518002E+02  0.12740321247E+03  0.36550245359E+03  0.39955478009E+03  0.89915523724E+02 0.  0.
        -11    1    3    3    0    0 -0.14041072796E+02 -0.42801112699E+02 -0.22192659897E+02  0.50215546665E+02  0.00000000000E+00 0.  1.
         12    1    3    3    0    0 -0.70060458662E+02 -0.66118894139E+02 -0.21519323130E+03  0.23577171761E+03  0.00000000000E+00 0. -1.
        -13    1    4    4    0    0  0.22825646255E+02  0.13775756793E+03  0.30831528725E+03  0.33846192401E+03  0.00000000000E+00 0. -1.
         13    1    4    4    0    0  0.18834871747E+02 -0.10354355464E+02  0.57187166340E+02  0.61092856086E+02  0.00000000000E+00 0.  1.
         21    1    1    2  503  502  0.22675776585E+02  0.36869308588E+01  0.15929758205E+02  0.27956063732E+02  0.00000000000E+00 0. -1.
          1    1    1    2  501    0  0.19765236871E+02 -0.22170136486E+02 -0.11538167169E+03  0.11914323188E+03  0.00000000000E+00 0. -1.
<scales pt_clust_5="13000.00000" pt_clust_6="13000.00000" pt_clust_7="13000.00000" pt_clust_8="13000.00000" pt_clust_9="22.97356" pt_clust_10="29.75843"></scales>
<clustering>
<clus scale="   22.974">  1  9  2 -1</clus>
<clus scale="   29.758">  1 10  2 -1</clus>
<clus scale="   80.623">  5  6 -1 -1</clus>
<clus scale="   89.916">  7  8 -1 -1</clus>
<clus scale="  158.929">  2  5  1 -1</clus>
<clus scale="   22.974">  1  5  2 -1</clus>
</clustering>
</event>
<event>
10    4  0.3043429E-005  0.1147175E+03  0.7546771E-02  0.1263074E+00
         21   -1    0    0  501  502  0.00000000000E+00  0.00000000000E+00  0.74486256615E+02  0.74486256615E+02  0.00000000000E+00 0. -1.
          4   -1    0    0  503    0 -0.00000000000E+00 -0.00000000000E+00 -0.41721463300E+03  0.41721463300E+03  0.00000000000E+00 0. -1.
         24    2    1    2    0    0 -0.37604138379E+00 -0.43931621703E+02 -0.51154616334E+02  0.10325042758E+03  0.78190326961E+02 0.  0.
         23    2    1    2    0    0  0.38226926636E+02  0.48588255336E+02 -0.79351147422E+02  0.14445344594E+03  0.10367293268E+03 0.  0.
        -11    1    3    3    0    0  0.16121035468E+02 -0.62295775099E+02 -0.31225453576E+02  0.71523984304E+02  0.00000000000E+00 0.  1.
         12    1    3    3    0    0 -0.16497076851E+02  0.18364153396E+02 -0.19929162758E+02  0.31726443274E+02  0.00000000000E+00 0. -1.
        -11    1    4    4    0    0 -0.19410323838E+02 -0.22016436293E+02 -0.23083747726E+02  0.37340909839E+02  0.00000000000E+00 0.  1.
         11    1    4    4    0    0  0.57637250475E+02  0.70604691629E+02 -0.56267399696E+02  0.10711253610E+03  0.00000000000E+00 0. -1.
         21    1    1    2  503  502  0.21531636564E+02  0.29935657443E+02 -0.24975711051E+02  0.44536963325E+02  0.00000000000E+00 0.  1.
          3    1    1    2  501    0 -0.59382521816E+02 -0.34592291076E+02 -0.18724690158E+03  0.19946005277E+03  0.00000000000E+00 0. -1.
<scales pt_clust_5="13000.00000" pt_clust_6="13000.00000" pt_clust_7="13000.00000" pt_clust_8="13000.00000" pt_clust_9="36.87486" pt_clust_10="65.56090"></scales>
<clustering>
<clus scale="   36.875">  1  9  2 -1</clus>
<clus scale="   65.561">  1 10  2 -1</clus>
<clus scale="   78.190">  5  6 -1 -1</clus>
<clus scale="   92.335">  2  5  1 -1</clus>
<clus scale="  103.673">  7  8 -1 -1</clus>
<clus scale="   36.875">  1  5  2 -1</clus>
</clustering>
</event>
<event>
10    4  0.3043429E-005  0.1381000E+03  0.7546771E-02  0.1217412E+00
          2   -1    0    0  503    0 -0.00000000000E+00  0.00000000000E+00  0.62975851723E+03  0.62975851723E+03  0.00000000000E+00 0. -1.
         21   -1    0    0  501  502  0.00000000000E+00 -0.00000000000E+00 -0.31087038941E+03  0.31087038941E+03  0.00000000000E+00 0.  1.
         24    2    1    2    0    0  0.93012395782E+02  0.72894044506E+02  0.24509278187E+03  0.28500359600E+03  0.84804071323E+02 0.  0.
         23    2    1    2    0    0 -0.96510915157E+02  0.59648924539E+02  0.43813328805E+01  0.14579617686E+03  0.91460254569E+02 0.  0.
        -11    1    3    3    0    0  0.10043740331E+03  0.72498728890E+02  0.24784457273E+03  0.27707520623E+03  0.00000000000E+00 0.  1.
         12    1    3    3    0    0 -0.74250075326E+01  0.39531561591E+00 -0.27517908641E+01  0.79283897644E+01  0.00000000000E+00 0. -1.
        -13    1    4    4    0    0  0.11680434024E+02  0.28955114417E+02 -0.91215785839E+01  0.32527440504E+02  0.00000000000E+00 0.  1.
         13    1    4    4    0    0 -0.10819134918E+03  0.30693810122E+02  0.13502911464E+02  0.11326873635E+03  0.00000000000E+00 0. -1.
         21    1    1    2  503  502  0.15564452621E+02 -0.73787774214E+02 -0.21047931727E+03  0.22358092675E+03  0.00000000000E+00 0.  1.
          1    1    1    2  501    0 -0.12065933246E+02 -0.58755194831E+02  0.27989333034E+03  0.28624820704E+03  0.00000000000E+00 0. -1.
<scales pt_clust_5="13000.00000" pt_clust_6="13000.00000" pt_clust_7="13000.00000" pt_clust_8="13000.00000" pt_clust_9="115.44624" pt_clust_10="59.98136"></scales>
<clustering>
<clus scale="   59.981">  2 10  1 -1</clus>
<clus scale="   84.804">  5  6 -1 -1</clus>
<clus scale="   91.460">  7  8 -1 -1</clus>
<clus scale="  115.446">  2  9  1 -1</clus>
<clus scale="  133.785">  1  5  2 -1</clus>
<clus scale="   59.981">  2  5  1 -1</clus>
</clustering>
</event>
<event>
10    4  0.3043429E-005  0.2333534E+03  0.7546771E-02  0.1166210E+00
          2   -1    0    0  503    0 -0.00000000000E+00  0.00000000000E+00  0.15848137642E+04  0.15848137642E+04  0.00000000000E+00 0. -1.
         21   -1    0    0  501  502  0.00000000000E+00 -0.00000000000E+00 -0.28275279576E+03  0.28275279576E+03  0.00000000000E+00 0. -1.
         24    2    1    2    0    0 -0.17856603858E+02  0.17126946629E+02  0.24927108493E+03  0.26358996408E+03  0.82045138651E+02 0.  0.
         23    2    1    2    0    0  0.45761127220E+02 -0.18290801556E+03  0.10301573817E+03  0.23319948635E+03  0.90666064220E+02 0.  0.
        -13    1    3    3    0    0  0.15110215228E+02  0.34753351760E+02  0.62317782192E+02  0.72935725404E+02  0.00000000000E+00 0.  1.
         14    1    3    3    0    0 -0.32966819085E+02 -0.17626405131E+02  0.18695330274E+03  0.19065423868E+03  0.00000000000E+00 0. -1.
        -13    1    4    4    0    0  0.15018419778E+02 -0.13000266286E+03  0.11085778188E+03  0.17151003786E+03  0.00000000000E+00 0.  1.
         13    1    4    4    0    0  0.30742707442E+02 -0.52905352702E+02 -0.78420437085E+01  0.61689448489E+02  0.00000000000E+00 0. -1.
         21    1    1    2  503  502  0.21531664734E+03 -0.75625956449E+02 -0.11261602622E+03  0.25448558559E+03  0.00000000000E+00 0. -1.
          1    1    1    2  501    0 -0.24322117070E+03  0.24140702538E+03  0.10623901715E+04  0.11162915239E+04  0.00000000000E+00 0. -1.
<scales pt_clust_5="13000.00000" pt_clust_6="13000.00000" pt_clust_7="13000.00000" pt_clust_8="13000.00000" pt_clust_9="13000.00000" pt_clust_10="233.35337"></scales>
<clustering>
<clus scale="   82.045">  5  6 -1 -1</clus>
<clus scale="   85.695">  1  5  2 -1</clus>
<clus scale="   90.666">  7  8 -1 -1</clus>
<clus scale="  206.833">  1  7  2 -1</clus>
<clus scale="  233.353">  1 10  2 -1</clus>
<clus scale="  233.353">  2  5  1 -1</clus>
</clustering>
</event>
<event>
10    4  0.3043429E-005  0.1312903E+03  0.7546771E-02  0.1242084E+00
          2   -1    0    0  503    0 -0.00000000000E+00  0.00000000000E+00  0.79096249161E+03  0.79096249161E+03  0.00000000000E+00 0. -1.
         21   -1    0    0  501  502  0.00000000000E+00 -0.00000000000E+00 -0.32405900734E+02  0.32405900734E+02  0.00000000000E+00 0.  1.
         24    2    1    2    0    0 -0.48304715658E+02  0.30724302866E+02  0.46279427960E+03  0.47312312085E+03  0.79935060590E+02 0.  0.
         23    2    1    2    0    0  0.77335361331E+01 -0.28124668634E+02  0.23993094585E+03  0.27073530289E+03  0.12198336316E+03 0.  0.
        -13    1    3    3    0    0 -0.51119895137E+01  0.26624922940E+02  0.41311553231E+02  0.49413190432E+02  0.00000000000E+00 0.  1.
         14    1    3    3    0    0 -0.43192726144E+02  0.40993799256E+01  0.42148272637E+03  0.42370993042E+03  0.00000000000E+00 0. -1.
        -13    1    4    4    0    0 -0.32703260612E+01  0.33376099183E+02  0.18352058191E+03  0.18655954281E+03  0.00000000000E+00 0.  1.
         13    1    4    4    0    0  0.11003862194E+02 -0.61500767817E+02  0.56410363936E+02  0.84175760078E+02  0.00000000000E+00 0. -1.
         21    1    1    2  503  502  0.28437862040E+02  0.16861605170E+02  0.38606607651E+02  0.50828101289E+02  0.00000000000E+00 0.  1.
          1    1    1    2  501    0  0.12133317485E+02 -0.19461239401E+02  0.17224757779E+02  0.28681867317E+02  0.00000000000E+00 0. -1.
<scales pt_clust_5="13000.00000" pt_clust_6="13000.00000" pt_clust_7="13000.00000" pt_clust_8="13000.00000" pt_clust_9="33.59112" pt_clust_10="22.93376"></scales>
<clustering>
<clus scale="   22.934">  2 10  1 -1</clus>
<clus scale="   33.591">  2  9  1 -1</clus>
<clus scale="   79.935">  5  6 -1 -1</clus>
<clus scale="   93.524">  1  5  2 -1</clus>
<clus scale="  121.983">  7  8 -1 -1</clus>
<clus scale="   22.934">  2  5  1 -1</clus>
</clustering>
</event>
<event>
10    4  0.3043429E-005  0.1744533E+03  0.7546771E-02  0.1174474E+00
         21   -1    0    0  503  502  0.00000000000E+00  0.00000000000E+00  0.17728592953E+03  0.17728592953E+03  0.00000000000E+00 0. -1.
          2   -1    0    0  502    0 -0.00000000000E+00 -0.00000000000E+00 -0.38900636370E+03  0.38900636370E+03  0.00000000000E+00 0. -1.
         23    2    1    2    0    0 -0.28828012104E+02 -0.15908176428E+03 -0.19685013231E+03  0.27030214926E+03  0.90416897179E+02 0.  0.
         24    2    1    2    0    0  0.22110590978E+02  0.10696610582E+03  0.78403941726E+02  0.15699821260E+03  0.81059451340E+02 0.  0.
        -13    1    4    4    0    0 -0.11763438867E+02  0.80642754131E+02  0.18928664711E+02  0.83665564216E+02  0.00000000000E+00 0.  1.
         14    1    4    4    0    0  0.33874029845E+02  0.26323351692E+02  0.59475277016E+02  0.73332648379E+02  0.00000000000E+00 0. -1.
        -13    1    3    3    0    0  0.88468822956E+01 -0.65022488078E+02 -0.13879202682E+03  0.15352334673E+03  0.00000000000E+00 0. -1.
         13    1    3    3    0    0 -0.37674894399E+02 -0.94059276202E+02 -0.58058105495E+02  0.11677880253E+03  0.00000000000E+00 0.  1.
         21    1    1    2  503  501 -0.17291817201E+02  0.11314685685E+02  0.11763757404E+02  0.23778457530E+02  0.00000000000E+00 0. -1.
          1    1    1    2  501    0  0.24009238327E+02  0.40800972771E+02 -0.10503800099E+03  0.11521347384E+03  0.00000000000E+00 0. -1.
<scales pt_clust_5="13000.00000" pt_clust_6="13000.00000" pt_clust_7="13000.00000" pt_clust_8="13000.00000" pt_clust_9="20.66468" pt_clust_10="47.37684"></scales>
<clustering>
<clus scale="   20.665">  1  9  2 -1</clus>
<clus scale="   47.377">  1 10  2 -1</clus>
<clus scale="   81.059">  5  6 -1 -1</clus>
<clus scale="   90.417">  7  8 -1 -1</clus>
<clus scale="  169.792">  1  5  2 -1</clus>
<clus scale="   20.665">  1  5  2 -1</clus>
</clustering>
</event>
<event>
10    4  0.3043429E-005  0.1125547E+03  0.7546771E-02  0.1260210E+00
          2   -1    0    0  503    0 -0.00000000000E+00  0.00000000000E+00  0.36690870023E+03  0.36690870023E+03  0.00000000000E+00 0. -1.
         21   -1    0    0  501  502  0.00000000000E+00 -0.00000000000E+00 -0.23349266693E+03  0.23349266693E+03  0.00000000000E+00 0. -1.
         24    2    1    2    0    0  0.59020190319E+02 -0.12540059225E+02  0.15621970697E+03  0.18603145461E+03  0.81009069291E+02 0.  0.
         23    2    1    2    0    0 -0.71563499063E+02 -0.38188476392E+02  0.13649001253E+03  0.18370484442E+03  0.92402663466E+02 0.  0.
        -13    1    3    3    0    0  0.49349577075E+02 -0.45176617671E+02  0.10032834834E+03  0.12059056772E+03  0.00000000000E+00 0.  1.
         14    1    3    3    0    0  0.96706132446E+01  0.32636558446E+02  0.55891358627E+02  0.65440886889E+02  0.00000000000E+00 0. -1.
        -13    1    4    4    0    0 -0.69658648914E+02 -0.66386025432E+01  0.13500618128E+03  0.15206270876E+03  0.00000000000E+00 0. -1.
         13    1    4    4    0    0 -0.19048501490E+01 -0.31549873849E+02  0.14838312530E+01  0.31642135660E+02  0.00000000000E+00 0.  1.
         21    1    1    2  503  502  0.36890930363E+02  0.61617057839E+02 -0.18198762552E+03  0.19564533831E+03  0.00000000000E+00 0. -1.
          1    1    1    2  501    0 -0.24347621619E+02 -0.10888522221E+02  0.22693939324E+02  0.35019729821E+02  0.00000000000E+00 0. -1.
<scales pt_clust_5="13000.00000" pt_clust_6="13000.00000" pt_clust_7="13000.00000" pt_clust_8="13000.00000" pt_clust_9="55.15227" pt_clust_10="26.67147"></scales>
<clustering>
<clus scale="   26.671">  2 10  1 -1</clus>
<clus scale="   55.152">  2  9  1 -1</clus>
<clus scale="   81.009">  5  6 -1 -1</clus>
<clus scale="   92.403">  7  8 -1 -1</clus>
<clus scale="  103.406">  1  5  2 -1</clus>
<clus scale="   26.671">  2  5  1 -1</clus>
</clustering>
</event>
<event>
10    4  0.3043429E-005  0.1639397E+03  0.7546771E-02  0.1185791E+00
          2   -1    0    0  502    0 -0.00000000000E+00  0.00000000000E+00  0.63311847476E+03  0.63311847476E+03  0.00000000000E+00 0. -1.
         21   -1    0    0  503  502  0.00000000000E+00 -0.00000000000E+00 -0.65988216354E+02  0.65988216354E+02  0.00000000000E+00 0. -1.
         24    2    1    2    0    0 -0.90840076827E+02 -0.83467921900E+02  0.24859684494E+03  0.28918029503E+03  0.81277537971E+02 0.  0.
         23    2    1    2    0    0  0.87608191628E+02  0.13308489800E+03  0.22954061268E+03  0.29391826298E+03  0.91171635555E+02 0.  0.
        -13    1    3    3    0    0 -0.74185270028E+02 -0.24968978242E+02  0.18648865686E+03  0.20224965587E+03  0.00000000000E+00 0.  1.
         14    1    3    3    0    0 -0.16654806798E+02 -0.58498943658E+02  0.62108188083E+02  0.86930639164E+02  0.00000000000E+00 0. -1.
        -11    1    4    4    0    0  0.10665853856E+03  0.11621577041E+03  0.19069894686E+03  0.24748381255E+03  0.00000000000E+00 0. -1.
         11    1    4    4    0    0 -0.19050346929E+02  0.16869127590E+02  0.38841665815E+02  0.46434450434E+02  0.00000000000E+00 0.  1.
         21    1    1    2  503  501  0.11919469161E+02 -0.17746472480E+02  0.31785194762E+00  0.21380179148E+02  0.00000000000E+00 0. -1.
          1    1    1    2  501    0 -0.86875839626E+01 -0.31870503623E+02  0.88674948843E+02  0.94627953950E+02  0.00000000000E+00 0. -1.
<scales pt_clust_5="13000.00000" pt_clust_6="13000.00000" pt_clust_7="13000.00000" pt_clust_8="13000.00000" pt_clust_9="21.37782" pt_clust_10="33.79524"></scales>
<clustering>
<clus scale="   21.378">  2  9  1 -1</clus>
<clus scale="   33.795">  2 10  1 -1</clus>
<clus scale="   81.278">  5  6 -1 -1</clus>
<clus scale="   91.172">  7  8 -1 -1</clus>
<clus scale="  158.651">  1  5  2 -1</clus>
<clus scale="   21.378">  2  5  1 -1</clus>
</clustering>
</event>
<event>
10    4  0.3043429E-005  0.2054343E+03  0.7546771E-02  0.1146302E+00
         21   -1    0    0  501  502  0.00000000000E+00  0.00000000000E+00  0.50926221182E+03  0.50926221182E+03  0.00000000000E+00 0.  1.
          4   -1    0    0  503    0 -0.00000000000E+00 -0.00000000000E+00 -0.22205203986E+03  0.22205203986E+03  0.00000000000E+00 0. -1.
         23    2    1    2    0    0 -0.79353385665E+02  0.15235012750E+03 -0.52366705863E+01  0.19531882963E+03  0.92814337929E+02 0.  0.
         24    2    1    2    0    0  0.17961834994E+03 -0.15410608010E+03  0.29315448425E+03  0.38531197361E+03  0.80711398261E+02 0.  0.
        -11    1    4    4    0    0  0.95736720668E+02 -0.94489868151E+02  0.22413609065E+03  0.26140168706E+03  0.00000000000E+00 0.  1.
         12    1    4    4    0    0  0.83881629270E+02 -0.59616211944E+02  0.69018393604E+02  0.12391028654E+03  0.00000000000E+00 0. -1.
        -11    1    3    3    0    0 -0.19423624035E+02  0.92483582005E+02 -0.41452489511E+02  0.10319301816E+03  0.00000000000E+00 0.  1.
         11    1    3    3    0    0 -0.59929761630E+02  0.59866545490E+02  0.36215818925E+02  0.92125811467E+02  0.00000000000E+00 0. -1.
         21    1    1    2  503  502  0.47900506375E+01 -0.27563764760E+02  0.26215429549E+02  0.38339985124E+02  0.00000000000E+00 0.  1.
          3    1    1    2  501    0 -0.10505501491E+03  0.29319717360E+02 -0.26923071254E+02  0.11234346332E+03  0.00000000000E+00 0. -1.
<scales pt_clust_5="13000.00000" pt_clust_6="13000.00000" pt_clust_7="13000.00000" pt_clust_8="13000.00000" pt_clust_9="27.97688" pt_clust_10="108.01686"></scales>
<clustering>
<clus scale="   27.977">  1  9  2 -1</clus>
<clus scale="   80.711">  5  6 -1 -1</clus>
<clus scale="   92.814">  7  8 -1 -1</clus>
<clus scale="  108.017">  1 10  2 -1</clus>
<clus scale="  200.258">  1  5  2 -1</clus>
<clus scale="   27.977">  1  5  2 -1</clus>
</clustering>
</event>
<event>
10    4  0.3043429E-005  0.1782039E+03  0.7546771E-02  0.1199984E+00
          2   -1    0    0  502    0 -0.00000000000E+00  0.00000000000E+00  0.35991143449E+03  0.35991143449E+03  0.00000000000E+00 0. -1.
         21   -1    0    0  503  502  0.00000000000E+00 -0.00000000000E+00 -0.36315752170E+03  0.36315752170E+03  0.00000000000E+00 0.  1.
         24    2    1    2    0    0  0.20264572923E+02 -0.33608490461E+02  0.10498469650E+03  0.13794342868E+03  0.80414050202E+02 0.  0.
         23    2    1    2    0    0 -0.13451325044E+03 -0.10652503590E+03 -0.22826218355E+03  0.30011539489E+03  0.92326745821E+02 0.  0.
        -13    1    3    3    0    0 -0.30952983810E+02 -0.68871775907E+01  0.37446907349E+02  0.49069249963E+02  0.00000000000E+00 0.  1.
         14    1    3    3    0    0  0.51217556733E+02 -0.26721312870E+02  0.67537789154E+02  0.88874178719E+02  0.00000000000E+00 0. -1.
        -11    1    4    4    0    0 -0.10742918917E+02 -0.36023126855E+02 -0.10576032216E+03  0.11224224570E+03  0.00000000000E+00 0.  1.
         11    1    4    4    0    0 -0.12377033152E+03 -0.70501909047E+02 -0.12250186139E+03  0.18787314919E+03  0.00000000000E+00 0. -1.
         21    1    1    2  503  501  0.51982840955E+02 -0.14574447769E+02 -0.29062333264E+02  0.61312718879E+02  0.00000000000E+00 0. -1.
          1    1    1    2  501    0  0.62265836560E+02  0.15470797413E+03  0.14909373311E+03  0.22369741374E+03  0.00000000000E+00 0. -1.
<scales pt_clust_5="13000.00000" pt_clust_6="13000.00000" pt_clust_7="13000.00000" pt_clust_8="13000.00000" pt_clust_9="53.98732" pt_clust_10="152.42192"></scales>
<clustering>
<clus scale="   53.987">  2  9  1 -1</clus>
<clus scale="   80.414">  5  6 -1 -1</clus>
<clus scale="   90.412">  1  5  2 -1</clus>
<clus scale="   92.327">  7  8 -1 -1</clus>
<clus scale="  152.422">  2 10  1 -1</clus>
<clus scale="   53.987">  2  5  1 -1</clus>
</clustering>
</event>
<event>
10    4  0.3043429E-005  0.1687693E+03  0.7546771E-02  0.1181116E+00
          2   -1    0    0  502    0 -0.00000000000E+00  0.00000000000E+00  0.61447135799E+03  0.61447135799E+03  0.00000000000E+00 0. -1.
         21   -1    0    0  503  502  0.00000000000E+00 -0.00000000000E+00 -0.88806426718E+02  0.88806426718E+02  0.00000000000E+00 0.  1.
         23    2    1    2    0    0  0.14135329691E+03  0.49253275220E+02  0.45416940168E+03  0.48711078006E+03  0.92738486932E+02 0.  0.
         24    2    1    2    0    0 -0.11514889213E+03 -0.28845506974E+02  0.74849254263E+02  0.16084397252E+03  0.78594160091E+02 0.  0.
        -13    1    4    4    0    0 -0.77794806455E+02 -0.29416336278E+02  0.70948270936E+01  0.83472686089E+02  0.00000000000E+00 0.  1.
         14    1    4    4    0    0 -0.37354085675E+02  0.57082930432E+00  0.67754427170E+02  0.77371286430E+02  0.00000000000E+00 0. -1.
        -11    1    3    3    0    0  0.74210919583E+02  0.70025970002E+02  0.31647463138E+03  0.33251629940E+03  0.00000000000E+00 0. -1.
         11    1    3    3    0    0  0.67142377327E+02 -0.20772694782E+02  0.13769477031E+03  0.15459448066E+03  0.00000000000E+00 0.  1.
         21    1    1    2  503  501 -0.16302382721E+02  0.11707464052E+02 -0.75734683929E+01  0.21452035344E+02  0.00000000000E+00 0. -1.
          1    1    1    2  501    0 -0.99020220590E+01 -0.32115232298E+02  0.42197437224E+01  0.33870996790E+02  0.00000000000E+00 0. -1.
<scales pt_clust_5="13000.00000" pt_clust_6="13000.00000" pt_clust_7="13000.00000" pt_clust_8="13000.00000" pt_clust_9="20.07069" pt_clust_10="32.55528"></scales>
<clustering>
<clus scale="   20.071">  2  9  1 -1</clus>
<clus scale="   32.555">  2 10  1 -1</clus>
<clus scale="   78.594">  5  6 -1 -1</clus>
<clus scale="   92.738">  7  8 -1 -1</clus>
<clus scale="  161.430">  2  5  1 -1</clus>
<clus scale="   20.071">  2  5  1 -1</clus>
</clustering>
</event>
<event>
10    4  0.3043429E-005  0.3807133E+03  0.7546771E-02  0.1069544E+00
          2   -1    0    0  502    0 -0.00000000000E+00  0.00000000000E+00  0.22097296686E+04  0.22097296686E+04  0.00000000000E+00 0. -1.
         21   -1    0    0  503  502  0.00000000000E+00 -0.00000000000E+00 -0.86230221619E+03  0.86230221619E+03  0.00000000000E+00 0.  1.
         24    2    1    2    0    0 -0.15964993537E+03 -0.12103162528E+03  0.75023742801E+03  0.78017922010E+03  0.75409952295E+02 0.  0.
         23    2    1    2    0    0  0.31295690097E+03 -0.20889125958E+03  0.29157480503E+03  0.48471289023E+03  0.91395507745E+02 0.  0.
        -13    1    3    3    0    0 -0.11038380021E+03 -0.10490277084E+03  0.64673002742E+03  0.66441621221E+03  0.00000000000E+00 0.  1.
         14    1    3    3    0    0 -0.49266135156E+02 -0.16128854442E+02  0.10350740059E+03  0.11576300789E+03  0.00000000000E+00 0. -1.
        -13    1    4    4    0    0  0.25340291961E+03 -0.15219763501E+03  0.17991173463E+03  0.34604247142E+03  0.00000000000E+00 0.  1.
         13    1    4    4    0    0  0.59553981358E+02 -0.56693624577E+02  0.11166307039E+03  0.13867041881E+03  0.00000000000E+00 0. -1.
         21    1    1    2  503  501 -0.78324106504E+02 -0.86019244291E+02 -0.70351904097E+03  0.71307293950E+03  0.00000000000E+00 0.  1.
          1    1    1    2  501    0 -0.74982859095E+02  0.41594212915E+03  0.10091342603E+04  0.10940668349E+04  0.00000000000E+00 0. -1.
<scales pt_clust_5="13000.00000" pt_clust_6="13000.00000" pt_clust_7="13000.00000" pt_clust_8="13000.00000" pt_clust_9="116.33562" pt_clust_10="369.58032"></scales>
<clustering>
<clus scale="   75.410">  5  6 -1 -1</clus>
<clus scale="   91.396">  7  8 -1 -1</clus>
<clus scale="  116.336">  2  9  1 -1</clus>
<clus scale="  224.514">  1  5  2 -1</clus>
<clus scale="  369.580">  2 10  1 -1</clus>
<clus scale="  116.336">  2  5  1 -1</clus>
</clustering>
</event>
<event>
10    4  0.3043429E-005  0.2579382E+03  0.7546771E-02  0.1147417E+00
         21   -1    0    0  503  502  0.00000000000E+00  0.00000000000E+00  0.11602875577E+04  0.11602875577E+04  0.00000000000E+00 0. -1.
          2   -1    0    0  502    0 -0.00000000000E+00 -0.00000000000E+00 -0.16598644481E+03  0.16598644481E+03  0.00000000000E+00 0. -1.
         24    2    1    2    0    0  0.60325596484E+02  0.22436758894E+02  0.12085772460E+02  0.99259758068E+02  0.74591205479E+02 0.  0.
         23    2    1    2    0    0  0.68858593564E+01  0.96104181840E+02  0.27412526665E+03  0.30542629130E+03  0.94112320020E+02 0.  0.
        -11    1    3    3    0    0  0.13678951312E+02 -0.27165180293E+02  0.28977093892E+01  0.30552535885E+02  0.00000000000E+00 0.  1.
         12    1    3    3    0    0  0.46646645173E+02  0.49601939187E+02  0.91880630712E+01  0.68707222182E+02  0.00000000000E+00 0. -1.
        -11    1    4    4    0    0  0.33948590061E+02  0.89077978497E+01  0.35453172521E+02  0.49887704612E+02  0.00000000000E+00 0.  1.
         11    1    4    4    0    0 -0.27062730705E+02  0.87196383990E+02  0.23867209412E+03  0.25553858669E+03  0.00000000000E+00 0. -1.
         21    1    1    2  503  501 -0.27102718098E+03  0.21053270584E+02  0.58609501259E+03  0.64606991635E+03  0.00000000000E+00 0. -1.
          1    1    1    2  501    0  0.20381572514E+03 -0.13959421132E+03  0.12199506122E+03  0.27551803681E+03  0.00000000000E+00 0. -1.
<scales pt_clust_5="13000.00000" pt_clust_6="13000.00000" pt_clust_7="13000.00000" pt_clust_8="13000.00000" pt_clust_9="13000.00000" pt_clust_10="257.93817"></scales>
<clustering>
<clus scale="   74.591">  5  6 -1 -1</clus>
<clus scale="   94.112">  7  8 -1 -1</clus>
<clus scale="   98.521">  2  5  1 -1</clus>
<clus scale="  137.353">  2  7  1 -1</clus>
<clus scale="  257.938">  2 10  1 -1</clus>
<clus scale="  257.938">  1  5  2 -1</clus>
</clustering>
</event>
<event>
10    4  0.3043429E-005  0.9305839E+02  0.7546771E-02  0.1303424E+00
         -1   -1    0    0    0  501 -0.00000000000E+00  0.00000000000E+00  0.30211563615E+03  0.30211563615E+03  0.00000000000E+00 0.  1.
         21   -1    0    0  501  502  0.00000000000E+00 -0.00000000000E+00 -0.38804423959E+03  0.38804423959E+03  0.00000000000E+00 0.  1.
         23    2    1    2    0    0 -0.11217189107E+02 -0.18856153574E+02  0.24940448755E+03  0.26643759672E+03  0.91131853246E+02 0.  0.
         24    2    1    2    0    0  0.30280071447E+02 -0.91203107078E+02 -0.19085524638E+03  0.22758844883E+03  0.78331906034E+02 0.  0.
        -13    1    4    4    0    0  0.47740180833E+02 -0.35618114216E+02 -0.60977207554E+02  0.85240804591E+02  0.00000000000E+00 0.  1.
         14    1    4    4    0    0 -0.17460109386E+02 -0.55584992862E+02 -0.12987803883E+03  0.14234764424E+03  0.00000000000E+00 0. -1.
        -11    1    3    3    0    0  0.19848994349E+02 -0.39221100284E+02  0.19915672684E+03  0.20395018786E+03  0.00000000000E+00 0.  1.
         11    1    3    3    0    0 -0.31066183456E+02  0.20364946710E+02  0.50247760711E+02  0.62487408856E+02  0.00000000000E+00 0. -1.
         21    1    1    2  503  502 -0.20394432108E+02  0.27415232069E+02 -0.92215551354E+02  0.98342441102E+02  0.00000000000E+00 0.  1.
         -2    1    1    2    0  503  0.13315497680E+01  0.82644028582E+02 -0.52262293256E+02  0.97791389097E+02  0.00000000000E+00 0.  1.
<scales pt_clust_5="13000.00000" pt_clust_6="13000.00000" pt_clust_7="13000.00000" pt_clust_8="13000.00000" pt_clust_9="34.16911" pt_clust_10="89.75427"></scales>
<clustering>
<clus scale="   34.169">  2  9  1 -1</clus>
<clus scale="   78.332">  5  6 -1 -1</clus>
<clus scale="   89.754">  2 10  1 -1</clus>
<clus scale="   80.565">  2  5  1 -1</clus>
<clus scale="   91.132">  7  8 -1 -1</clus>
<clus scale="   34.169">  2  5  1 -1</clus>
</clustering>
</event>
<event>
10    4  0.3043429E-005  0.1930377E+03  0.7546771E-02  0.1156426E+00
         21   -1    0    0  503  502  0.00000000000E+00  0.00000000000E+00  0.48778094818E+03  0.48778094818E+03  0.00000000000E+00 0.  1.
         -3   -1    0    0    0  501 -0.00000000000E+00 -0.00000000000E+00 -0.76522615140E+03  0.76522615140E+03  0.00000000000E+00 0.  1.
         24    2    1    2    0    0  0.41917937252E+00 -0.17981819118E+03 -0.51288166107E+03  0.54959306429E+03  0.81671172764E+02 0.  0.
         23    2    1    2    0    0 -0.25016906234E+02  0.15441126160E+03 -0.18387282856E+03  0.25712064184E+03  0.88504938114E+02 0.  0.
        -11    1    3    3    0    0 -0.19034195586E+02 -0.99030536649E+02 -0.37755241684E+03  0.39078789036E+03  0.00000000000E+00 0.  1.
         12    1    3    3    0    0  0.19453374959E+02 -0.80787654534E+02 -0.13532924423E+03  0.15880517393E+03  0.00000000000E+00 0. -1.
        -13    1    4    4    0    0  0.20851170211E+02  0.39612621422E+02 -0.94526952209E+02  0.10459099277E+03  0.00000000000E+00 0.  1.
         13    1    4    4    0    0 -0.45868076445E+02  0.11479864018E+03 -0.89345876355E+02  0.15252964907E+03  0.00000000000E+00 0. -1.
         21    1    1    2  503  501  0.51758131741E+02  0.26680203063E+01  0.40465338136E+03  0.40795879887E+03  0.00000000000E+00 0.  1.
         -4    1    1    2    0  502 -0.27160404880E+02  0.22738909272E+02  0.14655905063E+02  0.38334594577E+02  0.00000000000E+00 0.  1.
<scales pt_clust_5="13000.00000" pt_clust_6="13000.00000" pt_clust_7="13000.00000" pt_clust_8="13000.00000" pt_clust_9="35.91551" pt_clust_10="35.42239"></scales>
<clustering>
<clus scale="   35.422">  1 10  2 -1</clus>
<clus scale="   35.916">  1  9  2 -1</clus>
<clus scale="   81.671">  5  6 -1 -1</clus>
<clus scale="   88.505">  7  8 -1 -1</clus>
<clus scale="  190.002">  2  5  1 -1</clus>
<clus scale="   35.422">  1  5  2 -1</clus>
</clustering>
</event>
<event>
10    4  0.3043429E-005  0.5132123E+03  0.7546771E-02  0.1021596E+00
         21   -1    0    0  503  502  0.00000000000E+00  0.00000000000E+00  0.10149487601E+04  0.10149487601E+04  0.00000000000E+00 0.  1.
          2   -1    0    0  502    0 -0.00000000000E+00 -0.00000000000E+00 -0.86245061873E+03  0.86245061873E+03  0.00000000000E+00 0. -1.
         23    2    1    2    0    0  0.18423196690E+03  0.29657215046E+03 -0.30584208443E+03  0.47312916933E+03  0.91735337807E+02 0.  0.
         24    2    1    2    0    0 -0.30329393860E+02  0.41322745102E+03  0.31243222455E+03  0.52530132447E+03  0.81552364452E+02 0.  0.
        -13    1    4    4    0    0  0.38170917214E+01  0.35208288872E+03  0.26576467984E+03  0.44114373596E+03  0.00000000000E+00 0.  1.
         14    1    4    4    0    0 -0.34146485582E+02  0.61144562291E+02  0.46667544705E+02  0.84157588512E+02  0.00000000000E+00 0. -1.
        -11    1    3    3    0    0 -0.11109335010E+01  0.43740998474E+02 -0.62422116221E+02  0.76230110287E+02  0.00000000000E+00 0. -1.
         11    1    3    3    0    0  0.18534290040E+03  0.25283115199E+03 -0.24341996821E+03  0.39689905904E+03  0.00000000000E+00 0.  1.
         21    1    1    2  503  501  0.15892007461E+02  0.36955380452E+02  0.10456751958E+03  0.11203848534E+03  0.00000000000E+00 0.  1.
          1    1    1    2  501    0 -0.16979458051E+03 -0.74675498193E+03  0.41340481707E+02  0.76693039973E+03  0.00000000000E+00 0. -1.
<scales pt_clust_5="13000.00000" pt_clust_6="13000.00000" pt_clust_7="13000.00000" pt_clust_8="13000.00000" pt_clust_9="40.22755" pt_clust_10="506.69153"></scales>
<clustering>
<clus scale="   40.228">  1  9  2 -1</clus>
<clus scale="   81.552">  5  6 -1 -1</clus>
<clus scale="   91.735">  7  8 -1 -1</clus>
<clus scale="  364.538">  2  7  1 -1</clus>
<clus scale="  506.692">  1 10  2 -1</clus>
<clus scale="   40.228">  1  5  2 -1</clus>
</clustering>
</event>
<event>
10    4  0.3043429E-005  0.4798867E+03  0.7546771E-02  0.1019306E+00
         21   -1    0    0  501  502  0.00000000000E+00  0.00000000000E+00  0.13877647098E+03  0.13877647098E+03  0.00000000000E+00 0. -1.
          2   -1    0    0  503    0 -0.00000000000E+00 -0.00000000000E+00 -0.32176349937E+04  0.32176349937E+04  0.00000000000E+00 0. -1.
         23    2    1    2    0    0  0.44204007276E+03  0.32350422759E+03 -0.20907994842E+04  0.21632923546E+04  0.91306719289E+02 0.  0.
         24    2    1    2    0    0 -0.34728902501E+03 -0.15281540839E+03 -0.76928513915E+03  0.86148217915E+03  0.79935622473E+02 0.  0.
        -11    1    4    4    0    0 -0.32821317183E+03 -0.12168662694E+03 -0.67479147413E+03  0.76018093563E+03  0.00000000000E+00 0.  1.
         12    1    4    4    0    0 -0.19075853176E+02 -0.31128781447E+02 -0.94493665027E+02  0.10130124352E+03  0.00000000000E+00 0. -1.
        -13    1    3    3    0    0  0.52686966367E+02  0.35751106661E+02 -0.38039287048E+03  0.38568483761E+03  0.00000000000E+00 0.  1.
         13    1    3    3    0    0  0.38935310639E+03  0.28775312093E+03 -0.17104066137E+04  0.17776075170E+04  0.00000000000E+00 0. -1.
         21    1    1    2  503  502 -0.80758648268E+01  0.24132223777E+02  0.93829717581E+00  0.25464960607E+02  0.00000000000E+00 0.  1.
          1    1    1    2  501    0 -0.86675182920E+02 -0.19482104298E+03 -0.21971219655E+03  0.30617197036E+03  0.00000000000E+00 0. -1.
<scales pt_clust_5="13000.00000" pt_clust_6="13000.00000" pt_clust_7="13000.00000" pt_clust_8="13000.00000" pt_clust_9="25.44767" pt_clust_10="206.85623"></scales>
<clustering>
<clus scale="   25.448">  1  9  2 -1</clus>
<clus scale="   79.936">  5  6 -1 -1</clus>
<clus scale="   91.307">  7  8 -1 -1</clus>
<clus scale="  206.856">  1 10  2 -1</clus>
<clus scale="  477.854">  1  5  2 -1</clus>
<clus scale="   25.448">  1  5  2 -1</clus>
</clustering>
</event>
<event>
10    4  0.3043429E-005  0.9911848E+02  0.7546771E-02  0.1287728E+00
         21   -1    0    0  501  502  0.00000000000E+00  0.00000000000E+00  0.22502050243E+03  0.22502050243E+03  0.00000000000E+00 0.  1.
         -1   -1    0    0    0  501 -0.00000000000E+00 -0.00000000000E+00 -0.19928134279E+03  0.19928134279E+03  0.00000000000E+00 0.  1.
         24    2    1    2    0    0 -0.52823515968E+02 -0.31624247355E+02 -0.59145994712E+02  0.11669244672E+03  0.79551628332E+02 0.  0.
         23    2    1    2    0    0 -0.44478387729E+02  0.29090711805E+02  0.39261306491E+02  0.11205935194E+03  0.90505533979E+02 0.  0.
        -11    1    3    3    0    0 -0.56223803693E+02 -0.50885313189E+02 -0.60612181687E+02  0.97078667940E+02  0.00000000000E+00 0.  1.
         12    1    3    3    0    0  0.34002877243E+01  0.19261065834E+02  0.14661869756E+01  0.19613778777E+02  0.00000000000E+00 0. -1.
        -11    1    4    4    0    0  0.22654943932E+02 -0.11785428010E+02  0.15817445136E+02  0.30038880947E+02  0.00000000000E+00 0.  1.
         11    1    4    4    0    0 -0.67133331662E+02  0.40876139815E+02  0.23443861355E+02  0.82020470990E+02  0.00000000000E+00 0. -1.
         21    1    1    2  503  502  0.41403715422E+02  0.89974661491E+01  0.10531402666E+03  0.11351769139E+03  0.00000000000E+00 0.  1.
         -2    1    1    2    0  503  0.55898188276E+02 -0.64639305992E+01 -0.59690178793E+02  0.82032355176E+02  0.00000000000E+00 0.  1.
<scales pt_clust_5="13000.00000" pt_clust_6="13000.00000" pt_clust_7="13000.00000" pt_clust_8="13000.00000" pt_clust_9="42.37006" pt_clust_10="60.15983"></scales>
<clustering>
<clus scale="   42.370">  1  9  2 -1</clus>
<clus scale="   60.160">  1 10  2 -1</clus>
<clus scale="   79.552">  5  6 -1 -1</clus>
<clus scale="   89.228">  2  5  1 -1</clus>
<clus scale="   90.506">  7  8 -1 -1</clus>
<clus scale="   42.370">  1  5  2 -1</clus>
</clustering>
</event>
<event>
10    4  0.4104557E-005  0.2268905E+03  0.7546771E-02  0.1165038E+00
          2   -1    0    0  503    0 -0.00000000000E+00  0.00000000000E+00  0.48811025809E+03  0.48811025809E+03  0.00000000000E+00 0. -1.
         21   -1    0    0  501  502  0.00000000000E+00 -0.00000000000E+00 -0.10636936320E+04  0.10636936320E+04  0.00000000000E+00 0. -1.
         24    2    1    2    0    0 -0.88880578502E+02  0.14819243578E+02  0.20776817750E+03  0.23550237966E+03  0.64609504162E+02 0.  0.
         23    2    1    2    0    0  0.39199096335E+02 -0.19600575693E+03 -0.99090585520E+03  0.10171611202E+04  0.11299338298E+03 0.  0.
        -11    1    3    3    0    0 -0.85581980294E+02 -0.71134193123E+01  0.14044431889E+03  0.16461920542E+03  0.00000000000E+00 0.  1.
         12    1    3    3    0    0 -0.32985982073E+01  0.21932662890E+02  0.67323858611E+02  0.70883174237E+02  0.00000000000E+00 0. -1.
        -11    1    4    4    0    0 -0.22616003286E+02 -0.14436303444E+03 -0.71289654788E+03  0.72771811664E+03  0.00000000000E+00 0. -1.
         11    1    4    4    0    0  0.61815099621E+02 -0.51642722491E+02 -0.27800930733E+03  0.28944300352E+03  0.00000000000E+00 0.  1.
         21    1    1    2  503  502  0.49894887803E+02  0.31052212554E+02  0.28026801415E+02  0.65109456540E+02  0.00000000000E+00 0. -1.
          1    1    1    2  501    0 -0.21340563554E+00  0.15013430080E+03  0.17952750239E+03  0.23403093371E+03  0.00000000000E+00 0. -1.
<scales pt_clust_5="13000.00000" pt_clust_6="13000.00000" pt_clust_7="13000.00000" pt_clust_8="13000.00000" pt_clust_9="58.76853" pt_clust_10="196.75329"></scales>
<clustering>
<clus scale="   58.769">  1  9  2 -1</clus>
<clus scale="   64.610">  5  6 -1 -1</clus>
<clus scale="   95.780">  1  5  2 -1</clus>
<clus scale="  112.993">  7  8 -1 -1</clus>
<clus scale="  196.753">  2 10  1 -1</clus>
<clus scale="  196.753">  2  5  1 -1</clus>
</clustering>
</event>
<event>
10    4  0.3043429E-005  0.3601898E+03  0.7546771E-02  0.1107317E+00
          2   -1    0    0  503    0 -0.00000000000E+00  0.00000000000E+00  0.33300814881E+03  0.33300814881E+03  0.00000000000E+00 0. -1.
         21   -1    0    0  501  502  0.00000000000E+00 -0.00000000000E+00 -0.11420931130E+04  0.11420931130E+04  0.00000000000E+00 0. -1.
         24    2    1    2    0    0 -0.44546029686E+02  0.32111938939E+02  0.73508440869E+02  0.12199135952E+03  0.80392011636E+02 0.  0.
         23    2    1    2    0    0 -0.24372356610E+03  0.22760654297E+03  0.20946848107E+01  0.34562938531E+03  0.90826038180E+02 0.  0.
        -11    1    3    3    0    0 -0.43350096159E+02 -0.18208433452E+02  0.36025871218E+02  0.59233784977E+02  0.00000000000E+00 0.  1.
         12    1    3    3    0    0 -0.11959335278E+01  0.50320372391E+02  0.37482569651E+02  0.62757574541E+02  0.00000000000E+00 0. -1.
        -13    1    4    4    0    0 -0.46865847166E+02  0.58549919391E+02  0.37309521056E+02  0.83764557258E+02  0.00000000000E+00 0.  1.
         13    1    4    4    0    0 -0.19685771893E+03  0.16905662358E+03 -0.35214836245E+02  0.26186482805E+03  0.00000000000E+00 0. -1.
         21    1    1    2  503  502  0.20384815549E+03 -0.16698659208E+03 -0.82971792559E+03  0.87055753886E+03  0.00000000000E+00 0. -1.
          1    1    1    2  501    0  0.84421440294E+02 -0.92731889836E+02 -0.54970164269E+02  0.13692297811E+03  0.00000000000E+00 0. -1.
<scales pt_clust_5="13000.00000" pt_clust_6="13000.00000" pt_clust_7="13000.00000" pt_clust_8="13000.00000" pt_clust_9="348.55030" pt_clust_10="116.06174"></scales>
<clustering>
<clus scale="   80.392">  5  6 -1 -1</clus>
<clus scale="   90.826">  7  8 -1 -1</clus>
<clus scale="   97.357">  1  5  2 -1</clus>
<clus scale="  116.062">  2 10  1 -1</clus>
<clus scale="  348.550">  2  9  1 -1</clus>
<clus scale="  116.062">  2  5  1 -1</clus>
</clustering>
</event>
<event>
10    4  0.3043429E-005  0.1273892E+03  0.7546771E-02  0.1231637E+00
         21   -1    0    0  501  502  0.00000000000E+00  0.00000000000E+00  0.96687080439E+02  0.96687080439E+02  0.00000000000E+00 0. -1.
          2   -1    0    0  503    0 -0.00000000000E+00 -0.00000000000E+00 -0.12139760425E+04  0.12139760425E+04  0.00000000000E+00 0. -1.
         24    2    1    2    0    0 -0.92866562224E+02  0.58255221116E+02 -0.10143313046E+04  0.10233875026E+04  0.80225407405E+02 0.  0.
         23    2    1    2    0    0  0.22814246550E+02 -0.55848718244E+02 -0.11753638423E+03  0.15511408888E+03  0.81277363256E+02 0.  0.
        -13    1    3    3    0    0 -0.33586955687E+02 -0.77025163960E+01 -0.12555485111E+03  0.13019766891E+03  0.00000000000E+00 0.  1.
         14    1    3    3    0    0 -0.59279606537E+02  0.65957737512E+02 -0.88877645344E+03  0.89318983373E+03  0.00000000000E+00 0. -1.
        -13    1    4    4    0    0 -0.26871463661E+02 -0.20004854663E+02 -0.69882921006E+02  0.77497692983E+02  0.00000000000E+00 0.  1.
         13    1    4    4    0    0  0.49685710211E+02 -0.35843863581E+02 -0.47653463223E+02  0.77616395902E+02  0.00000000000E+00 0. -1.
         21    1    1    2  503  502  0.15122712526E+02  0.51369423768E+02 -0.17412583708E+01  0.53577477667E+02  0.00000000000E+00 0. -1.
          1    1    1    2  501    0  0.54929603149E+02 -0.53775926640E+02  0.16319985104E+02  0.78584053737E+02  0.00000000000E+00 0. -1.
<scales pt_clust_5="13000.00000" pt_clust_6="13000.00000" pt_clust_7="13000.00000" pt_clust_8="13000.00000" pt_clust_9="53.54917" pt_clust_10="67.88062"></scales>
<clustering>
<clus scale="   53.549">  1  9  2 -1</clus>
<clus scale="   67.881">  1 10  2 -1</clus>
<clus scale="   80.225">  5  6 -1 -1</clus>
<clus scale="   81.277">  7  8 -1 -1</clus>
<clus scale="  126.721">  2  5  1 -1</clus>
<clus scale="   53.549">  1  5  2 -1</clus>
</clustering>
</event>
<event>
10    4  0.3043429E-005  0.1936567E+03  0.7546771E-02  0.1155839E+00
         21   -1    0    0  503  502  0.00000000000E+00  0.00000000000E+00  0.76015809790E+02  0.76015809790E+02  0.00000000000E+00 0.  1.
          2   -1    0    0  502    0 -0.00000000000E+00 -0.00000000000E+00 -0.19959626718E+04  0.19959626718E+04  0.00000000000E+00 0. -1.
         24    2    1    2    0    0 -0.17700298588E+03  0.40966398586E+02 -0.58091218486E+03  0.61432535159E+03  0.83236820363E+02 0.  0.
         23    2    1    2    0    0  0.14430492923E+03  0.18536199566E+03 -0.63845559973E+03  0.68617626168E+03  0.89606513323E+02 0.  0.
        -11    1    3    3    0    0 -0.15983142368E+03  0.63092935529E+02 -0.49951546700E+03  0.52824473900E+03  0.00000000000E+00 0.  1.
         12    1    3    3    0    0 -0.17171562197E+02 -0.22126536943E+02 -0.81396717856E+02  0.86080612585E+02  0.00000000000E+00 0. -1.
        -13    1    4    4    0    0  0.87595973718E+02  0.14593532768E+03 -0.53788943193E+03  0.56417658181E+03  0.00000000000E+00 0. -1.
         13    1    4    4    0    0  0.56708955509E+02  0.39426667976E+02 -0.10056616780E+03  0.12199967987E+03  0.00000000000E+00 0.  1.
         21    1    1    2  503  501 -0.20272505680E+01 -0.10413971067E+03 -0.63787992274E+02  0.12213966203E+03  0.00000000000E+00 0. -1.
          1    1    1    2  501    0  0.34725307217E+02 -0.12218868358E+03 -0.63679108517E+03  0.64933720631E+03  0.00000000000E+00 0. -1.
<scales pt_clust_5="13000.00000" pt_clust_6="13000.00000" pt_clust_7="13000.00000" pt_clust_8="13000.00000" pt_clust_9="104.15944" pt_clust_10="140.42790"></scales>
<clustering>
<clus scale="   83.237">  5  6 -1 -1</clus>
<clus scale="   89.607">  7  8 -1 -1</clus>
<clus scale="  104.159">  1  9  2 -1</clus>
<clus scale="  140.428">  1 10  2 -1</clus>
<clus scale="  190.793">  2  5  1 -1</clus>
<clus scale="  104.159">  1  5  2 -1</clus>
</clustering>
</event>
<event>
10    4  0.3043429E-005  0.1083341E+03  0.7546771E-02  0.1267958E+00
         21   -1    0    0  501  502  0.00000000000E+00  0.00000000000E+00  0.15890212372E+03  0.15890212372E+03  0.00000000000E+00 0. -1.
          2   -1    0    0  503    0 -0.00000000000E+00 -0.00000000000E+00 -0.12954796146E+04  0.12954796146E+04  0.00000000000E+00 0. -1.
         24    2    1    2    0    0  0.54659970715E+02  0.57348445948E+02 -0.66806487208E+03  0.67758526356E+03  0.80836621853E+02 0.  0.
         23    2    1    2    0    0  0.92286088277E+01 -0.18390418026E+02 -0.17892947257E+03  0.20192155029E+03  0.91286261943E+02 0.  0.
        -11    1    3    3    0    0  0.12314999786E+02  0.68332273605E+02 -0.40623073859E+03  0.41212179245E+03  0.00000000000E+00 0.  1.
         12    1    3    3    0    0  0.42344970929E+02 -0.10983827657E+02 -0.26183413349E+03  0.26546347111E+03  0.00000000000E+00 0. -1.
        -13    1    4    4    0    0 -0.17981634108E+02  0.30090075281E+02 -0.94889109472E+02  0.10115678372E+03  0.00000000000E+00 0. -1.
         13    1    4    4    0    0  0.27210242936E+02 -0.48480493307E+02 -0.84040363102E+02  0.10076476657E+03  0.00000000000E+00 0.  1.
         21    1    1    2  503  502 -0.47689531652E+02 -0.11773651481E+03  0.10953607927E+03  0.16773291570E+03  0.00000000000E+00 0. -1.
          1    1    1    2  501    0 -0.16199047890E+02  0.78778486889E+02 -0.39911922549E+03  0.40714200877E+03  0.00000000000E+00 0. -1.
<scales pt_clust_5="13000.00000" pt_clust_6="13000.00000" pt_clust_7="13000.00000" pt_clust_8="13000.00000" pt_clust_9="78.08779" pt_clust_10="80.42677"></scales>
<clustering>
<clus scale="   80.427">  1 10  2 -1</clus>
<clus scale="   78.088">  1  9  2 -1</clus>
<clus scale="   80.837">  5  6 -1 -1</clus>
<clus scale="   91.286">  7  8 -1 -1</clus>
<clus scale="   99.688">  2  5  1 -1</clus>
<clus scale="   80.427">  1  5  2 -1</clus>
</clustering>
</event>
<event>
10    4  0.3043429E-005  0.1561803E+03  0.7546771E-02  0.1211351E+00
         21   -1    0    0  503  502  0.00000000000E+00  0.00000000000E+00  0.69955438647E+03  0.69955438647E+03  0.00000000000E+00 0. -1.
          2   -1    0    0  502    0 -0.00000000000E+00 -0.00000000000E+00 -0.69643768123E+03  0.69643768123E+03  0.00000000000E+00 0. -1.
         24    2    1    2    0    0  0.45516448358E+02 -0.64011933877E+02  0.59132571148E+01  0.11229822393E+03  0.80041550082E+02 0.  0.
         23    2    1    2    0    0 -0.13862473265E+03  0.12269001357E+03 -0.59767280655E+03  0.63296758631E+03  0.95736752064E+02 0.  0.
        -11    1    3    3    0    0  0.25468653569E+02 -0.21569763436E+02 -0.36199189535E+02  0.49237062587E+02  0.00000000000E+00 0.  1.
         12    1    3    3    0    0  0.20047794789E+02 -0.42442170441E+02  0.42112446650E+02  0.63061161347E+02  0.00000000000E+00 0. -1.
        -13    1    4    4    0    0 -0.10946535658E+03  0.13705765753E+03 -0.51915837421E+03  0.54798985693E+03  0.00000000000E+00 0. -1.
         13    1    4    4    0    0 -0.29159376066E+02 -0.14367643961E+02 -0.78514432334E+02  0.84977729378E+02  0.00000000000E+00 0.  1.
         21    1    1    2  503  501 -0.23740063717E+02  0.57922238053E+02  0.34904912863E+03  0.35461792183E+03  0.00000000000E+00 0. -1.
          1    1    1    2  501    0  0.11684834801E+03 -0.11660031774E+03  0.24582712604E+03  0.29610833563E+03  0.00000000000E+00 0. -1.
<scales pt_clust_5="13000.00000" pt_clust_6="13000.00000" pt_clust_7="13000.00000" pt_clust_8="13000.00000" pt_clust_9="62.59853" pt_clust_10="123.39678"></scales>
<clustering>
<clus scale="   62.599">  1  9  2 -1</clus>
<clus scale="   80.042">  5  6 -1 -1</clus>
<clus scale="   95.737">  7  8 -1 -1</clus>
<clus scale="  105.173">  2  5  1 -1</clus>
<clus scale="  123.397">  1 10  2 -1</clus>
<clus scale="   62.599">  1  5  2 -1</clus>
</clustering>
</event>
<event>
10    4  0.3043429E-005  0.1477471E+03  0.7546771E-02  0.1226872E+00
          2   -1    0    0  503    0 -0.00000000000E+00  0.00000000000E+00  0.49964856255E+03  0.49964856255E+03  0.00000000000E+00 0. -1.
         21   -1    0    0  501  502  0.00000000000E+00 -0.00000000000E+00 -0.27797306611E+03  0.27797306611E+03  0.00000000000E+00 0. -1.
         23    2    1    2    0    0  0.15238060088E+02 -0.29389965413E+02  0.11773767870E+03  0.14787937400E+03  0.83127490815E+02 0.  0.
         24    2    1    2    0    0 -0.73144268643E+02  0.13028761517E+03  0.15161174212E+03  0.22396221678E+03  0.69627634553E+02 0.  0.
        -11    1    4    4    0    0 -0.26215347594E+02  0.60094487108E+00  0.32260833808E+02  0.41573633257E+02  0.00000000000E+00 0.  1.
         12    1    4    4    0    0 -0.46928921049E+02  0.12968667029E+03  0.11935090831E+03  0.18238858352E+03  0.00000000000E+00 0. -1.
        -11    1    3    3    0    0  0.32734310814E+02 -0.11881287012E+02  0.84644135879E+01  0.35837778710E+02  0.00000000000E+00 0.  1.
         11    1    3    3    0    0 -0.17496250726E+02 -0.17508678402E+02  0.10927326511E+03  0.11204159529E+03  0.00000000000E+00 0. -1.
         21    1    1    2  503  502  0.10767206296E+03 -0.69622798580E+02 -0.20277624003E+03  0.23991417370E+03  0.00000000000E+00 0. -1.
          1    1    1    2  501    0 -0.49765854405E+02 -0.31274851172E+02  0.15510231565E+03  0.16586586418E+03  0.00000000000E+00 0. -1.
<scales pt_clust_5="13000.00000" pt_clust_6="13000.00000" pt_clust_7="13000.00000" pt_clust_8="13000.00000" pt_clust_9="130.31191" pt_clust_10="58.77721"></scales>
<clustering>
<clus scale="   58.777">  2 10  1 -1</clus>
<clus scale="   69.628">  5  6 -1 -1</clus>
<clus scale="   83.127">  7  8 -1 -1</clus>
<clus scale="   89.635">  1  7  2 -1</clus>
<clus scale="  130.312">  2  9  1 -1</clus>
<clus scale="   58.777">  2  5  1 -1</clus>
</clustering>
</event>
<event>
10    4  0.3043429E-005  0.2291281E+03  0.7546771E-02  0.1128150E+00
         21   -1    0    0  501  502  0.00000000000E+00  0.00000000000E+00  0.72269213461E+02  0.72269213461E+02  0.00000000000E+00 0. -1.
          2   -1    0    0  503    0 -0.00000000000E+00 -0.00000000000E+00 -0.16921349418E+04  0.16921349418E+04  0.00000000000E+00 0. -1.
         24    2    1    2    0    0  0.11550307746E+03  0.20317038644E+03 -0.12508434121E+04  0.12750653426E+04  0.81013699760E+02 0.  0.
         23    2    1    2    0    0 -0.94663894823E+02 -0.86535640938E+02 -0.10774003541E+03  0.19206509082E+03  0.93975601872E+02 0.  0.
        -11    1    3    3    0    0  0.52036032002E+02  0.70049123224E+02 -0.28600037039E+03  0.29901645466E+03  0.00000000000E+00 0.  1.
         12    1    3    3    0    0  0.63467045459E+02  0.13312126321E+03 -0.96484304166E+03  0.97604888792E+03  0.00000000000E+00 0. -1.
        -11    1    4    4    0    0 -0.21776343423E+02  0.20125916243E+02 -0.23549646170E+02  0.37866178474E+02  0.00000000000E+00 0.  1.
         11    1    4    4    0    0 -0.72887551400E+02 -0.10666155718E+03 -0.84190389242E+02  0.15419891235E+03  0.00000000000E+00 0. -1.
         21    1    1    2  503  502 -0.23682030665E+02 -0.14146411665E+02 -0.17139789886E+02  0.32476636783E+02  0.00000000000E+00 0.  1.
          1    1    1    2  501    0  0.28428480274E+01 -0.10248833383E+03 -0.24414249098E+03  0.26479708507E+03  0.00000000000E+00 0. -1.
<scales pt_clust_5="13000.00000" pt_clust_6="13000.00000" pt_clust_7="13000.00000" pt_clust_8="13000.00000" pt_clust_9="27.58550" pt_clust_10="104.75407"></scales>
<clustering>
<clus scale="   27.585">  1  9  2 -1</clus>
<clus scale="   81.014">  5  6 -1 -1</clus>
<clus scale="   93.976">  7  8 -1 -1</clus>
<clus scale="  104.754">  1 10  2 -1</clus>
<clus scale="  224.124">  2  5  1 -1</clus>
<clus scale="   27.585">  1  5  2 -1</clus>
</clustering>
</event>
<event>
10    4  0.3043429E-005  0.2245697E+03  0.7546771E-02  0.1131140E+00
         -1   -1    0    0    0  501 -0.00000000000E+00  0.00000000000E+00  0.38739129122E+03  0.38739129122E+03  0.00000000000E+00 0.  1.
         21   -1    0    0  503  502  0.00000000000E+00 -0.00000000000E+00 -0.18785441543E+03  0.18785441543E+03  0.00000000000E+00 0. -1.
         23    2    1    2    0    0 -0.19411433696E+03  0.74918028647E+02  0.10049787395E+03  0.24786601293E+03  0.89691977715E+02 0.  0.
         24    2    1    2    0    0  0.19259810984E+03 -0.65122588719E+02  0.43160897630E+02  0.22301194685E+03  0.80848511925E+02 0.  0.
        -13    1    4    4    0    0  0.22922986829E+02  0.16156853934E+02  0.17688775749E+02  0.33157201958E+02  0.00000000000E+00 0.  1.
         14    1    4    4    0    0  0.16967512301E+03 -0.81279442653E+02  0.25472121881E+02  0.18985474489E+03  0.00000000000E+00 0. -1.
        -11    1    3    3    0    0 -0.35259935353E+02  0.45606944877E+02  0.53165178408E-01  0.57647717116E+02  0.00000000000E+00 0. -1.
         11    1    3    3    0    0 -0.15885440161E+03  0.29311083770E+02  0.10044470877E+03  0.19021829581E+03  0.00000000000E+00 0.  1.
         21    1    1    2  503  501  0.89371644177E+01 -0.28524271509E+02 -0.13005814206E+02  0.32598438246E+02  0.00000000000E+00 0. -1.
         -2    1    1    2    0  502 -0.74209372957E+01  0.18728831581E+02  0.68883918424E+02  0.71769308623E+02  0.00000000000E+00 0.  1.
<scales pt_clust_5="13000.00000" pt_clust_6="13000.00000" pt_clust_7="13000.00000" pt_clust_8="13000.00000" pt_clust_9="27.43464" pt_clust_10="20.14547"></scales>
<clustering>
<clus scale="   20.145">  2 10  1 -1</clus>
<clus scale="   27.435">  2  9  1 -1</clus>
<clus scale="   80.849">  5  6 -1 -1</clus>
<clus scale="   89.692">  7  8 -1 -1</clus>
<clus scale="  221.186">  2  5  1 -1</clus>
<clus scale="   20.145">  2  5  1 -1</clus>
</clustering>
</event>
<event>
10    4  0.3043429E-005  0.1580833E+03  0.7546771E-02  0.1192895E+00
          2   -1    0    0  503    0 -0.00000000000E+00  0.00000000000E+00  0.68358208646E+03  0.68358208646E+03  0.00000000000E+00 0. -1.
         21   -1    0    0  501  502  0.00000000000E+00 -0.00000000000E+00 -0.21047751106E+03  0.21047751106E+03  0.00000000000E+00 0.  1.
         24    2    1    2    0    0  0.57834504507E+02  0.89330119568E+02  0.12303086059E+03  0.18105801277E+03  0.79502900296E+02 0.  0.
         23    2    1    2    0    0 -0.73363216765E+02 -0.22540318839E+03 -0.14500490230E+02  0.25464547774E+03  0.91898292722E+02 0.  0.
        -11    1    3    3    0    0  0.51597630906E+02  0.10178811489E+03  0.90428915100E+02  0.14560399904E+03  0.00000000000E+00 0.  1.
         12    1    3    3    0    0  0.62368736013E+01 -0.12457995327E+02  0.32601945489E+02  0.35454013730E+02  0.00000000000E+00 0. -1.
        -11    1    4    4    0    0 -0.22397082004E+02 -0.19088148833E+03 -0.42313863426E+01  0.19223755226E+03  0.00000000000E+00 0.  1.
         11    1    4    4    0    0 -0.50966134761E+02 -0.34521700058E+02 -0.10269103888E+02  0.62407925474E+02  0.00000000000E+00 0. -1.
         21    1    1    2  503  502 -0.11606009565E+02  0.34312800074E+02 -0.31817615821E+02  0.48212326054E+02  0.00000000000E+00 0.  1.
          1    1    1    2  501    0  0.27134721823E+02  0.10176026875E+03  0.39639182086E+03  0.41014378097E+03  0.00000000000E+00 0. -1.
<scales pt_clust_5="13000.00000" pt_clust_6="13000.00000" pt_clust_7="13000.00000" pt_clust_8="13000.00000" pt_clust_9="36.22248" pt_clust_10="106.53579"></scales>
<clustering>
<clus scale="   36.222">  2  9  1 -1</clus>
<clus scale="   79.503">  5  6 -1 -1</clus>
<clus scale="   91.898">  7  8 -1 -1</clus>
<clus scale="  106.536">  2 10  1 -1</clus>
<clus scale="  151.214">  1  5  2 -1</clus>
<clus scale="   36.222">  2  5  1 -1</clus>
</clustering>
</event>
<event>
10    4  0.3043429E-005  0.2197492E+03  0.7546771E-02  0.1169456E+00
         21   -1    0    0  503  502  0.00000000000E+00  0.00000000000E+00  0.60505207174E+03  0.60505207174E+03  0.00000000000E+00 0.  1.
          2   -1    0    0  502    0 -0.00000000000E+00 -0.00000000000E+00 -0.53299650853E+03  0.53299650853E+03  0.00000000000E+00 0. -1.
         24    2    1    2    0    0  0.50997270501E+02  0.52668938141E+01 -0.13161005805E+03  0.16245981165E+03  0.80271546958E+02 0.  0.
         23    2    1    2    0    0  0.19315860573E+03  0.14676302060E+03 -0.11075286480E+03  0.28096424846E+03  0.88459486040E+02 0.  0.
        -11    1    3    3    0    0 -0.19142035988E+02  0.11857933372E+02 -0.48754552155E+02  0.53703207367E+02  0.00000000000E+00 0.  1.
         12    1    3    3    0    0  0.70139306488E+02 -0.65910395581E+01 -0.82855505896E+02  0.10875660428E+03  0.00000000000E+00 0. -1.
        -13    1    4    4    0    0  0.99535029120E+02  0.26467159640E+02 -0.65085840260E+02  0.12183554146E+03  0.00000000000E+00 0. -1.
         13    1    4    4    0    0  0.93623576607E+02  0.12029586096E+03 -0.45667024540E+02  0.15912870700E+03  0.00000000000E+00 0.  1.
         21    1    1    2  503  501 -0.93726018706E+02 -0.33483798512E+02  0.44941475945E+03  0.46030354915E+03  0.00000000000E+00 0.  1.
          1    1    1    2  501    0 -0.15042985752E+03 -0.11854611590E+03 -0.13499627338E+03  0.23432097101E+03  0.00000000000E+00 0. -1.
<scales pt_clust_5="13000.00000" pt_clust_6="13000.00000" pt_clust_7="13000.00000" pt_clust_8="13000.00000" pt_clust_9="98.82526" pt_clust_10="201.15838"></scales>
<clustering>
<clus scale="   80.272">  5  6 -1 -1</clus>
<clus scale="   88.459">  7  8 -1 -1</clus>
<clus scale="   95.247">  2  5  1 -1</clus>
<clus scale="   98.825">  1  9  2 -1</clus>
<clus scale="  201.158">  1 10  2 -1</clus>
<clus scale="   98.825">  1  5  2 -1</clus>
</clustering>
</event>
<event>
10    4  0.3043429E-005  0.1105530E+03  0.7546771E-02  0.1264361E+00
          2   -1    0    0  503    0 -0.00000000000E+00  0.00000000000E+00  0.11692305368E+04  0.11692305368E+04  0.00000000000E+00 0. -1.
         21   -1    0    0  501  502  0.00000000000E+00 -0.00000000000E+00 -0.26474743978E+02  0.26474743978E+02  0.00000000000E+00 0.  1.
         24    2    1    2    0    0 -0.28102596401E+02  0.62663023947E+02  0.79749731521E+03  0.80444486974E+03  0.80082271453E+02 0.  0.
         23    2    1    2    0    0  0.16721892306E+02 -0.39061960637E+02  0.30549728736E+03  0.32194326568E+03  0.92268170470E+02 0.  0.
        -13    1    3    3    0    0 -0.61574946199E+01  0.28055517756E+02  0.68260340817E+02  0.74057416543E+02  0.00000000000E+00 0.  1.
         14    1    3    3    0    0 -0.21945101781E+02  0.34607506191E+02  0.72923697439E+03  0.73038745320E+03  0.00000000000E+00 0. -1.
        -13    1    4    4    0    0  0.33660133457E+02  0.12654170474E+02  0.20031360288E+03  0.20351577854E+03  0.00000000000E+00 0. -1.
         13    1    4    4    0    0 -0.16938241151E+02 -0.51716131111E+02  0.10518368448E+03  0.11842748714E+03  0.00000000000E+00 0.  1.
         21    1    1    2  503  502 -0.15547626021E+02 -0.25082442061E+02  0.17210082210E+02  0.34162033082E+02  0.00000000000E+00 0.  1.
          1    1    1    2  501    0  0.26928330115E+02  0.14813787517E+01  0.22551108089E+02  0.35155112314E+02  0.00000000000E+00 0. -1.
<scales pt_clust_5="13000.00000" pt_clust_6="13000.00000" pt_clust_7="13000.00000" pt_clust_8="13000.00000" pt_clust_9="24.82361" pt_clust_10="26.96905"></scales>
<clustering>
<clus scale="   26.969">  2 10  1 -1</clus>
<clus scale="   24.824">  2  9  1 -1</clus>
<clus scale="   80.082">  5  6 -1 -1</clus>
<clus scale="   92.268">  7  8 -1 -1</clus>
<clus scale="  100.607">  1  5  2 -1</clus>
<clus scale="   26.969">  2  5  1 -1</clus>
</clustering>
</event>
<event>
10    4  0.3043429E-005  0.2272276E+03  0.7546771E-02  0.1172042E+00
          2   -1    0    0  503    0 -0.00000000000E+00  0.00000000000E+00  0.28065369001E+03  0.28065369001E+03  0.00000000000E+00 0. -1.
         21   -1    0    0  501  502  0.00000000000E+00 -0.00000000000E+00 -0.57251242806E+03  0.57251242806E+03  0.00000000000E+00 0. -1.
         24    2    1    2    0    0  0.23907083193E+01 -0.73593625369E+01  0.20193724382E+02  0.83949314103E+02  0.81116121276E+02 0.  0.
         23    2    1    2    0    0  0.37573886047E+02  0.18134759695E+03 -0.19350277297E+03  0.28262774361E+03  0.90201831907E+02 0.  0.
        -13    1    3    3    0    0  0.31134661375E+02 -0.28081077261E+02 -0.22791733921E+01  0.41989387593E+02  0.00000000000E+00 0.  1.
         14    1    3    3    0    0 -0.28743953056E+02  0.20721714724E+02  0.22472897774E+02  0.41959926510E+02  0.00000000000E+00 0. -1.
        -11    1    4    4    0    0  0.22509199745E+02  0.15029464553E+03 -0.97373588671E+02  0.18049033303E+03  0.00000000000E+00 0. -1.
         11    1    4    4    0    0  0.15064686302E+02  0.31052951417E+02 -0.96129184297E+02  0.10213741057E+03  0.00000000000E+00 0.  1.
         21    1    1    2  503  502 -0.18117756046E+02  0.37179038332E+02 -0.23896792359E+03  0.24252051971E+03  0.00000000000E+00 0. -1.
          1    1    1    2  501    0 -0.21846838320E+02 -0.21116727274E+03  0.12041823413E+03  0.24406854064E+03  0.00000000000E+00 0. -1.
<scales pt_clust_5="13000.00000" pt_clust_6="13000.00000" pt_clust_7="13000.00000" pt_clust_8="13000.00000" pt_clust_9="41.35860" pt_clust_10="208.55713"></scales>
<clustering>
<clus scale="   41.359">  2  9  1 -1</clus>
<clus scale="   81.116">  5  6 -1 -1</clus>
<clus scale="   81.207">  1  5  2 -1</clus>
<clus scale="   90.202">  7  8 -1 -1</clus>
<clus scale="  208.557">  2 10  1 -1</clus>
<clus scale="   41.359">  2  5  1 -1</clus>
</clustering>
</event>
<event>
10    4  0.3043429E-005  0.3211747E+03  0.7546771E-02  0.1118656E+00
          2   -1    0    0  503    0 -0.00000000000E+00  0.00000000000E+00  0.74702305316E+03  0.74702305316E+03  0.00000000000E+00 0. -1.
         21   -1    0    0  501  502  0.00000000000E+00 -0.00000000000E+00 -0.52270157505E+03  0.52270157505E+03  0.00000000000E+00 0.  1.
         23    2    1    2    0    0  0.19684113721E+03 -0.23865878811E+03  0.57671650608E+03  0.66077625326E+03  0.91207883713E+02 0.  0.
         24    2    1    2    0    0  0.30017175059E+02  0.66679176776E+02 -0.12758949706E+03  0.16793096619E+03  0.81083822269E+02 0.  0.
        -11    1    4    4    0    0  0.23179721055E+02  0.78101577565E+02 -0.13092881004E+03  0.15420606079E+03  0.00000000000E+00 0.  1.
         12    1    4    4    0    0  0.68374540038E+01 -0.11422400789E+02  0.33393129857E+01  0.13724905401E+02  0.00000000000E+00 0. -1.
        -13    1    3    3    0    0  0.11978018542E+03 -0.13712700098E+03  0.42669020138E+03  0.46391339188E+03  0.00000000000E+00 0. -1.
         13    1    3    3    0    0  0.77060951786E+02 -0.10153178713E+03  0.15002630470E+03  0.19686286138E+03  0.00000000000E+00 0.  1.
         21    1    1    2  503  502 -0.22729324319E+03  0.20151624596E+03 -0.11094600932E+03  0.32338836214E+03  0.00000000000E+00 0.  1.
          1    1    1    2  501    0  0.43493091987E+00 -0.29536634626E+02 -0.11385952159E+03  0.11762904662E+03  0.00000000000E+00 0. -1.
<scales pt_clust_5="13000.00000" pt_clust_6="13000.00000" pt_clust_7="13000.00000" pt_clust_8="13000.00000" pt_clust_9="307.95176" pt_clust_10="29.53984"></scales>
<clustering>
<clus scale="   29.540">  2 10  1 -1</clus>
<clus scale="   81.084">  5  6 -1 -1</clus>
<clus scale="   91.208">  7  8 -1 -1</clus>
<clus scale="  103.034">  2  5  1 -1</clus>
<clus scale="  307.952">  2  9  1 -1</clus>
<clus scale="   29.540">  2  5  1 -1</clus>
</clustering>
</event>
<event>
10    4  0.3043429E-005  0.4870258E+03  0.7546771E-02  0.1017222E+00
          2   -1    0    0  503    0 -0.00000000000E+00  0.00000000000E+00  0.21340605378E+04  0.21340605378E+04  0.00000000000E+00 0. -1.
         21   -1    0    0  501  502  0.00000000000E+00 -0.00000000000E+00 -0.22352418557E+03  0.22352418557E+03  0.00000000000E+00 0. -1.
         24    2    1    2    0    0 -0.24313331974E+03 -0.11461261743E+03  0.63586368235E+01  0.27941557816E+03  0.76044525219E+02 0.  0.
         23    2    1    2    0    0 -0.75791071401E+02 -0.17108619706E+02  0.55212504849E+02  0.13083445263E+03  0.89622775736E+02 0.  0.
        -11    1    3    3    0    0 -0.21117542874E+03 -0.82278991547E+02 -0.18870525234E+02  0.22742249422E+03  0.00000000000E+00 0.  1.
         12    1    3    3    0    0 -0.31957890997E+02 -0.32333625882E+02  0.25229162058E+02  0.51993083942E+02  0.00000000000E+00 0. -1.
        -13    1    4    4    0    0 -0.37622774210E+02  0.33231709360E+02  0.56027349578E+01  0.50509506880E+02  0.00000000000E+00 0. -1.
         13    1    4    4    0    0 -0.38168297191E+02 -0.50340329066E+02  0.49609769891E+02  0.80324945749E+02  0.00000000000E+00 0.  1.
         21    1    1    2  503  502 -0.11470888432E+03 -0.26532689315E+01  0.15052542078E+03  0.18926983457E+03  0.00000000000E+00 0. -1.
          1    1    1    2  501    0  0.43363327546E+03  0.13437450607E+03  0.16984397898E+04  0.17580648580E+04  0.00000000000E+00 0. -1.
<scales pt_clust_5="13000.00000" pt_clust_6="13000.00000" pt_clust_7="13000.00000" pt_clust_8="13000.00000" pt_clust_9="114.73957" pt_clust_10="437.88526"></scales>
<clustering>
<clus scale="   76.045">  5  6 -1 -1</clus>
<clus scale="   89.623">  7  8 -1 -1</clus>
<clus scale="   92.224">  5  7 -1 -1</clus>
<clus scale="  114.740">  2  9  1 -1</clus>
<clus scale="  437.885">  2 10  1 -1</clus>
<clus scale="  114.740">  2  5  1 -1</clus>
</clustering>
</event>
<event>
10    4  0.3043429E-005  0.1685678E+03  0.7546771E-02  0.1180602E+00
         21   -1    0    0  501  502  0.00000000000E+00  0.00000000000E+00  0.17700538794E+03  0.17700538794E+03  0.00000000000E+00 0. -1.
          2   -1    0    0  503    0 -0.00000000000E+00 -0.00000000000E+00 -0.42164636819E+03  0.42164636819E+03  0.00000000000E+00 0. -1.
         23    2    1    2    0    0  0.10781813306E+02  0.11814590430E+03 -0.14343897352E+03  0.20660724986E+03  0.89649954652E+02 0.  0.
         24    2    1    2    0    0  0.10796676617E+03 -0.17180367757E+03 -0.58412761294E+02  0.22598021904E+03  0.80508896964E+02 0.  0.
        -13    1    4    4    0    0  0.63810998701E+02 -0.10117135050E+03 -0.74812004883E+02  0.14108267715E+03  0.00000000000E+00 0.  1.
         14    1    4    4    0    0  0.44155767470E+02 -0.70632327073E+02  0.16399243589E+02  0.84897541890E+02  0.00000000000E+00 0. -1.
        -11    1    3    3    0    0  0.19161620345E+02 -0.62039063446E+01 -0.58724771997E+01  0.20979564739E+02  0.00000000000E+00 0.  1.
         11    1    3    3    0    0 -0.83798070384E+01  0.12434981065E+03 -0.13756649632E+03  0.18562768512E+03  0.00000000000E+00 0. -1.
         21    1    1    2  503  502  0.89057332347E+01  0.25537211617E+02 -0.19373794446E+02  0.33268681561E+02  0.00000000000E+00 0. -1.
          1    1    1    2  501    0 -0.12765431271E+03  0.28120561651E+02 -0.23415450987E+02  0.13279560567E+03  0.00000000000E+00 0. -1.
<scales pt_clust_5="13000.00000" pt_clust_6="13000.00000" pt_clust_7="13000.00000" pt_clust_8="13000.00000" pt_clust_9="27.04554" pt_clust_10="130.19017"></scales>
<clustering>
<clus scale="   27.046">  2  9  1 -1</clus>
<clus scale="   80.509">  5  6 -1 -1</clus>
<clus scale="   89.650">  7  8 -1 -1</clus>
<clus scale="  130.190">  1 10  2 -1</clus>
<clus scale="  163.889">  1  5  2 -1</clus>
<clus scale="  130.190">  1  5  2 -1</clus>
</clustering>
</event>
<event>
10    4  0.3043429E-005  0.1001622E+03  0.7546771E-02  0.1287142E+00
         21   -1    0    0  501  502  0.00000000000E+00  0.00000000000E+00  0.75276261542E+02  0.75276261542E+02  0.00000000000E+00 0. -1.
          2   -1    0    0  503    0 -0.00000000000E+00 -0.00000000000E+00 -0.34491593744E+03  0.34491593744E+03  0.00000000000E+00 0. -1.
         24    2    1    2    0    0 -0.34617113319E+01 -0.75890748638E+01 -0.77974170416E+02  0.11213710696E+03  0.80157232997E+02 0.  0.
         23    2    1    2    0    0 -0.87650605387E+02  0.17254989168E+02 -0.13811821493E+03  0.18939738455E+03  0.93884848115E+02 0.  0.
        -11    1    3    3    0    0 -0.18562976252E+01 -0.42767808071E+02 -0.28568132960E+02  0.51465225822E+02  0.00000000000E+00 0.  1.
         12    1    3    3    0    0 -0.16054137066E+01  0.35178733207E+02 -0.49406037457E+02  0.60671881134E+02  0.00000000000E+00 0. -1.
        -13    1    4    4    0    0 -0.15052713383E+02  0.41292420949E+02 -0.19085047748E+02  0.47915417723E+02  0.00000000000E+00 0.  1.
         13    1    4    4    0    0 -0.72597892004E+02 -0.24037431781E+02 -0.11903316718E+03  0.14148196683E+03  0.00000000000E+00 0. -1.
         21    1    1    2  503  502  0.25547990120E+02  0.13913058100E+02  0.25555655886E+01  0.29202806378E+02  0.00000000000E+00 0.  1.
          1    1    1    2  501    0  0.65564326599E+02 -0.23578972405E+02 -0.56102856143E+02  0.89454901092E+02  0.00000000000E+00 0. -1.
<scales pt_clust_5="13000.00000" pt_clust_6="13000.00000" pt_clust_7="13000.00000" pt_clust_8="13000.00000" pt_clust_9="29.09077" pt_clust_10="75.35050"></scales>
<clustering>
<clus scale="   29.091">  1  9  2 -1</clus>
<clus scale="   75.351">  1 10  2 -1</clus>
<clus scale="   80.157">  5  6 -1 -1</clus>
<clus scale="   87.426">  2  5  1 -1</clus>
<clus scale="   93.885">  7  8 -1 -1</clus>
<clus scale="   29.091">  1  5  2 -1</clus>
</clustering>
</event>
<event>
10    4  0.3043429E-005  0.1618891E+03  0.7546771E-02  0.1209207E+00
          2   -1    0    0  503    0 -0.00000000000E+00  0.00000000000E+00  0.87564198240E+03  0.87564198240E+03  0.00000000000E+00 0. -1.
         21   -1    0    0  501  502  0.00000000000E+00 -0.00000000000E+00 -0.11629227758E+03  0.11629227758E+03  0.00000000000E+00 0.  1.
         24    2    1    2    0    0 -0.42735482165E+02 -0.15454089117E+02  0.34461878460E+03  0.35812935966E+03  0.86193858509E+02 0.  0.
         23    2    1    2    0    0  0.46083840380E+01  0.11786390445E+03  0.28540855141E+03  0.32210553528E+03  0.91546695554E+02 0.  0.
        -11    1    3    3    0    0  0.42520966978E+01 -0.32405964668E+02  0.53030231549E+02  0.62293116237E+02  0.00000000000E+00 0.  1.
         12    1    3    3    0    0 -0.46987578862E+02  0.16951875551E+02  0.29158855305E+03  0.29583624342E+03  0.00000000000E+00 0. -1.
        -13    1    4    4    0    0 -0.33968392926E+02  0.96596080381E+02  0.16848900646E+03  0.19716287622E+03  0.00000000000E+00 0.  1.
         13    1    4    4    0    0  0.38576776964E+02  0.21267824066E+02  0.11691954495E+03  0.12494265906E+03  0.00000000000E+00 0. -1.
         21    1    1    2  503  502  0.89872591926E+02 -0.16602000643E+03  0.13082863298E+03  0.22968643086E+03  0.00000000000E+00 0.  1.
          1    1    1    2  501    0 -0.51745493799E+02  0.63610191103E+02 -0.15062641559E+01  0.82012934178E+02  0.00000000000E+00 0. -1.
<scales pt_clust_5="13000.00000" pt_clust_6="13000.00000" pt_clust_7="13000.00000" pt_clust_8="13000.00000" pt_clust_9="133.51880" pt_clust_10="81.99910"></scales>
<clustering>
<clus scale="   81.999">  2 10  1 -1</clus>
<clus scale="   86.194">  5  6 -1 -1</clus>
<clus scale="   91.547">  7  8 -1 -1</clus>
<clus scale="   98.856">  1  5  2 -1</clus>
<clus scale="  133.519">  2  9  1 -1</clus>
<clus scale="   81.999">  2  5  1 -1</clus>
</clustering>
</event>
<event>
10    4  0.3043429E-005  0.1202740E+03  0.7546771E-02  0.1257411E+00
         21   -1    0    0  501  502  0.00000000000E+00  0.00000000000E+00  0.65074094184E+02  0.65074094184E+02  0.00000000000E+00 0. -1.
          2   -1    0    0  503    0 -0.00000000000E+00 -0.00000000000E+00 -0.65052770599E+03  0.65052770599E+03  0.00000000000E+00 0. -1.
         24    2    1    2    0    0  0.24323749629E+02  0.27347541242E+02 -0.25755105212E+03  0.27236860512E+03  0.80700556369E+02 0.  0.
         23    2    1    2    0    0  0.65767649654E+02  0.74150432407E+01 -0.36534910841E+02  0.11958922140E+03  0.92662913610E+02 0.  0.
        -13    1    3    3    0    0 -0.91625159780E+01 -0.21496511138E+02 -0.35080465079E+02  0.42150809248E+02  0.00000000000E+00 0.  1.
         14    1    3    3    0    0  0.33486265607E+02  0.48844052380E+02 -0.22247058704E+03  0.23021779587E+03  0.00000000000E+00 0. -1.
        -13    1    4    4    0    0  0.49862045683E+02 -0.74479730115E+01 -0.65938894828E+02  0.83003817700E+02  0.00000000000E+00 0.  1.
         13    1    4    4    0    0  0.15905603971E+02  0.14863016252E+02  0.29403983988E+02  0.36585403704E+02  0.00000000000E+00 0. -1.
         21    1    1    2  503  502 -0.76706174227E+01  0.29050652662E+02 -0.30930799214E+02  0.43121840542E+02  0.00000000000E+00 0. -1.
          1    1    1    2  501    0 -0.82420781861E+02 -0.63813237145E+02 -0.26043684963E+03  0.28052213311E+03  0.00000000000E+00 0. -1.
<scales pt_clust_5="13000.00000" pt_clust_6="13000.00000" pt_clust_7="13000.00000" pt_clust_8="13000.00000" pt_clust_9="30.04628" pt_clust_10="76.67738"></scales>
<clustering>
<clus scale="   30.046">  1  9  2 -1</clus>
<clus scale="   80.701">  5  6 -1 -1</clus>
<clus scale="   89.549">  2  5  1 -1</clus>
<clus scale="   76.677">  1 10  2 -1</clus>
<clus scale="   92.663">  7  8 -1 -1</clus>
<clus scale="   30.046">  1  5  2 -1</clus>
</clustering>
</event>
<event>
10    4  0.3043429E-005  0.2802746E+03  0.7546771E-02  0.1096013E+00
          4   -1    0    0  503    0 -0.00000000000E+00  0.00000000000E+00  0.25256020886E+03  0.25256020886E+03  0.00000000000E+00 0. -1.
         21   -1    0    0  501  502  0.00000000000E+00 -0.00000000000E+00 -0.51931436835E+03  0.51931436835E+03  0.00000000000E+00 0. -1.
         23    2    1    2    0    0  0.17457925237E+03 -0.21237832924E+03  0.52613777844E+02  0.29449707450E+03  0.91530580579E+02 0.  0.
         24    2    1    2    0    0 -0.15852227010E+03  0.18742295117E+03 -0.16389518746E+03  0.30589800539E+03  0.80344785065E+02 0.  0.
        -13    1    4    4    0    0 -0.94707398469E+02  0.16572386807E+03 -0.12014924009E+03  0.22554319247E+03  0.00000000000E+00 0.  1.
         14    1    4    4    0    0 -0.63814871631E+02  0.21699083090E+02 -0.43745947363E+02  0.80354812916E+02  0.00000000000E+00 0. -1.
        -11    1    3    3    0    0  0.12544854625E+02 -0.71176817371E+02 -0.35279900660E+01  0.72359929675E+02  0.00000000000E+00 0.  1.
         11    1    3    3    0    0  0.16203439775E+03 -0.14120151187E+03  0.56141767910E+02  0.22213714483E+03  0.00000000000E+00 0. -1.
         21    1    1    2  503  502 -0.38315524956E+02  0.48835116741E+00 -0.97086902494E+02  0.10437521054E+03  0.00000000000E+00 0. -1.
          3    1    1    2  501    0  0.22258542681E+02  0.24467026910E+02 -0.58385847387E+02  0.67104286772E+02  0.00000000000E+00 0. -1.
<scales pt_clust_5="13000.00000" pt_clust_6="13000.00000" pt_clust_7="13000.00000" pt_clust_8="13000.00000" pt_clust_9="33.91938" pt_clust_10="33.07685"></scales>
<clustering>
<clus scale="   33.077">  2 10  1 -1</clus>
<clus scale="   33.919">  2  9  1 -1</clus>
<clus scale="   80.345">  5  6 -1 -1</clus>
<clus scale="   91.531">  7  8 -1 -1</clus>
<clus scale="  276.824">  2  5  1 -1</clus>
<clus scale="   33.077">  2  5  1 -1</clus>
</clustering>
</event>
<event>
10    4  0.3043429E-005  0.1062557E+03  0.7546771E-02  0.1275145E+00
         21   -1    0    0  501  502  0.00000000000E+00  0.00000000000E+00  0.11344174104E+03  0.11344174104E+03  0.00000000000E+00 0. -1.
          2   -1    0    0  503    0 -0.00000000000E+00 -0.00000000000E+00 -0.34525677091E+03  0.34525677091E+03  0.00000000000E+00 0. -1.
         24    2    1    2    0    0  0.15997045543E+02  0.77067606069E+02 -0.17077827815E+03  0.20257836473E+03  0.75348869924E+02 0.  0.
         23    2    1    2    0    0 -0.68165570893E+02 -0.26873104266E+02  0.25031481823E+02  0.12043024706E+03  0.92239690678E+02 0.  0.
        -11    1    3    3    0    0  0.18533145365E+02 -0.10534293930E+02 -0.32586383068E+02  0.38939969019E+02  0.00000000000E+00 0.  1.
         12    1    3    3    0    0 -0.25360998220E+01  0.87601899999E+02 -0.13819189508E+03  0.16363839571E+03  0.00000000000E+00 0. -1.
        -13    1    4    4    0    0 -0.90994277651E+02 -0.26970630801E+02  0.21739649592E+02  0.97365218920E+02  0.00000000000E+00 0. -1.
         13    1    4    4    0    0  0.22828706757E+02  0.97526534276E-01  0.32918322309E+01  0.23065028139E+02  0.00000000000E+00 0.  1.
         21    1    1    2  503  502  0.23523779118E+02 -0.66040631961E+02 -0.45564408818E+02  0.83611294720E+02  0.00000000000E+00 0. -1.
          1    1    1    2  501    0  0.28644746233E+02  0.15846130158E+02 -0.40503824727E+02  0.52078605446E+02  0.00000000000E+00 0. -1.
<scales pt_clust_5="13000.00000" pt_clust_6="13000.00000" pt_clust_7="13000.00000" pt_clust_8="13000.00000" pt_clust_9="69.40096" pt_clust_10="32.73564"></scales>
<clustering>
<clus scale="   32.736">  1 10  2 -1</clus>
<clus scale="   69.401">  2  9  1 -1</clus>
<clus scale="   75.349">  5  6 -1 -1</clus>
<clus scale="   91.976">  2  5  1 -1</clus>
<clus scale="   92.240">  7  8 -1 -1</clus>
<clus scale="   32.736">  1  5  2 -1</clus>
</clustering>
</event>
<event>
10    4  0.3043429E-005  0.3546823E+03  0.7546771E-02  0.1097716E+00
         21   -1    0    0  503  502  0.00000000000E+00  0.00000000000E+00  0.10217868395E+04  0.10217868395E+04  0.00000000000E+00 0.  1.
         -1   -1    0    0    0  501 -0.00000000000E+00 -0.00000000000E+00 -0.22549417196E+03  0.22549417196E+03  0.00000000000E+00 0.  1.
         23    2    1    2    0    0  0.70702395204E+02  0.69289708552E+02  0.14018763536E+03  0.19481632163E+03  0.92200507963E+02 0.  0.
         24    2    1    2    0    0 -0.11083250429E+03  0.29967873459E+03  0.34474708973E+03  0.47384418083E+03  0.59887927466E+02 0.  0.
        -11    1    4    4    0    0 -0.69867301135E+02  0.24481721506E+03  0.29207754208E+03  0.38746122276E+03  0.00000000000E+00 0.  1.
         12    1    4    4    0    0 -0.40965203156E+02  0.54861519528E+02  0.52669547653E+02  0.86382958067E+02  0.00000000000E+00 0. -1.
        -11    1    3    3    0    0  0.40152739303E+02  0.72741389735E+02  0.44381206036E+02  0.94197896491E+02  0.00000000000E+00 0. -1.
         11    1    3    3    0    0  0.30549655900E+02 -0.34516811829E+01  0.95806429323E+02  0.10061842514E+03  0.00000000000E+00 0.  1.
         21    1    1    2  503  501 -0.84590324525E+02  0.13038130077E+02  0.62062483234E+02  0.10572259770E+03  0.00000000000E+00 0.  1.
         -2    1    1    2    0  502  0.12472043361E+03 -0.38200657322E+03  0.24929545924E+03  0.47289791133E+03  0.00000000000E+00 0.  1.
<scales pt_clust_5="13000.00000" pt_clust_6="13000.00000" pt_clust_7="13000.00000" pt_clust_8="13000.00000" pt_clust_9="85.58923" pt_clust_10="349.58992"></scales>
<clustering>
<clus scale="   59.888">  5  6 -1 -1</clus>
<clus scale="   85.589">  2  9  1 -1</clus>
<clus scale="   92.201">  7  8 -1 -1</clus>
<clus scale="  130.655">  2  7  1 -1</clus>
<clus scale="  349.590">  1 10  2 -1</clus>
<clus scale="  349.590">  1  5  2 -1</clus>
</clustering>
</event>
<event>
10    4  0.3043429E-005  0.2495111E+03  0.7546771E-02  0.1113614E+00
          2   -1    0    0  502    0 -0.00000000000E+00  0.00000000000E+00  0.66988489388E+03  0.66988489388E+03  0.00000000000E+00 0. -1.
         21   -1    0    0  503  502  0.00000000000E+00 -0.00000000000E+00 -0.23825991918E+03  0.23825991918E+03  0.00000000000E+00 0.  1.
         24    2    1    2    0    0 -0.18055215799E+02  0.16164542705E+02  0.70186861650E+02  0.10739060737E+03  0.77583914217E+02 0.  0.
         23    2    1    2    0    0 -0.68721809494E+02  0.14131725653E+03  0.65743567284E+02  0.18700192702E+03  0.77163786692E+02 0.  0.
        -11    1    3    3    0    0 -0.13897708711E+02 -0.26648368454E+02  0.68451971698E+01  0.30824317883E+02  0.00000000000E+00 0.  1.
         12    1    3    3    0    0 -0.41575070874E+01  0.42812911159E+02  0.63341664481E+02  0.76566289490E+02  0.00000000000E+00 0. -1.
        -11    1    4    4    0    0 -0.66962196152E+02  0.96112283233E+02  0.13532285696E+02  0.11791789287E+03  0.00000000000E+00 0. -1.
         11    1    4    4    0    0 -0.17596133417E+01  0.45204973294E+02  0.52211281588E+02  0.69084034152E+02  0.00000000000E+00 0.  1.
         21    1    1    2  503  501  0.27920166648E+02 -0.91237641632E+01 -0.14348976602E+03  0.14646532603E+03  0.00000000000E+00 0.  1.
          1    1    1    2  501    0  0.58856858645E+02 -0.14835803507E+03  0.43918431179E+03  0.46728695263E+03  0.00000000000E+00 0. -1.
<scales pt_clust_5="13000.00000" pt_clust_6="13000.00000" pt_clust_7="13000.00000" pt_clust_8="13000.00000" pt_clust_9="29.37310" pt_clust_10="162.47059"></scales>
<clustering>
<clus scale="   29.373">  2  9  1 -1</clus>
<clus scale="   77.164">  7  8 -1 -1</clus>
<clus scale="   77.584">  5  6 -1 -1</clus>
<clus scale="   77.891">  5  7 -1 -1</clus>
<clus scale="  162.471">  2 10  1 -1</clus>
<clus scale="   29.373">  2  5  1 -1</clus>
</clustering>
</event>
<event>
10    4  0.3043429E-005  0.1576956E+03  0.7546771E-02  0.1213861E+00
         21   -1    0    0  503  502  0.00000000000E+00  0.00000000000E+00  0.96801035238E+02  0.96801035238E+02  0.00000000000E+00 0.  1.
          2   -1    0    0  502    0 -0.00000000000E+00 -0.00000000000E+00 -0.19746080573E+04  0.19746080573E+04  0.00000000000E+00 0. -1.
         24    2    1    2    0    0 -0.34703183494E+01 -0.64616477127E+01 -0.73413483212E+03  0.74046324388E+03  0.96322727400E+02 0.  0.
         23    2    1    2    0    0 -0.12908766580E+03  0.11747300260E+02 -0.61964701736E+03  0.64039996496E+03  0.96685389179E+02 0.  0.
        -11    1    3    3    0    0  0.27695266105E+01  0.37463581374E+02 -0.14950165311E+03  0.15414906581E+03  0.00000000000E+00 0.  1.
         12    1    3    3    0    0 -0.62398449600E+01 -0.43925229086E+02 -0.58463317901E+03  0.58631417808E+03  0.00000000000E+00 0. -1.
        -13    1    4    4    0    0  0.51692922061E+00  0.22524829223E+02 -0.36237089463E+02  0.42670385516E+02  0.00000000000E+00 0.  1.
         13    1    4    4    0    0 -0.12960459502E+03 -0.10777528963E+02 -0.58340992790E+03  0.59772957945E+03  0.00000000000E+00 0. -1.
         21    1    1    2  503  501  0.10465861391E+02 -0.22460200776E+02  0.74987828410E+02  0.78975751236E+02  0.00000000000E+00 0.  1.
          1    1    1    2  501    0  0.12209212276E+03  0.17174548228E+02 -0.59901300097E+03  0.61157013243E+03  0.00000000000E+00 0. -1.
<scales pt_clust_5="13000.00000" pt_clust_6="13000.00000" pt_clust_7="13000.00000" pt_clust_8="13000.00000" pt_clust_9="24.77892" pt_clust_10="124.57872"></scales>
<clustering>
<clus scale="   24.779">  1  9  2 -1</clus>
<clus scale="   96.323">  5  6 -1 -1</clus>
<clus scale="   96.685">  7  8 -1 -1</clus>
<clus scale="   96.862">  2  5  1 -1</clus>
<clus scale="  124.579">  1 10  2 -1</clus>
<clus scale="   24.779">  1  5  2 -1</clus>
</clustering>
</event>
<event>
10    4  0.3043429E-005  0.3968535E+03  0.7546771E-02  0.1080707E+00
         21   -1    0    0  501  502  0.00000000000E+00  0.00000000000E+00  0.24381488107E+03  0.24381488107E+03  0.00000000000E+00 0. -1.
          2   -1    0    0  503    0 -0.00000000000E+00 -0.00000000000E+00 -0.18892323406E+04  0.18892323406E+04  0.00000000000E+00 0. -1.
         23    2    1    2    0    0 -0.29784007055E+02  0.11137788571E+03 -0.12600393142E+03  0.19310429061E+03  0.90111907196E+02 0.  0.
         24    2    1    2    0    0  0.40063041393E+03 -0.22281810512E+03 -0.12271249617E+04  0.13124324767E+04  0.80564865729E+02 0.  0.
        -11    1    4    4    0    0  0.25545840272E+02 -0.38618425323E+01 -0.33899442168E+02  0.42622481887E+02  0.00000000000E+00 0.  1.
         12    1    4    4    0    0  0.37508457366E+03 -0.21895626259E+03 -0.11932255196E+04  0.12698099948E+04  0.00000000000E+00 0. -1.
        -11    1    3    3    0    0  0.67589857140E+01  0.89152639310E+02 -0.12040152150E+03  0.14996800780E+03  0.00000000000E+00 0.  1.
         11    1    3    3    0    0 -0.36542992769E+02  0.22225246402E+02 -0.56024099189E+01  0.43136282814E+02  0.00000000000E+00 0. -1.
         21    1    1    2  503  502 -0.11363137533E+03 -0.14495404322E+03 -0.14969039091E+03  0.23734147812E+03  0.00000000000E+00 0. -1.
          1    1    1    2  501    0 -0.25721503155E+03  0.25639426262E+03 -0.14259817541E+03  0.39016897620E+03  0.00000000000E+00 0. -1.
<scales pt_clust_5="13000.00000" pt_clust_6="13000.00000" pt_clust_7="13000.00000" pt_clust_8="13000.00000" pt_clust_9="176.73401" pt_clust_10="388.58981"></scales>
<clustering>
<clus scale="   80.565">  5  6 -1 -1</clus>
<clus scale="   90.112">  7  8 -1 -1</clus>
<clus scale="  146.329">  2  7  1 -1</clus>
<clus scale="  176.734">  1  9  2 -1</clus>
<clus scale="  388.590">  1 10  2 -1</clus>
<clus scale="  176.734">  1  5  2 -1</clus>
</clustering>
</event>
<event>
10    4  0.3043429E-005  0.2111048E+03  0.7546771E-02  0.1164155E+00
          2   -1    0    0  503    0 -0.00000000000E+00  0.00000000000E+00  0.19614280716E+04  0.19614280716E+04  0.00000000000E+00 0. -1.
         21   -1    0    0  501  502  0.00000000000E+00 -0.00000000000E+00 -0.17321582073E+03  0.17321582073E+03  0.00000000000E+00 0. -1.
         23    2    1    2    0    0 -0.77546988021E+02  0.21742060764E+02  0.34231213863E+03  0.36385785105E+03  0.93427420809E+02 0.  0.
         24    2    1    2    0    0 -0.13189197211E+03 -0.19662576975E+02  0.14345878899E+04  0.14429983627E+04  0.80123351891E+02 0.  0.
        -11    1    4    4    0    0 -0.30684927726E+02 -0.17383649537E+02  0.13696054879E+03  0.14142824324E+03  0.00000000000E+00 0.  1.
         12    1    4    4    0    0 -0.10120704438E+03 -0.22789274372E+01  0.12976273411E+04  0.13015701194E+04  0.00000000000E+00 0. -1.
        -11    1    3    3    0    0 -0.46670779688E+02  0.58788805365E+02  0.21393000938E+03  0.22671641808E+03  0.00000000000E+00 0.  1.
         11    1    3    3    0    0 -0.30876208333E+02 -0.37046744600E+02  0.12838212925E+03  0.13714143297E+03  0.00000000000E+00 0. -1.
         21    1    1    2  503  502  0.21946105505E+02  0.65482182317E+01 -0.10467415486E+03  0.10715031220E+03  0.00000000000E+00 0. -1.
          1    1    1    2  501    0  0.18749285462E+03 -0.86277020215E+01  0.11598637722E+03  0.22063736646E+03  0.00000000000E+00 0. -1.
<scales pt_clust_5="13000.00000" pt_clust_6="13000.00000" pt_clust_7="13000.00000" pt_clust_8="13000.00000" pt_clust_9="22.90220" pt_clust_10="195.30864"></scales>
<clustering>
<clus scale="   22.902">  2  9  1 -1</clus>
<clus scale="   80.123">  5  6 -1 -1</clus>
<clus scale="   93.427">  7  8 -1 -1</clus>
<clus scale="  121.364">  1  7  2 -1</clus>
<clus scale="  195.309">  2 10  1 -1</clus>
<clus scale="   22.902">  2  5  1 -1</clus>
</clustering>
</event>
<event>
10    4  0.3043429E-005  0.1401059E+03  0.7546771E-02  0.1229177E+00
         21   -1    0    0  503  502  0.00000000000E+00  0.00000000000E+00  0.76688542433E+03  0.76688542433E+03  0.00000000000E+00 0.  1.
         -3   -1    0    0    0  501 -0.00000000000E+00 -0.00000000000E+00 -0.97339665656E+02  0.97339665656E+02  0.00000000000E+00 0.  1.
         23    2    1    2    0    0  0.94771420633E+01  0.42397864316E+02  0.11051986373E+03  0.14982525204E+03  0.91354095409E+02 0.  0.
         24    2    1    2    0    0  0.61981241385E+02  0.87131652182E+02  0.44717299134E+03  0.46668019637E+03  0.79957003501E+02 0.  0.
        -13    1    4    4    0    0  0.77773794558E+02  0.48757778915E+02  0.29508469243E+03  0.30903245757E+03  0.00000000000E+00 0.  1.
         14    1    4    4    0    0 -0.15792553173E+02  0.38373873267E+02  0.15208829891E+03  0.15764773881E+03  0.00000000000E+00 0. -1.
        -11    1    3    3    0    0  0.14707685945E+02  0.62748656298E+02  0.11150405136E+03  0.12878999713E+03  0.00000000000E+00 0.  1.
         11    1    3    3    0    0 -0.52305438815E+01 -0.20350791982E+02 -0.98418762056E+00  0.21035254904E+02  0.00000000000E+00 0. -1.
         21    1    1    2  503  501  0.52894984467E+02 -0.32259475880E+02  0.20194344794E+02  0.65164136820E+02  0.00000000000E+00 0.  1.
         -4    1    1    2    0  502 -0.12435336792E+03 -0.97270040618E+02  0.91658558808E+02  0.18255550476E+03  0.00000000000E+00 0.  1.
<scales pt_clust_5="13000.00000" pt_clust_6="13000.00000" pt_clust_7="13000.00000" pt_clust_8="13000.00000" pt_clust_9="61.95606" pt_clust_10="115.05026"></scales>
<clustering>
<clus scale="   61.956">  2  9  1 -1</clus>
<clus scale="   79.957">  5  6 -1 -1</clus>
<clus scale="   91.354">  7  8 -1 -1</clus>
<clus scale="  100.213">  2  7  1 -1</clus>
<clus scale="  115.050">  1 10  2 -1</clus>
<clus scale="  115.050">  1  5  2 -1</clus>
</clustering>
</event>
<event>
10    4  0.3043429E-005  0.2643648E+03  0.7546771E-02  0.1147145E+00
         21   -1    0    0  503  502  0.00000000000E+00  0.00000000000E+00  0.19814419333E+03  0.19814419333E+03  0.00000000000E+00 0. -1.
          2   -1    0    0  502    0 -0.00000000000E+00 -0.00000000000E+00 -0.11390520255E+04  0.11390520255E+04  0.00000000000E+00 0. -1.
         24    2    1    2    0    0 -0.83546788892E+01  0.46571586552E+02 -0.56760058261E+03  0.57502479290E+03  0.79021375200E+02 0.  0.
         23    2    1    2    0    0  0.12660307787E+02  0.24741720696E+03 -0.30546185034E+03  0.40438385252E+03  0.94041482727E+02 0.  0.
        -13    1    3    3    0    0  0.18176396206E+02  0.38339183123E+02 -0.13448900211E+03  0.14102328188E+03  0.00000000000E+00 0.  1.
         14    1    3    3    0    0 -0.26531075095E+02  0.82324034288E+01 -0.43311158050E+03  0.43400151103E+03  0.00000000000E+00 0. -1.
        -13    1    4    4    0    0  0.49221924491E+02  0.12758336640E+03 -0.18933644088E+03  0.23355641947E+03  0.00000000000E+00 0. -1.
         13    1    4    4    0    0 -0.36561616704E+02  0.11983384056E+03 -0.11612540947E+03  0.17082743305E+03  0.00000000000E+00 0.  1.
         21    1    1    2  503  501 -0.86321795338E+02 -0.75994477357E+02  0.66227468398E+00  0.11500891942E+03  0.00000000000E+00 0.  1.
          1    1    1    2  501    0  0.82016166441E+02 -0.21799431616E+03 -0.68507673882E+02  0.24277865395E+03  0.00000000000E+00 0. -1.
<scales pt_clust_5="13000.00000" pt_clust_6="13000.00000" pt_clust_7="13000.00000" pt_clust_8="13000.00000" pt_clust_9="112.61329" pt_clust_10="247.07272"></scales>
<clustering>
<clus scale="   79.021">  5  6 -1 -1</clus>
<clus scale="   92.104">  2  5  1 -1</clus>
<clus scale="   94.041">  7  8 -1 -1</clus>
<clus scale="  112.613">  1  9  2 -1</clus>
<clus scale="  247.073">  1 10  2 -1</clus>
<clus scale="  112.613">  1  5  2 -1</clus>
</clustering>
</event>
<event>
10    4  0.3043429E-005  0.3645428E+03  0.7546771E-02  0.1056799E+00
          2   -1    0    0  502    0 -0.00000000000E+00  0.00000000000E+00  0.84886869677E+03  0.84886869677E+03  0.00000000000E+00 0. -1.
         21   -1    0    0  503  502  0.00000000000E+00 -0.00000000000E+00 -0.88822350856E+03  0.88822350856E+03  0.00000000000E+00 0. -1.
         24    2    1    2    0    0 -0.74316281744E+02 -0.96483384232E+02  0.17973864422E+03  0.23086481878E+03  0.78489688255E+02 0.  0.
         23    2    1    2    0    0 -0.79514708167E+02 -0.15190974643E+03  0.59945172500E+03  0.63028565488E+03  0.92295591813E+02 0.  0.
        -11    1    3    3    0    0  0.69861695891E+01 -0.46046333676E+02  0.39335905764E+02  0.60962159515E+02  0.00000000000E+00 0.  1.
         12    1    3    3    0    0 -0.81302451334E+02 -0.50437050556E+02  0.14040273845E+03  0.16990265927E+03  0.00000000000E+00 0. -1.
        -13    1    4    4    0    0 -0.51009388967E+02 -0.10774374139E+03  0.52967853179E+03  0.54292726825E+03  0.00000000000E+00 0. -1.
         13    1    4    4    0    0 -0.28505319200E+02 -0.44166005040E+02  0.69773193210E+02  0.87358386630E+02  0.00000000000E+00 0.  1.
         21    1    1    2  503  501  0.31316787049E+02  0.28663197564E+02 -0.25880990280E+03  0.26226872828E+03  0.00000000000E+00 0. -1.
          1    1    1    2  501    0  0.12251420286E+03  0.21972993310E+03 -0.55973527821E+03  0.61367300338E+03  0.00000000000E+00 0. -1.
<scales pt_clust_5="13000.00000" pt_clust_6="13000.00000" pt_clust_7="13000.00000" pt_clust_8="13000.00000" pt_clust_9="42.45374" pt_clust_10="289.50319"></scales>
<clustering>
<clus scale="   42.454">  2  9  1 -1</clus>
<clus scale="   78.490">  5  6 -1 -1</clus>
<clus scale="   92.296">  7  8 -1 -1</clus>
<clus scale="  136.361">  5  7 -1 -1</clus>
<clus scale="  289.503">  2 10  1 -1</clus>
<clus scale="   42.454">  2  5  1 -1</clus>
</clustering>
</event>
<event>
10    4  0.3043429E-005  0.1471622E+03  0.7546771E-02  0.1206178E+00
         -1   -1    0    0    0  501 -0.00000000000E+00  0.00000000000E+00  0.28187783328E+03  0.28187783328E+03  0.00000000000E+00 0.  1.
         21   -1    0    0  501  502  0.00000000000E+00 -0.00000000000E+00 -0.27595320752E+03  0.27595320752E+03  0.00000000000E+00 0. -1.
         24    2    1    2    0    0 -0.10367455321E+03  0.45686213411E+02  0.95535536339E+02  0.16858166499E+03  0.80356057558E+02 0.  0.
         23    2    1    2    0    0  0.79151083198E+02 -0.11486201149E+03 -0.11130035754E+03  0.20059547662E+03  0.91611134662E+02 0.  0.
        -11    1    3    3    0    0  0.57904027559E+01  0.26546460355E+02  0.25265754618E+02  0.37102583170E+02  0.00000000000E+00 0.  1.
         12    1    3    3    0    0 -0.10946495597E+03  0.19139753056E+02  0.70269781721E+02  0.13147908182E+03  0.00000000000E+00 0. -1.
        -13    1    4    4    0    0 -0.16432174149E+02 -0.27388475214E+02 -0.44628460105E+02  0.54880273078E+02  0.00000000000E+00 0.  1.
         13    1    4    4    0    0  0.95583257347E+02 -0.87473536278E+02 -0.66671897439E+02  0.14571520354E+03  0.00000000000E+00 0. -1.
         21    1    1    2  503  502  0.16097273291E+02 -0.33674166409E+02 -0.50441774180E+02  0.62749057946E+02  0.00000000000E+00 0. -1.
         -2    1    1    2    0  503  0.84261967222E+01  0.10284996449E+03  0.72131221145E+02  0.12590484125E+03  0.00000000000E+00 0.  1.
<scales pt_clust_5="13000.00000" pt_clust_6="13000.00000" pt_clust_7="13000.00000" pt_clust_8="13000.00000" pt_clust_9="37.32388" pt_clust_10="99.26876"></scales>
<clustering>
<clus scale="   37.324">  2  9  1 -1</clus>
<clus scale="   80.356">  5  6 -1 -1</clus>
<clus scale="   91.611">  7  8 -1 -1</clus>
<clus scale="   99.269">  2 10  1 -1</clus>
<clus scale="  140.432">  1  5  2 -1</clus>
<clus scale="   37.324">  2  5  1 -1</clus>
</clustering>
</event>
<event>
10    4  0.3043429E-005  0.1336984E+03  0.7546771E-02  0.1223989E+00
          2   -1    0    0  502    0 -0.00000000000E+00  0.00000000000E+00  0.19094342757E+03  0.19094342757E+03  0.00000000000E+00 0. -1.
         21   -1    0    0  503  502  0.00000000000E+00 -0.00000000000E+00 -0.28028610205E+03  0.28028610205E+03  0.00000000000E+00 0.  1.
         23    2    1    2    0    0  0.82040486817E+01  0.10718178510E+03  0.87264310468E+02  0.16542948656E+03  0.90535151574E+02 0.  0.
         24    2    1    2    0    0 -0.40352041577E+02 -0.73154609297E+02 -0.48487889387E+02  0.12708082450E+03  0.82574671768E+02 0.  0.
        -13    1    4    4    0    0  0.26496186993E+01 -0.47449087627E+02 -0.59133613563E+02  0.75863170570E+02  0.00000000000E+00 0.  1.
         14    1    4    4    0    0 -0.43001660277E+02 -0.25705521670E+02  0.10645724176E+02  0.51217653930E+02  0.00000000000E+00 0. -1.
        -11    1    3    3    0    0 -0.17635649829E+02  0.85385917540E+02  0.18971849728E+02  0.89228370719E+02  0.00000000000E+00 0. -1.
         11    1    3    3    0    0  0.25839698511E+02  0.21795867562E+02  0.68292460740E+02  0.76201115844E+02  0.00000000000E+00 0.  1.
         21    1    1    2  503  501 -0.13394791603E+02 -0.33021443551E+02 -0.12830847296E+03  0.13316493686E+03  0.00000000000E+00 0. -1.
          1    1    1    2  501    0  0.45542784499E+02 -0.10057322545E+01  0.18937738445E+00  0.45554281698E+02  0.00000000000E+00 0. -1.
<scales pt_clust_5="13000.00000" pt_clust_6="13000.00000" pt_clust_7="13000.00000" pt_clust_8="13000.00000" pt_clust_9="35.63476" pt_clust_10="43.92485"></scales>
<clustering>
<clus scale="   35.635">  2  9  1 -1</clus>
<clus scale="   43.925">  2 10  1 -1</clus>
<clus scale="   82.575">  5  6 -1 -1</clus>
<clus scale="   90.535">  7  8 -1 -1</clus>
<clus scale="  128.442">  2  5  1 -1</clus>
<clus scale="   35.635">  2  5  1 -1</clus>
</clustering>
</event>
<event>
10    4  0.3043429E-005  0.9556744E+02  0.7546771E-02  0.1295527E+00
          2   -1    0    0  503    0 -0.00000000000E+00  0.00000000000E+00  0.15410157717E+03  0.15410157717E+03  0.00000000000E+00 0. -1.
         21   -1    0    0  501  502  0.00000000000E+00 -0.00000000000E+00 -0.12980827445E+03  0.12980827445E+03  0.00000000000E+00 0. -1.
         23    2    1    2    0    0  0.40328516017E+02  0.11236477197E+02  0.70957053861E+02  0.12321583408E+03  0.91621998731E+02 0.  0.
         24    2    1    2    0    0  0.52601211902E+01 -0.17185799963E+02 -0.65880763667E+01  0.83861650136E+02  0.81647737372E+02 0.  0.
        -11    1    4    4    0    0 -0.22430798077E+02 -0.92823783349E+01  0.29170007255E+02  0.37949869212E+02  0.00000000000E+00 0.  1.
         12    1    4    4    0    0  0.27690919267E+02 -0.79034216279E+01 -0.35758083622E+02  0.45911780924E+02  0.00000000000E+00 0. -1.
        -13    1    3    3    0    0  0.52132352552E+02 -0.11862608238E+02  0.79586711775E+02  0.95877778176E+02  0.00000000000E+00 0. -1.
         13    1    3    3    0    0 -0.11803836535E+02  0.23099085435E+02 -0.86296579145E+01  0.27338055904E+02  0.00000000000E+00 0.  1.
         21    1    1    2  503  502 -0.16798671759E+02 -0.20448960568E+02 -0.17287553072E+02  0.31610359890E+02  0.00000000000E+00 0.  1.
          1    1    1    2  501    0 -0.28789965448E+02  0.26398283334E+02 -0.22788121697E+02  0.45222007518E+02  0.00000000000E+00 0. -1.
<scales pt_clust_5="13000.00000" pt_clust_6="13000.00000" pt_clust_7="13000.00000" pt_clust_8="13000.00000" pt_clust_9="26.46423" pt_clust_10="39.52746"></scales>
<clustering>
<clus scale="   26.464">  2  9  1 -1</clus>
<clus scale="   39.527">  2 10  1 -1</clus>
<clus scale="   81.648">  5  6 -1 -1</clus>
<clus scale="   86.052">  2  5  1 -1</clus>
<clus scale="   91.622">  7  8 -1 -1</clus>
<clus scale="   26.464">  2  5  1 -1</clus>
</clustering>
</event>
<event>
10    4  0.3043429E-005  0.1816236E+03  0.7546771E-02  0.1181819E+00
         21   -1    0    0  503  502  0.00000000000E+00  0.00000000000E+00  0.43846825665E+03  0.43846825665E+03  0.00000000000E+00 0. -1.
          4   -1    0    0  502    0 -0.00000000000E+00 -0.00000000000E+00 -0.41610593300E+03  0.41610593300E+03  0.00000000000E+00 0. -1.
         23    2    1    2    0    0 -0.99026942571E+02 -0.53016641897E+02  0.45230254905E+02  0.15141726015E+03  0.90908256164E+02 0.  0.
         24    2    1    2    0    0 -0.13700285136E+03  0.37867976244E+02 -0.10658176883E+03  0.19607265559E+03  0.82952082052E+02 0.  0.
        -13    1    4    4    0    0 -0.35324848732E+02  0.58585557653E+01 -0.77820500259E+02  0.85663281948E+02  0.00000000000E+00 0.  1.
         14    1    4    4    0    0 -0.10167800263E+03  0.32009420479E+02 -0.28761268573E+02  0.11040937364E+03  0.00000000000E+00 0. -1.
        -11    1    3    3    0    0 -0.70106229406E+02 -0.66429979988E+02  0.62618305334E+02  0.11510376973E+03  0.00000000000E+00 0. -1.
         11    1    3    3    0    0 -0.28920713165E+02  0.13413338091E+02 -0.17388050429E+02  0.36313490420E+02  0.00000000000E+00 0.  1.
         21    1    1    2  503  501  0.36825020471E+02  0.25528102670E+02  0.24592872127E+03  0.24997740319E+03  0.00000000000E+00 0.  1.
          3    1    1    2  501    0  0.19920477346E+03 -0.10379437016E+02 -0.16221488370E+03  0.25710687073E+03  0.00000000000E+00 0. -1.
<scales pt_clust_5="13000.00000" pt_clust_6="13000.00000" pt_clust_7="13000.00000" pt_clust_8="13000.00000" pt_clust_9="44.80810" pt_clust_10="161.57387"></scales>
<clustering>
<clus scale="   44.808">  1  9  2 -1</clus>
<clus scale="   82.952">  5  6 -1 -1</clus>
<clus scale="   90.908">  7  8 -1 -1</clus>
<clus scale="  127.496">  2  7  1 -1</clus>
<clus scale="  161.574">  1 10  2 -1</clus>
<clus scale="   44.808">  1  5  2 -1</clus>
</clustering>
</event>
<event>
10    4  0.3043429E-005  0.1853369E+03  0.7546771E-02  0.1190765E+00
          4   -1    0    0  502    0 -0.00000000000E+00  0.00000000000E+00  0.49929639226E+03  0.49929639226E+03  0.00000000000E+00 0. -1.
         21   -1    0    0  503  502  0.00000000000E+00 -0.00000000000E+00 -0.24974101896E+03  0.24974101896E+03  0.00000000000E+00 0.  1.
         24    2    1    2    0    0  0.35637263466E+02  0.45140084032E+02 -0.19372447025E+02  0.99132211532E+02  0.78385342544E+02 0.  0.
         23    2    1    2    0    0 -0.13105193023E+03 -0.86032408020E+02 -0.54954978904E+02  0.18691121887E+03  0.85671292659E+02 0.  0.
        -13    1    3    3    0    0  0.39389919872E+02 -0.10986514251E+02 -0.62274270734E+01  0.41364841725E+02  0.00000000000E+00 0.  1.
         14    1    3    3    0    0 -0.37526564068E+01  0.56126598283E+02 -0.13145019951E+02  0.57767369808E+02  0.00000000000E+00 0. -1.
        -11    1    4    4    0    0 -0.10496681941E+03 -0.10140963693E+03 -0.33350242354E+02  0.14971368109E+03  0.00000000000E+00 0.  1.
         11    1    4    4    0    0 -0.26085110820E+02  0.15377228913E+02 -0.21604736549E+02  0.37197537780E+02  0.00000000000E+00 0. -1.
         21    1    1    2  503  501 -0.44785227785E+02  0.32805106413E+02 -0.42956164353E+02  0.70193473275E+02  0.00000000000E+00 0. -1.
          3    1    1    2  501    0  0.14019989455E+03  0.80872175748E+01  0.36683896358E+03  0.39280050754E+03  0.00000000000E+00 0. -1.
<scales pt_clust_5="13000.00000" pt_clust_6="13000.00000" pt_clust_7="13000.00000" pt_clust_8="13000.00000" pt_clust_9="55.51479" pt_clust_10="164.34789"></scales>
<clustering>
<clus scale="   55.515">  2  9  1 -1</clus>
<clus scale="   78.385">  5  6 -1 -1</clus>
<clus scale="   85.671">  7  8 -1 -1</clus>
<clus scale="   98.342">  1  5  2 -1</clus>
<clus scale="  164.348">  2 10  1 -1</clus>
<clus scale="   55.515">  2  5  1 -1</clus>
</clustering>
</event>
<event>
10    4  0.3043429E-005  0.2351990E+03  0.7546771E-02  0.1123601E+00
         21   -1    0    0  501  502  0.00000000000E+00  0.00000000000E+00  0.11344578184E+03  0.11344578184E+03  0.00000000000E+00 0. -1.
          2   -1    0    0  503    0 -0.00000000000E+00 -0.00000000000E+00 -0.12292076064E+04  0.12292076064E+04  0.00000000000E+00 0. -1.
         23    2    1    2    0    0 -0.22586359239E+03 -0.11962501765E+03 -0.38588703079E+03  0.47190402348E+03  0.91978799916E+02 0.  0.
         24    2    1    2    0    0  0.18680442598E+03 -0.12106171715E+02 -0.15232383687E+03  0.25527413925E+03  0.83185827707E+02 0.  0.
        -11    1    4    4    0    0  0.66220571947E+02 -0.22098246659E+02 -0.10340077899E+03  0.12476064183E+03  0.00000000000E+00 0.  1.
         12    1    4    4    0    0  0.12058385404E+03  0.99920749435E+01 -0.48923057875E+02  0.13051349742E+03  0.00000000000E+00 0. -1.
        -11    1    3    3    0    0 -0.10937697269E+03 -0.93404435919E+02 -0.15177307108E+03  0.20909991848E+03  0.00000000000E+00 0.  1.
         11    1    3    3    0    0 -0.11648661970E+03 -0.26220581730E+02 -0.23411395971E+03  0.26280410500E+03  0.00000000000E+00 0. -1.
         21    1    1    2  503  502 -0.54784885735E+01 -0.30880114399E+02 -0.33459385954E+02  0.45859849659E+02  0.00000000000E+00 0. -1.
          1    1    1    2  501    0  0.44537654975E+02  0.16261130376E+03 -0.54409157090E+03  0.56961537580E+03  0.00000000000E+00 0. -1.
<scales pt_clust_5="13000.00000" pt_clust_6="13000.00000" pt_clust_7="13000.00000" pt_clust_8="13000.00000" pt_clust_9="31.36232" pt_clust_10="164.88434"></scales>
<clustering>
<clus scale="   31.362">  1  9  2 -1</clus>
<clus scale="   83.186">  5  6 -1 -1</clus>
<clus scale="   91.979">  7  8 -1 -1</clus>
<clus scale="  164.884">  1 10  2 -1</clus>
<clus scale="  231.902">  1  5  2 -1</clus>
<clus scale="   31.362">  1  5  2 -1</clus>
</clustering>
</event>
<event>
10    4  0.3043429E-005  0.1648713E+03  0.7546771E-02  0.1210797E+00
          2   -1    0    0  502    0 -0.00000000000E+00  0.00000000000E+00  0.85928720445E+03  0.85928720445E+03  0.00000000000E+00 0. -1.
         21   -1    0    0  503  502  0.00000000000E+00 -0.00000000000E+00 -0.22963937898E+03  0.22963937898E+03  0.00000000000E+00 0. -1.
         24    2    1    2    0    0  0.36861607355E+02 -0.72409647658E+01 -0.41948407512E+01  0.88076174719E+02  0.79552537336E+02 0.  0.
         23    2    1    2    0    0  0.99734686205E+02 -0.29544085698E+02  0.69713755302E+03  0.71086137270E+03  0.92213137542E+02 0.  0.
        -11    1    3    3    0    0 -0.67052632890E+01 -0.27111978797E+02 -0.23447164441E+02  0.36466278538E+02  0.00000000000E+00 0.  1.
         12    1    3    3    0    0  0.43566870644E+02  0.19871014031E+02  0.19252323690E+02  0.51609896181E+02  0.00000000000E+00 0. -1.
        -11    1    4    4    0    0  0.63978800116E+00 -0.39400178605E+02  0.20290446659E+03  0.20669544254E+03  0.00000000000E+00 0.  1.
         11    1    4    4    0    0  0.99094898204E+02  0.98560929069E+01  0.49423308643E+03  0.50416593016E+03  0.00000000000E+00 0. -1.
         21    1    1    2  503  501 -0.24338916044E+02 -0.62029365584E+02 -0.11402440610E+03  0.13206661279E+03  0.00000000000E+00 0. -1.
          1    1    1    2  501    0 -0.11225737752E+03  0.98814416047E+02  0.50729519297E+02  0.15792242321E+03  0.00000000000E+00 0. -1.
<scales pt_clust_5="13000.00000" pt_clust_6="13000.00000" pt_clust_7="13000.00000" pt_clust_8="13000.00000" pt_clust_9="66.63351" pt_clust_10="136.67222"></scales>
<clustering>
<clus scale="   66.634">  2  9  1 -1</clus>
<clus scale="   79.553">  5  6 -1 -1</clus>
<clus scale="   90.464">  1  5  2 -1</clus>
<clus scale="   92.213">  7  8 -1 -1</clus>
<clus scale="  136.672">  2 10  1 -1</clus>
<clus scale="   66.634">  2  5  1 -1</clus>
</clustering>
</event>
<event>
10    4  0.3043429E-005  0.1947862E+03  0.7546771E-02  0.1155683E+00
          2   -1    0    0  503    0 -0.00000000000E+00  0.00000000000E+00  0.40294716111E+03  0.40294716111E+03  0.00000000000E+00 0. -1.
         21   -1    0    0  501  502  0.00000000000E+00 -0.00000000000E+00 -0.26550252475E+03  0.26550252475E+03  0.00000000000E+00 0. -1.
         23    2    1    2    0    0 -0.67215251078E+02  0.15075055390E+03  0.15978075981E+03  0.24844139858E+03  0.94602419880E+02 0.  0.
         24    2    1    2    0    0  0.54164560017E+02 -0.20153363275E+03 -0.14551698522E+03  0.26673015180E+03  0.80126002044E+02 0.  0.
        -11    1    4    4    0    0  0.72950963990E+01 -0.14664739661E+03 -0.71370256702E+02  0.16325559992E+03  0.00000000000E+00 0.  1.
         12    1    4    4    0    0  0.46869463618E+02 -0.54886236135E+02 -0.74146728517E+02  0.10347455188E+03  0.00000000000E+00 0. -1.
        -11    1    3    3    0    0  0.18457782980E+02  0.54079331186E+02  0.27015090681E+02  0.63206636823E+02  0.00000000000E+00 0.  1.
         11    1    3    3    0    0 -0.85673034058E+02  0.96671222712E+02  0.13276566913E+03  0.18523476176E+03  0.00000000000E+00 0. -1.
         21    1    1    2  503  502  0.25986435067E+02  0.24957760745E+01  0.73509276297E+01  0.27121206513E+02  0.00000000000E+00 0. -1.
          1    1    1    2  501    0 -0.12935744006E+02  0.48287302776E+02  0.11582993414E+03  0.12615692897E+03  0.00000000000E+00 0. -1.
<scales pt_clust_5="13000.00000" pt_clust_6="13000.00000" pt_clust_7="13000.00000" pt_clust_8="13000.00000" pt_clust_9="26.10601" pt_clust_10="49.30288"></scales>
<clustering>
<clus scale="   26.106">  1  9  2 -1</clus>
<clus scale="   49.303">  2 10  1 -1</clus>
<clus scale="   80.126">  5  6 -1 -1</clus>
<clus scale="   94.602">  7  8 -1 -1</clus>
<clus scale="  188.181">  2  5  1 -1</clus>
<clus scale="   49.303">  2  5  1 -1</clus>
</clustering>
</event>
<event>
10    4  0.3043429E-005  0.1315458E+03  0.7546771E-02  0.1230639E+00
         21   -1    0    0  503  502  0.00000000000E+00  0.00000000000E+00  0.60817968548E+03  0.60817968548E+03  0.00000000000E+00 0. -1.
          2   -1    0    0  502    0 -0.00000000000E+00 -0.00000000000E+00 -0.24668481896E+03  0.24668481896E+03  0.00000000000E+00 0. -1.
         24    2    1    2    0    0 -0.49405083826E+02  0.69092684140E+02 -0.20172853044E+03  0.23344138641E+03  0.81153062699E+02 0.  0.
         23    2    1    2    0    0  0.67881607477E+02  0.54589583375E+02  0.31497989257E+03  0.33902722676E+03  0.90217473424E+02 0.  0.
        -13    1    3    3    0    0  0.21073740667E+02  0.50222765286E+01 -0.46884429505E+02  0.51647609211E+02  0.00000000000E+00 0.  1.
         14    1    3    3    0    0 -0.70478824493E+02  0.64070407612E+02 -0.15484410094E+03  0.18179377720E+03  0.00000000000E+00 0. -1.
        -11    1    4    4    0    0  0.69377692704E+02 -0.72902413653E+00  0.15741455520E+03  0.17202656164E+03  0.00000000000E+00 0.  1.
         11    1    4    4    0    0 -0.14960852273E+01  0.55318607512E+02  0.15756533737E+03  0.16700066511E+03  0.00000000000E+00 0. -1.
         21    1    1    2  503  501 -0.11355830207E+02 -0.22400539070E+02  0.97250390930E+02  0.10044091580E+03  0.00000000000E+00 0. -1.
          1    1    1    2  501    0 -0.71206934441E+01 -0.10128172845E+03  0.15099311346E+03  0.18195497548E+03  0.00000000000E+00 0. -1.
<scales pt_clust_5="13000.00000" pt_clust_6="13000.00000" pt_clust_7="13000.00000" pt_clust_8="13000.00000" pt_clust_9="24.78735" pt_clust_10="107.93069"></scales>
<clustering>
<clus scale="   24.787">  9 10 -1 -1</clus>
<clus scale="   81.153">  5  6 -1 -1</clus>
<clus scale="   90.217">  7  8 -1 -1</clus>
<clus scale="  117.475">  2  5  1 -1</clus>
<clus scale="  107.931">  1  9  2 -1</clus>
<clus scale="  107.931">  1  5  2 -1</clus>
</clustering>
</event>
<event>
10    4  0.3043429E-005  0.1839198E+03  0.7546771E-02  0.1174122E+00
         21   -1    0    0  503  502  0.00000000000E+00  0.00000000000E+00  0.74230895796E+03  0.74230895796E+03  0.00000000000E+00 0. -1.
          4   -1    0    0  502    0 -0.00000000000E+00 -0.00000000000E+00 -0.17384634385E+03  0.17384634385E+03  0.00000000000E+00 0. -1.
         23    2    1    2    0    0 -0.45613550857E+02  0.10350675864E+03  0.15867204911E+03  0.21484515576E+03  0.90484123896E+02 0.  0.
         24    2    1    2    0    0  0.56738558215E+02 -0.25976818880E+03  0.23123103411E+02  0.27871907820E+03  0.80317312831E+02 0.  0.
        -11    1    4    4    0    0  0.22383747179E+02 -0.29324612285E+02  0.26967636747E+02  0.45697028953E+02  0.00000000000E+00 0.  1.
         12    1    4    4    0    0  0.34354811036E+02 -0.23044357651E+03 -0.38445333357E+01  0.23302204924E+03  0.00000000000E+00 0. -1.
        -11    1    3    3    0    0 -0.19077117273E+02  0.69836834088E+01  0.92833376496E+02  0.95030226923E+02  0.00000000000E+00 0. -1.
         11    1    3    3    0    0 -0.26536433584E+02  0.96523075234E+02  0.65838672612E+02  0.11981492883E+03  0.00000000000E+00 0.  1.
         21    1    1    2  503  501  0.16198108604E+02  0.12554190706E+02  0.83488338492E+02  0.85966790627E+02  0.00000000000E+00 0.  1.
          3    1    1    2  501    0 -0.27323115962E+02  0.14370723945E+03  0.30317912310E+03  0.33662427723E+03  0.00000000000E+00 0. -1.
<scales pt_clust_5="13000.00000" pt_clust_6="13000.00000" pt_clust_7="13000.00000" pt_clust_8="13000.00000" pt_clust_9="20.49357" pt_clust_10="165.45578"></scales>
<clustering>
<clus scale="   20.494">  1  9  2 -1</clus>
<clus scale="   80.317">  5  6 -1 -1</clus>
<clus scale="   90.484">  7  8 -1 -1</clus>
<clus scale="  146.061">  2  7  1 -1</clus>
<clus scale="  165.456">  1 10  2 -1</clus>
<clus scale="   20.494">  1  5  2 -1</clus>
</clustering>
</event>
<event>
10    4  0.3043429E-005  0.1880424E+03  0.7546771E-02  0.1180864E+00
          2   -1    0    0  503    0 -0.00000000000E+00  0.00000000000E+00  0.67646262839E+03  0.67646262839E+03  0.00000000000E+00 0. -1.
         21   -1    0    0  501  502  0.00000000000E+00 -0.00000000000E+00 -0.54236806136E+03  0.54236806136E+03  0.00000000000E+00 0. -1.
         24    2    1    2    0    0 -0.62118553243E+02 -0.60009861169E+02  0.38151304930E+03  0.39954868352E+03  0.81406668203E+02 0.  0.
         23    2    1    2    0    0 -0.11658206339E+03  0.12806588314E+03  0.65243046893E+02  0.20342407121E+03  0.84453831482E+02 0.  0.
        -11    1    3    3    0    0 -0.61618463512E+01 -0.43634551840E+02  0.70660921738E+02  0.83276096964E+02  0.00000000000E+00 0.  1.
         12    1    3    3    0    0 -0.55956706892E+02 -0.16375309330E+02  0.31085212756E+03  0.31627258656E+03  0.00000000000E+00 0. -1.
        -13    1    4    4    0    0 -0.26853384267E+02 -0.14366958123E+00 -0.11400790159E+02  0.29173667987E+02  0.00000000000E+00 0. -1.
         13    1    4    4    0    0 -0.89728679122E+02  0.12820955272E+03  0.76643837052E+02  0.17425040323E+03  0.00000000000E+00 0.  1.
         21    1    1    2  503  502  0.69847075486E+02 -0.10661789826E+03 -0.43163118117E+03  0.45005718163E+03  0.00000000000E+00 0. -1.
          1    1    1    2  501    0  0.10885354115E+03  0.38561876292E+02  0.11896965201E+03  0.16580075338E+03  0.00000000000E+00 0. -1.
<scales pt_clust_5="13000.00000" pt_clust_6="13000.00000" pt_clust_7="13000.00000" pt_clust_8="13000.00000" pt_clust_9="168.01035" pt_clust_10="115.48214"></scales>
<clustering>
<clus scale="   81.407">  5  6 -1 -1</clus>
<clus scale="   84.454">  7  8 -1 -1</clus>
<clus scale="  115.482">  2 10  1 -1</clus>
<clus scale="  117.369">  1  5  2 -1</clus>
<clus scale="  168.010">  2  9  1 -1</clus>
<clus scale="  115.482">  2  5  1 -1</clus>
</clustering>
</event>
<event>
10    4  0.3043429E-005  0.2234927E+03  0.7546771E-02  0.1174711E+00
         21   -1    0    0  503  502  0.00000000000E+00  0.00000000000E+00  0.97398879895E+02  0.97398879895E+02  0.00000000000E+00 0. -1.
          2   -1    0    0  502    0 -0.00000000000E+00 -0.00000000000E+00 -0.88966254699E+03  0.88966254699E+03  0.00000000000E+00 0. -1.
         23    2    1    2    0    0 -0.10356507053E+02 -0.41984676709E+01 -0.23107337265E+03  0.24470615297E+03  0.79757842165E+02 0.  0.
         24    2    1    2    0    0  0.13673551876E+03  0.14455248846E+03 -0.18062410041E+03  0.28204788648E+03  0.85638312740E+02 0.  0.
        -11    1    4    4    0    0  0.43323018983E+02  0.10451181206E+03 -0.76670625608E+02  0.13666743455E+03  0.00000000000E+00 0.  1.
         12    1    4    4    0    0  0.93412499776E+02  0.40040676394E+02 -0.10395347480E+03  0.14538045193E+03  0.00000000000E+00 0. -1.
        -13    1    3    3    0    0 -0.38052178259E+02 -0.25152065566E+02 -0.12269566205E+03  0.13090003881E+03  0.00000000000E+00 0.  1.
         13    1    3    3    0    0  0.27695671206E+02  0.20953597895E+02 -0.10837771059E+03  0.11380611417E+03  0.00000000000E+00 0. -1.
         21    1    1    2  503  501  0.19764708150E+02  0.58796562565E+01  0.63873298546E+01  0.21587311751E+02  0.00000000000E+00 0.  1.
          1    1    1    2  501    0 -0.14614371986E+03 -0.14623367704E+03 -0.38695352390E+03  0.43872007569E+03  0.00000000000E+00 0. -1.
<scales pt_clust_5="13000.00000" pt_clust_6="13000.00000" pt_clust_7="13000.00000" pt_clust_8="13000.00000" pt_clust_9="20.62072" pt_clust_10="206.43426"></scales>
<clustering>
<clus scale="   20.621">  1  9  2 -1</clus>
<clus scale="   79.758">  7  8 -1 -1</clus>
<clus scale="   80.322">  2  7  1 -1</clus>
<clus scale="   85.638">  5  6 -1 -1</clus>
<clus scale="  206.434">  1 10  2 -1</clus>
<clus scale="   20.621">  1  5  2 -1</clus>
</clustering>
</event>
<event>
10    4  0.3043429E-005  0.2826353E+03  0.7546771E-02  0.1121036E+00
         -1   -1    0    0    0  501 -0.00000000000E+00  0.00000000000E+00  0.12107948000E+04  0.12107948000E+04  0.00000000000E+00 0.  1.
         21   -1    0    0  501  502  0.00000000000E+00 -0.00000000000E+00 -0.17626805646E+03  0.17626805646E+03  0.00000000000E+00 0.  1.
         24    2    1    2    0    0  0.23685729490E+01  0.12520315040E+03  0.16035186098E+03  0.21897026025E+03  0.80955645540E+02 0.  0.
         23    2    1    2    0    0  0.28267284740E+03 -0.10100320355E+01  0.18531898475E+03  0.35066946863E+03  0.93386247892E+02 0.  0.
        -13    1    3    3    0    0  0.21921588114E+02  0.89407271633E+02  0.58032894935E+02  0.10882110614E+03  0.00000000000E+00 0.  1.
         14    1    3    3    0    0 -0.19553015165E+02  0.35795878769E+02  0.10231896604E+03  0.11014915411E+03  0.00000000000E+00 0. -1.
        -11    1    4    4    0    0  0.11298788897E+03 -0.28607178692E+02  0.33389197767E+02  0.12124138012E+03  0.00000000000E+00 0.  1.
         11    1    4    4    0    0  0.16968495843E+03  0.27597146656E+02  0.15192978699E+03  0.22942808850E+03  0.00000000000E+00 0. -1.
         21    1    1    2  503  502 -0.25273650172E+02 -0.37614004049E+02 -0.25772882093E+02  0.52132639920E+02  0.00000000000E+00 0.  1.
         -2    1    1    2    0  503 -0.25976777018E+03 -0.86579114318E+02  0.71462877990E+03  0.76529048767E+03  0.00000000000E+00 0.  1.
<scales pt_clust_5="13000.00000" pt_clust_6="13000.00000" pt_clust_7="13000.00000" pt_clust_8="13000.00000" pt_clust_9="45.31634" pt_clust_10="266.76171"></scales>
<clustering>
<clus scale="   45.316">  2  9  1 -1</clus>
<clus scale="   80.956">  5  6 -1 -1</clus>
<clus scale="   93.386">  7  8 -1 -1</clus>
<clus scale="  142.453">  1  5  2 -1</clus>
<clus scale="  266.762">  2 10  1 -1</clus>
<clus scale="   45.316">  2  5  1 -1</clus>
</clustering>
</event>
<event>
10    4  0.3043429E-005  0.2019427E+03  0.7546771E-02  0.1183763E+00
         21   -1    0    0  501  502  0.00000000000E+00  0.00000000000E+00  0.43797081945E+03  0.43797081945E+03  0.00000000000E+00 0.  1.
         -3   -1    0    0    0  501 -0.00000000000E+00 -0.00000000000E+00 -0.16486228925E+03  0.16486228925E+03  0.00000000000E+00 0.  1.
         24    2    1    2    0    0 -0.32438256408E+02  0.97575979383E+01 -0.19427010271E+02  0.91424485463E+02  0.82665449964E+02 0.  0.
         23    2    1    2    0    0 -0.16601986295E+03  0.42569475634E+02  0.11024177579E+03  0.22211012387E+03  0.88345361191E+02 0.  0.
        -11    1    3    3    0    0 -0.40803290585E+02  0.21574628984E+02  0.19338555889E+02  0.50043509892E+02  0.00000000000E+00 0.  1.
         12    1    3    3    0    0  0.83650341775E+01 -0.11817031046E+02 -0.38765566160E+02  0.41380975571E+02  0.00000000000E+00 0. -1.
        -11    1    4    4    0    0 -0.38094093945E+02  0.16592350282E+02 -0.12024654222E+02  0.43255732459E+02  0.00000000000E+00 0. -1.
         11    1    4    4    0    0 -0.12792576901E+03  0.25977125352E+02  0.12226643001E+03  0.17885439141E+03  0.00000000000E+00 0.  1.
         21    1    1    2  503  502  0.84884727391E+01 -0.28171684136E+02  0.44617024833E+02  0.53445082669E+02  0.00000000000E+00 0.  1.
         -4    1    1    2    0  503  0.18996964662E+03 -0.24155389437E+02  0.13767673985E+03  0.23585341671E+03  0.00000000000E+00 0.  1.
<scales pt_clust_5="13000.00000" pt_clust_6="13000.00000" pt_clust_7="13000.00000" pt_clust_8="13000.00000" pt_clust_9="29.42275" pt_clust_10="181.59288"></scales>
<clustering>
<clus scale="   29.423">  1  9  2 -1</clus>
<clus scale="   82.665">  5  6 -1 -1</clus>
<clus scale="   88.345">  7  8 -1 -1</clus>
<clus scale="   88.806">  2  5  1 -1</clus>
<clus scale="  181.593">  1 10  2 -1</clus>
<clus scale="   29.423">  1  5  2 -1</clus>
</clustering>
</event>
<event>
10    4  0.3043429E-005  0.2234983E+03  0.7546771E-02  0.1165906E+00
          2   -1    0    0  503    0 -0.00000000000E+00  0.00000000000E+00  0.19272434636E+04  0.19272434636E+04  0.00000000000E+00 0. -1.
         21   -1    0    0  501  502  0.00000000000E+00 -0.00000000000E+00 -0.15647944050E+03  0.15647944050E+03  0.00000000000E+00 0. -1.
         24    2    1    2    0    0 -0.12060578266E+02 -0.57925179299E+02  0.49960622259E+03  0.50949603862E+03  0.80492557245E+02 0.  0.
         23    2    1    2    0    0 -0.12756072971E+03 -0.12767955192E+03  0.75976185917E+03  0.78624802404E+03  0.91509917097E+02 0.  0.
        -13    1    3    3    0    0 -0.88467754686E+01 -0.74561082562E+02  0.30313018735E+03  0.31229077948E+03  0.00000000000E+00 0.  1.
         14    1    3    3    0    0 -0.32138027969E+01  0.16635903262E+02  0.19647603524E+03  0.19720525913E+03  0.00000000000E+00 0. -1.
        -11    1    4    4    0    0 -0.43423893994E+02 -0.18572548905E+01  0.94977518547E+02  0.10445005024E+03  0.00000000000E+00 0.  1.
         11    1    4    4    0    0 -0.84136835712E+02 -0.12582229702E+03  0.66478434062E+03  0.68179797381E+03  0.00000000000E+00 0. -1.
         21    1    1    2  503  502 -0.16712097402E+02  0.26276338057E+02 -0.11702195540E+03  0.12109450106E+03  0.00000000000E+00 0. -1.
          1    1    1    2  501    0  0.15633340537E+03  0.15932839316E+03  0.62841789678E+03  0.66688434042E+03  0.00000000000E+00 0. -1.
<scales pt_clust_5="13000.00000" pt_clust_6="13000.00000" pt_clust_7="13000.00000" pt_clust_8="13000.00000" pt_clust_9="31.14065" pt_clust_10="203.90547"></scales>
<clustering>
<clus scale="   31.141">  2  9  1 -1</clus>
<clus scale="   80.493">  5  6 -1 -1</clus>
<clus scale="   91.510">  7  8 -1 -1</clus>
<clus scale="   98.223">  1  5  2 -1</clus>
<clus scale="  203.905">  2 10  1 -1</clus>
<clus scale="   31.141">  2  5  1 -1</clus>
</clustering>
</event>
<event>
10    4  0.3043429E-005  0.1471118E+03  0.7546771E-02  0.1233136E+00
         -3   -1    0    0    0  501 -0.00000000000E+00  0.00000000000E+00  0.86830733657E+02  0.86830733657E+02  0.00000000000E+00 0.  1.
         21   -1    0    0  501  502  0.00000000000E+00 -0.00000000000E+00 -0.41563410616E+03  0.41563410616E+03  0.00000000000E+00 0.  1.
         24    2    1    2    0    0  0.13359107926E+02 -0.17522304745E+01 -0.11798379681E+03  0.14273258462E+03  0.79188877555E+02 0.  0.
         23    2    1    2    0    0 -0.11202276449E+03 -0.40488920289E+01 -0.10216220203E+03  0.17855541141E+03  0.94230706937E+02 0.  0.
        -11    1    3    3    0    0  0.12552734454E+02  0.28088159394E+02 -0.12674220298E+02  0.33273889171E+02  0.00000000000E+00 0.  1.
         12    1    3    3    0    0  0.80637347156E+00 -0.29840389869E+02 -0.10530957651E+03  0.10945869545E+03  0.00000000000E+00 0. -1.
        -11    1    4    4    0    0 -0.91392331340E+02  0.38484610266E+02 -0.69754837856E+02  0.12124092073E+03  0.00000000000E+00 0.  1.
         11    1    4    4    0    0 -0.20630433152E+02 -0.42533502294E+02 -0.32407364176E+02  0.57314490683E+02  0.00000000000E+00 0. -1.
         21    1    1    2  503  502 -0.14371738222E+02  0.19398681160E+02 -0.44154782502E+02  0.50323955608E+02  0.00000000000E+00 0. -1.
         -4    1    1    2    0  503  0.11303539479E+03 -0.13597558657E+02 -0.64502591162E+02  0.13085288817E+03  0.00000000000E+00 0.  1.
<scales pt_clust_5="13000.00000" pt_clust_6="13000.00000" pt_clust_7="13000.00000" pt_clust_8="13000.00000" pt_clust_9="24.14240" pt_clust_10="112.97100"></scales>
<clustering>
<clus scale="   24.142">  2  9  1 -1</clus>
<clus scale="   79.189">  5  6 -1 -1</clus>
<clus scale="   79.784">  1  5  2 -1</clus>
<clus scale="   94.231">  7  8 -1 -1</clus>
<clus scale="  112.971">  2 10  1 -1</clus>
<clus scale="   24.142">  2  5  1 -1</clus>
</clustering>
</event>
<event>
10    4  0.4089883E-005  0.6524189E+03  0.7546771E-02  0.9802856E-01
          2   -1    0    0  503    0 -0.00000000000E+00  0.00000000000E+00  0.13031670254E+04  0.13031670254E+04  0.00000000000E+00 0. -1.
         21   -1    0    0  501  502  0.00000000000E+00 -0.00000000000E+00 -0.76120710443E+03  0.76120710443E+03  0.00000000000E+00 0. -1.
         24    2    1    2    0    0 -0.52733433575E+03 -0.54289886132E+03  0.81498596468E+03  0.11151801951E+04  0.81265427321E+02 0.  0.
         23    2    1    2    0    0  0.20330290136E+03  0.42431020543E+03 -0.35626549273E+02  0.48055301475E+03  0.91053439448E+02 0.  0.
        -13    1    3    3    0    0 -0.14271726495E+03 -0.14281418779E+03  0.16698592867E+03  0.26200841651E+03  0.00000000000E+00 0.  1.
         14    1    3    3    0    0 -0.38461707080E+03 -0.40008467353E+03  0.64800003601E+03  0.85317177861E+03  0.00000000000E+00 0. -1.
        -13    1    4    4    0    0  0.18846710717E+03  0.30467248116E+03 -0.17870950531E+02  0.35869839996E+03  0.00000000000E+00 0. -1.
         13    1    4    4    0    0  0.14835794189E+02  0.11963772427E+03 -0.17755598742E+02  0.12185461479E+03  0.00000000000E+00 0.  1.
         21    1    1    2  503  502 -0.24302251633E+02  0.53919899329E+01  0.98093699544E+01  0.26756246537E+02  0.00000000000E+00 0. -1.
          1    1    1    2  501    0  0.34833368602E+03  0.11319666596E+03 -0.24720886437E+03  0.44188467344E+03  0.00000000000E+00 0. -1.
<scales pt_clust_5="13000.00000" pt_clust_6="13000.00000" pt_clust_7="13000.00000" pt_clust_8="13000.00000" pt_clust_9="24.89323" pt_clust_10="364.64130"></scales>
<clustering>
<clus scale="   24.893">  1  9  2 -1</clus>
<clus scale="   81.265">  5  6 -1 -1</clus>
<clus scale="   91.053">  7  8 -1 -1</clus>
<clus scale="  364.641">  2 10  1 -1</clus>
<clus scale="  651.125">  1  5  2 -1</clus>
<clus scale="  364.641">  2  5  1 -1</clus>
</clustering>
</event>
<event>
10    4  0.3043429E-005  0.3238823E+03  0.7546771E-02  0.1100521E+00
         21   -1    0    0  501  502  0.00000000000E+00  0.00000000000E+00  0.15349702832E+03  0.15349702832E+03  0.00000000000E+00 0. -1.
          2   -1    0    0  503    0 -0.00000000000E+00 -0.00000000000E+00 -0.15341006368E+04  0.15341006368E+04  0.00000000000E+00 0. -1.
         23    2    1    2    0    0 -0.35439818290E+02  0.14136616058E+03 -0.49382608306E+02  0.17731202039E+03  0.88093918596E+02 0.  0.
         24    2    1    2    0    0 -0.28718498343E+03  0.60547913195E+02 -0.58190741089E+03  0.65620629407E+03  0.76480069548E+02 0.  0.
        -11    1    4    4    0    0 -0.64566332581E+02  0.12546792760E+02 -0.70687043511E+02  0.96555121210E+02  0.00000000000E+00 0.  1.
         12    1    4    4    0    0 -0.22261865085E+03  0.48001120435E+02 -0.51122036737E+03  0.55965117286E+03  0.00000000000E+00 0. -1.
        -13    1    3    3    0    0  0.58243331906E+01  0.95563965282E+02 -0.62430365441E+02  0.11429761523E+03  0.00000000000E+00 0. -1.
         13    1    3    3    0    0 -0.41264151480E+02  0.45802195296E+02  0.13047757136E+02  0.63014405159E+02  0.00000000000E+00 0.  1.
         21    1    1    2  503  502  0.15287399935E+02 -0.25298734651E+02 -0.54245552744E+01  0.30052560151E+02  0.00000000000E+00 0.  1.
          1    1    1    2  501    0  0.30733740178E+03 -0.17661533912E+03 -0.74388903401E+03  0.82402679050E+03  0.00000000000E+00 0. -1.
<scales pt_clust_5="13000.00000" pt_clust_6="13000.00000" pt_clust_7="13000.00000" pt_clust_8="13000.00000" pt_clust_9="29.55893" pt_clust_10="314.72308"></scales>
<clustering>
<clus scale="   29.559">  1  9  2 -1</clus>
<clus scale="   76.480">  5  6 -1 -1</clus>
<clus scale="   88.094">  7  8 -1 -1</clus>
<clus scale="  159.527">  2  7  1 -1</clus>
<clus scale="  314.723">  1 10  2 -1</clus>
<clus scale="   29.559">  1  5  2 -1</clus>
</clustering>
</event>
<event>
10    4  0.3043429E-005  0.2807668E+03  0.7546771E-02  0.1095448E+00
          2   -1    0    0  503    0 -0.00000000000E+00  0.00000000000E+00  0.28871773441E+04  0.28871773441E+04  0.00000000000E+00 0. -1.
         21   -1    0    0  501  502  0.00000000000E+00 -0.00000000000E+00 -0.18530457481E+03  0.18530457481E+03  0.00000000000E+00 0. -1.
         24    2    1    2    0    0  0.22595311641E+03 -0.23361613148E+03  0.14105480921E+04  0.14501350041E+04  0.87259968929E+02 0.  0.
         23    2    1    2    0    0 -0.13217737538E+03  0.15100884400E+03  0.54096921199E+03  0.58417983892E+03  0.91344766359E+02 0.  0.
        -13    1    3    3    0    0  0.77195696829E+02 -0.72415809730E+02  0.29981076186E+03  0.31794609297E+03  0.00000000000E+00 0.  1.
         14    1    3    3    0    0  0.14875741958E+03 -0.16120032175E+03  0.11107373302E+04  0.11321889111E+04  0.00000000000E+00 0. -1.
        -11    1    4    4    0    0 -0.74645107251E+02  0.41975210437E+02  0.13470206097E+03  0.15961972171E+03  0.00000000000E+00 0.  1.
         11    1    4    4    0    0 -0.57532268128E+02  0.10903363356E+03  0.40626715102E+03  0.42456011721E+03  0.00000000000E+00 0. -1.
         21    1    1    2  503  502 -0.12323860914E+03 -0.25126852139E+02 -0.11211783573E+03  0.16849190654E+03  0.00000000000E+00 0. -1.
          1    1    1    2  501    0  0.29462868107E+02  0.10773413962E+03  0.86247330092E+03  0.86967516938E+03  0.00000000000E+00 0. -1.
<scales pt_clust_5="13000.00000" pt_clust_6="13000.00000" pt_clust_7="13000.00000" pt_clust_8="13000.00000" pt_clust_9="116.05632" pt_clust_10="111.69028"></scales>
<clustering>
<clus scale="   87.260">  5  6 -1 -1</clus>
<clus scale="   91.345">  7  8 -1 -1</clus>
<clus scale="  111.690">  2 10  1 -1</clus>
<clus scale="  116.056">  2  9  1 -1</clus>
<clus scale="  279.465">  1  5  2 -1</clus>
<clus scale="  111.690">  2  5  1 -1</clus>
</clustering>
</event>
<event>
10    4  0.3043429E-005  0.2043791E+03  0.7546771E-02  0.1180360E+00
          2   -1    0    0  503    0 -0.00000000000E+00  0.00000000000E+00  0.18237366057E+04  0.18237366057E+04  0.00000000000E+00 0. -1.
         21   -1    0    0  501  502  0.00000000000E+00 -0.00000000000E+00 -0.19109245501E+03  0.19109245501E+03  0.00000000000E+00 0.  1.
         24    2    1    2    0    0  0.23119293944E+02  0.37810464173E+02  0.36141777935E+03  0.37305560730E+03  0.81139028577E+02 0.  0.
         23    2    1    2    0    0 -0.15951613811E+03 -0.57917822343E+02  0.50337132519E+03  0.53815964066E+03  0.86216212795E+02 0.  0.
        -11    1    3    3    0    0  0.39968258161E+01 -0.25755489390E+02  0.99458025741E+02  0.10281643222E+03  0.00000000000E+00 0.  1.
         12    1    3    3    0    0  0.19122468128E+02  0.63565953562E+02  0.26195975361E+03  0.27023917508E+03  0.00000000000E+00 0. -1.
        -11    1    4    4    0    0 -0.15785919407E+02 -0.24790112182E+02  0.28617464267E+02  0.41020777352E+02  0.00000000000E+00 0.  1.
         11    1    4    4    0    0 -0.14373021870E+03 -0.33127710161E+02  0.47475386093E+03  0.49713886331E+03  0.00000000000E+00 0. -1.
         21    1    1    2  503  502 -0.15780406377E+01 -0.20255678155E+03 -0.78809310275E+02  0.21735373783E+03  0.00000000000E+00 0.  1.
          1    1    1    2  501    0  0.13797488480E+03  0.22266413972E+03  0.84666435645E+03  0.88626007494E+03  0.00000000000E+00 0. -1.
<scales pt_clust_5="13000.00000" pt_clust_6="13000.00000" pt_clust_7="13000.00000" pt_clust_8="13000.00000" pt_clust_9="204.37909" pt_clust_10="13000.00000"></scales>
<clustering>
<clus scale="   81.139">  5  6 -1 -1</clus>
<clus scale="   86.216">  7  8 -1 -1</clus>
<clus scale="   92.454">  1  5  2 -1</clus>
<clus scale="  179.669">  1  7  2 -1</clus>
<clus scale="  204.379">  2  9  1 -1</clus>
<clus scale="  204.379">  2  5  1 -1</clus>
</clustering>
</event>
<event>
10    4  0.3043429E-005  0.1471956E+03  0.7546771E-02  0.1224289E+00
         21   -1    0    0  503  502  0.00000000000E+00  0.00000000000E+00  0.99035729443E+02  0.99035729443E+02  0.00000000000E+00 0.  1.
          4   -1    0    0  502    0 -0.00000000000E+00 -0.00000000000E+00 -0.78028284691E+03  0.78028284691E+03  0.00000000000E+00 0. -1.
         24    2    1    2    0    0  0.52342949005E+02  0.56027044604E+02 -0.78418579292E+02  0.13603033357E+03  0.80473374699E+02 0.  0.
         23    2    1    2    0    0  0.55770157942E+02  0.68168591242E+02 -0.39972943895E+03  0.42178282607E+03  0.10178340072E+03 0.  0.
        -11    1    3    3    0    0  0.21993614079E+02  0.55847961117E+02 -0.95589514827E+01  0.60779004390E+02  0.00000000000E+00 0.  1.
         12    1    3    3    0    0  0.30349334925E+02  0.17908348693E+00 -0.68859627810E+02  0.75251329180E+02  0.00000000000E+00 0. -1.
        -11    1    4    4    0    0  0.78161973373E+02  0.37269342804E+02 -0.19264281807E+03  0.21120973782E+03  0.00000000000E+00 0.  1.
         11    1    4    4    0    0 -0.22391815431E+02  0.30899248438E+02 -0.20708662088E+03  0.21057308826E+03  0.00000000000E+00 0. -1.
         21    1    1    2  503  501 -0.74924400166E+02 -0.11412469885E+02  0.11652742430E+02  0.76679179803E+02  0.00000000000E+00 0. -1.
          3    1    1    2  501    0 -0.33188706781E+02 -0.11278316596E+03 -0.21475184166E+03  0.24482623691E+03  0.00000000000E+00 0. -1.
<scales pt_clust_5="13000.00000" pt_clust_6="13000.00000" pt_clust_7="13000.00000" pt_clust_8="13000.00000" pt_clust_9="75.78859" pt_clust_10="106.33282"></scales>
<clustering>
<clus scale="   75.789">  1  9  2 -1</clus>
<clus scale="   80.473">  5  6 -1 -1</clus>
<clus scale="   95.649">  2  5  1 -1</clus>
<clus scale="  101.783">  7  8 -1 -1</clus>
<clus scale="  106.333">  1 10  2 -1</clus>
<clus scale="   75.789">  1  5  2 -1</clus>
</clustering>
</event>
<event>
10    4  0.3043429E-005  0.2528691E+03  0.7546771E-02  0.1112180E+00
         21   -1    0    0  503  502  0.00000000000E+00  0.00000000000E+00  0.90587352593E+02  0.90587352593E+02  0.00000000000E+00 0. -1.
          2   -1    0    0  502    0 -0.00000000000E+00 -0.00000000000E+00 -0.15041905844E+04  0.15041905844E+04  0.00000000000E+00 0. -1.
         24    2    1    2    0    0  0.34943407742E+02  0.22083301956E+03 -0.85676641860E+03  0.88916681874E+03  0.81121336490E+02 0.  0.
         23    2    1    2    0    0 -0.58258386084E+01 -0.27936825914E+03 -0.29791682269E+03  0.41901250444E+03  0.93469144792E+02 0.  0.
        -13    1    3    3    0    0  0.57238088837E+02  0.17826980924E+03 -0.62362002444E+03  0.65112077112E+03  0.00000000000E+00 0.  1.
         14    1    3    3    0    0 -0.22294681096E+02  0.42563210321E+02 -0.23314639416E+03  0.23804604762E+03  0.00000000000E+00 0. -1.
        -11    1    4    4    0    0 -0.80148368664E-01 -0.21784505706E+03 -0.27983094772E+03  0.35462915082E+03  0.00000000000E+00 0.  1.
         11    1    4    4    0    0 -0.57456902398E+01 -0.61523202078E+02 -0.18085874969E+02  0.64383353622E+02  0.00000000000E+00 0. -1.
         21    1    1    2  503  501 -0.14505251470E+02 -0.17679421852E+02 -0.84456757019E+01  0.24378140111E+02  0.00000000000E+00 0. -1.
          1    1    1    2  501    0 -0.14612317664E+02  0.76214661433E+02 -0.25047431481E+03  0.26222047370E+03  0.00000000000E+00 0. -1.
<scales pt_clust_5="13000.00000" pt_clust_6="13000.00000" pt_clust_7="13000.00000" pt_clust_8="13000.00000" pt_clust_9="22.86841" pt_clust_10="76.57293"></scales>
<clustering>
<clus scale="   22.868">  1  9  2 -1</clus>
<clus scale="   76.573">  1 10  2 -1</clus>
<clus scale="   81.121">  5  6 -1 -1</clus>
<clus scale="   93.469">  7  8 -1 -1</clus>
<clus scale="  248.570">  2  5  1 -1</clus>
<clus scale="   22.868">  1  5  2 -1</clus>
</clustering>
</event>
<event>
10    4  0.3043429E-005  0.1446205E+03  0.7546771E-02  0.1209915E+00
         21   -1    0    0  501  502  0.00000000000E+00  0.00000000000E+00  0.74424040231E+03  0.74424040231E+03  0.00000000000E+00 0. -1.
          2   -1    0    0  503    0 -0.00000000000E+00 -0.00000000000E+00 -0.24607802015E+03  0.24607802015E+03  0.00000000000E+00 0. -1.
         23    2    1    2    0    0 -0.39550727880E+02 -0.79573669652E+02 -0.29112221442E+02  0.13276408743E+03  0.94247294366E+02 0.  0.
         24    2    1    2    0    0  0.40617493053E+02  0.12445953553E+03 -0.64127611878E+02  0.16695779735E+03  0.81379350963E+02 0.  0.
        -13    1    4    4    0    0  0.49626179765E+02  0.50399982948E+02 -0.59118930747E+02  0.92184401999E+02  0.00000000000E+00 0.  1.
         14    1    4    4    0    0 -0.90086867119E+01  0.74059552585E+02 -0.50086811310E+01  0.74773395349E+02  0.00000000000E+00 0. -1.
        -11    1    3    3    0    0 -0.31386340897E+02 -0.31114035434E+02 -0.60150072882E+02  0.74640584561E+02  0.00000000000E+00 0.  1.
         11    1    3    3    0    0 -0.81643869830E+01 -0.48459634217E+02  0.31037851440E+02  0.58123502865E+02  0.00000000000E+00 0. -1.
         21    1    1    2  503  502  0.34424636169E+01 -0.80783164569E+02  0.63146192081E+03  0.63661756782E+03  0.00000000000E+00 0. -1.
          1    1    1    2  501    0 -0.45092287901E+01  0.35897298688E+02 -0.40059705320E+02  0.53978969865E+02  0.00000000000E+00 0. -1.
<scales pt_clust_5="13000.00000" pt_clust_6="13000.00000" pt_clust_7="13000.00000" pt_clust_8="13000.00000" pt_clust_9="49.91444" pt_clust_10="36.17942"></scales>
<clustering>
<clus scale="   36.179">  1 10  2 -1</clus>
<clus scale="   49.914">  1  9  2 -1</clus>
<clus scale="   81.379">  5  6 -1 -1</clus>
<clus scale="   94.247">  7  8 -1 -1</clus>
<clus scale="  136.584">  1  5  2 -1</clus>
<clus scale="   36.179">  1  5  2 -1</clus>
</clustering>
</event>
<event>
10    4  0.3043429E-005  0.1472866E+03  0.7546771E-02  0.1219630E+00
         21   -1    0    0  501  502  0.00000000000E+00  0.00000000000E+00  0.13915923739E+03  0.13915923739E+03  0.00000000000E+00 0. -1.
          2   -1    0    0  503    0 -0.00000000000E+00 -0.00000000000E+00 -0.83540588654E+03  0.83540588654E+03  0.00000000000E+00 0. -1.
         23    2    1    2    0    0  0.47172551076E+02 -0.17539006739E+02 -0.59607402419E+03  0.60522924506E+03  0.92007230329E+02 0.  0.
         24    2    1    2    0    0  0.54590301084E+02  0.86366449967E+02 -0.13539428017E+03  0.18828895743E+03  0.81742618842E+02 0.  0.
        -11    1    4    4    0    0  0.19954069504E+02  0.83566654690E+02 -0.58597336389E+02  0.10399614655E+03  0.00000000000E+00 0.  1.
         12    1    4    4    0    0  0.34636231581E+02  0.27997952765E+01 -0.76796943778E+02  0.84292810875E+02  0.00000000000E+00 0. -1.
        -11    1    3    3    0    0  0.37197690755E+01 -0.50309535392E+02 -0.28563610531E+03  0.29005666807E+03  0.00000000000E+00 0.  1.
         11    1    3    3    0    0  0.43452782000E+02  0.32770528653E+02 -0.31043791888E+03  0.31517257699E+03  0.00000000000E+00 0. -1.
         21    1    1    2  503  502  0.25990011161E+02  0.91043927770E+01  0.11065789699E+01  0.27560754072E+02  0.00000000000E+00 0. -1.
          1    1    1    2  501    0 -0.12775286332E+03 -0.77931836005E+02  0.34115076227E+02  0.15348616738E+03  0.00000000000E+00 0. -1.
<scales pt_clust_5="13000.00000" pt_clust_6="13000.00000" pt_clust_7="13000.00000" pt_clust_8="13000.00000" pt_clust_9="27.53853" pt_clust_10="122.52133"></scales>
<clustering>
<clus scale="   27.539">  1  9  2 -1</clus>
<clus scale="   81.743">  5  6 -1 -1</clus>
<clus scale="   92.007">  7  8 -1 -1</clus>
<clus scale="  105.249">  2  7  1 -1</clus>
<clus scale="  122.521">  1 10  2 -1</clus>
<clus scale="   27.539">  1  5  2 -1</clus>
</clustering>
</event>
<event>
10    4  0.3043429E-005  0.2034859E+03  0.7546771E-02  0.1147921E+00
         21   -1    0    0  503  502  0.00000000000E+00  0.00000000000E+00  0.13322552706E+03  0.13322552706E+03  0.00000000000E+00 0. -1.
          2   -1    0    0  502    0 -0.00000000000E+00 -0.00000000000E+00 -0.78283538473E+03  0.78283538473E+03  0.00000000000E+00 0. -1.
         24    2    1    2    0    0 -0.15463571321E+03 -0.11986720050E+03 -0.33115565183E+03  0.39307558310E+03  0.81018508605E+02 0.  0.
         23    2    1    2    0    0  0.13087992102E+03  0.55052438427E+02  0.10536297989E+02  0.17008651736E+03  0.93048831854E+02 0.  0.
        -13    1    3    3    0    0 -0.84103537567E+02 -0.15741407336E+02 -0.14657549125E+03  0.16972204209E+03  0.00000000000E+00 0.  1.
         14    1    3    3    0    0 -0.70532175644E+02 -0.10412579316E+03 -0.18458016057E+03  0.22335354101E+03  0.00000000000E+00 0. -1.
        -13    1    4    4    0    0  0.77946291381E+02 -0.96368228429E+01 -0.20085905659E+02  0.81067479921E+02  0.00000000000E+00 0.  1.
         13    1    4    4    0    0  0.52933629643E+02  0.64689261270E+02  0.30622203648E+02  0.89019037442E+02  0.00000000000E+00 0. -1.
         21    1    1    2  503  501 -0.93410457058E+01 -0.19174016788E+02 -0.14708010560E+02  0.25907983891E+02  0.00000000000E+00 0.  1.
          1    1    1    2  501    0  0.33096837892E+02  0.83988778858E+02 -0.31428249327E+03  0.32699082743E+03  0.00000000000E+00 0. -1.
<scales pt_clust_5="13000.00000" pt_clust_6="13000.00000" pt_clust_7="13000.00000" pt_clust_8="13000.00000" pt_clust_9="21.32834" pt_clust_10="89.21609"></scales>
<clustering>
<clus scale="   21.328">  1  9  2 -1</clus>
<clus scale="   81.019">  5  6 -1 -1</clus>
<clus scale="   89.216">  1 10  2 -1</clus>
<clus scale="   93.049">  7  8 -1 -1</clus>
<clus scale="  198.274">  2  5  1 -1</clus>
<clus scale="   21.328">  1  5  2 -1</clus>
</clustering>
</event>
<event>
10    4  0.3043429E-005  0.1404804E+03  0.7546771E-02  0.1231866E+00
         -1   -1    0    0    0  501 -0.00000000000E+00  0.00000000000E+00  0.26999752976E+03  0.26999752976E+03  0.00000000000E+00 0.  1.
         21   -1    0    0  503  502  0.00000000000E+00 -0.00000000000E+00 -0.58036874640E+03  0.58036874640E+03  0.00000000000E+00 0. -1.
         24    2    1    2    0    0 -0.42143097965E+02  0.25021012420E+02  0.19605322816E+02  0.96314642587E+02  0.80560846106E+02 0.  0.
         23    2    1    2    0    0 -0.57484688538E+02 -0.15285389325E+02  0.18576733678E+03  0.22066368189E+03  0.10317375901E+03 0.  0.
        -11    1    3    3    0    0 -0.62911868376E+02  0.65441569109E+01  0.24973407102E+02  0.68002942837E+02  0.00000000000E+00 0.  1.
         12    1    3    3    0    0  0.20768770410E+02  0.18476855509E+02 -0.53680842856E+01  0.28311699750E+02  0.00000000000E+00 0. -1.
        -11    1    4    4    0    0 -0.76569802085E+02  0.19786402760E+02  0.12719490154E+03  0.14977643107E+03  0.00000000000E+00 0.  1.
         11    1    4    4    0    0  0.19085113547E+02 -0.35071792086E+02  0.58572435240E+02  0.70887250823E+02  0.00000000000E+00 0. -1.
         21    1    1    2  503  501  0.72510603238E+02 -0.40729197156E+02 -0.43354660705E+03  0.44145137396E+03  0.00000000000E+00 0. -1.
         -2    1    1    2    0  502  0.27117183265E+02  0.30993574061E+02 -0.82197269192E+02  0.91936577726E+02  0.00000000000E+00 0.  1.
<scales pt_clust_5="13000.00000" pt_clust_6="13000.00000" pt_clust_7="13000.00000" pt_clust_8="13000.00000" pt_clust_9="95.34105" pt_clust_10="41.18183"></scales>
<clustering>
<clus scale="   41.182">  2 10  1 -1</clus>
<clus scale="   80.561">  5  6 -1 -1</clus>
<clus scale="   94.049">  1  5  2 -1</clus>
<clus scale="   95.341">  2  9  1 -1</clus>
<clus scale="  103.174">  7  8 -1 -1</clus>
<clus scale="   41.182">  2  5  1 -1</clus>
</clustering>
</event>
<event>
10    4  0.3043429E-005  0.4079211E+03  0.7546771E-02  0.1041258E+00
          2   -1    0    0  503    0 -0.00000000000E+00  0.00000000000E+00  0.16428504301E+04  0.16428504301E+04  0.00000000000E+00 0. -1.
         21   -1    0    0  501  502  0.00000000000E+00 -0.00000000000E+00 -0.16916519918E+03  0.16916519918E+03  0.00000000000E+00 0. -1.
         23    2    1    2    0    0  0.22302042856E+03 -0.34186156552E+03  0.73767792151E+03  0.84779315335E+03  0.89314463865E+02 0.  0.
         24    2    1    2    0    0 -0.26500099080E+03  0.28464702952E+03  0.52214382928E+03  0.65579289258E+03  0.78617319772E+02 0.  0.
        -11    1    4    4    0    0 -0.85314527883E+02  0.11902294710E+03  0.25246763482E+03  0.29186458715E+03  0.00000000000E+00 0.  1.
         12    1    4    4    0    0 -0.17968646291E+03  0.16562408242E+03  0.26967619446E+03  0.36392830543E+03  0.00000000000E+00 0. -1.
        -13    1    3    3    0    0  0.82740418576E+02 -0.10723078330E+03  0.16700614883E+03  0.21502435095E+03  0.00000000000E+00 0.  1.
         13    1    3    3    0    0  0.14028000999E+03 -0.23463078222E+03  0.57067177267E+03  0.63276880240E+03  0.00000000000E+00 0. -1.
         21    1    1    2  503  502  0.20119732573E+02  0.15178307383E+01 -0.41502745198E+02  0.46147430133E+02  0.00000000000E+00 0. -1.
          1    1    1    2  501    0  0.21860829661E+02  0.55696705269E+02  0.25536622534E+03  0.26228215322E+03  0.00000000000E+00 0. -1.
<scales pt_clust_5="13000.00000" pt_clust_6="13000.00000" pt_clust_7="13000.00000" pt_clust_8="13000.00000" pt_clust_9="20.17690" pt_clust_10="60.07717"></scales>
<clustering>
<clus scale="   20.177">  2  9  1 -1</clus>
<clus scale="   60.077">  2 10  1 -1</clus>
<clus scale="   78.617">  5  6 -1 -1</clus>
<clus scale="   89.314">  7  8 -1 -1</clus>
<clus scale="  405.713">  2  5  1 -1</clus>
<clus scale="   20.177">  2  5  1 -1</clus>
</clustering>
</event>
<event>
10    4  0.3043429E-005  0.2458246E+03  0.7546771E-02  0.1115972E+00
         21   -1    0    0  501  502  0.00000000000E+00  0.00000000000E+00  0.64835558489E+03  0.64835558489E+03  0.00000000000E+00 0. -1.
          2   -1    0    0  503    0 -0.00000000000E+00 -0.00000000000E+00 -0.47076601137E+03  0.47076601137E+03  0.00000000000E+00 0. -1.
         24    2    1    2    0    0 -0.93342768214E+02 -0.28190021916E+01 -0.18144365911E+03  0.22693001917E+03  0.99270403522E+02 0.  0.
         23    2    1    2    0    0 -0.79810449855E+02 -0.50472499766E+02 -0.16363549703E+03  0.20957961950E+03  0.90718575177E+02 0.  0.
        -11    1    3    3    0    0 -0.11918533673E+02 -0.38759017570E+02 -0.92997491532E+02  0.10145366587E+03  0.00000000000E+00 0.  1.
         12    1    3    3    0    0 -0.81424234541E+02  0.35940015378E+02 -0.88446167580E+02  0.12547635329E+03  0.00000000000E+00 0. -1.
        -11    1    4    4    0    0  0.13148263959E+02 -0.19829033620E+02 -0.68653403608E+01  0.24762881854E+02  0.00000000000E+00 0. -1.
         11    1    4    4    0    0 -0.92958713814E+02 -0.30643466146E+02 -0.15677015667E+03  0.18481673765E+03  0.00000000000E+00 0.  1.
         21    1    1    2  503  502  0.54280659153E+02  0.71289013352E+02  0.55170037440E+03  0.55892916948E+03  0.00000000000E+00 0. -1.
          1    1    1    2  501    0  0.11887255892E+03 -0.17997511395E+02 -0.29031644738E+02  0.12368278811E+03  0.00000000000E+00 0. -1.
<scales pt_clust_5="13000.00000" pt_clust_6="13000.00000" pt_clust_7="13000.00000" pt_clust_8="13000.00000" pt_clust_9="89.60197" pt_clust_10="147.61684"></scales>
<clustering>
<clus scale="   89.602">  1  9  2 -1</clus>
<clus scale="   90.719">  7  8 -1 -1</clus>
<clus scale="   99.270">  5  6 -1 -1</clus>
<clus scale="  110.275">  5  7 -1 -1</clus>
<clus scale="  147.617">  1 10  2 -1</clus>
<clus scale="   89.602">  1  5  2 -1</clus>
</clustering>
</event>
<event>
10    4  0.3043429E-005  0.1146759E+03  0.7546771E-02  0.1256090E+00
         21   -1    0    0  501  502  0.00000000000E+00  0.00000000000E+00  0.60667518109E+03  0.60667518109E+03  0.00000000000E+00 0. -1.
          2   -1    0    0  503    0 -0.00000000000E+00 -0.00000000000E+00 -0.17490625405E+03  0.17490625405E+03  0.00000000000E+00 0. -1.
         23    2    1    2    0    0  0.66926427287E+02  0.37807497177E+02 -0.12613770720E+03  0.17359695491E+03  0.91195548488E+02 0.  0.
         24    2    1    2    0    0 -0.29167277377E+02  0.19895847670E+02  0.16028990752E+03  0.18262399091E+03  0.80075544197E+02 0.  0.
        -11    1    4    4    0    0  0.10408809709E+02 -0.18256363074E+02  0.94892478316E+02  0.97191669156E+02  0.00000000000E+00 0.  1.
         12    1    4    4    0    0 -0.39576087086E+02  0.38152210744E+02  0.65397429208E+02  0.85432321757E+02  0.00000000000E+00 0. -1.
        -11    1    3    3    0    0  0.12422228405E+02 -0.27689525204E+02 -0.15883272632E+02  0.34253465724E+02  0.00000000000E+00 0. -1.
         11    1    3    3    0    0  0.54504198881E+02  0.65497022382E+02 -0.11025443457E+03  0.13934348919E+03  0.00000000000E+00 0.  1.
         21    1    1    2  503  502 -0.41764573297E+02  0.85415555064E+01  0.30807765203E+02  0.52596160981E+02  0.00000000000E+00 0.  1.
          1    1    1    2  501    0  0.40054233873E+01 -0.66244900353E+02  0.36680896151E+03  0.37276432834E+03  0.00000000000E+00 0. -1.
<scales pt_clust_5="13000.00000" pt_clust_6="13000.00000" pt_clust_7="13000.00000" pt_clust_8="13000.00000" pt_clust_9="42.62907" pt_clust_10="64.98651"></scales>
<clustering>
<clus scale="   42.629">  1  9  2 -1</clus>
<clus scale="   64.987">  1 10  2 -1</clus>
<clus scale="   80.076">  5  6 -1 -1</clus>
<clus scale="   91.196">  7  8 -1 -1</clus>
<clus scale="  106.047">  1  5  2 -1</clus>
<clus scale="   42.629">  1  5  2 -1</clus>
</clustering>
</event>
<event>
10    4  0.3043429E-005  0.2240221E+03  0.7546771E-02  0.1159079E+00
         21   -1    0    0  501  502  0.00000000000E+00  0.00000000000E+00  0.83716215799E+02  0.83716215799E+02  0.00000000000E+00 0.  1.
         -3   -1    0    0    0  501 -0.00000000000E+00 -0.00000000000E+00 -0.11431980807E+04  0.11431980807E+04  0.00000000000E+00 0.  1.
         23    2    1    2    0    0 -0.63236841184E+02  0.69133752370E+01 -0.13704018267E+03  0.17543909601E+03  0.89174951094E+02 0.  0.
         24    2    1    2    0    0  0.22966182020E+03  0.95299007385E+02 -0.34744750397E+03  0.43476802506E+03  0.80479905144E+02 0.  0.
        -13    1    4    4    0    0  0.21765708400E+03  0.96424475227E+02 -0.34915634578E+03  0.42259015540E+03  0.00000000000E+00 0.  1.
         14    1    4    4    0    0  0.12004736201E+02 -0.11254678412E+01  0.17088418147E+01  0.12177869660E+02  0.00000000000E+00 0. -1.
        -13    1    3    3    0    0  0.21060133750E+02  0.24842025907E+01 -0.49391265210E+02  0.53751256498E+02  0.00000000000E+00 0. -1.
         13    1    3    3    0    0 -0.84296974933E+02  0.44291726463E+01 -0.87648917459E+02  0.12168783951E+03  0.00000000000E+00 0.  1.
         21    1    1    2  503  502 -0.30989187017E+02 -0.10949667531E+01 -0.20866624071E+02  0.37375722927E+02  0.00000000000E+00 0. -1.
         -4    1    1    2    0  503 -0.13543579200E+03 -0.10111741587E+03 -0.55412755417E+03  0.57933145248E+03  0.00000000000E+00 0.  1.
<scales pt_clust_5="13000.00000" pt_clust_6="13000.00000" pt_clust_7="13000.00000" pt_clust_8="13000.00000" pt_clust_9="31.00853" pt_clust_10="209.06685"></scales>
<clustering>
<clus scale="   31.009">  1  9  2 -1</clus>
<clus scale="   80.480">  5  6 -1 -1</clus>
<clus scale="   89.175">  7  8 -1 -1</clus>
<clus scale="  114.256">  2  7  1 -1</clus>
<clus scale="  209.067">  1 10  2 -1</clus>
<clus scale="   31.009">  1  5  2 -1</clus>
</clustering>
</event>
<event>
10    4  0.3043429E-005  0.1516762E+03  0.7546771E-02  0.1201489E+00
         -1   -1    0    0    0  501 -0.00000000000E+00  0.00000000000E+00  0.28217685803E+03  0.28217685803E+03  0.00000000000E+00 0.  1.
         21   -1    0    0  503  502  0.00000000000E+00 -0.00000000000E+00 -0.31757135672E+03  0.31757135672E+03  0.00000000000E+00 0.  1.
         23    2    1    2    0    0 -0.47772862774E+01  0.12433480073E+03  0.12926799155E+03  0.20402105952E+03  0.97120615482E+02 0.  0.
         24    2    1    2    0    0  0.56574118469E+01 -0.10736252284E+03  0.64281463746E+02  0.14919574205E+03  0.81046562198E+02 0.  0.
        -11    1    4    4    0    0  0.12754491453E+02 -0.64361861208E+02  0.79457474308E+02  0.10304667124E+03  0.00000000000E+00 0.  1.
         12    1    4    4    0    0 -0.70970796063E+01 -0.43000661631E+02 -0.15176010562E+02  0.46149070805E+02  0.00000000000E+00 0. -1.
        -13    1    3    3    0    0  0.29486736191E+02  0.59151531449E+02  0.10928651557E+03  0.12771810275E+03  0.00000000000E+00 0.  1.
         13    1    3    3    0    0 -0.34264022469E+02  0.65183269277E+02  0.19981475979E+02  0.76302956769E+02  0.00000000000E+00 0. -1.
         21    1    1    2  503  501 -0.19755502832E+02  0.29398319306E+02 -0.54120602530E+02  0.64680605195E+02  0.00000000000E+00 0. -1.
         -2    1    1    2    0  502  0.18875377262E+02 -0.46370597193E+02 -0.17482335146E+03  0.18185080799E+03  0.00000000000E+00 0.  1.
<scales pt_clust_5="13000.00000" pt_clust_6="13000.00000" pt_clust_7="13000.00000" pt_clust_8="13000.00000" pt_clust_9="35.41950" pt_clust_10="26.58240"></scales>
<clustering>
<clus scale="   35.420">  2  9  1 -1</clus>
<clus scale="   26.582">  2 10  1 -1</clus>
<clus scale="   81.047">  5  6 -1 -1</clus>
<clus scale="   97.121">  7  8 -1 -1</clus>
<clus scale="  141.922">  2  5  1 -1</clus>
<clus scale="   35.420">  2  5  1 -1</clus>
</clustering>
</event>
<event>
10    4  0.3043429E-005  0.9718618E+02  0.7546771E-02  0.1300201E+00
         -1   -1    0    0    0  501 -0.00000000000E+00  0.00000000000E+00  0.45008022053E+02  0.45008022053E+02  0.00000000000E+00 0.  1.
         21   -1    0    0  503  502  0.00000000000E+00 -0.00000000000E+00 -0.62967878681E+03  0.62967878681E+03  0.00000000000E+00 0.  1.
         23    2    1    2    0    0 -0.34198489037E+02  0.76868391745E+01 -0.68835169472E+02  0.12059759309E+03  0.92611418052E+02 0.  0.
         24    2    1    2    0    0 -0.28665614247E+02 -0.65797566156E+02 -0.20763644610E+03  0.23027720883E+03  0.69019287186E+02 0.  0.
        -11    1    4    4    0    0 -0.36299951287E+02 -0.74607151657E+02 -0.14946666482E+03  0.17095086263E+03  0.00000000000E+00 0.  1.
         12    1    4    4    0    0  0.76343370405E+01  0.88095855007E+01 -0.58169781282E+02  0.59326346197E+02  0.00000000000E+00 0. -1.
        -11    1    3    3    0    0  0.16427868678E+02 -0.17276074895E+02  0.80983407087E+01  0.25177782970E+02  0.00000000000E+00 0. -1.
         11    1    3    3    0    0 -0.50626357715E+02  0.24962914069E+02 -0.76933510181E+02  0.95419810118E+02  0.00000000000E+00 0.  1.
         21    1    1    2  503  501  0.23738904101E+02  0.13665835937E+02 -0.18618439690E+03  0.18818852326E+03  0.00000000000E+00 0.  1.
         -2    1    1    2    0  502  0.39125199183E+02  0.44444891045E+02 -0.12201475229E+03  0.13562348369E+03  0.00000000000E+00 0.  1.
<scales pt_clust_5="13000.00000" pt_clust_6="13000.00000" pt_clust_7="13000.00000" pt_clust_8="13000.00000" pt_clust_9="27.39143" pt_clust_10="66.81422"></scales>
<clustering>
<clus scale="   27.391">  2  9  1 -1</clus>
<clus scale="   66.814">  2 10  1 -1</clus>
<clus scale="   69.019">  5  6 -1 -1</clus>
<clus scale="   75.046">  2  5  1 -1</clus>
<clus scale="   92.611">  7  8 -1 -1</clus>
<clus scale="   27.391">  2  5  1 -1</clus>
</clustering>
</event>
<event>
10    4  0.3043429E-005  0.1366589E+03  0.7546771E-02  0.1221955E+00
          2   -1    0    0  503    0 -0.00000000000E+00  0.00000000000E+00  0.46518828408E+03  0.46518828408E+03  0.00000000000E+00 0. -1.
         21   -1    0    0  501  502  0.00000000000E+00 -0.00000000000E+00 -0.10386322271E+03  0.10386322271E+03  0.00000000000E+00 0.  1.
         24    2    1    2    0    0 -0.56390222619E+02  0.28320277779E+02  0.25772404061E+03  0.27686922055E+03  0.79075842294E+02 0.  0.
         23    2    1    2    0    0  0.10875304946E+03 -0.75948557808E+02  0.41134872317E+01  0.16368243648E+03  0.95810281470E+02 0.  0.
        -13    1    3    3    0    0  0.35806607692E+01  0.39086642067E+02  0.82669361824E+02  0.91513988570E+02  0.00000000000E+00 0.  1.
         14    1    3    3    0    0 -0.59970883388E+02 -0.10766364288E+02  0.17505467879E+03  0.18535523198E+03  0.00000000000E+00 0. -1.
        -13    1    4    4    0    0 -0.59983729072E+01 -0.25143216384E+02  0.25577970082E+02  0.36364740631E+02  0.00000000000E+00 0. -1.
         13    1    4    4    0    0  0.11475142237E+03 -0.50805341424E+02 -0.21464482850E+02  0.12731769585E+03  0.00000000000E+00 0.  1.
         21    1    1    2  503  502 -0.19252335693E+02  0.43463156297E+02  0.64795514253E+02  0.80362659565E+02  0.00000000000E+00 0.  1.
          1    1    1    2  501    0 -0.33110491149E+02  0.41651237316E+01  0.34692019268E+02  0.48137190204E+02  0.00000000000E+00 0. -1.
<scales pt_clust_5="13000.00000" pt_clust_6="13000.00000" pt_clust_7="13000.00000" pt_clust_8="13000.00000" pt_clust_9="48.96952" pt_clust_10="33.37145"></scales>
<clustering>
<clus scale="   33.371">  2 10  1 -1</clus>
<clus scale="   48.970">  1  9  2 -1</clus>
<clus scale="   79.076">  5  6 -1 -1</clus>
<clus scale="   95.810">  7  8 -1 -1</clus>
<clus scale="  125.495">  1  5  2 -1</clus>
<clus scale="   33.371">  2  5  1 -1</clus>
</clustering>
</event>
<event>
10    4  0.3043429E-005  0.1845413E+03  0.7546771E-02  0.1184279E+00
         21   -1    0    0  503  502  0.00000000000E+00  0.00000000000E+00  0.17116194940E+03  0.17116194940E+03  0.00000000000E+00 0.  1.
          2   -1    0    0  502    0 -0.00000000000E+00 -0.00000000000E+00 -0.14734791967E+04  0.14734791967E+04  0.00000000000E+00 0. -1.
         24    2    1    2    0    0 -0.42374887589E+02 -0.73168053299E+02 -0.11988933190E+03  0.16615518397E+03  0.78005757061E+02 0.  0.
         23    2    1    2    0    0  0.10318103606E+03 -0.11099676314E+03 -0.50859769570E+02  0.18503804940E+03  0.93197403058E+02 0.  0.
        -13    1    3    3    0    0  0.67328001756E+01 -0.31336063612E+02 -0.89071055656E+02  0.94662201731E+02  0.00000000000E+00 0.  1.
         14    1    3    3    0    0 -0.49107687765E+02 -0.41831989687E+02 -0.30818276247E+02  0.71492982240E+02  0.00000000000E+00 0. -1.
        -11    1    4    4    0    0  0.79681356580E+02 -0.12557587515E+03 -0.51468204385E+02  0.15737660267E+03  0.00000000000E+00 0.  1.
         11    1    4    4    0    0  0.23499679477E+02  0.14579112007E+02  0.60843481444E+00  0.27661446733E+02  0.00000000000E+00 0. -1.
         21    1    1    2  503  501  0.82569461837E+02  0.13350316014E+03 -0.54072474559E+01  0.15706701793E+03  0.00000000000E+00 0.  1.
          1    1    1    2  501    0 -0.14337561031E+03  0.50661656299E+02 -0.11261608984E+04  0.11363808948E+04  0.00000000000E+00 0. -1.
<scales pt_clust_5="13000.00000" pt_clust_6="13000.00000" pt_clust_7="13000.00000" pt_clust_8="13000.00000" pt_clust_9="151.81339" pt_clust_10="159.27890"></scales>
<clustering>
<clus scale="   78.006">  5  6 -1 -1</clus>
<clus scale="   93.197">  7  8 -1 -1</clus>
<clus scale="  115.040">  2  5  1 -1</clus>
<clus scale="  151.813">  1  9  2 -1</clus>
<clus scale="  159.279">  1 10  2 -1</clus>
<clus scale="  151.813">  1  5  2 -1</clus>
</clustering>
</event>
<event>
10    4  0.3043429E-005  0.1052782E+03  0.7546771E-02  0.1278063E+00
          2   -1    0    0  503    0 -0.00000000000E+00  0.00000000000E+00  0.19051967495E+03  0.19051967495E+03  0.00000000000E+00 0. -1.
         21   -1    0    0  501  502  0.00000000000E+00 -0.00000000000E+00 -0.37668170754E+03  0.37668170754E+03  0.00000000000E+00 0. -1.
         23    2    1    2    0    0 -0.23005814515E+02 -0.51624274821E+02  0.12513172855E+03  0.16713743105E+03  0.95302875690E+02 0.  0.
         24    2    1    2    0    0  0.39083115620E+02 -0.30537133710E+01 -0.85938716925E+01  0.87217117260E+02  0.77434848877E+02 0.  0.
        -11    1    4    4    0    0 -0.41080345141E+01 -0.26187708045E+02 -0.24099788763E+02  0.35825574924E+02  0.00000000000E+00 0.  1.
         12    1    4    4    0    0  0.43191150134E+02  0.23133994674E+02  0.15505917071E+02  0.51391542336E+02  0.00000000000E+00 0. -1.
        -13    1    3    3    0    0  0.24379287581E+02  0.54274050243E+01  0.42744404063E+01  0.25339242866E+02  0.00000000000E+00 0.  1.
         13    1    3    3    0    0 -0.47385102096E+02 -0.57051679845E+02  0.12085728814E+03  0.14179818818E+03  0.00000000000E+00 0. -1.
         21    1    1    2  503  502 -0.22948545425E+02  0.48609575259E+01 -0.50503141829E+02  0.55685114526E+02  0.00000000000E+00 0.  1.
          1    1    1    2  501    0  0.68712443195E+01  0.49817030666E+02 -0.25219674762E+03  0.25716171965E+03  0.00000000000E+00 0. -1.
<scales pt_clust_5="13000.00000" pt_clust_6="13000.00000" pt_clust_7="13000.00000" pt_clust_8="13000.00000" pt_clust_9="23.45772" pt_clust_10="54.79762"></scales>
<clustering>
<clus scale="   23.458">  2  9  1 -1</clus>
<clus scale="   54.798">  2 10  1 -1</clus>
<clus scale="   77.435">  5  6 -1 -1</clus>
<clus scale="   89.426">  2  5  1 -1</clus>
<clus scale="   95.303">  7  8 -1 -1</clus>
<clus scale="   23.458">  2  5  1 -1</clus>
</clustering>
</event>
<event>
10    4  0.3043429E-005  0.3826218E+03  0.7546771E-02  0.1101216E+00
          2   -1    0    0  503    0 -0.00000000000E+00  0.00000000000E+00  0.15397706333E+04  0.15397706333E+04  0.00000000000E+00 0. -1.
         21   -1    0    0  501  502  0.00000000000E+00 -0.00000000000E+00 -0.31999577639E+03  0.31999577639E+03  0.00000000000E+00 0. -1.
         24    2    1    2    0    0 -0.18346119968E+02 -0.38886625569E+02  0.22190298852E+02  0.94988079294E+02  0.81740908234E+02 0.  0.
         23    2    1    2    0    0  0.18908646330E+03  0.37300044405E+03  0.12464641016E+04  0.13178501288E+04  0.90405660332E+02 0.  0.
        -13    1    3    3    0    0  0.14828171306E+02 -0.45966242812E+02  0.34004396239E+02  0.59068342673E+02  0.00000000000E+00 0.  1.
         14    1    3    3    0    0 -0.33174291274E+02  0.70796172438E+01 -0.11814097387E+02  0.35919736621E+02  0.00000000000E+00 0. -1.
        -11    1    4    4    0    0  0.18358121850E+02  0.10132560422E+03  0.38625873941E+03  0.39974956220E+03  0.00000000000E+00 0.  1.
         11    1    4    4    0    0  0.17072834145E+03  0.27167483983E+03  0.86020536220E+03  0.91810056656E+03  0.00000000000E+00 0. -1.
         21    1    1    2  503  502 -0.29334098037E+02 -0.22490300524E+02 -0.94709396137E+02  0.10166696928E+03  0.00000000000E+00 0.  1.
          1    1    1    2  501    0 -0.14140624529E+03 -0.31162351796E+03  0.45829852537E+02  0.34526123231E+03  0.00000000000E+00 0. -1.
<scales pt_clust_5="13000.00000" pt_clust_6="13000.00000" pt_clust_7="13000.00000" pt_clust_8="13000.00000" pt_clust_9="36.96354" pt_clust_10="371.78794"></scales>
<clustering>
<clus scale="   36.964">  2  9  1 -1</clus>
<clus scale="   81.741">  5  6 -1 -1</clus>
<clus scale="   90.406">  7  8 -1 -1</clus>
<clus scale="   95.030">  1  5  2 -1</clus>
<clus scale="  371.788">  2 10  1 -1</clus>
<clus scale="   36.964">  2  5  1 -1</clus>
</clustering>
</event>
<event>
10    4  0.3043429E-005  0.1979481E+03  0.7546771E-02  0.1164320E+00
         21   -1    0    0  501  502  0.00000000000E+00  0.00000000000E+00  0.41499905325E+03  0.41499905325E+03  0.00000000000E+00 0.  1.
         -3   -1    0    0    0  501 -0.00000000000E+00 -0.00000000000E+00 -0.12649153240E+04  0.12649153240E+04  0.00000000000E+00 0.  1.
         23    2    1    2    0    0  0.88098575204E+02 -0.54555636531E+02 -0.14478236275E+03  0.19992899078E+03  0.90950494016E+02 0.  0.
         24    2    1    2    0    0 -0.99206466959E+02 -0.11248781584E+03 -0.95683090872E+03  0.97187929718E+03  0.80799434537E+02 0.  0.
        -13    1    4    4    0    0 -0.82818348357E+02 -0.11445446182E+03 -0.67811095174E+03  0.69267103702E+03  0.00000000000E+00 0.  1.
         14    1    4    4    0    0 -0.16388118602E+02  0.19666459792E+01 -0.27871995697E+03  0.27920826016E+03  0.00000000000E+00 0. -1.
        -13    1    3    3    0    0  0.66779007806E+01 -0.42790046170E+02 -0.14168714431E+02  0.45566817737E+02  0.00000000000E+00 0. -1.
         13    1    3    3    0    0  0.81420674423E+02 -0.11765590361E+02 -0.13061364832E+03  0.15436217305E+03  0.00000000000E+00 0.  1.
         21    1    1    2  503  502  0.25874195775E+02 -0.92080362348E+02  0.22828001705E+03  0.24750764296E+03  0.00000000000E+00 0.  1.
         -4    1    1    2    0  503 -0.14766304019E+02  0.25912381472E+03  0.23416983692E+02  0.26059844630E+03  0.00000000000E+00 0.  1.
<scales pt_clust_5="13000.00000" pt_clust_6="13000.00000" pt_clust_7="13000.00000" pt_clust_8="13000.00000" pt_clust_9="95.64657" pt_clust_10="180.70665"></scales>
<clustering>
<clus scale="   80.799">  5  6 -1 -1</clus>
<clus scale="   90.950">  7  8 -1 -1</clus>
<clus scale="   95.647">  1  9  2 -1</clus>
<clus scale="  146.647">  2  7  1 -1</clus>
<clus scale="  180.707">  1 10  2 -1</clus>
<clus scale="   95.647">  1  5  2 -1</clus>
</clustering>
</event>
<event>
10    4  0.3043429E-005  0.1319220E+03  0.7546771E-02  0.1227950E+00
         21   -1    0    0  503  502  0.00000000000E+00  0.00000000000E+00  0.24498855085E+03  0.24498855085E+03  0.00000000000E+00 0.  1.
          2   -1    0    0  502    0 -0.00000000000E+00 -0.00000000000E+00 -0.17089526453E+03  0.17089526453E+03  0.00000000000E+00 0. -1.
         24    2    1    2    0    0  0.83206548575E+02 -0.42020758060E+02 -0.69654207823E+02  0.13979044336E+03  0.77463446559E+02 0.  0.
         23    2    1    2    0    0 -0.69575200781E+02  0.95713320785E+02  0.13794848344E+03  0.20315983285E+03  0.90787583191E+02 0.  0.
        -13    1    3    3    0    0  0.13503992074E+02 -0.34784214313E+02  0.47104098285E+01  0.37609670672E+02  0.00000000000E+00 0.  1.
         14    1    3    3    0    0  0.69702556501E+02 -0.72365437473E+01 -0.74364617652E+02  0.10218077269E+03  0.00000000000E+00 0. -1.
        -11    1    4    4    0    0 -0.22435304185E+02 -0.54141467544E+01 -0.31326092117E+01  0.23290966047E+02  0.00000000000E+00 0. -1.
         11    1    4    4    0    0 -0.47139896596E+02  0.10112746754E+03  0.14108109265E+03  0.17986886680E+03  0.00000000000E+00 0.  1.
         21    1    1    2  503  501  0.16054818786E+01 -0.23892423813E+02  0.24777275010E+02  0.34457783513E+02  0.00000000000E+00 0.  1.
          1    1    1    2  501    0 -0.15236829673E+02 -0.29800138912E+02 -0.18978264300E+02  0.38475755658E+02  0.00000000000E+00 0. -1.
<scales pt_clust_5="13000.00000" pt_clust_6="13000.00000" pt_clust_7="13000.00000" pt_clust_8="13000.00000" pt_clust_9="23.94630" pt_clust_10="34.40389"></scales>
<clustering>
<clus scale="   23.946">  1  9  2 -1</clus>
<clus scale="   34.404">  1 10  2 -1</clus>
<clus scale="   77.463">  5  6 -1 -1</clus>
<clus scale="   90.788">  7  8 -1 -1</clus>
<clus scale="  123.133">  2  5  1 -1</clus>
<clus scale="   23.946">  1  5  2 -1</clus>
</clustering>
</event>
<event>
10    4  0.3043429E-005  0.1724938E+03  0.7546771E-02  0.1198028E+00
          2   -1    0    0  502    0 -0.00000000000E+00  0.00000000000E+00  0.52427438435E+03  0.52427438435E+03  0.00000000000E+00 0. -1.
         21   -1    0    0  503  502  0.00000000000E+00 -0.00000000000E+00 -0.34686624366E+03  0.34686624366E+03  0.00000000000E+00 0. -1.
         23    2    1    2    0    0  0.50969738353E+02  0.14577607601E+02  0.28695292038E+03  0.30565077228E+03  0.90939514039E+02 0.  0.
         24    2    1    2    0    0 -0.95658726267E+02  0.11460029484E+03  0.73595015145E+02  0.18485869343E+03  0.80453034712E+02 0.  0.
        -11    1    4    4    0    0 -0.38006798852E+02  0.19106950393E+02 -0.12063715633E+02  0.44216801638E+02  0.00000000000E+00 0.  1.
         12    1    4    4    0    0 -0.57651927415E+02  0.95493344449E+02  0.85658730778E+02  0.14064189179E+03  0.00000000000E+00 0. -1.
        -11    1    3    3    0    0  0.59658912143E+02 -0.18195456793E+02  0.11948119543E+03  0.13478136558E+03  0.00000000000E+00 0. -1.
         11    1    3    3    0    0 -0.86891737897E+01  0.32773064394E+02  0.16747172495E+03  0.17086940671E+03  0.00000000000E+00 0.  1.
         21    1    1    2  503  501 -0.41016110152E+02  0.10927763294E+02 -0.20996653842E+03  0.21421410915E+03  0.00000000000E+00 0. -1.
          1    1    1    2  501    0  0.85705098066E+02 -0.14010566574E+03  0.26826743590E+02  0.16641705315E+03  0.00000000000E+00 0. -1.
<scales pt_clust_5="13000.00000" pt_clust_6="13000.00000" pt_clust_7="13000.00000" pt_clust_8="13000.00000" pt_clust_9="42.44688" pt_clust_10="152.58255"></scales>
<clustering>
<clus scale="   42.447">  2  9  1 -1</clus>
<clus scale="   80.453">  5  6 -1 -1</clus>
<clus scale="   90.940">  7  8 -1 -1</clus>
<clus scale="  104.025">  1  7  2 -1</clus>
<clus scale="  152.583">  2 10  1 -1</clus>
<clus scale="   42.447">  2  5  1 -1</clus>
</clustering>
</event>
<event>
10    4  0.3043429E-005  0.2765064E+03  0.7546771E-02  0.1129012E+00
          2   -1    0    0  503    0 -0.00000000000E+00  0.00000000000E+00  0.88231927348E+03  0.88231927348E+03  0.00000000000E+00 0. -1.
         21   -1    0    0  501  502  0.00000000000E+00 -0.00000000000E+00 -0.18943105542E+03  0.18943105542E+03  0.00000000000E+00 0. -1.
         24    2    1    2    0    0  0.40259406475E+02 -0.83329670498E+02  0.23945178428E+03  0.26930711530E+03  0.81391102468E+02 0.  0.
         23    2    1    2    0    0 -0.57469703176E+02  0.32467542934E+03  0.23174114656E+03  0.41319695637E+03  0.91163943238E+02 0.  0.
        -11    1    3    3    0    0  0.10620198502E+02 -0.50344912332E+02  0.40519584435E+02  0.65492255548E+02  0.00000000000E+00 0.  1.
         12    1    3    3    0    0  0.29639207973E+02 -0.32984758166E+02  0.19893219984E+03  0.20381485975E+03  0.00000000000E+00 0. -1.
        -11    1    4    4    0    0 -0.15981498569E+02  0.69381790981E+02  0.88173193898E+01  0.71742500217E+02  0.00000000000E+00 0.  1.
         11    1    4    4    0    0 -0.41488204607E+02  0.25529363836E+03  0.22292382717E+03  0.34145445616E+03  0.00000000000E+00 0. -1.
         21    1    1    2  503  502 -0.67639583951E+02 -0.51735425099E+02 -0.38204730593E+00  0.85157580328E+02  0.00000000000E+00 0.  1.
          1    1    1    2  501    0  0.84849880653E+02 -0.18961033374E+03  0.22207733453E+03  0.30408867690E+03  0.00000000000E+00 0. -1.
<scales pt_clust_5="13000.00000" pt_clust_6="13000.00000" pt_clust_7="13000.00000" pt_clust_8="13000.00000" pt_clust_9="85.15672" pt_clust_10="261.04597"></scales>
<clustering>
<clus scale="   81.391">  5  6 -1 -1</clus>
<clus scale="   85.157">  2  9  1 -1</clus>
<clus scale="   91.164">  7  8 -1 -1</clus>
<clus scale="  124.850">  1  5  2 -1</clus>
<clus scale="  261.046">  2 10  1 -1</clus>
<clus scale="   85.157">  2  5  1 -1</clus>
</clustering>
</event>
<event>
10    4  0.3043429E-005  0.2197936E+03  0.7546771E-02  0.1168462E+00
          2   -1    0    0  502    0 -0.00000000000E+00  0.00000000000E+00  0.29927342260E+03  0.29927342260E+03  0.00000000000E+00 0. -1.
         21   -1    0    0  503  502  0.00000000000E+00 -0.00000000000E+00 -0.39432334564E+03  0.39432334564E+03  0.00000000000E+00 0. -1.
         24    2    1    2    0    0  0.39634094439E+02  0.54221346078E+02 -0.16875332477E+03  0.19886671633E+03  0.80990557670E+02 0.  0.
         23    2    1    2    0    0 -0.96333355070E+02  0.16012907206E+03  0.11429740809E+03  0.23942614236E+03  0.96641322064E+02 0.  0.
        -11    1    3    3    0    0  0.41550587665E+02  0.50951705225E+02 -0.17752659259E+03  0.18930984834E+03  0.00000000000E+00 0.  1.
         12    1    3    3    0    0 -0.19164932262E+01  0.32696408521E+01  0.87732678221E+01  0.95568679946E+01  0.00000000000E+00 0. -1.
        -13    1    4    4    0    0 -0.24067893119E+02  0.50898892473E+02  0.90089913045E+02  0.10623630814E+03  0.00000000000E+00 0.  1.
         13    1    4    4    0    0 -0.72265461952E+02  0.10923017959E+03  0.24207495048E+02  0.13318983422E+03  0.00000000000E+00 0. -1.
         21    1    1    2  503  501 -0.10401299149E+02 -0.23004541406E+02 -0.45987718710E+02  0.52462045533E+02  0.00000000000E+00 0. -1.
          1    1    1    2  501    0  0.67100559780E+02 -0.19134587673E+03  0.53937123449E+01  0.20284186401E+03  0.00000000000E+00 0. -1.
<scales pt_clust_5="13000.00000" pt_clust_6="13000.00000" pt_clust_7="13000.00000" pt_clust_8="13000.00000" pt_clust_9="25.24670" pt_clust_10="197.40742"></scales>
<clustering>
<clus scale="   25.247">  2  9  1 -1</clus>
<clus scale="   80.991">  5  6 -1 -1</clus>
<clus scale="   96.641">  7  8 -1 -1</clus>
<clus scale="   97.382">  1  5  2 -1</clus>
<clus scale="  197.407">  2 10  1 -1</clus>
<clus scale="   25.247">  2  5  1 -1</clus>
</clustering>
</event>
<event>
10    4  0.3043429E-005  0.1546538E+03  0.7546771E-02  0.1197949E+00
          2   -1    0    0  503    0 -0.00000000000E+00  0.00000000000E+00  0.94735964787E+03  0.94735964787E+03  0.00000000000E+00 0. -1.
         21   -1    0    0  501  502  0.00000000000E+00 -0.00000000000E+00 -0.47266526725E+02  0.47266526725E+02  0.00000000000E+00 0.  1.
         23    2    1    2    0    0  0.16123116096E+02  0.13693936895E+03  0.57388760557E+03  0.59824422498E+03  0.97656660036E+02 0.  0.
         24    2    1    2    0    0 -0.51425052029E+02 -0.87095188985E+02  0.23621930827E+03  0.26935705865E+03  0.80768530524E+02 0.  0.
        -11    1    4    4    0    0 -0.68280377119E+02 -0.88004310314E+02  0.19122442309E+03  0.22130013222E+03  0.00000000000E+00 0.  1.
         12    1    4    4    0    0  0.16855325091E+02  0.90912132848E+00  0.44994885181E+02  0.48056926431E+02  0.00000000000E+00 0. -1.
        -13    1    3    3    0    0  0.51317142316E+02  0.76493989046E+02  0.23913121455E+03  0.25625869200E+03  0.00000000000E+00 0.  1.
         13    1    3    3    0    0 -0.35194026219E+02  0.60445379905E+02  0.33475639103E+03  0.34198553298E+03  0.00000000000E+00 0. -1.
         21    1    1    2  503  502 -0.72752188697E+01 -0.45410397272E+02  0.37819938842E+02  0.59543100053E+02  0.00000000000E+00 0.  1.
          1    1    1    2  501    0  0.42577154802E+02 -0.44337826935E+01  0.52166268459E+02  0.67481790914E+02  0.00000000000E+00 0. -1.
<scales pt_clust_5="13000.00000" pt_clust_6="13000.00000" pt_clust_7="13000.00000" pt_clust_8="13000.00000" pt_clust_9="46.83342" pt_clust_10="42.80739"></scales>
<clustering>
<clus scale="   42.807">  2 10  1 -1</clus>
<clus scale="   46.833">  2  9  1 -1</clus>
<clus scale="   80.769">  5  6 -1 -1</clus>
<clus scale="   97.657">  7  8 -1 -1</clus>
<clus scale="  144.584">  2  5  1 -1</clus>
<clus scale="   42.807">  2  5  1 -1</clus>
</clustering>
</event>
<event>
10    4  0.3043429E-005  0.1110961E+03  0.7546771E-02  0.1263633E+00
          2   -1    0    0  503    0 -0.00000000000E+00  0.00000000000E+00  0.52992666779E+03  0.52992666779E+03  0.00000000000E+00 0. -1.
         21   -1    0    0  501  502  0.00000000000E+00 -0.00000000000E+00 -0.39880050586E+03  0.39880050586E+03  0.00000000000E+00 0.  1.
         23    2    1    2    0    0  0.41233978266E+02 -0.80837188534E+02  0.28834666700E+03  0.31627196523E+03  0.93001417230E+02 0.  0.
         24    2    1    2    0    0 -0.12958909926E+02  0.30419662440E+02  0.13229289406E+03  0.15815632042E+03  0.80116931171E+02 0.  0.
        -13    1    4    4    0    0 -0.21692152922E+02  0.42117622677E+02  0.32856600173E+02  0.57654139602E+02  0.00000000000E+00 0.  1.
         14    1    4    4    0    0  0.87332429966E+01 -0.11697960237E+02  0.99436293885E+02  0.10050218082E+03  0.00000000000E+00 0. -1.
        -11    1    3    3    0    0  0.10631904585E+02 -0.35298764242E+02  0.19152424912E+02  0.41543417435E+02  0.00000000000E+00 0. -1.
         11    1    3    3    0    0  0.30602073681E+02 -0.45538424292E+02  0.26919424209E+03  0.27472854779E+03  0.00000000000E+00 0.  1.
         21    1    1    2  503  502  0.63882748169E+02  0.24022431632E+02 -0.33942624185E+03  0.34621995377E+03  0.00000000000E+00 0.  1.
          1    1    1    2  501    0 -0.92157816510E+02  0.26395094462E+02  0.49912842728E+02  0.10807893423E+03  0.00000000000E+00 0. -1.
<scales pt_clust_5="13000.00000" pt_clust_6="13000.00000" pt_clust_7="13000.00000" pt_clust_8="13000.00000" pt_clust_9="68.25015" pt_clust_10="70.62939"></scales>
<clustering>
<clus scale="   68.250">  2  9  1 -1</clus>
<clus scale="   70.629">  2 10  1 -1</clus>
<clus scale="   80.117">  5  6 -1 -1</clus>
<clus scale="   93.001">  7  8 -1 -1</clus>
<clus scale="  100.557">  2  5  1 -1</clus>
<clus scale="   68.250">  2  5  1 -1</clus>
</clustering>
</event>
<event>
10    4  0.3043429E-005  0.1594853E+03  0.7546771E-02  0.1210106E+00
         -3   -1    0    0    0  501 -0.00000000000E+00  0.00000000000E+00  0.31034000679E+03  0.31034000679E+03  0.00000000000E+00 0.  1.
         21   -1    0    0  503  502  0.00000000000E+00 -0.00000000000E+00 -0.25988038899E+03  0.25988038899E+03  0.00000000000E+00 0.  1.
         23    2    1    2    0    0 -0.43220076736E+02  0.52390207904E+01  0.16800694463E+03  0.19640187177E+03  0.91934429998E+02 0.  0.
         24    2    1    2    0    0 -0.11286148963E+03 -0.18574063970E+02 -0.11575700788E+02  0.14008414238E+03  0.80042853551E+02 0.  0.
        -11    1    4    4    0    0 -0.60167919370E+02 -0.43385324395E+02  0.15619351383E+02  0.75805204517E+02  0.00000000000E+00 0.  1.
         12    1    4    4    0    0 -0.52693570258E+02  0.24811260425E+02 -0.27195052171E+02  0.64278937865E+02  0.00000000000E+00 0. -1.
        -11    1    3    3    0    0 -0.35017886138E+02  0.25711678613E+02  0.16883200841E+03  0.17433183826E+03  0.00000000000E+00 0.  1.
         11    1    3    3    0    0 -0.82021905977E+01 -0.20472657823E+02 -0.82506378090E+00  0.22070033511E+02  0.00000000000E+00 0. -1.
         21    1    1    2  503  501  0.14737227157E+03  0.48473203816E+02 -0.11872125449E+03  0.19535345962E+03  0.00000000000E+00 0.  1.
         -4    1    1    2    0  502  0.87092947912E+01 -0.35138160637E+02  0.12749628443E+02  0.38380922007E+02  0.00000000000E+00 0.  1.
<scales pt_clust_5="13000.00000" pt_clust_6="13000.00000" pt_clust_7="13000.00000" pt_clust_8="13000.00000" pt_clust_9="137.94454" pt_clust_10="36.20143"></scales>
<clustering>
<clus scale="   36.201">  2 10  1 -1</clus>
<clus scale="   80.043">  5  6 -1 -1</clus>
<clus scale="   91.934">  7  8 -1 -1</clus>
<clus scale="  101.426">  1  7  2 -1</clus>
<clus scale="  137.945">  2  9  1 -1</clus>
<clus scale="   36.201">  2  5  1 -1</clus>
</clustering>
</event>
<event>
10    4  0.3043429E-005  0.1086202E+03  0.7546771E-02  0.1267761E+00
          2   -1    0    0  503    0 -0.00000000000E+00  0.00000000000E+00  0.11981326894E+03  0.11981326894E+03  0.00000000000E+00 0. -1.
         21   -1    0    0  501  502  0.00000000000E+00 -0.00000000000E+00 -0.26390543344E+03  0.26390543344E+03  0.00000000000E+00 0. -1.
         23    2    1    2    0    0  0.61928141159E+02 -0.22145709914E+02  0.16403517702E+02  0.11394345457E+03  0.91588800137E+02 0.  0.
         24    2    1    2    0    0 -0.39818890188E+02 -0.50197362973E+01 -0.13076305349E+03  0.15860829646E+03  0.80292426659E+02 0.  0.
        -13    1    4    4    0    0  0.22572670411E+02  0.15488313827E+01 -0.15654038453E+02  0.27513146822E+02  0.00000000000E+00 0.  1.
         14    1    4    4    0    0 -0.62391560599E+02 -0.65685676800E+01 -0.11510901504E+03  0.13109514964E+03  0.00000000000E+00 0. -1.
        -13    1    3    3    0    0  0.11406023314E+02 -0.38818520259E+02 -0.24086163204E+02  0.47086283999E+02  0.00000000000E+00 0.  1.
         13    1    3    3    0    0  0.50522117845E+02  0.16672810345E+02  0.40489680906E+02  0.66857170567E+02  0.00000000000E+00 0. -1.
         21    1    1    2  503  502  0.34385940490E+01 -0.36324766418E+02 -0.21201493412E+02  0.42199714540E+02  0.00000000000E+00 0. -1.
          1    1    1    2  501    0 -0.25547845020E+02  0.63490212630E+02 -0.85311353021E+01  0.68967236819E+02  0.00000000000E+00 0. -1.
<scales pt_clust_5="13000.00000" pt_clust_6="13000.00000" pt_clust_7="13000.00000" pt_clust_8="13000.00000" pt_clust_9="36.48716" pt_clust_10="62.62380"></scales>
<clustering>
<clus scale="   36.487">  2  9  1 -1</clus>
<clus scale="   62.624">  2 10  1 -1</clus>
<clus scale="   80.292">  5  6 -1 -1</clus>
<clus scale="   91.589">  7  8 -1 -1</clus>
<clus scale="   99.281">  2  5  1 -1</clus>
<clus scale="   36.487">  2  5  1 -1</clus>
</clustering>
</event>
<event>
10    4  0.3043429E-005  0.1522533E+03  0.7546771E-02  0.1216460E+00
         21   -1    0    0  501  502  0.00000000000E+00  0.00000000000E+00  0.28483086449E+03  0.28483086449E+03  0.00000000000E+00 0. -1.
          4   -1    0    0  503    0 -0.00000000000E+00 -0.00000000000E+00 -0.18043082902E+03  0.18043082902E+03  0.00000000000E+00 0. -1.
         23    2    1    2    0    0 -0.36158055368E+01  0.54011959132E+02  0.40991125172E+02  0.11027567570E+03  0.86891233909E+02 0.  0.
         24    2    1    2    0    0  0.12236724945E+02 -0.14540060234E+03  0.82102198667E+02  0.18579690248E+03  0.80552128137E+02 0.  0.
        -13    1    4    4    0    0  0.24799430845E+02 -0.32558103098E+02  0.55886414412E+02  0.69270001901E+02  0.00000000000E+00 0.  1.
         14    1    4    4    0    0 -0.12562705900E+02 -0.11284249924E+03  0.26215784255E+02  0.11652690058E+03  0.00000000000E+00 0. -1.
        -11    1    3    3    0    0  0.36980620174E+02  0.49113636232E+02  0.25083745766E+02  0.66399622243E+02  0.00000000000E+00 0. -1.
         11    1    3    3    0    0 -0.40596425711E+02  0.48983229006E+01  0.15907379406E+02  0.43876053461E+02  0.00000000000E+00 0.  1.
         21    1    1    2  503  502  0.51993187834E+02 -0.65251974514E+01  0.72550550858E+00  0.52406069697E+02  0.00000000000E+00 0. -1.
          3    1    1    2  501    0 -0.60614107241E+02  0.97913840658E+02 -0.19418793881E+02  0.11678304562E+03  0.00000000000E+00 0. -1.
<scales pt_clust_5="13000.00000" pt_clust_6="13000.00000" pt_clust_7="13000.00000" pt_clust_8="13000.00000" pt_clust_9="52.40105" pt_clust_10="129.19925"></scales>
<clustering>
<clus scale="   52.401">  2  9  1 -1</clus>
<clus scale="   80.552">  5  6 -1 -1</clus>
<clus scale="   86.891">  7  8 -1 -1</clus>
<clus scale="  101.863">  2  7  1 -1</clus>
<clus scale="  129.199">  1 10  2 -1</clus>
<clus scale="  129.199">  1  5  2 -1</clus>
</clustering>
</event>
<event>
10    4  0.3043429E-005  0.2136448E+03  0.7546771E-02  0.1177303E+00
         21   -1    0    0  501  502  0.00000000000E+00  0.00000000000E+00  0.21727483453E+03  0.21727483453E+03  0.00000000000E+00 0.  1.
         -3   -1    0    0    0  501 -0.00000000000E+00 -0.00000000000E+00 -0.68239068655E+03  0.68239068655E+03  0.00000000000E+00 0.  1.
         24    2    1    2    0    0  0.27454859952E+02 -0.73718586372E+01 -0.60856425178E+02  0.10536092502E+03  0.81174542817E+02 0.  0.
         23    2    1    2    0    0  0.17425493747E+03  0.27770853891E+01 -0.37110308846E+03  0.41976825343E+03  0.90085453254E+02 0.  0.
        -13    1    3    3    0    0 -0.23960896578E+02 -0.13792922258E+02 -0.41874854407E+02  0.50178408712E+02  0.00000000000E+00 0.  1.
         14    1    3    3    0    0  0.51415756529E+02  0.64210636207E+01 -0.18981570771E+02  0.55182516311E+02  0.00000000000E+00 0. -1.
        -11    1    4    4    0    0  0.14739291299E+03 -0.31315058306E+02 -0.31155826207E+03  0.34608359444E+03  0.00000000000E+00 0.  1.
         11    1    4    4    0    0  0.26862024478E+02  0.34092143695E+02 -0.59544826397E+02  0.73684658997E+02  0.00000000000E+00 0. -1.
         21    1    1    2  503  502  0.22479041862E+01 -0.21124293865E+02  0.11766738735E+03  0.11956965715E+03  0.00000000000E+00 0.  1.
         -4    1    1    2    0  503 -0.20395770161E+03  0.25719067113E+02 -0.15082372573E+03  0.25496668547E+03  0.00000000000E+00 0.  1.
<scales pt_clust_5="13000.00000" pt_clust_6="13000.00000" pt_clust_7="13000.00000" pt_clust_8="13000.00000" pt_clust_9="21.24356" pt_clust_10="193.72332"></scales>
<clustering>
<clus scale="   21.244">  1  9  2 -1</clus>
<clus scale="   81.175">  5  6 -1 -1</clus>
<clus scale="   86.709">  2  5  1 -1</clus>
<clus scale="   90.085">  7  8 -1 -1</clus>
<clus scale="  193.723">  1 10  2 -1</clus>
<clus scale="   21.244">  1  5  2 -1</clus>
</clustering>
</event>
<event>
10    4  0.3043429E-005  0.5555708E+03  0.7546771E-02  0.1000311E+00
          2   -1    0    0  503    0 -0.00000000000E+00  0.00000000000E+00  0.14890539856E+04  0.14890539856E+04  0.00000000000E+00 0. -1.
         21   -1    0    0  501  502  0.00000000000E+00 -0.00000000000E+00 -0.28284044247E+03  0.28284044247E+03  0.00000000000E+00 0. -1.
         24    2    1    2    0    0  0.51057345215E+03 -0.21052768990E+03  0.88556652163E+03  0.10469267563E+04  0.82585777529E+02 0.  0.
         23    2    1    2    0    0 -0.48928989120E+03  0.22276399877E+03  0.23266007819E+03  0.59319469181E+03  0.93385403727E+02 0.  0.
        -11    1    3    3    0    0  0.74371460647E+02 -0.18739546400E+02  0.78891939219E+02  0.11002828196E+03  0.00000000000E+00 0.  1.
         12    1    3    3    0    0  0.43620199150E+03 -0.19178814350E+03  0.80667458241E+03  0.93689847437E+03  0.00000000000E+00 0. -1.
        -11    1    4    4    0    0 -0.16052886241E+02  0.29391967477E+02  0.23131466410E+02  0.40701936651E+02  0.00000000000E+00 0.  1.
         11    1    4    4    0    0 -0.47323700496E+03  0.19337203129E+03  0.20952861178E+03  0.55249275516E+03  0.00000000000E+00 0. -1.
         21    1    1    2  503  502  0.21584580240E+02  0.51505740492E+01 -0.92900142758E+01  0.24056742972E+02  0.00000000000E+00 0. -1.
          1    1    1    2  501    0 -0.42868141193E+02 -0.17386882920E+02  0.97276957547E+02  0.10771623692E+03  0.00000000000E+00 0. -1.
<scales pt_clust_5="13000.00000" pt_clust_6="13000.00000" pt_clust_7="13000.00000" pt_clust_8="13000.00000" pt_clust_9="22.19060" pt_clust_10="45.82979"></scales>
<clustering>
<clus scale="   22.191">  2  9  1 -1</clus>
<clus scale="   45.830">  2 10  1 -1</clus>
<clus scale="   82.586">  5  6 -1 -1</clus>
<clus scale="   93.385">  7  8 -1 -1</clus>
<clus scale="  553.858">  1  5  2 -1</clus>
<clus scale="   22.191">  2  5  1 -1</clus>
</clustering>
</event>
<event>
10    4  0.3043429E-005  0.1730780E+03  0.7546771E-02  0.1194092E+00
         21   -1    0    0  501  502  0.00000000000E+00  0.00000000000E+00  0.89289508241E+02  0.89289508241E+02  0.00000000000E+00 0.  1.
          2   -1    0    0  503    0 -0.00000000000E+00 -0.00000000000E+00 -0.17095548695E+04  0.17095548695E+04  0.00000000000E+00 0. -1.
         24    2    1    2    0    0  0.95238019763E+00 -0.76359423932E+02 -0.87585126395E+03  0.88284581077E+03  0.80433950497E+02 0.  0.
         23    2    1    2    0    0  0.17698172547E+03  0.41170653066E+02 -0.11768814124E+03  0.23568430249E+03  0.93161354793E+02 0.  0.
        -11    1    3    3    0    0 -0.17940783694E+02 -0.40902401414E+02 -0.16739194847E+03  0.17324821089E+03  0.00000000000E+00 0.  1.
         12    1    3    3    0    0  0.18893163891E+02 -0.35457022518E+02 -0.70845931547E+03  0.70959759989E+03  0.00000000000E+00 0. -1.
        -11    1    4    4    0    0  0.16165217324E+03  0.11581083708E+02 -0.67771596089E+02  0.17566597807E+03  0.00000000000E+00 0.  1.
         11    1    4    4    0    0  0.15329552224E+02  0.29589569358E+02 -0.49916545152E+02  0.60018324420E+02  0.00000000000E+00 0. -1.
         21    1    1    2  503  502 -0.38420845725E+02 -0.39640104108E+02 -0.29764392845E+02  0.62716969963E+02  0.00000000000E+00 0.  1.
          1    1    1    2  501    0 -0.13951325994E+03  0.74828874973E+02 -0.59696156322E+03  0.61759729451E+03  0.00000000000E+00 0. -1.
<scales pt_clust_5="13000.00000" pt_clust_6="13000.00000" pt_clust_7="13000.00000" pt_clust_8="13000.00000" pt_clust_9="55.20416" pt_clust_10="145.86628"></scales>
<clustering>
<clus scale="   55.204">  1  9  2 -1</clus>
<clus scale="   80.434">  5  6 -1 -1</clus>
<clus scale="   93.161">  7  8 -1 -1</clus>
<clus scale="  112.230">  2  5  1 -1</clus>
<clus scale="  145.866">  1 10  2 -1</clus>
<clus scale="   55.204">  1  5  2 -1</clus>
</clustering>
</event>
<event>
10    4  0.3043429E-005  0.1307723E+03  0.7546771E-02  0.1249888E+00
         21   -1    0    0  501  502  0.00000000000E+00  0.00000000000E+00  0.25462827295E+03  0.25462827295E+03  0.00000000000E+00 0. -1.
          2   -1    0    0  503    0 -0.00000000000E+00 -0.00000000000E+00 -0.27682157493E+03  0.27682157493E+03  0.00000000000E+00 0. -1.
         24    2    1    2    0    0  0.62624051717E+01  0.24492208713E+01 -0.15757822952E+03  0.17708750862E+03  0.80522486864E+02 0.  0.
         23    2    1    2    0    0 -0.56265328137E+01  0.92083543225E+02  0.60936409018E+02  0.14330601943E+03  0.91171993819E+02 0.  0.
        -11    1    3    3    0    0  0.37363666911E+02  0.86485863265E+01 -0.40445444307E+02  0.55737560188E+02  0.00000000000E+00 0.  1.
         12    1    3    3    0    0 -0.31101261740E+02 -0.61993654552E+01 -0.11713278521E+03  0.12134994843E+03  0.00000000000E+00 0. -1.
        -13    1    4    4    0    0 -0.44963937445E+02  0.26766826262E+02  0.34171127220E+02  0.62497076686E+02  0.00000000000E+00 0.  1.
         13    1    4    4    0    0  0.39337404632E+02  0.65316716963E+02  0.26765281797E+02  0.80808942745E+02  0.00000000000E+00 0. -1.
         21    1    1    2  503  502 -0.28978880163E+02 -0.93790371673E+02  0.12145217621E+03  0.15616350540E+03  0.00000000000E+00 0. -1.
          1    1    1    2  501    0  0.28343007805E+02 -0.74239242372E+00 -0.47003657700E+02  0.54892814422E+02  0.00000000000E+00 0. -1.
<scales pt_clust_5="13000.00000" pt_clust_6="13000.00000" pt_clust_7="13000.00000" pt_clust_8="13000.00000" pt_clust_9="93.74997" pt_clust_10="28.35274"></scales>
<clustering>
<clus scale="   28.353">  1 10  2 -1</clus>
<clus scale="   80.522">  5  6 -1 -1</clus>
<clus scale="   80.895">  2  5  1 -1</clus>
<clus scale="   91.172">  7  8 -1 -1</clus>
<clus scale="   93.750">  1  9  2 -1</clus>
<clus scale="   28.353">  1  5  2 -1</clus>
</clustering>
</event>
<event>
10    4  0.3043429E-005  0.1313932E+03  0.7546771E-02  0.1238925E+00
         21   -1    0    0  501  502  0.00000000000E+00  0.00000000000E+00  0.43678211040E+02  0.43678211040E+02  0.00000000000E+00 0.  1.
          2   -1    0    0  503    0 -0.00000000000E+00 -0.00000000000E+00 -0.10161357104E+04  0.10161357104E+04  0.00000000000E+00 0. -1.
         24    2    1    2    0    0  0.96091365484E+01  0.53366815059E+02 -0.36855023234E+03  0.38125283698E+03  0.81142464198E+02 0.  0.
         23    2    1    2    0    0 -0.26263704743E+02  0.52209237083E+02 -0.16390565588E+03  0.19339321921E+03  0.84381790590E+02 0.  0.
        -13    1    3    3    0    0  0.28047373408E+02  0.42150256721E+02 -0.10243462739E+03  0.11426352080E+03  0.00000000000E+00 0.  1.
         14    1    3    3    0    0 -0.18438236859E+02  0.11216558338E+02 -0.26611560495E+03  0.26698931619E+03  0.00000000000E+00 0. -1.
        -11    1    4    4    0    0  0.12885003234E+02  0.57384123095E+02 -0.69398662867E+02  0.90967770663E+02  0.00000000000E+00 0. -1.
         11    1    4    4    0    0 -0.39148707977E+02 -0.51748860115E+01 -0.94506993016E+02  0.10242544855E+03  0.00000000000E+00 0.  1.
         21    1    1    2  503  502 -0.50509742559E+02  0.23347225310E+02 -0.85435883348E+02  0.10195889950E+03  0.00000000000E+00 0.  1.
          1    1    1    2  501    0  0.67164310754E+02 -0.12892327745E+03 -0.35456572781E+03  0.38320896577E+03  0.00000000000E+00 0. -1.
<scales pt_clust_5="13000.00000" pt_clust_6="13000.00000" pt_clust_7="13000.00000" pt_clust_8="13000.00000" pt_clust_9="55.64465" pt_clust_10="100.71687"></scales>
<clustering>
<clus scale="   55.645">  1  9  2 -1</clus>
<clus scale="   81.142">  5  6 -1 -1</clus>
<clus scale="   84.382">  7  8 -1 -1</clus>
<clus scale="   99.483">  2  5  1 -1</clus>
<clus scale="  100.717">  1 10  2 -1</clus>
<clus scale="   55.645">  1  5  2 -1</clus>
</clustering>
</event>
<event>
10    4  0.3043429E-005  0.1421961E+03  0.7546771E-02  0.1228726E+00
          4   -1    0    0  503    0 -0.00000000000E+00  0.00000000000E+00  0.31745137406E+02  0.31745137406E+02  0.00000000000E+00 0. -1.
         21   -1    0    0  501  502  0.00000000000E+00 -0.00000000000E+00 -0.12925895497E+04  0.12925895497E+04  0.00000000000E+00 0. -1.
         24    2    1    2    0    0  0.24988254958E+01  0.50073105791E+02 -0.17682364615E+03  0.20063532537E+03  0.80463481747E+02 0.  0.
         23    2    1    2    0    0 -0.91938011609E+02 -0.10672570885E+03 -0.49888559533E+03  0.52635926899E+03  0.91237426060E+02 0.  0.
        -13    1    3    3    0    0 -0.35435420188E+02  0.61080819203E+01 -0.80436604989E+02  0.88108030797E+02  0.00000000000E+00 0.  1.
         14    1    3    3    0    0  0.37934245684E+02  0.43965023870E+02 -0.96387041159E+02  0.11252729457E+03  0.00000000000E+00 0. -1.
        -13    1    4    4    0    0 -0.47230621104E+02 -0.28385304592E+02 -0.75489959411E+02  0.93462244027E+02  0.00000000000E+00 0.  1.
         13    1    4    4    0    0 -0.44707390505E+02 -0.78340404254E+02 -0.42339563592E+03  0.43289702496E+03  0.00000000000E+00 0. -1.
         21    1    1    2  503  502  0.91135753627E+02  0.34377756607E+02 -0.45601200417E+03  0.46629872795E+03  0.00000000000E+00 0.  1.
          3    1    1    2  501    0 -0.16965675138E+01  0.22274846448E+02 -0.12912316663E+03  0.13104136479E+03  0.00000000000E+00 0. -1.
<scales pt_clust_5="13000.00000" pt_clust_6="13000.00000" pt_clust_7="13000.00000" pt_clust_8="13000.00000" pt_clust_9="109.06638" pt_clust_10="22.33936"></scales>
<clustering>
<clus scale="   22.339">  2 10  1 -1</clus>
<clus scale="   80.463">  5  6 -1 -1</clus>
<clus scale="   91.237">  7  8 -1 -1</clus>
<clus scale="   96.757">  1  5  2 -1</clus>
<clus scale="  109.066">  2  9  1 -1</clus>
<clus scale="   22.339">  2  5  1 -1</clus>
</clustering>
</event>
<event>
10    4  0.3043429E-005  0.9877213E+02  0.7546771E-02  0.1294554E+00
         21   -1    0    0  503  502  0.00000000000E+00  0.00000000000E+00  0.71433322256E+02  0.71433322256E+02  0.00000000000E+00 0.  1.
          2   -1    0    0  502    0 -0.00000000000E+00 -0.00000000000E+00 -0.50346498859E+03  0.50346498859E+03  0.00000000000E+00 0. -1.
         24    2    1    2    0    0 -0.18694601229E+01 -0.28645208476E+02 -0.24061140990E+03  0.25449266216E+03  0.77772885207E+02 0.  0.
         23    2    1    2    0    0  0.20514317273E+02 -0.59114042724E+02 -0.50264978706E+02  0.12628309374E+03  0.97496381574E+02 0.  0.
        -11    1    3    3    0    0  0.23925013946E+02 -0.45818828176E+02 -0.14121669583E+03  0.15037927546E+03  0.00000000000E+00 0.  1.
         12    1    3    3    0    0 -0.25794474069E+02  0.17173619699E+02 -0.99394714068E+02  0.10411338670E+03  0.00000000000E+00 0. -1.
        -13    1    4    4    0    0  0.28697585525E+02  0.20791722795E+02 -0.17654554900E+02  0.39592050471E+02  0.00000000000E+00 0. -1.
         13    1    4    4    0    0 -0.81832682524E+01 -0.79905765519E+02 -0.32610423806E+02  0.86691043270E+02  0.00000000000E+00 0.  1.
         21    1    1    2  503  501 -0.33028654080E+02  0.25391366831E+02 -0.28893485477E+01  0.41760769089E+02  0.00000000000E+00 0.  1.
          1    1    1    2  501    0  0.14383796930E+02  0.62367884369E+02 -0.13826592919E+03  0.15236178585E+03  0.00000000000E+00 0. -1.
<scales pt_clust_5="13000.00000" pt_clust_6="13000.00000" pt_clust_7="13000.00000" pt_clust_8="13000.00000" pt_clust_9="41.66069" pt_clust_10="66.55107"></scales>
<clustering>
<clus scale="   41.661">  1  9  2 -1</clus>
<clus scale="   66.551">  1 10  2 -1</clus>
<clus scale="   77.773">  5  6 -1 -1</clus>
<clus scale="   79.366">  2  5  1 -1</clus>
<clus scale="   97.496">  7  8 -1 -1</clus>
<clus scale="   41.661">  1  5  2 -1</clus>
</clustering>
</event>
<event>
10    4  0.3043429E-005  0.9820021E+02  0.7546771E-02  0.1290602E+00
          2   -1    0    0  503    0 -0.00000000000E+00  0.00000000000E+00  0.50912501912E+03  0.50912501912E+03  0.00000000000E+00 0. -1.
         21   -1    0    0  501  502  0.00000000000E+00 -0.00000000000E+00 -0.64842152656E+03  0.64842152656E+03  0.00000000000E+00 0.  1.
         24    2    1    2    0    0 -0.33862004550E+02 -0.16974099069E+02  0.43712957806E+03  0.44577531426E+03  0.78731235198E+02 0.  0.
         23    2    1    2    0    0  0.66198945477E+01  0.41132253798E+02  0.27955331223E+01  0.10013392894E+03  0.91012655240E+02 0.  0.
        -13    1    3    3    0    0 -0.41182616581E+02 -0.39574234380E+02  0.21785121624E+03  0.22521385471E+03  0.00000000000E+00 0.  1.
         14    1    3    3    0    0  0.73206120313E+01  0.22600135310E+02  0.21927836182E+03  0.22056145955E+03  0.00000000000E+00 0. -1.
        -11    1    4    4    0    0  0.26818617724E+02 -0.13379907360E+02  0.23852258393E+02  0.38303921575E+02  0.00000000000E+00 0. -1.
         11    1    4    4    0    0 -0.20198723176E+02  0.54512161157E+02 -0.21056725271E+02  0.61830007368E+02  0.00000000000E+00 0.  1.
         21    1    1    2  503  502  0.66350457710E+02 -0.23093207140E+02 -0.56599589334E+03  0.57033939960E+03  0.00000000000E+00 0.  1.
          1    1    1    2  501    0 -0.39108347708E+02 -0.10649475882E+01 -0.13225725279E+02  0.41297902888E+02  0.00000000000E+00 0. -1.
<scales pt_clust_5="13000.00000" pt_clust_6="13000.00000" pt_clust_7="13000.00000" pt_clust_8="13000.00000" pt_clust_9="38.91375" pt_clust_10="39.12284"></scales>
<clustering>
<clus scale="   39.123">  2 10  1 -1</clus>
<clus scale="   38.914">  2  9  1 -1</clus>
<clus scale="   78.731">  5  6 -1 -1</clus>
<clus scale="   86.940">  1  5  2 -1</clus>
<clus scale="   91.013">  7  8 -1 -1</clus>
<clus scale="   39.123">  2  5  1 -1</clus>
</clustering>
</event>
<event>
10    4  0.3043429E-005  0.1511056E+03  0.7546771E-02  0.1202331E+00
          2   -1    0    0  503    0 -0.00000000000E+00  0.00000000000E+00  0.77924915574E+03  0.77924915574E+03  0.00000000000E+00 0. -1.
         21   -1    0    0  501  502  0.00000000000E+00 -0.00000000000E+00 -0.51245133536E+02  0.51245133536E+02  0.00000000000E+00 0. -1.
         23    2    1    2    0    0 -0.11781100110E+02  0.12602001891E+03  0.48776769897E+03  0.51214199139E+03  0.91390654333E+02 0.  0.
         24    2    1    2    0    0 -0.45036836315E+02 -0.10776380467E+03  0.15857764316E+03  0.21017260829E+03  0.73377804159E+02 0.  0.
        -11    1    4    4    0    0 -0.38648706888E+02 -0.25695326346E+02  0.96472689400E+02  0.10705583655E+03  0.00000000000E+00 0.  1.
         12    1    4    4    0    0 -0.63881294269E+01 -0.82068478321E+02  0.62104953759E+02  0.10311677173E+03  0.00000000000E+00 0. -1.
        -13    1    3    3    0    0 -0.47147276135E+02  0.98433254714E+02  0.30462072190E+03  0.32358268726E+03  0.00000000000E+00 0. -1.
         13    1    3    3    0    0  0.35366176025E+02  0.27586764194E+02  0.18314697706E+03  0.18855930413E+03  0.00000000000E+00 0.  1.
         21    1    1    2  503  502  0.29517982491E+02 -0.18010767584E+02  0.18152771479E+02  0.39054092637E+02  0.00000000000E+00 0.  1.
          1    1    1    2  501    0  0.27299953934E+02 -0.24544665771E+00  0.63505908595E+02  0.69125596962E+02  0.00000000000E+00 0. -1.
<scales pt_clust_5="13000.00000" pt_clust_6="13000.00000" pt_clust_7="13000.00000" pt_clust_8="13000.00000" pt_clust_9="39.74985" pt_clust_10="27.30107"></scales>
<clustering>
<clus scale="   27.301">  2 10  1 -1</clus>
<clus scale="   39.750">  2  9  1 -1</clus>
<clus scale="   73.378">  5  6 -1 -1</clus>
<clus scale="   91.391">  7  8 -1 -1</clus>
<clus scale="  140.943">  2  5  1 -1</clus>
<clus scale="   27.301">  2  5  1 -1</clus>
</clustering>
</event>
<event>
10    4  0.3675863E-005  0.1395386E+03  0.7546771E-02  0.1239349E+00
         21   -1    0    0  501  502  0.00000000000E+00  0.00000000000E+00  0.77978873120E+02  0.77978873120E+02  0.00000000000E+00 0.  1.
          2   -1    0    0  503    0 -0.00000000000E+00 -0.00000000000E+00 -0.13294994007E+04  0.13294994007E+04  0.00000000000E+00 0. -1.
         24    2    1    2    0    0 -0.24749766244E+02  0.20881201703E+02 -0.32423995973E+03  0.33453264861E+03  0.75709748268E+02 0.  0.
         23    2    1    2    0    0  0.10634234569E+03 -0.65704641479E+01 -0.19665248442E+03  0.23837631003E+03  0.82457262087E+02 0.  0.
        -11    1    3    3    0    0 -0.23212865640E+02 -0.26116275480E+02 -0.12256466146E+03  0.12744800200E+03  0.00000000000E+00 0.  1.
         12    1    3    3    0    0 -0.15369006045E+01  0.46997477183E+02 -0.20167529828E+03  0.20708464661E+03  0.00000000000E+00 0. -1.
        -11    1    4    4    0    0  0.18480676396E+02 -0.10481716299E+02 -0.11952707537E+03  0.12140067349E+03  0.00000000000E+00 0. -1.
         11    1    4    4    0    0  0.87861669290E+02  0.39112521507E+01 -0.77125409045E+02  0.11697563654E+03  0.00000000000E+00 0.  1.
         21    1    1    2  503  502 -0.11674409509E+03  0.11059904272E+03 -0.97028747646E+02  0.18781882190E+03  0.00000000000E+00 0.  1.
          1    1    1    2  501    0  0.35151515653E+02 -0.12490978027E+03 -0.63359933579E+03  0.64675049329E+03  0.00000000000E+00 0. -1.
<scales pt_clust_5="13000.00000" pt_clust_6="13000.00000" pt_clust_7="13000.00000" pt_clust_8="13000.00000" pt_clust_9="112.56918" pt_clust_10="113.20268"></scales>
<clustering>
<clus scale="   75.710">  5  6 -1 -1</clus>
<clus scale="   82.344">  2  5  1 -1</clus>
<clus scale="   82.457">  7  8 -1 -1</clus>
<clus scale="  113.203">  1 10  2 -1</clus>
<clus scale="  112.569">  1  9  2 -1</clus>
<clus scale="  113.203">  1  5  2 -1</clus>
</clustering>
</event>
<event>
10    4  0.3043429E-005  0.2893738E+03  0.7546771E-02  0.1120660E+00
         21   -1    0    0  501  502  0.00000000000E+00  0.00000000000E+00  0.18212512206E+03  0.18212512206E+03  0.00000000000E+00 0. -1.
          2   -1    0    0  503    0 -0.00000000000E+00 -0.00000000000E+00 -0.93031549399E+03  0.93031549399E+03  0.00000000000E+00 0. -1.
         23    2    1    2    0    0  0.73904107437E+02 -0.74328170869E+02 -0.14387104133E+03  0.19983169788E+03  0.90814849367E+02 0.  0.
         24    2    1    2    0    0  0.22176175458E+03  0.14245650762E+03 -0.34899002802E+03  0.44358434202E+03  0.74168028620E+02 0.  0.
        -13    1    4    4    0    0  0.22076205226E+02  0.54187383631E+01 -0.72718566471E+02  0.76188657110E+02  0.00000000000E+00 0.  1.
         14    1    4    4    0    0  0.19968554935E+03  0.13703776925E+03 -0.27627146155E+03  0.36739568491E+03  0.00000000000E+00 0. -1.
        -11    1    3    3    0    0 -0.91745223024E+01 -0.42599630837E+02 -0.77327313608E+02  0.88760429453E+02  0.00000000000E+00 0. -1.
         11    1    3    3    0    0  0.83078629739E+02 -0.31728540033E+02 -0.66543727721E+02  0.11107126843E+03  0.00000000000E+00 0.  1.
         21    1    1    2  503  502 -0.14296400543E+02  0.29674078476E+02  0.38461546534E+02  0.50638212485E+02  0.00000000000E+00 0. -1.
          1    1    1    2  501    0 -0.28136946147E+03 -0.97802415225E+02 -0.29379084911E+03  0.41838636365E+03  0.00000000000E+00 0. -1.
<scales pt_clust_5="13000.00000" pt_clust_6="13000.00000" pt_clust_7="13000.00000" pt_clust_8="13000.00000" pt_clust_9="32.93840" pt_clust_10="279.70752"></scales>
<clustering>
<clus scale="   32.938">  1  9  2 -1</clus>
<clus scale="   74.168">  5  6 -1 -1</clus>
<clus scale="   90.815">  7  8 -1 -1</clus>
<clus scale="  133.984">  2  7  1 -1</clus>
<clus scale="  279.708">  1 10  2 -1</clus>
<clus scale="   32.938">  1  5  2 -1</clus>
</clustering>
</event>
<event>
10    4  0.3043429E-005  0.9188834E+02  0.7546771E-02  0.1306681E+00
         21   -1    0    0  501  502  0.00000000000E+00  0.00000000000E+00  0.24519442245E+03  0.24519442245E+03  0.00000000000E+00 0.  1.
          2   -1    0    0  503    0 -0.00000000000E+00 -0.00000000000E+00 -0.25556080312E+03  0.25556080312E+03  0.00000000000E+00 0. -1.
         24    2    1    2    0    0  0.36809950209E+02 -0.33666748627E+02  0.86042209620E+01  0.92425131891E+02  0.77330136358E+02 0.  0.
         23    2    1    2    0    0  0.59381726379E+02 -0.49223554055E+02  0.10884267342E+03  0.16125510228E+03  0.90594330673E+02 0.  0.
        -13    1    3    3    0    0  0.55026232499E+02 -0.24105722779E+02 -0.14181624528E+02  0.61725931406E+02  0.00000000000E+00 0.  1.
         14    1    3    3    0    0 -0.18216282290E+02 -0.95610258483E+01  0.22785845490E+02  0.30699200485E+02  0.00000000000E+00 0. -1.
        -11    1    4    4    0    0  0.40984549779E+02 -0.65203702464E+02  0.11278352598E+03  0.13657005480E+03  0.00000000000E+00 0.  1.
         11    1    4    4    0    0  0.18397176599E+02  0.15980148409E+02 -0.39408525553E+01  0.24685047475E+02  0.00000000000E+00 0. -1.
         21    1    1    2  503  502 -0.22450375303E+02  0.50802656654E+02  0.34883278324E+02  0.65587898129E+02  0.00000000000E+00 0.  1.
          1    1    1    2  501    0 -0.73741301285E+02  0.32087646028E+02 -0.16269655338E+03  0.18148709327E+03  0.00000000000E+00 0. -1.
<scales pt_clust_5="13000.00000" pt_clust_6="13000.00000" pt_clust_7="13000.00000" pt_clust_8="13000.00000" pt_clust_9="55.54214" pt_clust_10="82.40902"></scales>
<clustering>
<clus scale="   55.542">  1  9  2 -1</clus>
<clus scale="   77.330">  5  6 -1 -1</clus>
<clus scale="   82.409">  1 10  2 -1</clus>
<clus scale="   78.842">  2  5  1 -1</clus>
<clus scale="   90.594">  7  8 -1 -1</clus>
<clus scale="   55.542">  1  5  2 -1</clus>
</clustering>
</event>
<event>
10    4  0.3043429E-005  0.1495500E+03  0.7546771E-02  0.1202744E+00
         21   -1    0    0  503  502  0.00000000000E+00  0.00000000000E+00  0.23748531869E+03  0.23748531869E+03  0.00000000000E+00 0. -1.
          2   -1    0    0  502    0 -0.00000000000E+00 -0.00000000000E+00 -0.94730793299E+03  0.94730793299E+03  0.00000000000E+00 0. -1.
         24    2    1    2    0    0  0.23742549818E+02  0.99115637773E+02 -0.28372233302E+03  0.31186896574E+03  0.79851557373E+02 0.  0.
         23    2    1    2    0    0 -0.89536917984E+02 -0.13049968182E+03 -0.29866075377E+03  0.34960553552E+03  0.89323893703E+02 0.  0.
        -11    1    3    3    0    0  0.50583674723E+02  0.59509588469E+02 -0.13895928350E+03  0.15940445960E+03  0.00000000000E+00 0.  1.
         12    1    3    3    0    0 -0.26841124905E+02  0.39606049303E+02 -0.14476304952E+03  0.15246450614E+03  0.00000000000E+00 0. -1.
        -13    1    4    4    0    0 -0.25060524798E+02 -0.11087461191E+03 -0.17280619105E+03  0.20684097548E+03  0.00000000000E+00 0. -1.
         13    1    4    4    0    0 -0.64476393187E+02 -0.19625069904E+02 -0.12585456272E+03  0.14276456004E+03  0.00000000000E+00 0.  1.
         21    1    1    2  503  501 -0.25046429060E+02 -0.13796468809E+02  0.18892880539E+03  0.19108050572E+03  0.00000000000E+00 0. -1.
          1    1    1    2  501    0  0.90840797226E+02  0.45180512855E+02 -0.31636833290E+03  0.33223824471E+03  0.00000000000E+00 0. -1.
<scales pt_clust_5="13000.00000" pt_clust_6="13000.00000" pt_clust_7="13000.00000" pt_clust_8="13000.00000" pt_clust_9="28.59486" pt_clust_10="96.68174"></scales>
<clustering>
<clus scale="   28.595">  1  9  2 -1</clus>
<clus scale="   79.852">  5  6 -1 -1</clus>
<clus scale="   89.324">  7  8 -1 -1</clus>
<clus scale="   96.682">  1 10  2 -1</clus>
<clus scale="  144.093">  2  5  1 -1</clus>
<clus scale="   28.595">  1  5  2 -1</clus>
</clustering>
</event>
<event>
10    4  0.3043429E-005  0.1988664E+03  0.7546771E-02  0.1151473E+00
         21   -1    0    0  503  502  0.00000000000E+00  0.00000000000E+00  0.19466564350E+03  0.19466564350E+03  0.00000000000E+00 0.  1.
          2   -1    0    0  502    0 -0.00000000000E+00 -0.00000000000E+00 -0.57881522903E+03  0.57881522903E+03  0.00000000000E+00 0. -1.
         24    2    1    2    0    0 -0.49439913292E+01 -0.18771745202E+03 -0.47594041021E+03  0.51777604937E+03  0.79438519572E+02 0.  0.
         23    2    1    2    0    0  0.18898530735E+02  0.12931710100E+03  0.50153726300E+02  0.16531255818E+03  0.87936218678E+02 0.  0.
        -11    1    3    3    0    0 -0.22411850240E+02 -0.47485700999E+02 -0.21177121600E+03  0.21818393790E+03  0.00000000000E+00 0.  1.
         12    1    3    3    0    0  0.17467858910E+02 -0.14023175102E+03 -0.26416919421E+03  0.29959211147E+03  0.00000000000E+00 0. -1.
        -13    1    4    4    0    0  0.41704424942E+02  0.12362899702E+03  0.54518841639E+02  0.14140612454E+03  0.00000000000E+00 0.  1.
         13    1    4    4    0    0 -0.22805894206E+02  0.56881039785E+01 -0.43651153390E+01  0.23906433639E+02  0.00000000000E+00 0. -1.
         21    1    1    2  503  501 -0.18945639768E+02  0.87578688988E+01  0.34032871463E+02  0.39923349983E+02  0.00000000000E+00 0. -1.
          1    1    1    2  501    0  0.49911003612E+01  0.49642482122E+02  0.76042269226E+01  0.50468914999E+02  0.00000000000E+00 0. -1.
<scales pt_clust_5="13000.00000" pt_clust_6="13000.00000" pt_clust_7="13000.00000" pt_clust_8="13000.00000" pt_clust_9="20.87193" pt_clust_10="51.27717"></scales>
<clustering>
<clus scale="   20.872">  1  9  2 -1</clus>
<clus scale="   51.277">  1 10  2 -1</clus>
<clus scale="   79.439">  5  6 -1 -1</clus>
<clus scale="   87.936">  7  8 -1 -1</clus>
<clus scale="  195.258">  2  5  1 -1</clus>
<clus scale="   20.872">  1  5  2 -1</clus>
</clustering>
</event>
<event>
10    4  0.3043429E-005  0.1428203E+03  0.7546771E-02  0.1226228E+00
          2   -1    0    0  502    0 -0.00000000000E+00  0.00000000000E+00  0.74227624556E+03  0.74227624556E+03  0.00000000000E+00 0. -1.
         21   -1    0    0  503  502  0.00000000000E+00 -0.00000000000E+00 -0.80437690673E+02  0.80437690673E+02  0.00000000000E+00 0.  1.
         24    2    1    2    0    0 -0.40774864812E+02 -0.44133445103E+02  0.24327046658E+03  0.26334036023E+03  0.80977001905E+02 0.  0.
         23    2    1    2    0    0  0.55917165752E+02 -0.63077072875E+02  0.20726342652E+03  0.24194784750E+03  0.92060775516E+02 0.  0.
        -11    1    3    3    0    0 -0.36385170671E+02  0.13534262196E+02  0.13649157713E+03  0.14190492425E+03  0.00000000000E+00 0.  1.
         12    1    3    3    0    0 -0.43896941413E+01 -0.57667707299E+02  0.10677888945E+03  0.12143543599E+03  0.00000000000E+00 0. -1.
        -11    1    4    4    0    0  0.29010000677E+02 -0.51164624662E+02  0.37726698665E+02  0.69876338972E+02  0.00000000000E+00 0.  1.
         11    1    4    4    0    0  0.26907165075E+02 -0.11912448213E+02  0.16953672786E+03  0.17207150853E+03  0.00000000000E+00 0. -1.
         21    1    1    2  503  501  0.29324610003E+02 -0.21108707344E+02 -0.25651531827E+02  0.44311526296E+02  0.00000000000E+00 0.  1.
          1    1    1    2  501    0 -0.44466910943E+02  0.12831922532E+03  0.23695619360E+03  0.27311420220E+03  0.00000000000E+00 0. -1.
<scales pt_clust_5="13000.00000" pt_clust_6="13000.00000" pt_clust_7="13000.00000" pt_clust_8="13000.00000" pt_clust_9="36.13185" pt_clust_10="109.18997"></scales>
<clustering>
<clus scale="   36.132">  2  9  1 -1</clus>
<clus scale="   80.977">  5  6 -1 -1</clus>
<clus scale="   92.061">  7  8 -1 -1</clus>
<clus scale="  100.572">  1  5  2 -1</clus>
<clus scale="  109.190">  2 10  1 -1</clus>
<clus scale="   36.132">  2  5  1 -1</clus>
</clustering>
</event>
<event>
10    4  0.3043429E-005  0.5003750E+03  0.7546771E-02  0.1040441E+00
         21   -1    0    0  503  502  0.00000000000E+00  0.00000000000E+00  0.45013371930E+03  0.45013371930E+03  0.00000000000E+00 0. -1.
          2   -1    0    0  502    0 -0.00000000000E+00 -0.00000000000E+00 -0.12250417542E+04  0.12250417542E+04  0.00000000000E+00 0. -1.
         23    2    1    2    0    0  0.14192944367E+03 -0.15418693885E+03 -0.18081816254E+03  0.29136234647E+03  0.90990273881E+02 0.  0.
         24    2    1    2    0    0 -0.36753982140E+03  0.50145597248E+03 -0.48287649247E+03  0.79128394527E+03  0.80105944860E+02 0.  0.
        -13    1    4    4    0    0 -0.10356580925E+03  0.15169784228E+03 -0.98647362265E+02  0.20849319960E+03  0.00000000000E+00 0.  1.
         14    1    4    4    0    0 -0.26397401215E+03  0.34975813020E+03 -0.38422913021E+03  0.58279074566E+03  0.00000000000E+00 0. -1.
        -11    1    3    3    0    0  0.13845251922E+03 -0.12699283503E+03 -0.18495406365E+03  0.26363665505E+03  0.00000000000E+00 0.  1.
         11    1    3    3    0    0  0.34769244555E+01 -0.27194103824E+02  0.41359011114E+01  0.27725691416E+02  0.00000000000E+00 0. -1.
         21    1    1    2  503  501 -0.59934888867E+02 -0.21960045320E+02  0.93896490994E+02  0.11353847592E+03  0.00000000000E+00 0. -1.
          1    1    1    2  501    0  0.28554526659E+03 -0.32530898831E+03 -0.20510987087E+03  0.47899070584E+03  0.00000000000E+00 0. -1.
<scales pt_clust_5="13000.00000" pt_clust_6="13000.00000" pt_clust_7="13000.00000" pt_clust_8="13000.00000" pt_clust_9="63.83130" pt_clust_10="493.92124"></scales>
<clustering>
<clus scale="   63.831">  1  9  2 -1</clus>
<clus scale="   80.106">  5  6 -1 -1</clus>
<clus scale="   90.990">  7  8 -1 -1</clus>
<clus scale="  225.092">  2  7  1 -1</clus>
<clus scale="  493.921">  1 10  2 -1</clus>
<clus scale="   63.831">  1  5  2 -1</clus>
</clustering>
</event>
<event>
10    4  0.3043429E-005  0.1611728E+03  0.7546771E-02  0.1211662E+00
          2   -1    0    0  503    0 -0.00000000000E+00  0.00000000000E+00  0.82982576565E+03  0.82982576565E+03  0.00000000000E+00 0. -1.
         21   -1    0    0  501  502  0.00000000000E+00 -0.00000000000E+00 -0.59867571519E+02  0.59867571519E+02  0.00000000000E+00 0. -1.
         24    2    1    2    0    0  0.49356413814E+02  0.30354747367E+01  0.23278118050E+03  0.25111136504E+03  0.80153415198E+02 0.  0.
         23    2    1    2    0    0  0.20161018234E+02 -0.11126611431E+03  0.20820739596E+03  0.25383440211E+03  0.91076721012E+02 0.  0.
        -13    1    3    3    0    0  0.26701604900E+02 -0.31300565273E+02  0.17749007540E+03  0.18219612498E+03  0.00000000000E+00 0.  1.
         14    1    3    3    0    0  0.22654808914E+02  0.34336040010E+02  0.55291105097E+02  0.68915240066E+02  0.00000000000E+00 0. -1.
        -11    1    4    4    0    0  0.47426805303E+02 -0.64814079053E+02  0.16931641109E+03  0.18739854260E+03  0.00000000000E+00 0. -1.
         11    1    4    4    0    0 -0.27265787069E+02 -0.46452035260E+02  0.38890984875E+02  0.66435859510E+02  0.00000000000E+00 0.  1.
         21    1    1    2  503  502  0.94245452839E+01 -0.25518380522E+02  0.82893537307E+01  0.28438058716E+02  0.00000000000E+00 0. -1.
          1    1    1    2  501    0 -0.78941977332E+02  0.13374902010E+03  0.32068026393E+03  0.35630951129E+03  0.00000000000E+00 0. -1.
<scales pt_clust_5="13000.00000" pt_clust_6="13000.00000" pt_clust_7="13000.00000" pt_clust_8="13000.00000" pt_clust_9="27.20312" pt_clust_10="132.97267"></scales>
<clustering>
<clus scale="   27.203">  2  9  1 -1</clus>
<clus scale="   80.153">  5  6 -1 -1</clus>
<clus scale="   91.077">  7  8 -1 -1</clus>
<clus scale="   95.066">  1  5  2 -1</clus>
<clus scale="  132.973">  2 10  1 -1</clus>
<clus scale="   27.203">  2  5  1 -1</clus>
</clustering>
</event>
<event>
10    4  0.3043429E-005  0.1461967E+03  0.7546771E-02  0.1207360E+00
         21   -1    0    0  503  502  0.00000000000E+00  0.00000000000E+00  0.98059983677E+02  0.98059983677E+02  0.00000000000E+00 0. -1.
         -1   -1    0    0    0  501 -0.00000000000E+00 -0.00000000000E+00 -0.85883270931E+03  0.85883270931E+03  0.00000000000E+00 0.  1.
         24    2    1    2    0    0 -0.99508218844E+02  0.40882136297E+02 -0.60643225887E+03  0.62106979233E+03  0.79964790126E+02 0.  0.
         23    2    1    2    0    0  0.16815047434E+03 -0.59607888630E+01 -0.14233314927E+03  0.23840453985E+03  0.90927917679E+02 0.  0.
        -13    1    3    3    0    0 -0.10307238977E+03  0.41682984277E+02 -0.60723506537E+03  0.61732958242E+03  0.00000000000E+00 0.  1.
         14    1    3    3    0    0  0.35641709309E+01 -0.80084797987E+00  0.80280649994E+00  0.37402099123E+01  0.00000000000E+00 0. -1.
        -13    1    4    4    0    0  0.12207992437E+03  0.30403532271E+02 -0.65862081875E+02  0.14200597359E+03  0.00000000000E+00 0. -1.
         13    1    4    4    0    0  0.46070549970E+02 -0.36364321134E+02 -0.76471067398E+02  0.96398566250E+02  0.00000000000E+00 0.  1.
         21    1    1    2  503  501 -0.39137542700E+02  0.86895050007E+01 -0.18887296328E+02  0.44316867086E+02  0.00000000000E+00 0. -1.
         -2    1    1    2    0  502 -0.29504712793E+02 -0.43610852435E+02  0.68799788389E+01  0.53101493726E+02  0.00000000000E+00 0.  1.
<scales pt_clust_5="13000.00000" pt_clust_6="13000.00000" pt_clust_7="13000.00000" pt_clust_8="13000.00000" pt_clust_9="40.09058" pt_clust_10="59.29702"></scales>
<clustering>
<clus scale="   40.091">  1  9  2 -1</clus>
<clus scale="   59.297">  1 10  2 -1</clus>
<clus scale="   79.965">  5  6 -1 -1</clus>
<clus scale="   90.928">  7  8 -1 -1</clus>
<clus scale="  139.642">  2  5  1 -1</clus>
<clus scale="   40.091">  1  5  2 -1</clus>
</clustering>
</event>
<event>
10    4  0.3043429E-005  0.1253972E+03  0.7546771E-02  0.1245583E+00
         -1   -1    0    0    0  501 -0.00000000000E+00  0.00000000000E+00  0.22129070069E+03  0.22129070069E+03  0.00000000000E+00 0.  1.
         21   -1    0    0  501  502  0.00000000000E+00 -0.00000000000E+00 -0.33554863351E+03  0.33554863351E+03  0.00000000000E+00 0.  1.
         23    2    1    2    0    0 -0.17786715012E+02  0.50579676362E+02 -0.57848371814E+02  0.12025082923E+03  0.90769801790E+02 0.  0.
         24    2    1    2    0    0  0.31247699312E+02  0.81284689137E+02  0.34355406473E+02  0.12232888911E+03  0.78742896545E+02 0.  0.
        -13    1    4    4    0    0  0.26385276735E+02  0.77193942240E+02 -0.56952570650E+01  0.81777279852E+02  0.00000000000E+00 0.  1.
         14    1    4    4    0    0  0.48624225770E+01  0.40907468970E+01  0.40050663538E+02  0.40551609257E+02  0.00000000000E+00 0. -1.
        -13    1    3    3    0    0 -0.38522161065E+02  0.29870899473E+02 -0.72596008917E+02  0.87443742139E+02  0.00000000000E+00 0.  1.
         13    1    3    3    0    0  0.20735446052E+02  0.20708776889E+02  0.14747637104E+02  0.32807087091E+02  0.00000000000E+00 0. -1.
         21    1    1    2  503  502  0.14072061278E+02 -0.18061084652E+02 -0.17086747028E+03  0.17239465794E+03  0.00000000000E+00 0.  1.
         -2    1    1    2    0  503 -0.27533045578E+02 -0.11380328085E+03  0.80102502795E+02  0.14186495792E+03  0.00000000000E+00 0.  1.
<scales pt_clust_5="13000.00000" pt_clust_6="13000.00000" pt_clust_7="13000.00000" pt_clust_8="13000.00000" pt_clust_9="22.89598" pt_clust_10="97.59108"></scales>
<clustering>
<clus scale="   22.896">  2  9  1 -1</clus>
<clus scale="   78.743">  5  6 -1 -1</clus>
<clus scale="   90.770">  7  8 -1 -1</clus>
<clus scale="  100.020">  1  7  2 -1</clus>
<clus scale="   97.591">  2 10  1 -1</clus>
<clus scale="   22.896">  2  5  1 -1</clus>
</clustering>
</event>
<event>
10    4  0.3043429E-005  0.4387989E+03  0.7546771E-02  0.1031323E+00
          2   -1    0    0  503    0 -0.00000000000E+00  0.00000000000E+00  0.41293038349E+03  0.41293038349E+03  0.00000000000E+00 0. -1.
         21   -1    0    0  501  502  0.00000000000E+00 -0.00000000000E+00 -0.86579467621E+03  0.86579467621E+03  0.00000000000E+00 0.  1.
         23    2    1    2    0    0 -0.17915232448E+03 -0.45406923355E+03  0.45359589869E+02  0.49880103153E+03  0.92035604218E+02 0.  0.
         24    2    1    2    0    0  0.26392846312E+02  0.34747533536E+03 -0.25902153365E+03  0.44119829874E+03  0.78282136499E+02 0.  0.
        -11    1    4    4    0    0  0.58276427842E+01  0.29944717987E+02 -0.55943726084E+02  0.63720860351E+02  0.00000000000E+00 0.  1.
         12    1    4    4    0    0  0.20565203528E+02  0.31753061737E+03 -0.20307780757E+03  0.37747743838E+03  0.00000000000E+00 0. -1.
        -13    1    3    3    0    0 -0.11112254341E+03 -0.31218546144E+03 -0.11286867701E+02  0.33156503943E+03  0.00000000000E+00 0. -1.
         13    1    3    3    0    0 -0.68029781068E+02 -0.14188377211E+03  0.56646457571E+02  0.16723599211E+03  0.00000000000E+00 0.  1.
         21    1    1    2  503  502  0.34505407792E+02 -0.35245826242E+02 -0.23094431731E+02  0.54463237246E+02  0.00000000000E+00 0. -1.
          1    1    1    2  501    0  0.11825407037E+03  0.14183972443E+03 -0.21610791720E+03  0.28426249219E+03  0.00000000000E+00 0. -1.
<scales pt_clust_5="13000.00000" pt_clust_6="13000.00000" pt_clust_7="13000.00000" pt_clust_8="13000.00000" pt_clust_9="49.32435" pt_clust_10="183.76410"></scales>
<clustering>
<clus scale="   49.324">  2  9  1 -1</clus>
<clus scale="   78.282">  5  6 -1 -1</clus>
<clus scale="   92.036">  7  8 -1 -1</clus>
<clus scale="  183.764">  2 10  1 -1</clus>
<clus scale="  436.122">  2  5  1 -1</clus>
<clus scale="   49.324">  2  5  1 -1</clus>
</clustering>
</event>
<event>
10    4  0.3043429E-005  0.4355056E+03  0.7546771E-02  0.1089421E+00
         21   -1    0    0  503  502  0.00000000000E+00  0.00000000000E+00  0.62726470680E+03  0.62726470680E+03  0.00000000000E+00 0. -1.
          2   -1    0    0  502    0 -0.00000000000E+00 -0.00000000000E+00 -0.84811302068E+03  0.84811302068E+03  0.00000000000E+00 0. -1.
         24    2    1    2    0    0 -0.88749384896E+01 -0.33917917929E+02 -0.37711631684E+03  0.38718369231E+03  0.80407123252E+02 0.  0.
         23    2    1    2    0    0 -0.28566213937E+03  0.35111776319E+03  0.25803932797E+01  0.46195611768E+03  0.92251041933E+02 0.  0.
        -13    1    3    3    0    0  0.78940498873E+01 -0.57515445570E+02 -0.22734927288E+03  0.23464448508E+03  0.00000000000E+00 0.  1.
         14    1    3    3    0    0 -0.16768988377E+02  0.23597527641E+02 -0.14976704397E+03  0.15253920722E+03  0.00000000000E+00 0. -1.
        -13    1    4    4    0    0 -0.40859249019E+02  0.21731189064E+02  0.21705017927E+02  0.51115854798E+02  0.00000000000E+00 0.  1.
         13    1    4    4    0    0 -0.24480289035E+03  0.32938657413E+03 -0.19124624647E+02  0.41084026288E+03  0.00000000000E+00 0. -1.
         21    1    1    2  503  501  0.29550900394E+02 -0.15346608626E+02  0.21706636050E+03  0.21960550760E+03  0.00000000000E+00 0. -1.
          1    1    1    2  501    0  0.26498617746E+03 -0.30185323664E+03 -0.63378750815E+02  0.40663240989E+03  0.00000000000E+00 0. -1.
<scales pt_clust_5="13000.00000" pt_clust_6="13000.00000" pt_clust_7="13000.00000" pt_clust_8="13000.00000" pt_clust_9="33.29826" pt_clust_10="425.62317"></scales>
<clustering>
<clus scale="   33.298">  1  9  2 -1</clus>
<clus scale="   80.407">  5  6 -1 -1</clus>
<clus scale="   87.755">  2  5  1 -1</clus>
<clus scale="   92.251">  7  8 -1 -1</clus>
<clus scale="  425.623">  1 10  2 -1</clus>
<clus scale="   33.298">  1  5  2 -1</clus>
</clustering>
</event>
<event>
10    4  0.3043429E-005  0.1370693E+03  0.7546771E-02  0.1218916E+00
         -3   -1    0    0    0  501 -0.00000000000E+00  0.00000000000E+00  0.73369033215E+02  0.73369033215E+02  0.00000000000E+00 0.  1.
         21   -1    0    0  503  502  0.00000000000E+00 -0.00000000000E+00 -0.72717314702E+03  0.72717314702E+03  0.00000000000E+00 0. -1.
         24    2    1    2    0    0  0.66669989288E+02  0.96130809196E+02 -0.10386346126E+03  0.17700463957E+03  0.82807028058E+02 0.  0.
         23    2    1    2    0    0 -0.99698001549E+02 -0.26015596336E+02 -0.12183083326E+03  0.18311777340E+03  0.89849119284E+02 0.  0.
        -11    1    3    3    0    0  0.67763336207E+02  0.60723055141E+02 -0.31242516420E+02  0.96204230633E+02  0.00000000000E+00 0.  1.
         12    1    3    3    0    0 -0.10933469184E+01  0.35407754055E+02 -0.72620944841E+02  0.80800408936E+02  0.00000000000E+00 0. -1.
        -13    1    4    4    0    0 -0.15551451110E+02 -0.21888578499E+02  0.82928704982E+01  0.28102120942E+02  0.00000000000E+00 0.  1.
         13    1    4    4    0    0 -0.84146550439E+02 -0.41270178367E+01 -0.13012370376E+03  0.15501565246E+03  0.00000000000E+00 0. -1.
         21    1    1    2  503  501 -0.52629467332E+01 -0.47879990977E+02 -0.31982134635E+03  0.32342833166E+03  0.00000000000E+00 0. -1.
         -4    1    1    2    0  502  0.38290958994E+02 -0.22235221884E+02 -0.10828847293E+03  0.11699143560E+03  0.00000000000E+00 0.  1.
<scales pt_clust_5="13000.00000" pt_clust_6="13000.00000" pt_clust_7="13000.00000" pt_clust_8="13000.00000" pt_clust_9="61.32416" pt_clust_10="44.27869"></scales>
<clustering>
<clus scale="   44.279">  2 10  1 -1</clus>
<clus scale="   61.324">  2  9  1 -1</clus>
<clus scale="   82.807">  5  6 -1 -1</clus>
<clus scale="   89.849">  7  8 -1 -1</clus>
<clus scale="  132.560">  1  5  2 -1</clus>
<clus scale="   44.279">  2  5  1 -1</clus>
</clustering>
</event>
<event>
10    4  0.3043429E-005  0.9530858E+02  0.7546771E-02  0.1300605E+00
          2   -1    0    0  503    0 -0.00000000000E+00  0.00000000000E+00  0.96911115882E+03  0.96911115882E+03  0.00000000000E+00 0. -1.
         21   -1    0    0  501  502  0.00000000000E+00 -0.00000000000E+00 -0.34317263421E+02  0.34317263421E+02  0.00000000000E+00 0. -1.
         24    2    1    2    0    0  0.11172889132E+02 -0.21733366700E+02  0.43303939096E+03  0.44014905535E+03  0.74905968535E+02 0.  0.
         23    2    1    2    0    0 -0.35869081546E+02 -0.29502505964E+02  0.30571423281E+03  0.32260663145E+03  0.91961174666E+02 0.  0.
        -13    1    3    3    0    0  0.24852924869E+02 -0.54349180290E+01  0.46334521235E+02  0.52859190938E+02  0.00000000000E+00 0.  1.
         14    1    3    3    0    0 -0.13680035737E+02 -0.16298448671E+02  0.38670486973E+03  0.38728986441E+03  0.00000000000E+00 0. -1.
        -13    1    4    4    0    0 -0.24693761714E+02 -0.61189442324E+02  0.23853797315E+03  0.24749604917E+03  0.00000000000E+00 0. -1.
         13    1    4    4    0    0 -0.11175319832E+02  0.31686936360E+02  0.67176259663E+02  0.75110582287E+02  0.00000000000E+00 0.  1.
         21    1    1    2  503  502  0.15932898805E+02 -0.36224038977E+02  0.11309101544E+03  0.11981492410E+03  0.00000000000E+00 0.  1.
          1    1    1    2  501    0  0.87632936091E+01  0.87459911640E+02  0.82949256189E+02  0.12085781134E+03  0.00000000000E+00 0. -1.
<scales pt_clust_5="13000.00000" pt_clust_6="13000.00000" pt_clust_7="13000.00000" pt_clust_8="13000.00000" pt_clust_9="39.57320" pt_clust_10="83.81232"></scales>
<clustering>
<clus scale="   39.573">  1  9  2 -1</clus>
<clus scale="   74.906">  5  6 -1 -1</clus>
<clus scale="   83.812">  2 10  1 -1</clus>
<clus scale="   78.980">  1  5  2 -1</clus>
<clus scale="   91.961">  7  8 -1 -1</clus>
<clus scale="   83.812">  2  5  1 -1</clus>
</clustering>
</event>
<event>
10    4  0.3043429E-005  0.1053652E+03  0.7546771E-02  0.1273965E+00
          4   -1    0    0  503    0 -0.00000000000E+00  0.00000000000E+00  0.23314462961E+03  0.23314462961E+03  0.00000000000E+00 0. -1.
         21   -1    0    0  501  502  0.00000000000E+00 -0.00000000000E+00 -0.59935724921E+03  0.59935724921E+03  0.00000000000E+00 0.  1.
         23    2    1    2    0    0 -0.23173039645E+02  0.48297034416E+02  0.20300325037E+03  0.22855580313E+03  0.90320773808E+02 0.  0.
         24    2    1    2    0    0  0.46568677781E+02 -0.58921788998E+02 -0.34518949914E+03  0.36216327583E+03  0.79787399217E+02 0.  0.
        -11    1    4    4    0    0  0.60936234935E+02 -0.68525441548E+02 -0.30297754914E+03  0.31655071655E+03  0.00000000000E+00 0.  1.
         12    1    4    4    0    0 -0.14367557155E+02  0.96036525503E+01 -0.42211950003E+02  0.45612559279E+02  0.00000000000E+00 0. -1.
        -13    1    3    3    0    0 -0.38154930975E+02  0.66636150034E+02  0.17929905436E+03  0.19504954792E+03  0.00000000000E+00 0. -1.
         13    1    3    3    0    0  0.14981891330E+02 -0.18339115618E+02  0.23704196017E+02  0.33506255212E+02  0.00000000000E+00 0.  1.
         21    1    1    2  503  502 -0.26202803747E+02 -0.18152844042E+02 -0.20432037304E+03  0.20679199092E+03  0.00000000000E+00 0.  1.
          3    1    1    2  501    0  0.28071656114E+01  0.28777598623E+02 -0.19705997800E+02  0.34990808945E+02  0.00000000000E+00 0. -1.
<scales pt_clust_5="13000.00000" pt_clust_6="13000.00000" pt_clust_7="13000.00000" pt_clust_8="13000.00000" pt_clust_9="26.37720" pt_clust_10="28.91419"></scales>
<clustering>
<clus scale="   28.914">  2 10  1 -1</clus>
<clus scale="   26.377">  2  9  1 -1</clus>
<clus scale="   79.787">  5  6 -1 -1</clus>
<clus scale="   90.321">  7  8 -1 -1</clus>
<clus scale="   96.488">  2  5  1 -1</clus>
<clus scale="   28.914">  2  5  1 -1</clus>
</clustering>
</event>
<event>
10    4  0.3043429E-005  0.2160576E+03  0.7546771E-02  0.1163958E+00
          4   -1    0    0  502    0 -0.00000000000E+00  0.00000000000E+00  0.26721655877E+03  0.26721655877E+03  0.00000000000E+00 0. -1.
         21   -1    0    0  503  502  0.00000000000E+00 -0.00000000000E+00 -0.38822730543E+03  0.38822730543E+03  0.00000000000E+00 0. -1.
         24    2    1    2    0    0  0.55614350694E+02 -0.39749493129E+01 -0.85006488572E+02  0.12978805468E+03  0.80685065612E+02 0.  0.
         23    2    1    2    0    0 -0.13421562858E+03 -0.15668481634E+03  0.18236116022E+02  0.22670561804E+03  0.92189558501E+02 0.  0.
        -11    1    3    3    0    0  0.72222618139E+01  0.21610064254E+02 -0.69137064619E+02  0.72794846294E+02  0.00000000000E+00 0.  1.
         12    1    3    3    0    0  0.48392088881E+02 -0.25585013567E+02 -0.15869423952E+02  0.56993208385E+02  0.00000000000E+00 0. -1.
        -11    1    4    4    0    0 -0.22165781887E+02 -0.22376533843E+02 -0.31820827160E+02  0.44772717079E+02  0.00000000000E+00 0.  1.
         11    1    4    4    0    0 -0.11204984670E+03 -0.13430828250E+03  0.50056943182E+02  0.18193290096E+03  0.00000000000E+00 0. -1.
         21    1    1    2  503  501  0.68181575599E+02 -0.48569664789E+02 -0.25430503929E+02  0.87489714361E+02  0.00000000000E+00 0. -1.
          3    1    1    2  501    0  0.10419702289E+02  0.20922943044E+03 -0.28809870180E+02  0.21146047711E+03  0.00000000000E+00 0. -1.
<scales pt_clust_5="13000.00000" pt_clust_6="13000.00000" pt_clust_7="13000.00000" pt_clust_8="13000.00000" pt_clust_9="83.71224" pt_clust_10="195.40205"></scales>
<clustering>
<clus scale="   80.685">  5  6 -1 -1</clus>
<clus scale="   83.712">  2  9  1 -1</clus>
<clus scale="   92.190">  7  8 -1 -1</clus>
<clus scale="  113.724">  1  5  2 -1</clus>
<clus scale="  195.402">  2 10  1 -1</clus>
<clus scale="   83.712">  2  5  1 -1</clus>
</clustering>
</event>
<event>
10    4  0.3043429E-005  0.2837026E+03  0.7546771E-02  0.1142083E+00
          2   -1    0    0  503    0 -0.00000000000E+00  0.00000000000E+00  0.72791718267E+03  0.72791718267E+03  0.00000000000E+00 0. -1.
         21   -1    0    0  501  502  0.00000000000E+00 -0.00000000000E+00 -0.21840502516E+03  0.21840502516E+03  0.00000000000E+00 0.  1.
         24    2    1    2    0    0 -0.25332405104E+02  0.68917642414E+01  0.11088371724E+03  0.13918045591E+03  0.79917290966E+02 0.  0.
         23    2    1    2    0    0  0.76979117905E+02  0.29181132454E+03  0.25784796926E+03  0.40751907998E+03  0.92231185449E+02 0.  0.
        -11    1    3    3    0    0 -0.31159071279E+02  0.26742107399E+02  0.11114887550E+03  0.11849093027E+03  0.00000000000E+00 0.  1.
         12    1    3    3    0    0  0.58266661754E+01 -0.19850343157E+02 -0.26515826371E+00  0.20689525637E+02  0.00000000000E+00 0. -1.
        -11    1    4    4    0    0  0.49962362136E+02  0.27559471577E+03  0.20933480049E+03  0.34967090770E+03  0.00000000000E+00 0.  1.
         11    1    4    4    0    0  0.27016755769E+02  0.16216608769E+02  0.48513168769E+02  0.57848172281E+02  0.00000000000E+00 0. -1.
         21    1    1    2  503  502 -0.95950775451E+02 -0.53521376630E+02 -0.67358060994E+01  0.11007479344E+03  0.00000000000E+00 0.  1.
          1    1    1    2  501    0  0.44304062650E+02 -0.24518171215E+03  0.14751627711E+03  0.28954787852E+03  0.00000000000E+00 0. -1.
<scales pt_clust_5="13000.00000" pt_clust_6="13000.00000" pt_clust_7="13000.00000" pt_clust_8="13000.00000" pt_clust_9="111.48794" pt_clust_10="268.29198"></scales>
<clustering>
<clus scale="   79.917">  5  6 -1 -1</clus>
<clus scale="   84.119">  1  5  2 -1</clus>
<clus scale="   92.231">  7  8 -1 -1</clus>
<clus scale="  111.488">  2  9  1 -1</clus>
<clus scale="  268.292">  2 10  1 -1</clus>
<clus scale="  111.488">  2  5  1 -1</clus>
</clustering>
</event>
<event>
10    4  0.3043429E-005  0.1509131E+03  0.7546771E-02  0.1210809E+00
          2   -1    0    0  502    0 -0.00000000000E+00  0.00000000000E+00  0.13416719854E+04  0.13416719854E+04  0.00000000000E+00 0. -1.
         21   -1    0    0  503  502  0.00000000000E+00 -0.00000000000E+00 -0.12145584944E+03  0.12145584944E+03  0.00000000000E+00 0.  1.
         23    2    1    2    0    0  0.57991886972E+02  0.11122611029E+02  0.50571218293E+03  0.52362301016E+03  0.12226803906E+03 0.  0.
         24    2    1    2    0    0 -0.13779838953E+03 -0.10498709880E+03  0.36590153371E+03  0.41228173543E+03  0.77984677469E+02 0.  0.
        -13    1    4    4    0    0 -0.13941805863E+03 -0.11364373743E+03  0.33605554099E+03  0.38116350922E+03  0.00000000000E+00 0.  1.
         14    1    4    4    0    0  0.16196691009E+01  0.86566386377E+01  0.29845992721E+02  0.31118226203E+02  0.00000000000E+00 0. -1.
        -11    1    3    3    0    0 -0.37141750971E+01  0.57997174497E+02  0.20374021755E+03  0.21186680626E+03  0.00000000000E+00 0.  1.
         11    1    3    3    0    0  0.61706062069E+02 -0.46874563468E+02  0.30197196538E+03  0.31175620390E+03  0.00000000000E+00 0. -1.
         21    1    1    2  503  501 -0.16335211337E+02  0.46549275064E+02 -0.75281336229E+02  0.90005298304E+02  0.00000000000E+00 0.  1.
          1    1    1    2  501    0  0.96141713899E+02  0.47315212705E+02  0.42388375553E+03  0.43721779093E+03  0.00000000000E+00 0. -1.
<scales pt_clust_5="13000.00000" pt_clust_6="13000.00000" pt_clust_7="13000.00000" pt_clust_8="13000.00000" pt_clust_9="49.33228" pt_clust_10="108.49378"></scales>
<clustering>
<clus scale="   49.332">  2  9  1 -1</clus>
<clus scale="   77.985">  5  6 -1 -1</clus>
<clus scale="  108.494">  2 10  1 -1</clus>
<clus scale="  117.928">  2  5  1 -1</clus>
<clus scale="  122.268">  7  8 -1 -1</clus>
<clus scale="   49.332">  2  5  1 -1</clus>
</clustering>
</event>
<event>
10    4  0.3043429E-005  0.1279852E+03  0.7546771E-02  0.1236742E+00
         21   -1    0    0  501  502  0.00000000000E+00  0.00000000000E+00  0.12227074958E+03  0.12227074958E+03  0.00000000000E+00 0.  1.
          2   -1    0    0  503    0 -0.00000000000E+00 -0.00000000000E+00 -0.48078610985E+03  0.48078610985E+03  0.00000000000E+00 0. -1.
         24    2    1    2    0    0  0.95368049683E+02 -0.45230605798E+02 -0.21417078854E+03  0.25139403518E+03  0.78669953974E+02 0.  0.
         23    2    1    2    0    0  0.75531064218E+02  0.28520811780E+02 -0.65060603229E+02  0.13824414961E+03  0.91434044224E+02 0.  0.
        -11    1    3    3    0    0  0.16052843625E+02 -0.42712257783E+02 -0.42886144101E+02  0.62619901862E+02  0.00000000000E+00 0.  1.
         12    1    3    3    0    0  0.79315206059E+02 -0.25183480157E+01 -0.17128464444E+03  0.18877413332E+03  0.00000000000E+00 0. -1.
        -13    1    4    4    0    0 -0.55113338545E+01  0.36940229066E+02 -0.65152194340E+01  0.37913103389E+02  0.00000000000E+00 0.  1.
         13    1    4    4    0    0  0.81042398073E+02 -0.84194172861E+01 -0.58545383795E+02  0.10033104622E+03  0.00000000000E+00 0. -1.
         21    1    1    2  503  502 -0.10122810867E+03 -0.18450334846E+02 -0.10287038439E+01  0.10290093815E+03  0.00000000000E+00 0. -1.
          1    1    1    2  501    0 -0.69671005234E+02  0.35160128865E+02 -0.78255264661E+02  0.11051773649E+03  0.00000000000E+00 0. -1.
<scales pt_clust_5="13000.00000" pt_clust_6="13000.00000" pt_clust_7="13000.00000" pt_clust_8="13000.00000" pt_clust_9="100.95176" pt_clust_10="78.04031"></scales>
<clustering>
<clus scale="   78.040">  1 10  2 -1</clus>
<clus scale="   78.670">  5  6 -1 -1</clus>
<clus scale="   91.434">  7  8 -1 -1</clus>
<clus scale="  112.541">  1  7  2 -1</clus>
<clus scale="  100.952">  1  9  2 -1</clus>
<clus scale="   78.040">  1  5  2 -1</clus>
</clustering>
</event>
<event>
10    4  0.3043429E-005  0.1526043E+03  0.7546771E-02  0.1219562E+00
         21   -1    0    0  503  502  0.00000000000E+00  0.00000000000E+00  0.73710650637E+02  0.73710650637E+02  0.00000000000E+00 0.  1.
         -1   -1    0    0    0  501 -0.00000000000E+00 -0.00000000000E+00 -0.10478866420E+04  0.10478866420E+04  0.00000000000E+00 0.  1.
         23    2    1    2    0    0 -0.37071241820E+02 -0.33449491336E+02 -0.99639208425E+02  0.13754263298E+03  0.80603092941E+02 0.  0.
         24    2    1    2    0    0  0.15202687327E+03 -0.34084329611E+02 -0.43972646162E+03  0.47281628979E+03  0.76954344376E+02 0.  0.
        -11    1    4    4    0    0  0.81772242708E+02 -0.50715673370E+02 -0.19167164504E+03  0.21446864273E+03  0.00000000000E+00 0.  1.
         12    1    4    4    0    0  0.70254630559E+02  0.16631343759E+02 -0.24805481658E+03  0.25834764706E+03  0.00000000000E+00 0. -1.
        -13    1    3    3    0    0 -0.45528938427E+02 -0.55147204475E+02 -0.74106255589E+02  0.10298463727E+03  0.00000000000E+00 0. -1.
         13    1    3    3    0    0  0.84576966068E+01  0.21697713139E+02 -0.25532952837E+02  0.34557995716E+02  0.00000000000E+00 0.  1.
         21    1    1    2  503  501 -0.14254989666E+02  0.20269157880E+02  0.26749030536E+02  0.36463051520E+02  0.00000000000E+00 0.  1.
         -2    1    1    2    0  502 -0.10070064178E+03  0.47264663067E+02 -0.46155935190E+03  0.47477531840E+03  0.00000000000E+00 0.  1.
<scales pt_clust_5="13000.00000" pt_clust_6="13000.00000" pt_clust_7="13000.00000" pt_clust_8="13000.00000" pt_clust_9="24.77990" pt_clust_10="131.78057"></scales>
<clustering>
<clus scale="   24.780">  1  9  2 -1</clus>
<clus scale="   76.954">  5  6 -1 -1</clus>
<clus scale="   80.603">  7  8 -1 -1</clus>
<clus scale="   94.762">  2  7  1 -1</clus>
<clus scale="  131.781">  1 10  2 -1</clus>
<clus scale="   24.780">  1  5  2 -1</clus>
</clustering>
</event>
<event>
10    4  0.3043429E-005  0.1481425E+03  0.7546771E-02  0.1231026E+00
         21   -1    0    0  503  502  0.00000000000E+00  0.00000000000E+00  0.10558844291E+03  0.10558844291E+03  0.00000000000E+00 0. -1.
         -3   -1    0    0    0  501 -0.00000000000E+00 -0.00000000000E+00 -0.99533381049E+03  0.99533381049E+03  0.00000000000E+00 0.  1.
         24    2    1    2    0    0  0.72540774994E+01  0.51832623949E+01 -0.52691645978E+03  0.53322141875E+03  0.81268923809E+02 0.  0.
         23    2    1    2    0    0  0.93731805208E+02 -0.84081009570E+02 -0.27151707915E+03  0.31278221222E+03  0.90862096265E+02 0.  0.
        -13    1    3    3    0    0  0.30572007691E+02 -0.23873558924E+02 -0.17017186572E+03  0.17453669630E+03  0.00000000000E+00 0.  1.
         14    1    3    3    0    0 -0.23317930191E+02  0.29056821319E+02 -0.35674459405E+03  0.35868472245E+03  0.00000000000E+00 0. -1.
        -13    1    4    4    0    0  0.10184411326E+03 -0.42541827826E+02 -0.16873673405E+03  0.20162865853E+03  0.00000000000E+00 0. -1.
         13    1    4    4    0    0 -0.81123080524E+01 -0.41539181744E+02 -0.10278034510E+03  0.11115355370E+03  0.00000000000E+00 0.  1.
         21    1    1    2  503  501 -0.26250803991E+02 -0.12660012606E+01  0.61493008034E+02  0.66873743027E+02  0.00000000000E+00 0. -1.
         -4    1    1    2    0  502 -0.74735078717E+02  0.80163748436E+02 -0.15280483668E+03  0.18804487940E+03  0.00000000000E+00 0.  1.
<scales pt_clust_5="13000.00000" pt_clust_6="13000.00000" pt_clust_7="13000.00000" pt_clust_8="13000.00000" pt_clust_9="26.28131" pt_clust_10="117.00551"></scales>
<clustering>
<clus scale="   26.281">  1  9  2 -1</clus>
<clus scale="   81.269">  5  6 -1 -1</clus>
<clus scale="   81.597">  2  5  1 -1</clus>
<clus scale="   90.862">  7  8 -1 -1</clus>
<clus scale="  117.006">  1 10  2 -1</clus>
<clus scale="   26.281">  1  5  2 -1</clus>
</clustering>
</event>
<event>
10    4  0.3043429E-005  0.1755914E+03  0.7546771E-02  0.1206387E+00
         21   -1    0    0  503  502  0.00000000000E+00  0.00000000000E+00  0.29559265838E+03  0.29559265838E+03  0.00000000000E+00 0. -1.
          4   -1    0    0  502    0 -0.00000000000E+00 -0.00000000000E+00 -0.23523832012E+03  0.23523832012E+03  0.00000000000E+00 0. -1.
         24    2    1    2    0    0 -0.27865814734E+02  0.11575333966E+02 -0.90025478103E+02  0.12223775659E+03  0.76986949818E+02 0.  0.
         23    2    1    2    0    0  0.14141263102E+03  0.99722415285E+02  0.11096474170E+03  0.22433999510E+03  0.89850805086E+02 0.  0.
        -11    1    3    3    0    0 -0.39325217334E+02 -0.12555320975E+02 -0.17296459343E+02  0.44757974808E+02  0.00000000000E+00 0.  1.
         12    1    3    3    0    0  0.11459402600E+02  0.24130654941E+02 -0.72729018760E+02  0.77479781786E+02  0.00000000000E+00 0. -1.
        -11    1    4    4    0    0  0.93681544981E+02  0.10433194911E+03  0.10669620533E+03  0.17619724092E+03  0.00000000000E+00 0.  1.
         11    1    4    4    0    0  0.47731086042E+02 -0.46095338275E+01  0.42685363739E+01  0.48142754176E+02  0.00000000000E+00 0. -1.
         21    1    1    2  503  501  0.27499255213E+01 -0.43518331247E+02  0.20980635323E+02  0.48390022768E+02  0.00000000000E+00 0. -1.
          3    1    1    2  501    0 -0.11629674181E+03 -0.67779418004E+02  0.18434439332E+02  0.13586320405E+03  0.00000000000E+00 0. -1.
<scales pt_clust_5="13000.00000" pt_clust_6="13000.00000" pt_clust_7="13000.00000" pt_clust_8="13000.00000" pt_clust_9="43.60513" pt_clust_10="150.86154"></scales>
<clustering>
<clus scale="   43.605">  1  9  2 -1</clus>
<clus scale="   76.987">  5  6 -1 -1</clus>
<clus scale="   82.299">  2  5  1 -1</clus>
<clus scale="   89.851">  7  8 -1 -1</clus>
<clus scale="  150.862">  1 10  2 -1</clus>
<clus scale="   43.605">  1  5  2 -1</clus>
</clustering>
</event>
<event>
10    4  0.3043429E-005  0.9405118E+02  0.7546771E-02  0.1298814E+00
         21   -1    0    0  501  502  0.00000000000E+00  0.00000000000E+00  0.44974825485E+03  0.44974825485E+03  0.00000000000E+00 0.  1.
         -3   -1    0    0    0  501 -0.00000000000E+00 -0.00000000000E+00 -0.10379044414E+03  0.10379044414E+03  0.00000000000E+00 0.  1.
         23    2    1    2    0    0 -0.70710915096E+01  0.38621280792E+02 -0.49428699806E+02  0.10944651469E+03  0.89407715255E+02 0.  0.
         24    2    1    2    0    0 -0.13901496386E+02  0.49573884145E+00  0.76011457286E+02  0.11106650823E+03  0.79778006075E+02 0.  0.
        -13    1    4    4    0    0 -0.35625500649E+02  0.23685058708E+02  0.21282216660E+02  0.47781702026E+02  0.00000000000E+00 0.  1.
         14    1    4    4    0    0  0.21724004263E+02 -0.23189319867E+02  0.54729240626E+02  0.63284806207E+02  0.00000000000E+00 0. -1.
        -13    1    3    3    0    0 -0.24984315145E+02  0.58681547037E+02 -0.14575190174E+02  0.65423055069E+02  0.00000000000E+00 0.  1.
         13    1    3    3    0    0  0.17913223635E+02 -0.20060266246E+02 -0.34853509632E+02  0.44023459616E+02  0.00000000000E+00 0. -1.
         21    1    1    2  503  502 -0.21574800501E+02  0.38205560986E+01  0.17698621051E+03  0.17833728543E+03  0.00000000000E+00 0.  1.
         -4    1    1    2    0  503  0.42547388396E+02 -0.42937575732E+02  0.14238884272E+03  0.15468839065E+03  0.00000000000E+00 0.  1.
<scales pt_clust_5="13000.00000" pt_clust_6="13000.00000" pt_clust_7="13000.00000" pt_clust_8="13000.00000" pt_clust_9="21.91047" pt_clust_10="51.14309"></scales>
<clustering>
<clus scale="   21.910">  1  9  2 -1</clus>
<clus scale="   51.143">  1 10  2 -1</clus>
<clus scale="   79.778">  5  6 -1 -1</clus>
<clus scale="   84.949">  1  5  2 -1</clus>
<clus scale="   89.408">  7  8 -1 -1</clus>
<clus scale="   21.910">  1  5  2 -1</clus>
</clustering>
</event>
<event>
10    4  0.3043429E-005  0.1541694E+03  0.7546771E-02  0.1197639E+00
          2   -1    0    0  503    0 -0.00000000000E+00  0.00000000000E+00  0.10200922201E+04  0.10200922201E+04  0.00000000000E+00 0. -1.
         21   -1    0    0  501  502  0.00000000000E+00 -0.00000000000E+00 -0.13610459173E+03  0.13610459173E+03  0.00000000000E+00 0.  1.
         24    2    1    2    0    0 -0.99271019386E+02  0.38989886928E+02  0.38207282344E+03  0.40420295063E+03  0.77623683999E+02 0.  0.
         23    2    1    2    0    0  0.15279726190E+03 -0.12701258459E+02  0.49635457576E+03  0.52733071157E+03  0.90562074135E+02 0.  0.
        -11    1    3    3    0    0 -0.13724949259E+02  0.44116050487E+02  0.13612320759E+03  0.14375022709E+03  0.00000000000E+00 0.  1.
         12    1    3    3    0    0 -0.85546070127E+02 -0.51261635590E+01  0.24594961585E+03  0.26045272355E+03  0.00000000000E+00 0. -1.
        -11    1    4    4    0    0  0.10806663229E+03 -0.42713762612E+02  0.25793156443E+03  0.28289848790E+03  0.00000000000E+00 0.  1.
         11    1    4    4    0    0  0.44730629611E+02  0.30012504153E+02  0.23842301134E+03  0.24443222366E+03  0.00000000000E+00 0. -1.
         21    1    1    2  503  502 -0.22644864658E+02 -0.70887983094E+02 -0.88776656675E+02  0.11584123106E+03  0.00000000000E+00 0.  1.
          1    1    1    2  501    0 -0.30881377852E+02  0.44599354625E+02  0.94336885881E+02  0.10882191860E+03  0.00000000000E+00 0. -1.
<scales pt_clust_5="13000.00000" pt_clust_6="13000.00000" pt_clust_7="13000.00000" pt_clust_8="13000.00000" pt_clust_9="59.01758" pt_clust_10="54.24726"></scales>
<clustering>
<clus scale="   54.247">  2 10  1 -1</clus>
<clus scale="   59.018">  2  9  1 -1</clus>
<clus scale="   77.624">  5  6 -1 -1</clus>
<clus scale="   90.562">  7  8 -1 -1</clus>
<clus scale="  146.943">  1  5  2 -1</clus>
<clus scale="   54.247">  2  5  1 -1</clus>
</clustering>
</event>
<event>
10    4  0.3043429E-005  0.1038145E+03  0.7546771E-02  0.1276501E+00
         21   -1    0    0  503  502  0.00000000000E+00  0.00000000000E+00  0.51858280533E+02  0.51858280533E+02  0.00000000000E+00 0. -1.
         -1   -1    0    0    0  501 -0.00000000000E+00 -0.00000000000E+00 -0.61227243185E+03  0.61227243185E+03  0.00000000000E+00 0.  1.
         23    2    1    2    0    0 -0.42480292054E+02  0.37188838169E+02 -0.27039487502E+03  0.29008834773E+03  0.88601784153E+02 0.  0.
         24    2    1    2    0    0  0.62244571684E+02  0.73815256397E+01 -0.57099943292E+02  0.11616870324E+03  0.79409637088E+02 0.  0.
        -11    1    4    4    0    0  0.50043473079E+02  0.40119249088E+02 -0.47865961271E+02  0.80031578727E+02  0.00000000000E+00 0.  1.
         12    1    4    4    0    0  0.12201098605E+02 -0.32737723448E+02 -0.92339820213E+01  0.36137124508E+02  0.00000000000E+00 0. -1.
        -13    1    3    3    0    0 -0.51999188464E+01  0.41792528307E+02 -0.23408885126E+03  0.23784710396E+03  0.00000000000E+00 0. -1.
         13    1    3    3    0    0 -0.37280373208E+02 -0.46036901376E+01 -0.36306023760E+02  0.52241243770E+02  0.00000000000E+00 0.  1.
         21    1    1    2  503  501 -0.19334251439E+02  0.13440696503E+02 -0.69134595856E+01  0.24541017189E+02  0.00000000000E+00 0. -1.
         -2    1    1    2    0  502 -0.43002819059E+00 -0.58011060312E+02 -0.22600587342E+03  0.23333264423E+03  0.00000000000E+00 0.  1.
<scales pt_clust_5="13000.00000" pt_clust_6="13000.00000" pt_clust_7="13000.00000" pt_clust_8="13000.00000" pt_clust_9="23.54709" pt_clust_10="56.90506"></scales>
<clustering>
<clus scale="   23.547">  1  9  2 -1</clus>
<clus scale="   56.905">  1 10  2 -1</clus>
<clus scale="   79.410">  5  6 -1 -1</clus>
<clus scale="   88.602">  7  8 -1 -1</clus>
<clus scale="   96.089">  1  5  2 -1</clus>
<clus scale="   23.547">  1  5  2 -1</clus>
</clustering>
</event>
<event>
10    4  0.3043429E-005  0.1052999E+03  0.7546771E-02  0.1274546E+00
         -1   -1    0    0    0  501 -0.00000000000E+00  0.00000000000E+00  0.19304645527E+03  0.19304645527E+03  0.00000000000E+00 0.  1.
         21   -1    0    0  503  502  0.00000000000E+00 -0.00000000000E+00 -0.98163644825E+02  0.98163644825E+02  0.00000000000E+00 0.  1.
         24    2    1    2    0    0 -0.16490055417E+01  0.47021652824E+02  0.64480197240E+02  0.11351879512E+03  0.80715958496E+02 0.  0.
         23    2    1    2    0    0 -0.11383139932E+02 -0.57476183833E+02  0.39474367651E+02  0.11599935508E+03  0.92002918949E+02 0.  0.
        -11    1    3    3    0    0  0.25171147118E+02 -0.98313836514E+01  0.60428518768E+01  0.27690410082E+02  0.00000000000E+00 0.  1.
         12    1    3    3    0    0 -0.26820152659E+02  0.56853036475E+02  0.58437345364E+02  0.85828385038E+02  0.00000000000E+00 0. -1.
        -11    1    4    4    0    0 -0.34427681946E+02 -0.41964989650E+02  0.60410862568E+02  0.81214518140E+02  0.00000000000E+00 0.  1.
         11    1    4    4    0    0  0.23044542014E+02 -0.15511194183E+02 -0.20936494917E+02  0.34784836941E+02  0.00000000000E+00 0. -1.
         21    1    1    2  503  501 -0.21059440723E+02 -0.75305864840E+01 -0.15410921033E+01  0.22418401844E+02  0.00000000000E+00 0.  1.
         -2    1    1    2    0  502  0.34091586196E+02  0.17985117493E+02 -0.75306623467E+01  0.39273548044E+02  0.00000000000E+00 0.  1.
<scales pt_clust_5="13000.00000" pt_clust_6="13000.00000" pt_clust_7="13000.00000" pt_clust_8="13000.00000" pt_clust_9="22.36537" pt_clust_10="32.54427"></scales>
<clustering>
<clus scale="   22.365">  2  9  1 -1</clus>
<clus scale="   32.544">  2 10  1 -1</clus>
<clus scale="   80.716">  5  6 -1 -1</clus>
<clus scale="   92.003">  7  8 -1 -1</clus>
<clus scale="   95.596">  1  5  2 -1</clus>
<clus scale="   22.365">  2  5  1 -1</clus>
</clustering>
</event>
<event>
10    4  0.3043429E-005  0.1467793E+03  0.7546771E-02  0.1206431E+00
         21   -1    0    0  501  502  0.00000000000E+00  0.00000000000E+00  0.40020098377E+02  0.40020098377E+02  0.00000000000E+00 0.  1.
         -1   -1    0    0    0  501 -0.00000000000E+00 -0.00000000000E+00 -0.14432104893E+04  0.14432104893E+04  0.00000000000E+00 0.  1.
         23    2    1    2    0    0  0.98295710060E+01 -0.10611516059E+03 -0.53219586837E+03  0.55014306060E+03  0.89821473168E+02 0.  0.
         24    2    1    2    0    0 -0.11820133086E+03  0.89271535736E+02 -0.72961208848E+03  0.74874166482E+03  0.79619842239E+02 0.  0.
        -13    1    4    4    0    0 -0.12948171115E+03  0.78933049935E+02 -0.68479644567E+03  0.70138585094E+03  0.00000000000E+00 0.  1.
         14    1    4    4    0    0  0.11280380294E+02  0.10338485801E+02 -0.44815642804E+02  0.47355813880E+02  0.00000000000E+00 0. -1.
        -11    1    3    3    0    0 -0.38212129293E+02 -0.45378174982E+02 -0.28468339137E+03  0.29079886332E+03  0.00000000000E+00 0. -1.
         11    1    3    3    0    0  0.48041700299E+02 -0.60736985612E+02 -0.24751247700E+03  0.25934419727E+03  0.00000000000E+00 0.  1.
         21    1    1    2  503  502  0.23859775067E+02  0.12600440991E+02 -0.11500955995E+02  0.29331416063E+02  0.00000000000E+00 0.  1.
         -2    1    1    2    0  503  0.84511984787E+02  0.42431838664E+01 -0.12988147813E+03  0.15501444624E+03  0.00000000000E+00 0.  1.
<scales pt_clust_5="13000.00000" pt_clust_6="13000.00000" pt_clust_7="13000.00000" pt_clust_8="13000.00000" pt_clust_9="25.03973" pt_clust_10="118.29795"></scales>
<clustering>
<clus scale="   25.040">  9 10 -1 -1</clus>
<clus scale="   79.620">  5  6 -1 -1</clus>
<clus scale="   89.821">  7  8 -1 -1</clus>
<clus scale="  118.298">  1  9  2 -1</clus>
<clus scale="  140.768">  1  5  2 -1</clus>
<clus scale="  118.298">  1  5  2 -1</clus>
</clustering>
</event>
<event>
10    4  0.3043429E-005  0.1299524E+03  0.7546771E-02  0.1250483E+00
         21   -1    0    0  503  502  0.00000000000E+00  0.00000000000E+00  0.16579036608E+03  0.16579036608E+03  0.00000000000E+00 0.  1.
         -1   -1    0    0    0  501 -0.00000000000E+00 -0.00000000000E+00 -0.33431370848E+03  0.33431370848E+03  0.00000000000E+00 0.  1.
         23    2    1    2    0    0  0.93871341964E+02 -0.28195660205E+02 -0.12467935345E+03  0.18285756023E+03  0.91022645856E+02 0.  0.
         24    2    1    2    0    0  0.17478619102E+01 -0.76341478482E+01  0.25350445649E+00  0.81693133419E+02  0.81316471571E+02 0.  0.
        -11    1    4    4    0    0  0.10298975478E+01  0.21509412076E+02  0.32013499582E+02  0.38582115706E+02  0.00000000000E+00 0.  1.
         12    1    4    4    0    0  0.71796436237E+00 -0.29143559925E+02 -0.31759995126E+02  0.43111017714E+02  0.00000000000E+00 0. -1.
        -11    1    3    3    0    0  0.93270569998E+02  0.11299180777E+02 -0.81987194772E+02  0.12469551243E+03  0.00000000000E+00 0.  1.
         11    1    3    3    0    0  0.60077196654E+00 -0.39494840982E+02 -0.42692158678E+02  0.58162047795E+02  0.00000000000E+00 0. -1.
         21    1    1    2  503  501 -0.73726972291E+02  0.17673768509E+02  0.78833982008E+02  0.10937470117E+03  0.00000000000E+00 0.  1.
         -2    1    1    2    0  502 -0.21892231584E+02  0.18156039544E+02 -0.12293147542E+03  0.12617867975E+03  0.00000000000E+00 0.  1.
<scales pt_clust_5="13000.00000" pt_clust_6="13000.00000" pt_clust_7="13000.00000" pt_clust_8="13000.00000" pt_clust_9="92.74967" pt_clust_10="28.44139"></scales>
<clustering>
<clus scale="   28.441">  1 10  2 -1</clus>
<clus scale="   81.316">  5  6 -1 -1</clus>
<clus scale="   81.460">  1  5  2 -1</clus>
<clus scale="   91.023">  7  8 -1 -1</clus>
<clus scale="   92.750">  1  9  2 -1</clus>
<clus scale="   28.441">  1  5  2 -1</clus>
</clustering>
</event>
<event>
10    4  0.3043429E-005  0.1697862E+03  0.7546771E-02  0.1183145E+00
         21   -1    0    0  503  502  0.00000000000E+00  0.00000000000E+00  0.77475966493E+03  0.77475966493E+03  0.00000000000E+00 0.  1.
         -3   -1    0    0    0  501 -0.00000000000E+00 -0.00000000000E+00 -0.22143185351E+03  0.22143185351E+03  0.00000000000E+00 0.  1.
         23    2    1    2    0    0  0.53081035271E+02 -0.12984146892E+03  0.48508725215E+03  0.51286663235E+03  0.89700262134E+02 0.  0.
         24    2    1    2    0    0 -0.75203204734E+02 -0.11396959738E+03  0.82207485225E+02  0.17846119104E+03  0.80285334597E+02 0.  0.
        -11    1    4    4    0    0 -0.74359276334E+01 -0.83585213818E+02  0.48261782292E+02  0.96803825435E+02  0.00000000000E+00 0.  1.
         12    1    4    4    0    0 -0.67767277101E+02 -0.30384383562E+02  0.33945702933E+02  0.81657365606E+02  0.00000000000E+00 0. -1.
        -13    1    3    3    0    0  0.14778993379E+02 -0.12659936575E+03  0.39017363525E+03  0.41046471675E+03  0.00000000000E+00 0.  1.
         13    1    3    3    0    0  0.38302041892E+02 -0.32421031710E+01  0.94913616903E+02  0.10240191561E+03  0.00000000000E+00 0. -1.
         21    1    1    2  503  501 -0.60628926511E+01  0.25381055313E+02  0.65671754143E+02  0.70666370561E+02  0.00000000000E+00 0. -1.
         -4    1    1    2    0  502  0.28185062114E+02  0.21843001099E+03 -0.79638680100E+02  0.23419732448E+03  0.00000000000E+00 0.  1.
<scales pt_clust_5="13000.00000" pt_clust_6="13000.00000" pt_clust_7="13000.00000" pt_clust_8="13000.00000" pt_clust_9="26.09515" pt_clust_10="149.60494"></scales>
<clustering>
<clus scale="   26.095">  1  9  2 -1</clus>
<clus scale="   80.285">  5  6 -1 -1</clus>
<clus scale="   89.700">  7  8 -1 -1</clus>
<clus scale="  151.503">  2  7  1 -1</clus>
<clus scale="  149.605">  1 10  2 -1</clus>
<clus scale="   26.095">  1  5  2 -1</clus>
</clustering>
</event>
<event>
10    4  0.3043429E-005  0.1151605E+03  0.7546771E-02  0.1253523E+00
          2   -1    0    0  503    0 -0.00000000000E+00  0.00000000000E+00  0.67302608160E+03  0.67302608160E+03  0.00000000000E+00 0. -1.
         21   -1    0    0  501  502  0.00000000000E+00 -0.00000000000E+00 -0.13686920498E+03  0.13686920498E+03  0.00000000000E+00 0.  1.
         23    2    1    2    0    0  0.57148323195E+02 -0.82862250688E+02  0.62073667995E+02  0.14490948643E+03  0.83746854067E+02 0.  0.
         24    2    1    2    0    0 -0.72484210540E+02 -0.24722183787E+02 -0.52289446666E+02  0.12037689264E+03  0.76754562725E+02 0.  0.
        -11    1    4    4    0    0 -0.82031706803E+02 -0.17199513020E+00 -0.37940724795E+02  0.90381021798E+02  0.00000000000E+00 0.  1.
         12    1    4    4    0    0  0.95474962627E+01 -0.24550188657E+02 -0.14348721871E+02  0.29995870838E+02  0.00000000000E+00 0. -1.
        -13    1    3    3    0    0 -0.13118327073E+02 -0.35872600705E+02  0.44367982570E+02  0.58544443493E+02  0.00000000000E+00 0. -1.
         13    1    3    3    0    0  0.70266650268E+02 -0.46989649982E+02  0.17705685425E+02  0.86365042938E+02  0.00000000000E+00 0.  1.
         21    1    1    2  503  502  0.28024692828E+02  0.20711473421E+02  0.54858371515E+02  0.64990687522E+02  0.00000000000E+00 0.  1.
          1    1    1    2  501    0 -0.12688805482E+02  0.86872961054E+02  0.47151428378E+03  0.47961822000E+03  0.00000000000E+00 0. -1.
<scales pt_clust_5="13000.00000" pt_clust_6="13000.00000" pt_clust_7="13000.00000" pt_clust_8="13000.00000" pt_clust_9="34.84750" pt_clust_10="103.33533"></scales>
<clustering>
<clus scale="   34.848">  1  9  2 -1</clus>
<clus scale="   76.755">  5  6 -1 -1</clus>
<clus scale="   83.747">  7  8 -1 -1</clus>
<clus scale="  103.335">  2 10  1 -1</clus>
<clus scale="  110.180">  2  5  1 -1</clus>
<clus scale="  103.335">  2  5  1 -1</clus>
</clustering>
</event>
<event>
10    4  0.3043429E-005  0.1918873E+03  0.7546771E-02  0.1156853E+00
          4   -1    0    0  503    0 -0.00000000000E+00  0.00000000000E+00  0.10104655641E+04  0.10104655641E+04  0.00000000000E+00 0. -1.
         21   -1    0    0  501  502  0.00000000000E+00 -0.00000000000E+00 -0.73007765028E+02  0.73007765028E+02  0.00000000000E+00 0.  1.
         24    2    1    2    0    0  0.38347774379E+02 -0.16489377231E+03  0.70735845849E+03  0.73314756137E+03  0.92134955353E+02 0.  0.
         23    2    1    2    0    0 -0.27113140342E+02  0.16354683323E+03  0.20473347444E+03  0.27882616644E+03  0.91353962668E+02 0.  0.
        -13    1    3    3    0    0  0.26774489738E+02 -0.13472345198E+03  0.37755670517E+03  0.40176653349E+03  0.00000000000E+00 0.  1.
         14    1    3    3    0    0  0.11573284641E+02 -0.30170320339E+02  0.32980175332E+03  0.33138102788E+03  0.00000000000E+00 0. -1.
        -13    1    4    4    0    0 -0.35152290473E+02  0.11682052841E+02  0.44808562095E+02  0.58137433046E+02  0.00000000000E+00 0.  1.
         13    1    4    4    0    0  0.80391501307E+01  0.15186478039E+03  0.15992491234E+03  0.22068873339E+03  0.00000000000E+00 0. -1.
         21    1    1    2  503  502 -0.25625804581E+02 -0.16376099226E+02 -0.76501883545E+01  0.31358951962E+02  0.00000000000E+00 0.  1.
          3    1    1    2  501    0  0.14391170545E+02  0.17723038305E+02  0.33016054514E+02  0.40140649373E+02  0.00000000000E+00 0. -1.
<scales pt_clust_5="13000.00000" pt_clust_6="13000.00000" pt_clust_7="13000.00000" pt_clust_8="13000.00000" pt_clust_9="24.40874" pt_clust_10="22.83007"></scales>
<clustering>
<clus scale="   22.830">  2 10  1 -1</clus>
<clus scale="   24.409">  2  9  1 -1</clus>
<clus scale="   91.354">  7  8 -1 -1</clus>
<clus scale="   92.135">  5  6 -1 -1</clus>
<clus scale="  191.514">  2  7  1 -1</clus>
<clus scale="   22.830">  2  5  1 -1</clus>
</clustering>
</event>
<event>
10    4  0.3043429E-005  0.2216872E+03  0.7546771E-02  0.1160454E+00
         21   -1    0    0  503  502  0.00000000000E+00  0.00000000000E+00  0.98264685872E+03  0.98264685872E+03  0.00000000000E+00 0.  1.
         -1   -1    0    0    0  501 -0.00000000000E+00 -0.00000000000E+00 -0.70953833061E+03  0.70953833061E+03  0.00000000000E+00 0.  1.
         23    2    1    2    0    0  0.73493041116E+02  0.10435425061E+02 -0.59858261653E+02  0.12892828810E+03  0.86771924007E+02 0.  0.
         24    2    1    2    0    0 -0.14355556206E+03  0.16009180019E+03 -0.82765091481E+02  0.24393296238E+03  0.80097727065E+02 0.  0.
        -11    1    4    4    0    0 -0.10834214586E+03  0.13970188466E+03 -0.95962900370E+02  0.20115545082E+03  0.00000000000E+00 0.  1.
         12    1    4    4    0    0 -0.35213416196E+02  0.20389915525E+02  0.13197808889E+02  0.42777511554E+02  0.00000000000E+00 0. -1.
        -13    1    3    3    0    0  0.91972659619E+01  0.39323564783E+02 -0.37150680430E+02  0.54873541027E+02  0.00000000000E+00 0. -1.
         13    1    3    3    0    0  0.64295775154E+02 -0.28888139722E+02 -0.22707581223E+02  0.74054747074E+02  0.00000000000E+00 0.  1.
         21    1    1    2  503  501 -0.93695856083E+02 -0.10313305906E+03  0.84424277377E+03  0.85566418786E+03  0.00000000000E+00 0.  1.
         -2    1    1    2    0  502  0.16375837702E+03 -0.67394166186E+02 -0.42851089253E+03  0.46365975100E+03  0.00000000000E+00 0.  1.
<scales pt_clust_5="13000.00000" pt_clust_6="13000.00000" pt_clust_7="13000.00000" pt_clust_8="13000.00000" pt_clust_9="138.80915" pt_clust_10="206.71140"></scales>
<clustering>
<clus scale="   80.098">  5  6 -1 -1</clus>
<clus scale="   86.772">  7  8 -1 -1</clus>
<clus scale="  114.191">  2  7  1 -1</clus>
<clus scale="  138.809">  1  9  2 -1</clus>
<clus scale="  206.711">  1 10  2 -1</clus>
<clus scale="  138.809">  1  5  2 -1</clus>
</clustering>
</event>
<event>
10    4  0.3043429E-005  0.1100288E+03  0.7546771E-02  0.1262335E+00
          2   -1    0    0  503    0 -0.00000000000E+00  0.00000000000E+00  0.26745359195E+03  0.26745359195E+03  0.00000000000E+00 0. -1.
         21   -1    0    0  501  502  0.00000000000E+00 -0.00000000000E+00 -0.33016894679E+03  0.33016894679E+03  0.00000000000E+00 0.  1.
         24    2    1    2    0    0  0.47816158303E+02  0.31319686392E+02  0.14441294777E+03  0.17658899563E+03  0.84031340246E+02 0.  0.
         23    2    1    2    0    0 -0.54856277701E+02 -0.14094124244E+03 -0.77086852265E+02  0.19160033003E+03  0.88851891657E+02 0.  0.
        -13    1    3    3    0    0  0.19215893969E+01  0.51453814988E+02  0.71299482649E+02  0.87947733391E+02  0.00000000000E+00 0.  1.
         14    1    3    3    0    0  0.45894568906E+02 -0.20134128596E+02  0.73113465123E+02  0.88641262241E+02  0.00000000000E+00 0. -1.
        -11    1    4    4    0    0 -0.35699210179E+02 -0.50668086138E+02  0.12225452900E+02  0.63175551116E+02  0.00000000000E+00 0. -1.
         11    1    4    4    0    0 -0.19157067522E+02 -0.90273156305E+02 -0.89312305164E+02  0.12842477891E+03  0.00000000000E+00 0.  1.
         21    1    1    2  503  502 -0.10525175802E+02  0.88340827690E+02 -0.16345554171E+03  0.18609834840E+03  0.00000000000E+00 0.  1.
          1    1    1    2  501    0  0.17565295200E+02  0.21280728360E+02  0.33414091359E+02  0.43334864675E+02  0.00000000000E+00 0. -1.
<scales pt_clust_5="13000.00000" pt_clust_6="13000.00000" pt_clust_7="13000.00000" pt_clust_8="13000.00000" pt_clust_9="99.78364" pt_clust_10="27.59365"></scales>
<clustering>
<clus scale="   27.594">  2 10  1 -1</clus>
<clus scale="   84.031">  5  6 -1 -1</clus>
<clus scale="   88.852">  7  8 -1 -1</clus>
<clus scale="   99.784">  2  9  1 -1</clus>
<clus scale="  106.174">  1  5  2 -1</clus>
<clus scale="   27.594">  2  5  1 -1</clus>
</clustering>
</event>
<event>
10    4  0.3043429E-005  0.1503998E+03  0.7546771E-02  0.1203060E+00
         21   -1    0    0  501  502  0.00000000000E+00  0.00000000000E+00  0.53985215360E+02  0.53985215360E+02  0.00000000000E+00 0. -1.
          2   -1    0    0  503    0 -0.00000000000E+00 -0.00000000000E+00 -0.67877302971E+03  0.67877302971E+03  0.00000000000E+00 0. -1.
         24    2    1    2    0    0 -0.83035474453E+02  0.10246202531E+03 -0.36479451292E+03  0.39606139048E+03  0.79976444782E+02 0.  0.
         23    2    1    2    0    0  0.73589910829E+02 -0.56719441223E+02 -0.16354067586E+03  0.21118273041E+03  0.96020950696E+02 0.  0.
        -13    1    3    3    0    0  0.20463861300E+01  0.45544783914E+02 -0.65974126847E+02  0.80194142250E+02  0.00000000000E+00 0.  1.
         14    1    3    3    0    0 -0.85081860583E+02  0.56917241395E+02 -0.29882038608E+03  0.31586724823E+03  0.00000000000E+00 0. -1.
        -11    1    4    4    0    0  0.67363043625E+02 -0.14809770241E+02 -0.38133870732E+02  0.78811807732E+02  0.00000000000E+00 0. -1.
         11    1    4    4    0    0  0.62268672033E+01 -0.41909670982E+02 -0.12540680513E+03  0.13237092267E+03  0.00000000000E+00 0.  1.
         21    1    1    2  503  502 -0.84053531986E+01 -0.31540421511E+02 -0.72442727922E+01  0.33435424923E+02  0.00000000000E+00 0. -1.
          1    1    1    2  501    0  0.17850916823E+02 -0.14202162575E+02 -0.89208352778E+02  0.92078699266E+02  0.00000000000E+00 0. -1.
<scales pt_clust_5="13000.00000" pt_clust_6="13000.00000" pt_clust_7="13000.00000" pt_clust_8="13000.00000" pt_clust_9="35.30208" pt_clust_10="22.81134"></scales>
<clustering>
<clus scale="   22.811">  1 10  2 -1</clus>
<clus scale="   35.302">  1  9  2 -1</clus>
<clus scale="   79.976">  5  6 -1 -1</clus>
<clus scale="   96.021">  7  8 -1 -1</clus>
<clus scale="  140.699">  2  5  1 -1</clus>
<clus scale="   22.811">  1  5  2 -1</clus>
</clustering>
</event>
<event>
10    4  0.3043429E-005  0.1947169E+03  0.7546771E-02  0.1179900E+00
          2   -1    0    0  503    0 -0.00000000000E+00  0.00000000000E+00  0.13631204208E+04  0.13631204208E+04  0.00000000000E+00 0. -1.
         21   -1    0    0  501  502  0.00000000000E+00 -0.00000000000E+00 -0.62892988745E+02  0.62892988745E+02  0.00000000000E+00 0. -1.
         23    2    1    2    0    0  0.48331691511E+02 -0.49734333902E+02  0.20192529349E+03  0.23177049711E+03  0.90190258921E+02 0.  0.
         24    2    1    2    0    0 -0.73003892180E+02 -0.15068672410E+03  0.48106492602E+03  0.51587860637E+03  0.81677514473E+02 0.  0.
        -11    1    4    4    0    0 -0.34756361516E+02 -0.47438132252E+02  0.75884129536E+02  0.96004073730E+02  0.00000000000E+00 0.  1.
         12    1    4    4    0    0 -0.38247530664E+02 -0.10324859185E+03  0.40518079648E+03  0.41987453264E+03  0.00000000000E+00 0. -1.
        -13    1    3    3    0    0  0.43429891235E+01 -0.56445768942E+02  0.16334252021E+03  0.17287499904E+03  0.00000000000E+00 0.  1.
         13    1    3    3    0    0  0.43988702388E+02  0.67114350400E+01  0.38582773287E+02  0.58895498067E+02  0.00000000000E+00 0. -1.
         21    1    1    2  503  502 -0.27858540166E+02  0.16505807851E+02  0.22105095052E+00  0.32381921137E+02  0.00000000000E+00 0. -1.
          1    1    1    2  501    0  0.52530740834E+02  0.18391525016E+03  0.61701616156E+03  0.64598238490E+03  0.00000000000E+00 0. -1.
<scales pt_clust_5="13000.00000" pt_clust_6="13000.00000" pt_clust_7="13000.00000" pt_clust_8="13000.00000" pt_clust_9="32.38117" pt_clust_10="176.75828"></scales>
<clustering>
<clus scale="   32.381">  2  9  1 -1</clus>
<clus scale="   81.678">  5  6 -1 -1</clus>
<clus scale="   90.190">  7  8 -1 -1</clus>
<clus scale="  108.021">  1  7  2 -1</clus>
<clus scale="  176.758">  2 10  1 -1</clus>
<clus scale="   32.381">  2  5  1 -1</clus>
</clustering>
</event>
<event>
10    4  0.3043429E-005  0.3716097E+03  0.7546771E-02  0.1095145E+00
          2   -1    0    0  502    0 -0.00000000000E+00  0.00000000000E+00  0.13988207269E+04  0.13988207269E+04  0.00000000000E+00 0. -1.
         21   -1    0    0  503  502  0.00000000000E+00 -0.00000000000E+00 -0.14585491075E+03  0.14585491075E+03  0.00000000000E+00 0. -1.
         24    2    1    2    0    0 -0.25341249652E+02  0.87879570552E+02  0.43900441594E+02  0.12918020547E+03  0.79970487416E+02 0.  0.
         23    2    1    2    0    0  0.33571254377E+03 -0.14792939621E+03  0.69888477942E+03  0.79461141337E+03  0.91549686167E+02 0.  0.
        -13    1    3    3    0    0 -0.16822070863E+02  0.36864210431E+02  0.62269848874E+02  0.74293244361E+02  0.00000000000E+00 0.  1.
         14    1    3    3    0    0 -0.85191787888E+01  0.51015360121E+02 -0.18369407280E+02  0.54886961104E+02  0.00000000000E+00 0. -1.
        -11    1    4    4    0    0  0.65742488806E+02 -0.49270636616E+02  0.93568546594E+02  0.12451804439E+03  0.00000000000E+00 0.  1.
         11    1    4    4    0    0  0.26997005496E+03 -0.98658759596E+02  0.60531623283E+03  0.67009336898E+03  0.00000000000E+00 0. -1.
         21    1    1    2  503  501 -0.20063906131E+03  0.11479790241E+03  0.32772657880E+03  0.40104775498E+03  0.00000000000E+00 0. -1.
          1    1    1    2  501    0 -0.10973223281E+03 -0.54748076747E+02  0.18245401638E+03  0.21983626388E+03  0.00000000000E+00 0. -1.
<scales pt_clust_5="13000.00000" pt_clust_6="13000.00000" pt_clust_7="13000.00000" pt_clust_8="13000.00000" pt_clust_9="115.79859" pt_clust_10="115.79859"></scales>
<clustering>
<clus scale="   79.970">  5  6 -1 -1</clus>
<clus scale="   91.550">  7  8 -1 -1</clus>
<clus scale="  115.799">  9 10 -1 -1</clus>
<clus scale="  121.492">  1  5  2 -1</clus>
<clus scale="  348.136">  1  7  2 -1</clus>
<clus scale="  371.610">  2  5  1 -1</clus>
</clustering>
</event>
<event>
10    4  0.3043429E-005  0.9407127E+02  0.7546771E-02  0.1297239E+00
         21   -1    0    0  503  502  0.00000000000E+00  0.00000000000E+00  0.18154693412E+03  0.18154693412E+03  0.00000000000E+00 0.  1.
         -1   -1    0    0    0  501 -0.00000000000E+00 -0.00000000000E+00 -0.17744911507E+03  0.17744911507E+03  0.00000000000E+00 0.  1.
         24    2    1    2    0    0 -0.90417530024E+01  0.24085896313E+02 -0.11859709414E+03  0.14735047063E+03  0.83576352857E+02 0.  0.
         23    2    1    2    0    0  0.24521009271E+02 -0.16304334422E+02  0.62447663875E+02  0.11384968794E+03  0.90525849920E+02 0.  0.
        -13    1    3    3    0    0 -0.95957349274E+01  0.55052281701E+02 -0.84286105806E+02  0.10112852951E+03  0.00000000000E+00 0.  1.
         14    1    3    3    0    0  0.55398192501E+00 -0.30966385388E+02 -0.34310988335E+02  0.46221941116E+02  0.00000000000E+00 0. -1.
        -11    1    4    4    0    0  0.26686699626E+02 -0.42171305285E+02  0.70764649388E+02  0.86592346829E+02  0.00000000000E+00 0.  1.
         11    1    4    4    0    0 -0.21656903552E+01  0.25866970863E+02 -0.83169855132E+01  0.27257341110E+02  0.00000000000E+00 0. -1.
         21    1    1    2  503  501 -0.50653339101E+01 -0.37635958713E+02  0.53263859582E+02  0.65415301983E+02  0.00000000000E+00 0.  1.
         -2    1    1    2    0  502 -0.10413922358E+02  0.29854396823E+02  0.69833897336E+01  0.32380588640E+02  0.00000000000E+00 0.  1.
<scales pt_clust_5="13000.00000" pt_clust_6="13000.00000" pt_clust_7="13000.00000" pt_clust_8="13000.00000" pt_clust_9="28.13072" pt_clust_10="31.61858"></scales>
<clustering>
<clus scale="   31.619">  1 10  2 -1</clus>
<clus scale="   28.131">  1  9  2 -1</clus>
<clus scale="   83.576">  5  6 -1 -1</clus>
<clus scale="   87.404">  2  5  1 -1</clus>
<clus scale="   90.526">  7  8 -1 -1</clus>
<clus scale="   31.619">  1  5  2 -1</clus>
</clustering>
</event>
<event>
10    4  0.3043429E-005  0.2611477E+03  0.7546771E-02  0.1153294E+00
         21   -1    0    0  503  502  0.00000000000E+00  0.00000000000E+00  0.25811267580E+03  0.25811267580E+03  0.00000000000E+00 0.  1.
         -1   -1    0    0    0  501 -0.00000000000E+00 -0.00000000000E+00 -0.58059417501E+03  0.58059417501E+03  0.00000000000E+00 0.  1.
         24    2    1    2    0    0  0.35431219332E+00  0.30068106766E+02 -0.51616864761E+02  0.97340365272E+02  0.76854599094E+02 0.  0.
         23    2    1    2    0    0  0.22606245394E+03  0.12130494726E+02 -0.11474222171E+03  0.27059169281E+03  0.93822730686E+02 0.  0.
        -13    1    3    3    0    0  0.69893194006E+01  0.28509214553E+02 -0.70981417754E+02  0.76811376543E+02  0.00000000000E+00 0.  1.
         14    1    3    3    0    0 -0.66350072073E+01  0.15588922132E+01  0.19364552994E+02  0.20528988729E+02  0.00000000000E+00 0. -1.
        -11    1    4    4    0    0  0.64750583852E+02  0.78554014237E+01  0.10833693218E+02  0.66118940928E+02  0.00000000000E+00 0. -1.
         11    1    4    4    0    0  0.16131187009E+03  0.42750933021E+01 -0.12557591492E+03  0.20447275189E+03  0.00000000000E+00 0.  1.
         21    1    1    2  503  501 -0.27085231363E+03 -0.40957437914E+02  0.33535804660E+02  0.27597669777E+03  0.00000000000E+00 0.  1.
         -2    1    1    2    0  502  0.44435547490E+02 -0.12411635776E+01 -0.18965821741E+03  0.19479809495E+03  0.00000000000E+00 0.  1.
<scales pt_clust_5="13000.00000" pt_clust_6="13000.00000" pt_clust_7="13000.00000" pt_clust_8="13000.00000" pt_clust_9="243.71173" pt_clust_10="44.45290"></scales>
<clustering>
<clus scale="   44.453">  1 10  2 -1</clus>
<clus scale="   76.855">  5  6 -1 -1</clus>
<clus scale="   82.600">  2  5  1 -1</clus>
<clus scale="   93.823">  7  8 -1 -1</clus>
<clus scale="  243.712">  1  9  2 -1</clus>
<clus scale="   44.453">  1  5  2 -1</clus>
</clustering>
</event>
<event>
10    4  0.3043429E-005  0.2024768E+03  0.7546771E-02  0.1149587E+00
         -1   -1    0    0    0  501 -0.00000000000E+00  0.00000000000E+00  0.13672276423E+03  0.13672276423E+03  0.00000000000E+00 0.  1.
         21   -1    0    0  501  502  0.00000000000E+00 -0.00000000000E+00 -0.74997619535E+03  0.74997619535E+03  0.00000000000E+00 0. -1.
         23    2    1    2    0    0  0.12361197683E+03  0.12015212634E+03 -0.46545892416E+02  0.20537446876E+03  0.10146771919E+03 0.  0.
         24    2    1    2    0    0 -0.17022731959E+03 -0.90834039286E+02 -0.50133686034E+03  0.54340258759E+03  0.81972932354E+02 0.  0.
        -11    1    4    4    0    0 -0.38601187094E+02 -0.13689602308E+02 -0.39045083274E+02  0.56585999897E+02  0.00000000000E+00 0.  1.
         12    1    4    4    0    0 -0.13162613249E+03 -0.77144436978E+02 -0.46229177707E+03  0.48681658770E+03  0.00000000000E+00 0. -1.
        -11    1    3    3    0    0  0.99841829882E+02  0.68954454286E+02  0.14533952380E+02  0.12220615178E+03  0.00000000000E+00 0.  1.
         11    1    3    3    0    0  0.23770146946E+02  0.51197672058E+02 -0.61079844796E+02  0.83168316986E+02  0.00000000000E+00 0. -1.
         21    1    1    2  503  502  0.22596020274E+02 -0.45844862505E+01 -0.91691590679E+02  0.94545996466E+02  0.00000000000E+00 0.  1.
         -2    1    1    2    0  503  0.24019322484E+02 -0.24733600808E+02  0.26320912322E+02  0.43375906757E+02  0.00000000000E+00 0.  1.
<scales pt_clust_5="13000.00000" pt_clust_6="13000.00000" pt_clust_7="13000.00000" pt_clust_8="13000.00000" pt_clust_9="23.05640" pt_clust_10="34.72471"></scales>
<clustering>
<clus scale="   23.056">  2  9  1 -1</clus>
<clus scale="   34.725">  2 10  1 -1</clus>
<clus scale="   81.973">  5  6 -1 -1</clus>
<clus scale="  101.468">  7  8 -1 -1</clus>
<clus scale="  193.444">  2  5  1 -1</clus>
<clus scale="   23.056">  2  5  1 -1</clus>
</clustering>
</event>
<event>
10    4  0.3043429E-005  0.1719636E+03  0.7546771E-02  0.1177308E+00
          2   -1    0    0  503    0 -0.00000000000E+00  0.00000000000E+00  0.10012127241E+04  0.10012127241E+04  0.00000000000E+00 0. -1.
         21   -1    0    0  501  502  0.00000000000E+00 -0.00000000000E+00 -0.48459753095E+03  0.48459753095E+03  0.00000000000E+00 0.  1.
         24    2    1    2    0    0  0.79945112251E+02 -0.12472995952E+03  0.89276085401E+03  0.90826628384E+03  0.77310517687E+02 0.  0.
         23    2    1    2    0    0 -0.10326151771E+03  0.93142838688E+02 -0.35848437714E+02  0.16891109096E+03  0.88923094430E+02 0.  0.
        -11    1    3    3    0    0  0.95009934239E+02 -0.10244490603E+03  0.72122815411E+03  0.73463725515E+03  0.00000000000E+00 0.  1.
         12    1    3    3    0    0 -0.15064821988E+02 -0.22285053485E+02  0.17153269990E+03  0.17362902869E+03  0.00000000000E+00 0. -1.
        -11    1    4    4    0    0 -0.41615163444E+02  0.63232614061E+02 -0.59649634352E+02  0.96375641050E+02  0.00000000000E+00 0.  1.
         11    1    4    4    0    0 -0.61646354271E+02  0.29910224626E+02  0.23801196638E+02  0.72535449909E+02  0.00000000000E+00 0. -1.
         21    1    1    2  503  502  0.75868286267E+02  0.14280894079E+02 -0.34459610936E+03  0.35313796084E+03  0.00000000000E+00 0.  1.
          1    1    1    2  501    0 -0.52551880803E+02  0.17306226750E+02  0.42988862496E+01  0.55494919437E+02  0.00000000000E+00 0. -1.
<scales pt_clust_5="13000.00000" pt_clust_6="13000.00000" pt_clust_7="13000.00000" pt_clust_8="13000.00000" pt_clust_9="45.20307" pt_clust_10="55.32816"></scales>
<clustering>
<clus scale="   55.328">  2 10  1 -1</clus>
<clus scale="   45.203">  2  9  1 -1</clus>
<clus scale="   77.311">  5  6 -1 -1</clus>
<clus scale="   88.923">  7  8 -1 -1</clus>
<clus scale="  166.256">  1  5  2 -1</clus>
<clus scale="   55.328">  2  5  1 -1</clus>
</clustering>
</event>
<event>
10    4  0.3043429E-005  0.3136081E+03  0.7546771E-02  0.1078629E+00
          4   -1    0    0  503    0 -0.00000000000E+00  0.00000000000E+00  0.84250831819E+02  0.84250831819E+02  0.00000000000E+00 0. -1.
         21   -1    0    0  501  502  0.00000000000E+00 -0.00000000000E+00 -0.10363012051E+04  0.10363012051E+04  0.00000000000E+00 0.  1.
         24    2    1    2    0    0 -0.13737212187E+03  0.72600132726E+02 -0.23492882777E+03  0.29269846721E+03  0.79617582567E+02 0.  0.
         23    2    1    2    0    0 -0.73306091509E+02  0.39408369330E+02 -0.33560948452E+03  0.35763560157E+03  0.91338353308E+02 0.  0.
        -13    1    3    3    0    0 -0.44447594430E+02 -0.13020233915E+02 -0.44985637688E+02  0.64566421149E+02  0.00000000000E+00 0.  1.
         14    1    3    3    0    0 -0.92924527436E+02  0.85620366640E+02 -0.18994319008E+03  0.22813204606E+03  0.00000000000E+00 0. -1.
        -11    1    4    4    0    0 -0.13337897832E+02 -0.25027663726E+02 -0.14411680614E+03  0.14688069064E+03  0.00000000000E+00 0. -1.
         11    1    4    4    0    0 -0.59968193677E+02  0.64436033056E+02 -0.19149267838E+03  0.21075491093E+03  0.00000000000E+00 0.  1.
         21    1    1    2  503  502 -0.17007112848E+02 -0.26028226304E+02 -0.35599335805E+02  0.47265454210E+02  0.00000000000E+00 0.  1.
          3    1    1    2  501    0  0.22768532622E+03 -0.85980275751E+02 -0.34591272523E+03  0.42295251396E+03  0.00000000000E+00 0. -1.
<scales pt_clust_5="13000.00000" pt_clust_6="13000.00000" pt_clust_7="13000.00000" pt_clust_8="13000.00000" pt_clust_9="31.09197" pt_clust_10="240.54292"></scales>
<clustering>
<clus scale="   31.092">  1  9  2 -1</clus>
<clus scale="   79.618">  5  6 -1 -1</clus>
<clus scale="   91.338">  7  8 -1 -1</clus>
<clus scale="  115.946">  5  7 -1 -1</clus>
<clus scale="  240.543">  2 10  1 -1</clus>
<clus scale="  240.543">  2  5  1 -1</clus>
</clustering>
</event>
<event>
10    4  0.3043429E-005  0.1695839E+03  0.7546771E-02  0.1212076E+00
         21   -1    0    0  501  502  0.00000000000E+00  0.00000000000E+00  0.37679928662E+03  0.37679928662E+03  0.00000000000E+00 0. -1.
          2   -1    0    0  503    0 -0.00000000000E+00 -0.00000000000E+00 -0.16774747107E+03  0.16774747107E+03  0.00000000000E+00 0. -1.
         24    2    1    2    0    0 -0.11203750697E+02 -0.10739758999E+02 -0.28999202530E+00  0.82038135255E+02  0.80556223147E+02 0.  0.
         23    2    1    2    0    0 -0.14859270598E+03  0.43388899357E+02  0.11133545320E+03  0.21120656947E+03  0.90830848225E+02 0.  0.
        -13    1    3    3    0    0  0.12026815542E+02 -0.34601740601E+02  0.21275998350E+02  0.42362635075E+02  0.00000000000E+00 0.  1.
         14    1    3    3    0    0 -0.23230566239E+02  0.23861981602E+02 -0.21565990375E+02  0.39675500181E+02  0.00000000000E+00 0. -1.
        -13    1    4    4    0    0 -0.62555759382E+02  0.43209052068E+02  0.75583209400E+01  0.76402705632E+02  0.00000000000E+00 0. -1.
         13    1    4    4    0    0 -0.86036946599E+02  0.17984728860E+00  0.10377713226E+03  0.13480386384E+03  0.00000000000E+00 0.  1.
         21    1    1    2  503  502  0.38414793202E+02  0.38376498863E+02  0.96419948662E+02  0.11065829613E+03  0.00000000000E+00 0. -1.
          1    1    1    2  501    0  0.12138166348E+03 -0.71025639221E+02  0.15864057188E+01  0.14064375684E+03  0.00000000000E+00 0. -1.
<scales pt_clust_5="13000.00000" pt_clust_6="13000.00000" pt_clust_7="13000.00000" pt_clust_8="13000.00000" pt_clust_9="54.29965" pt_clust_10="143.20776"></scales>
<clustering>
<clus scale="   54.300">  1  9  2 -1</clus>
<clus scale="   80.556">  5  6 -1 -1</clus>
<clus scale="   80.896">  2  5  1 -1</clus>
<clus scale="   90.831">  7  8 -1 -1</clus>
<clus scale="  143.208">  1 10  2 -1</clus>
<clus scale="   54.300">  1  5  2 -1</clus>
</clustering>
</event>
<event>
10    4  0.3043429E-005  0.5648397E+03  0.7546771E-02  0.9981163E-01
         21   -1    0    0  503  502  0.00000000000E+00  0.00000000000E+00  0.12715788130E+03  0.12715788130E+03  0.00000000000E+00 0. -1.
          2   -1    0    0  502    0 -0.00000000000E+00 -0.00000000000E+00 -0.35090889605E+04  0.35090889605E+04  0.00000000000E+00 0. -1.
         24    2    1    2    0    0  0.31399809815E+03  0.27331791971E+03 -0.22404638249E+04  0.22803074689E+04  0.82622703231E+02 0.  0.
         23    2    1    2    0    0  0.18273133611E+02  0.10017091185E+03 -0.57826979391E+03  0.59446262930E+03  0.92853347263E+02 0.  0.
        -11    1    3    3    0    0  0.69296589365E+02  0.22773147551E+02 -0.32429359239E+03  0.33239579963E+03  0.00000000000E+00 0.  1.
         12    1    3    3    0    0  0.24470150879E+03  0.25054477216E+03 -0.19161702325E+04  0.19479116692E+04  0.00000000000E+00 0. -1.
        -11    1    4    4    0    0  0.53166835387E+01  0.11626777991E+03 -0.46659759882E+03  0.48089477330E+03  0.00000000000E+00 0. -1.
         11    1    4    4    0    0  0.12956450073E+02 -0.16096868058E+02 -0.11167219509E+03  0.11356785600E+03  0.00000000000E+00 0.  1.
         21    1    1    2  503  501 -0.13016985984E+02 -0.31528848857E+02 -0.72294731867E+01  0.34867972653E+02  0.00000000000E+00 0. -1.
          1    1    1    2  501    0 -0.31925424578E+03 -0.34195998271E+03 -0.55596798721E+03  0.72660877096E+03  0.00000000000E+00 0. -1.
<scales pt_clust_5="13000.00000" pt_clust_6="13000.00000" pt_clust_7="13000.00000" pt_clust_8="13000.00000" pt_clust_9="30.49872" pt_clust_10="512.49922"></scales>
<clustering>
<clus scale="   30.499">  9 10 -1 -1</clus>
<clus scale="   82.623">  5  6 -1 -1</clus>
<clus scale="   92.853">  7  8 -1 -1</clus>
<clus scale="  115.023">  5  7 -1 -1</clus>
<clus scale="  512.499">  1  9  2 -1</clus>
<clus scale="  512.499">  1  5  2 -1</clus>
</clustering>
</event>
<event>
10    4  0.3043429E-005  0.2325360E+03  0.7546771E-02  0.1125403E+00
         21   -1    0    0  501  502  0.00000000000E+00  0.00000000000E+00  0.45128204767E+02  0.45128204767E+02  0.00000000000E+00 0. -1.
          2   -1    0    0  503    0 -0.00000000000E+00 -0.00000000000E+00 -0.18723708656E+04  0.18723708656E+04  0.00000000000E+00 0. -1.
         24    2    1    2    0    0  0.22088217952E+03  0.57904604064E+02 -0.12960008399E+04  0.13183758296E+04  0.79716815517E+02 0.  0.
         23    2    1    2    0    0 -0.18378326362E+03 -0.46094318352E+02 -0.47810257780E+03  0.52178077859E+03  0.88159695036E+02 0.  0.
        -13    1    3    3    0    0  0.11277924713E+03  0.43073609396E+02 -0.47256717974E+03  0.48774402485E+03  0.00000000000E+00 0.  1.
         14    1    3    3    0    0  0.10810293239E+03  0.14830994668E+02 -0.82343366014E+03  0.83063180474E+03  0.00000000000E+00 0. -1.
        -13    1    4    4    0    0 -0.54044366433E+02 -0.45415172744E+02 -0.24542828663E+03  0.25537888585E+03  0.00000000000E+00 0.  1.
         13    1    4    4    0    0 -0.12973889718E+03 -0.67914560738E+00 -0.23267429117E+03  0.26640189274E+03  0.00000000000E+00 0. -1.
         21    1    1    2  503  502 -0.82735131852E+01 -0.19600109986E+02 -0.70239541354E+01  0.22404268870E+02  0.00000000000E+00 0. -1.
          1    1    1    2  501    0 -0.28825402721E+02  0.77898242738E+01 -0.46115289002E+02  0.54938193309E+02  0.00000000000E+00 0. -1.
<scales pt_clust_5="13000.00000" pt_clust_6="13000.00000" pt_clust_7="13000.00000" pt_clust_8="13000.00000" pt_clust_9="21.27476" pt_clust_10="30.30002"></scales>
<clustering>
<clus scale="   21.275">  1  9  2 -1</clus>
<clus scale="   30.300">  1 10  2 -1</clus>
<clus scale="   79.717">  5  6 -1 -1</clus>
<clus scale="   88.160">  7  8 -1 -1</clus>
<clus scale="  229.468">  2  5  1 -1</clus>
<clus scale="   21.275">  1  5  2 -1</clus>
</clustering>
</event>
<event>
10    4  0.3043429E-005  0.2435196E+03  0.7546771E-02  0.1154115E+00
         21   -1    0    0  503  502  0.00000000000E+00  0.00000000000E+00  0.21720187928E+03  0.21720187928E+03  0.00000000000E+00 0. -1.
          2   -1    0    0  502    0 -0.00000000000E+00 -0.00000000000E+00 -0.89353504622E+03  0.89353504622E+03  0.00000000000E+00 0. -1.
         24    2    1    2    0    0  0.16650414723E+02  0.59823251655E+02 -0.52046739014E+03  0.52990393833E+03  0.77819161541E+02 0.  0.
         23    2    1    2    0    0 -0.11405891936E+03  0.16167051890E+03 -0.18614000875E+03  0.28611929403E+03  0.89829581918E+02 0.  0.
        -13    1    3    3    0    0  0.18460190355E+02 -0.15218627246E+02 -0.10303367883E+03  0.10577487517E+03  0.00000000000E+00 0.  1.
         14    1    3    3    0    0 -0.18097756317E+01  0.75041878901E+02 -0.41743371131E+03  0.42412906316E+03  0.00000000000E+00 0. -1.
        -11    1    4    4    0    0 -0.88353155387E+01  0.65184682574E+02 -0.99001873928E+02  0.11886326886E+03  0.00000000000E+00 0.  1.
         11    1    4    4    0    0 -0.10522360382E+03  0.96485836331E+02 -0.87138134824E+02  0.16725602517E+03  0.00000000000E+00 0. -1.
         21    1    1    2  503  501  0.25231421261E+02  0.14927498452E+02  0.37273618782E+02  0.47421276723E+02  0.00000000000E+00 0. -1.
          1    1    1    2  501    0  0.72177083377E+02 -0.23642126901E+03 -0.69993868272E+01  0.24729241643E+03  0.00000000000E+00 0. -1.
<scales pt_clust_5="13000.00000" pt_clust_6="13000.00000" pt_clust_7="13000.00000" pt_clust_8="13000.00000" pt_clust_9="29.31646" pt_clust_10="226.34583"></scales>
<clustering>
<clus scale="   29.316">  1  9  2 -1</clus>
<clus scale="   77.819">  5  6 -1 -1</clus>
<clus scale="   89.830">  7  8 -1 -1</clus>
<clus scale="   99.917">  2  5  1 -1</clus>
<clus scale="  226.346">  1 10  2 -1</clus>
<clus scale="   29.316">  1  5  2 -1</clus>
</clustering>
</event>
<event>
10    4  0.3043429E-005  0.2349721E+03  0.7546771E-02  0.1158287E+00
          2   -1    0    0  502    0 -0.00000000000E+00  0.00000000000E+00  0.20468251984E+03  0.20468251984E+03  0.00000000000E+00 0. -1.
         21   -1    0    0  503  502  0.00000000000E+00 -0.00000000000E+00 -0.44486806915E+03  0.44486806915E+03  0.00000000000E+00 0.  1.
         23    2    1    2    0    0 -0.43703526704E+02  0.16754831672E+02 -0.83640562908E+02  0.13226508944E+03  0.91145968039E+02 0.  0.
         24    2    1    2    0    0 -0.19278018097E+03 -0.91467614999E+02 -0.30916140440E+02  0.23000455635E+03  0.80098473361E+02 0.  0.
        -11    1    4    4    0    0 -0.16829660674E+03 -0.50810016223E+02 -0.48697512769E+01  0.17586676794E+03  0.00000000000E+00 0.  1.
         12    1    4    4    0    0 -0.24483574224E+02 -0.40657598776E+02 -0.26046389163E+02  0.54137788406E+02  0.00000000000E+00 0. -1.
        -11    1    3    3    0    0  0.80107470825E+01 -0.26921929676E+02 -0.50447338581E+01  0.28537899468E+02  0.00000000000E+00 0.  1.
         11    1    3    3    0    0 -0.51714273787E+02  0.43676761348E+02 -0.78595829050E+02  0.10372718997E+03  0.00000000000E+00 0. -1.
         21    1    1    2  503  501  0.19424602637E+02  0.10561052552E+02 -0.39189432721E+02  0.44996251573E+02  0.00000000000E+00 0.  1.
          1    1    1    2  501    0  0.21705910503E+03  0.64151730775E+02 -0.86439413237E+02  0.24228469163E+03  0.00000000000E+00 0. -1.
<scales pt_clust_5="13000.00000" pt_clust_6="13000.00000" pt_clust_7="13000.00000" pt_clust_8="13000.00000" pt_clust_9="22.10998" pt_clust_10="220.89841"></scales>
<clustering>
<clus scale="   22.110">  2  9  1 -1</clus>
<clus scale="   80.098">  5  6 -1 -1</clus>
<clus scale="   91.146">  7  8 -1 -1</clus>
<clus scale="  100.862">  1  7  2 -1</clus>
<clus scale="  220.898">  2 10  1 -1</clus>
<clus scale="   22.110">  2  5  1 -1</clus>
</clustering>
</event>
<event>
10    4  0.3043429E-005  0.1692805E+03  0.7546771E-02  0.1193055E+00
         -3   -1    0    0    0  501 -0.00000000000E+00  0.00000000000E+00  0.14024520544E+04  0.14024520544E+04  0.00000000000E+00 0.  1.
         21   -1    0    0  503  502  0.00000000000E+00 -0.00000000000E+00 -0.44402868695E+02  0.44402868695E+02  0.00000000000E+00 0. -1.
         24    2    1    2    0    0 -0.64940258931E+02  0.72856423826E+02  0.50583942543E+03  0.52122037658E+03  0.79195081408E+02 0.  0.
         23    2    1    2    0    0  0.36136092948E+01 -0.16706164803E+03  0.47054925758E+03  0.50779243740E+03  0.92270814795E+02 0.  0.
        -13    1    3    3    0    0 -0.78650165730E+02  0.63919803981E+02  0.48038037041E+03  0.49095507960E+03  0.00000000000E+00 0.  1.
         14    1    3    3    0    0  0.13709906799E+02  0.89366198458E+01  0.25459055021E+02  0.30265296980E+02  0.00000000000E+00 0. -1.
        -13    1    4    4    0    0  0.25399518748E+02 -0.10342286910E+02  0.12147443792E+03  0.12453167275E+03  0.00000000000E+00 0.  1.
         13    1    4    4    0    0 -0.21785909453E+02 -0.15671936112E+03  0.34907481966E+03  0.38326076465E+03  0.00000000000E+00 0. -1.
         21    1    1    2  503  501  0.15049303291E+01 -0.24558283222E+02  0.17588214306E+02  0.30244327940E+02  0.00000000000E+00 0. -1.
         -4    1    1    2    0  502  0.59821719307E+02  0.11876350742E+03  0.36407228839E+03  0.38759778118E+03  0.00000000000E+00 0.  1.
<scales pt_clust_5="13000.00000" pt_clust_6="13000.00000" pt_clust_7="13000.00000" pt_clust_8="13000.00000" pt_clust_9="24.60435" pt_clust_10="141.92247"></scales>
<clustering>
<clus scale="   24.604">  2  9  1 -1</clus>
<clus scale="   79.195">  5  6 -1 -1</clus>
<clus scale="   92.271">  7  8 -1 -1</clus>
<clus scale="  122.718">  1  5  2 -1</clus>
<clus scale="  141.922">  2 10  1 -1</clus>
<clus scale="   24.604">  2  5  1 -1</clus>
</clustering>
</event>
<event>
10    4  0.3043429E-005  0.2272738E+03  0.7546771E-02  0.1128573E+00
          2   -1    0    0  503    0 -0.00000000000E+00  0.00000000000E+00  0.53309741524E+03  0.53309741524E+03  0.00000000000E+00 0. -1.
         21   -1    0    0  501  502  0.00000000000E+00 -0.00000000000E+00 -0.15684598858E+03  0.15684598858E+03  0.00000000000E+00 0. -1.
         24    2    1    2    0    0 -0.13320837732E+03  0.36480501224E+02  0.66300462508E+02  0.17318501234E+03  0.80758890600E+02 0.  0.
         23    2    1    2    0    0 -0.56987627572E+02  0.33295525098E+02  0.51191289317E+02  0.12021709462E+03  0.86460511500E+02 0.  0.
        -13    1    3    3    0    0 -0.44223112710E+02 -0.14740017191E+02 -0.68532920238E+01  0.47116020801E+02  0.00000000000E+00 0.  1.
         14    1    3    3    0    0 -0.88985264611E+02  0.51220518415E+02  0.73153754532E+02  0.12606899153E+03  0.00000000000E+00 0. -1.
        -13    1    4    4    0    0 -0.36197892600E+02  0.71760521715E+01 -0.19719887734E+02  0.41840854744E+02  0.00000000000E+00 0. -1.
         13    1    4    4    0    0 -0.20789734972E+02  0.26119472926E+02  0.70911177051E+02  0.78376239875E+02  0.00000000000E+00 0.  1.
         21    1    1    2  503  502  0.56136418659E+02 -0.68956594923E+02 -0.16440018518E+02  0.90424464013E+02  0.00000000000E+00 0.  1.
          1    1    1    2  501    0  0.13405958623E+03 -0.81943139909E+00  0.27519969336E+03  0.30611683285E+03  0.00000000000E+00 0. -1.
<scales pt_clust_5="13000.00000" pt_clust_6="13000.00000" pt_clust_7="13000.00000" pt_clust_8="13000.00000" pt_clust_9="88.91743" pt_clust_10="142.88501"></scales>
<clustering>
<clus scale="   80.759">  5  6 -1 -1</clus>
<clus scale="   86.461">  7  8 -1 -1</clus>
<clus scale="   88.163">  5  7 -1 -1</clus>
<clus scale="   88.917">  2  9  1 -1</clus>
<clus scale="  142.885">  2 10  1 -1</clus>
<clus scale="   88.917">  2  5  1 -1</clus>
</clustering>
</event>
<event>
10    4  0.3043429E-005  0.3055233E+03  0.7546771E-02  0.1082807E+00
         21   -1    0    0  501  502  0.00000000000E+00  0.00000000000E+00  0.12631593945E+03  0.12631593945E+03  0.00000000000E+00 0. -1.
          2   -1    0    0  503    0 -0.00000000000E+00 -0.00000000000E+00 -0.21271291282E+04  0.21271291282E+04  0.00000000000E+00 0. -1.
         24    2    1    2    0    0  0.82376568029E+02  0.21983348427E+03 -0.70668252369E+03  0.74909482560E+03  0.81426093475E+02 0.  0.
         23    2    1    2    0    0 -0.19229433742E+01 -0.41395982973E+03 -0.10743723491E+04  0.11548766905E+04  0.89987707470E+02 0.  0.
        -13    1    3    3    0    0  0.99004274270E+02  0.19302927055E+03 -0.61663038727E+03  0.65367819309E+03  0.00000000000E+00 0.  1.
         14    1    3    3    0    0 -0.16627706241E+02  0.26804213714E+02 -0.90052136415E+02  0.95416632515E+02  0.00000000000E+00 0. -1.
        -11    1    4    4    0    0  0.23583837875E+02 -0.27135872491E+02 -0.88409288057E+02  0.95439798824E+02  0.00000000000E+00 0.  1.
         11    1    4    4    0    0 -0.25506781249E+02 -0.38682395724E+03 -0.98596306101E+03  0.10594368917E+04  0.00000000000E+00 0. -1.
         21    1    1    2  503  502 -0.68917692150E+02  0.12860935108E+03 -0.30772151188E+02  0.14912055112E+03  0.00000000000E+00 0. -1.
          1    1    1    2  501    0 -0.11535932505E+02  0.65516994384E+02 -0.18898616478E+03  0.20035300041E+03  0.00000000000E+00 0. -1.
<scales pt_clust_5="13000.00000" pt_clust_6="13000.00000" pt_clust_7="13000.00000" pt_clust_8="13000.00000" pt_clust_9="177.20449" pt_clust_10="66.52487"></scales>
<clustering>
<clus scale="   66.525">  1 10  2 -1</clus>
<clus scale="   81.426">  5  6 -1 -1</clus>
<clus scale="   89.988">  7  8 -1 -1</clus>
<clus scale="  177.204">  1  9  2 -1</clus>
<clus scale="  303.112">  2  5  1 -1</clus>
<clus scale="   66.525">  1  5  2 -1</clus>
</clustering>
</event>
<event>
10    4  0.3043429E-005  0.1089183E+03  0.7546771E-02  0.1278045E+00
         21   -1    0    0  501  502  0.00000000000E+00  0.00000000000E+00  0.10534312373E+03  0.10534312373E+03  0.00000000000E+00 0.  1.
          2   -1    0    0  503    0 -0.00000000000E+00 -0.00000000000E+00 -0.48257608366E+03  0.48257608366E+03  0.00000000000E+00 0. -1.
         24    2    1    2    0    0  0.14331549443E+02 -0.49112289270E+01 -0.30301441192E+03  0.31374763552E+03  0.79939548933E+02 0.  0.
         23    2    1    2    0    0  0.18282648426E+02 -0.21970721719E+02 -0.38613658725E+01  0.11206779293E+03  0.10829271545E+03 0.  0.
        -13    1    3    3    0    0 -0.26074878703E+02  0.20879758730E+02 -0.12087063475E+03  0.12540165058E+03  0.00000000000E+00 0.  1.
         14    1    3    3    0    0  0.40406428146E+02 -0.25790987657E+02 -0.18214377717E+03  0.18834598493E+03  0.00000000000E+00 0. -1.
        -11    1    4    4    0    0 -0.42835288301E+02 -0.15807125132E+02  0.14582048098E+02  0.47930817388E+02  0.00000000000E+00 0.  1.
         11    1    4    4    0    0  0.61117936727E+02 -0.61635965864E+01 -0.18443413970E+02  0.64136975541E+02  0.00000000000E+00 0. -1.
         21    1    1    2  503  502 -0.91649353350E+01  0.26431442966E+02  0.40261227473E+02  0.49026356734E+02  0.00000000000E+00 0.  1.
          1    1    1    2  501    0 -0.23449262534E+02  0.45050767991E+00 -0.11061840961E+03  0.11307742222E+03  0.00000000000E+00 0. -1.
<scales pt_clust_5="13000.00000" pt_clust_6="13000.00000" pt_clust_7="13000.00000" pt_clust_8="13000.00000" pt_clust_9="32.83713" pt_clust_10="23.45360"></scales>
<clustering>
<clus scale="   23.454">  1 10  2 -1</clus>
<clus scale="   32.837">  1  9  2 -1</clus>
<clus scale="   79.940">  5  6 -1 -1</clus>
<clus scale="   80.785">  2  5  1 -1</clus>
<clus scale="  108.293">  7  8 -1 -1</clus>
<clus scale="   23.454">  1  5  2 -1</clus>
</clustering>
</event>
<event>
10    4  0.3043429E-005  0.3076691E+03  0.7546771E-02  0.1096019E+00
          2   -1    0    0  503    0 -0.00000000000E+00  0.00000000000E+00  0.40532482321E+03  0.40532482321E+03  0.00000000000E+00 0. -1.
         21   -1    0    0  501  502  0.00000000000E+00 -0.00000000000E+00 -0.13510591905E+04  0.13510591905E+04  0.00000000000E+00 0. -1.
         24    2    1    2    0    0  0.16899645326E+03  0.76918692614E+02  0.54529650806E+01  0.20930362543E+03  0.96446805555E+02 0.  0.
         23    2    1    2    0    0 -0.20035016784E+03  0.65672043036E+01  0.88637728332E+02  0.23807588652E+03  0.92952476720E+02 0.  0.
        -11    1    3    3    0    0  0.13465899640E+03  0.13511733607E+02  0.16563804538E+02  0.13634504713E+03  0.00000000000E+00 0.  1.
         12    1    3    3    0    0  0.34337456865E+02  0.63406959007E+02 -0.11110839457E+02  0.72958578303E+02  0.00000000000E+00 0. -1.
        -11    1    4    4    0    0 -0.21331206362E+02  0.17890542567E+02  0.45891681664E+02  0.53676236121E+02  0.00000000000E+00 0.  1.
         11    1    4    4    0    0 -0.17901896148E+03 -0.11323338263E+02  0.42746046668E+02  0.18439965039E+03  0.00000000000E+00 0. -1.
         21    1    1    2  503  502 -0.28122822257E+03  0.95124014490E+02 -0.85344588644E+03  0.90360819628E+03  0.00000000000E+00 0. -1.
          1    1    1    2  501    0  0.31258193715E+03 -0.17860991141E+03 -0.18637917422E+03  0.40539630545E+03  0.00000000000E+00 0. -1.
<scales pt_clust_5="13000.00000" pt_clust_6="13000.00000" pt_clust_7="13000.00000" pt_clust_8="13000.00000" pt_clust_9="307.66909" pt_clust_10="13000.00000"></scales>
<clustering>
<clus scale="   92.952">  7  8 -1 -1</clus>
<clus scale="   96.447">  5  6 -1 -1</clus>
<clus scale="  209.233">  1  5  2 -1</clus>
<clus scale="  150.378">  1  7  2 -1</clus>
<clus scale="  307.669">  2  9  1 -1</clus>
<clus scale="  307.669">  2  5  1 -1</clus>
</clustering>
</event>
<event>
10    4  0.3043429E-005  0.1945101E+03  0.7546771E-02  0.1185045E+00
         21   -1    0    0  503  502  0.00000000000E+00  0.00000000000E+00  0.10022357632E+03  0.10022357632E+03  0.00000000000E+00 0. -1.
          2   -1    0    0  502    0 -0.00000000000E+00 -0.00000000000E+00 -0.93460524165E+03  0.93460524165E+03  0.00000000000E+00 0. -1.
         23    2    1    2    0    0 -0.17168599434E+02  0.15320996770E+02 -0.13578483634E+03  0.16519289584E+03  0.91223227901E+02 0.  0.
         24    2    1    2    0    0  0.18575565684E+03 -0.94836218240E+02 -0.33027993939E+03  0.39971582618E+03  0.84786974199E+02 0.  0.
        -11    1    4    4    0    0  0.69464080714E+02 -0.77161856896E+02 -0.11921364208E+03  0.15808574612E+03  0.00000000000E+00 0.  1.
         12    1    4    4    0    0  0.11629157613E+03 -0.17674361345E+02 -0.21106629731E+03  0.24163008005E+03  0.00000000000E+00 0. -1.
        -13    1    3    3    0    0 -0.16078097997E+02  0.48742593471E+02 -0.11470290640E+03  0.12566265312E+03  0.00000000000E+00 0.  1.
         13    1    3    3    0    0 -0.10905014373E+01 -0.33421596701E+02 -0.21081929939E+02  0.39530242718E+02  0.00000000000E+00 0. -1.
         21    1    1    2  503  501 -0.54256637692E+02 -0.18156268596E+02  0.14164987195E+02  0.58941324088E+02  0.00000000000E+00 0.  1.
          1    1    1    2  501    0 -0.11433041971E+03  0.97671490066E+02 -0.38248187680E+03  0.41097877187E+03  0.00000000000E+00 0. -1.
<scales pt_clust_5="13000.00000" pt_clust_6="13000.00000" pt_clust_7="13000.00000" pt_clust_8="13000.00000" pt_clust_9="57.21392" pt_clust_10="175.05824"></scales>
<clustering>
<clus scale="   57.214">  1  9  2 -1</clus>
<clus scale="   84.787">  5  6 -1 -1</clus>
<clus scale="   91.223">  7  8 -1 -1</clus>
<clus scale="   96.579">  2  7  1 -1</clus>
<clus scale="  175.058">  1 10  2 -1</clus>
<clus scale="   57.214">  1  5  2 -1</clus>
</clustering>
</event>
<event>
10    4  0.3043429E-005  0.1004955E+03  0.7546771E-02  0.1288696E+00
         21   -1    0    0  501  502  0.00000000000E+00  0.00000000000E+00  0.55100742468E+02  0.55100742468E+02  0.00000000000E+00 0. -1.
          4   -1    0    0  503    0 -0.00000000000E+00 -0.00000000000E+00 -0.45092087020E+03  0.45092087020E+03  0.00000000000E+00 0. -1.
         23    2    1    2    0    0 -0.43085621530E+02  0.36524995698E+02 -0.32866138445E+03  0.34549473662E+03  0.90320879721E+02 0.  0.
         24    2    1    2    0    0 -0.95899538817E+01 -0.21514114895E+02 -0.33900167016E+02  0.82644147212E+02  0.71596154852E+02 0.  0.
        -11    1    4    4    0    0 -0.30956907629E+02  0.12542840960E+02 -0.24310149881E+02  0.41311455754E+02  0.00000000000E+00 0.  1.
         12    1    4    4    0    0  0.21366953747E+02 -0.34056955855E+02 -0.95900171349E+01  0.41332691458E+02  0.00000000000E+00 0. -1.
        -11    1    3    3    0    0  0.24585565553E+02 -0.60565490943E+01 -0.58356109015E+02  0.63612634593E+02  0.00000000000E+00 0.  1.
         11    1    3    3    0    0 -0.67671187083E+02  0.42581544792E+02 -0.27030527543E+03  0.28188210203E+03  0.00000000000E+00 0. -1.
         21    1    1    2  503  502  0.35190030298E+02  0.28609735384E+01  0.11789512527E+01  0.35325816736E+02  0.00000000000E+00 0. -1.
          3    1    1    2  501    0  0.17485545113E+02 -0.17871854341E+02 -0.34437527523E+02  0.42556912099E+02  0.00000000000E+00 0. -1.
<scales pt_clust_5="13000.00000" pt_clust_6="13000.00000" pt_clust_7="13000.00000" pt_clust_8="13000.00000" pt_clust_9="41.59297" pt_clust_10="25.00296"></scales>
<clustering>
<clus scale="   25.003">  1 10  2 -1</clus>
<clus scale="   41.593">  1  9  2 -1</clus>
<clus scale="   71.596">  5  6 -1 -1</clus>
<clus scale="   84.068">  1  5  2 -1</clus>
<clus scale="   90.321">  7  8 -1 -1</clus>
<clus scale="   25.003">  1  5  2 -1</clus>
</clustering>
</event>
<event>
10    4  0.3043429E-005  0.3401084E+03  0.7546771E-02  0.1066951E+00
         -1   -1    0    0    0  501 -0.00000000000E+00  0.00000000000E+00  0.22333319684E+04  0.22333319684E+04  0.00000000000E+00 0.  1.
         21   -1    0    0  503  502  0.00000000000E+00 -0.00000000000E+00 -0.87518930651E+02  0.87518930651E+02  0.00000000000E+00 0.  1.
         24    2    1    2    0    0  0.26342401041E+03 -0.17508467863E+03  0.11464610221E+04  0.11923770075E+04  0.85692467041E+02 0.  0.
         23    2    1    2    0    0 -0.32508045170E+03  0.12372874671E+03  0.94246654137E+03  0.10088873440E+04  0.92867585653E+02 0.  0.
        -11    1    3    3    0    0  0.20914677352E+03 -0.16435440647E+03  0.10242325309E+04  0.10582093465E+04  0.00000000000E+00 0.  1.
         12    1    3    3    0    0  0.54277236895E+02 -0.10730272169E+02  0.12222849124E+03  0.13416766099E+03  0.00000000000E+00 0. -1.
        -13    1    4    4    0    0 -0.24583720625E+03  0.65278126760E+02  0.76162563267E+03  0.80297619526E+03  0.00000000000E+00 0.  1.
         13    1    4    4    0    0 -0.79243245449E+02  0.58450619946E+02  0.18084090870E+03  0.20591114875E+03  0.00000000000E+00 0. -1.
         21    1    1    2  503  501  0.52311625189E+02  0.21715360520E+02  0.21949077265E+01  0.56682277939E+02  0.00000000000E+00 0. -1.
         -2    1    1    2    0  502  0.93448160947E+01  0.29640571409E+02  0.54690566506E+02  0.62904269538E+02  0.00000000000E+00 0.  1.
<scales pt_clust_5="13000.00000" pt_clust_6="13000.00000" pt_clust_7="13000.00000" pt_clust_8="13000.00000" pt_clust_9="63.64656" pt_clust_10="31.07876"></scales>
<clustering>
<clus scale="   31.079">  2 10  1 -1</clus>
<clus scale="   63.647">  2  9  1 -1</clus>
<clus scale="   85.692">  5  6 -1 -1</clus>
<clus scale="   92.868">  7  8 -1 -1</clus>
<clus scale="  338.220">  1  5  2 -1</clus>
<clus scale="   31.079">  2  5  1 -1</clus>
</clustering>
</event>
<event>
10    4  0.3043429E-005  0.4357692E+03  0.7546771E-02  0.1032053E+00
          2   -1    0    0  503    0 -0.00000000000E+00  0.00000000000E+00  0.14117095777E+04  0.14117095777E+04  0.00000000000E+00 0. -1.
         21   -1    0    0  501  502  0.00000000000E+00 -0.00000000000E+00 -0.28411721414E+03  0.28411721414E+03  0.00000000000E+00 0. -1.
         24    2    1    2    0    0 -0.16568024256E+03 -0.28602065258E+02  0.25886647746E+03  0.31735424854E+03  0.73714618675E+02 0.  0.
         23    2    1    2    0    0 -0.21611844039E+03  0.98108264872E+02  0.65657052168E+03  0.70423151305E+03  0.92329638316E+02 0.  0.
        -13    1    3    3    0    0 -0.83867551624E+01 -0.23406502000E+02  0.23451298489E+02  0.34178434705E+02  0.00000000000E+00 0.  1.
         14    1    3    3    0    0 -0.15729348739E+03 -0.51955632576E+01  0.23541517897E+03  0.28317581384E+03  0.00000000000E+00 0. -1.
        -13    1    4    4    0    0 -0.72037300278E+02  0.24300080651E+01  0.11507104440E+03  0.13578152610E+03  0.00000000000E+00 0.  1.
         13    1    4    4    0    0 -0.14408114011E+03  0.95678256807E+02  0.54149947729E+03  0.56844998695E+03  0.00000000000E+00 0. -1.
         21    1    1    2  503  502  0.38004559137E+02 -0.69014553810E+02 -0.15338098705E+03  0.17243283429E+03  0.00000000000E+00 0. -1.
          1    1    1    2  501    0  0.34379412381E+03 -0.49164580415E+00  0.36553635143E+03  0.50180819592E+03  0.00000000000E+00 0. -1.
<scales pt_clust_5="13000.00000" pt_clust_6="13000.00000" pt_clust_7="13000.00000" pt_clust_8="13000.00000" pt_clust_9="78.78677" pt_clust_10="367.26494"></scales>
<clustering>
<clus scale="   73.715">  5  6 -1 -1</clus>
<clus scale="   78.787">  2  9  1 -1</clus>
<clus scale="   92.330">  7  8 -1 -1</clus>
<clus scale="  168.037">  5  7 -1 -1</clus>
<clus scale="  367.265">  2 10  1 -1</clus>
<clus scale="   78.787">  2  5  1 -1</clus>
</clustering>
</event>
<event>
10    4  0.3043429E-005  0.3517202E+03  0.7546771E-02  0.1061911E+00
         21   -1    0    0  503  502  0.00000000000E+00  0.00000000000E+00  0.16906328430E+03  0.16906328430E+03  0.00000000000E+00 0.  1.
          2   -1    0    0  502    0 -0.00000000000E+00 -0.00000000000E+00 -0.12115278883E+04  0.12115278883E+04  0.00000000000E+00 0. -1.
         24    2    1    2    0    0 -0.88864996695E+02  0.11679622792E+03 -0.32005687827E+03  0.36002481727E+03  0.75120684408E+02 0.  0.
         23    2    1    2    0    0 -0.10520861006E+03  0.27225903409E+02 -0.14503509333E+03  0.20242463944E+03  0.90169035192E+02 0.  0.
        -11    1    3    3    0    0 -0.10108874528E+03  0.10874963359E+03 -0.30386069262E+03  0.33819630061E+03  0.00000000000E+00 0.  1.
         12    1    3    3    0    0  0.12223748583E+02  0.80465943346E+01 -0.16196185649E+02  0.21828516656E+02  0.00000000000E+00 0. -1.
        -11    1    4    4    0    0 -0.34566412272E+02  0.33967595202E+02 -0.94266750582E+01  0.49371009548E+02  0.00000000000E+00 0.  1.
         11    1    4    4    0    0 -0.70642197792E+02 -0.67416917926E+01 -0.13560841827E+03  0.15305362989E+03  0.00000000000E+00 0. -1.
         21    1    1    2  503  501 -0.26297744377E+02  0.94922371145E+02  0.50819024401E+02  0.11083501768E+03  0.00000000000E+00 0.  1.
          1    1    1    2  501    0  0.22037135114E+03 -0.23894450248E+03 -0.62819165677E+03  0.70730669819E+03  0.00000000000E+00 0. -1.
<scales pt_clust_5="13000.00000" pt_clust_6="13000.00000" pt_clust_7="13000.00000" pt_clust_8="13000.00000" pt_clust_9="98.49786" pt_clust_10="286.48779"></scales>
<clustering>
<clus scale="   75.121">  5  6 -1 -1</clus>
<clus scale="   90.169">  7  8 -1 -1</clus>
<clus scale="   98.498">  1  9  2 -1</clus>
<clus scale="  135.221">  5  7 -1 -1</clus>
<clus scale="  286.488">  1 10  2 -1</clus>
<clus scale="   98.498">  1  5  2 -1</clus>
</clustering>
</event>
<event>
10    4  0.3043429E-005  0.2047868E+03  0.7546771E-02  0.1168410E+00
         21   -1    0    0  503  502  0.00000000000E+00  0.00000000000E+00  0.74688550196E+02  0.74688550196E+02  0.00000000000E+00 0. -1.
          2   -1    0    0  502    0 -0.00000000000E+00 -0.00000000000E+00 -0.16996611833E+04  0.16996611833E+04  0.00000000000E+00 0. -1.
         23    2    1    2    0    0 -0.15694314507E+02 -0.68112341653E+02 -0.14523893007E+03  0.18462506910E+03  0.90035919157E+02 0.  0.
         24    2    1    2    0    0 -0.17865690322E+03  0.94013269457E+02 -0.10958113403E+04  0.11170814563E+04  0.79446224190E+02 0.  0.
        -13    1    4    4    0    0 -0.85152479973E+02  0.38489705886E+02 -0.30991522216E+03  0.32369715358E+03  0.00000000000E+00 0.  1.
         14    1    4    4    0    0 -0.93504423249E+02  0.55523563571E+02 -0.78589611816E+03  0.79338430273E+03  0.00000000000E+00 0. -1.
        -11    1    3    3    0    0 -0.45501307677E+02 -0.53224470313E+02 -0.13069387691E+03  0.14827037028E+03  0.00000000000E+00 0. -1.
         11    1    3    3    0    0  0.29806993170E+02 -0.14887871340E+02 -0.14545053157E+02  0.36354698819E+02  0.00000000000E+00 0.  1.
         21    1    1    2  503  501  0.78105947170E+01 -0.28607086439E+02  0.14273625426E+02  0.32910593540E+02  0.00000000000E+00 0. -1.
          1    1    1    2  501    0  0.18654062301E+03  0.27061586349E+01 -0.39819598809E+03  0.43973261451E+03  0.00000000000E+00 0. -1.
<scales pt_clust_5="13000.00000" pt_clust_6="13000.00000" pt_clust_7="13000.00000" pt_clust_8="13000.00000" pt_clust_9="29.65419" pt_clust_10="188.74829"></scales>
<clustering>
<clus scale="   29.654">  1  9  2 -1</clus>
<clus scale="   79.446">  5  6 -1 -1</clus>
<clus scale="   90.036">  7  8 -1 -1</clus>
<clus scale="  120.541">  2  7  1 -1</clus>
<clus scale="  188.748">  1 10  2 -1</clus>
<clus scale="   29.654">  1  5  2 -1</clus>
</clustering>
</event>
<event>
10    4  0.3043429E-005  0.9937551E+02  0.7546771E-02  0.1289740E+00
         21   -1    0    0  503  502  0.00000000000E+00  0.00000000000E+00  0.34205383458E+03  0.34205383458E+03  0.00000000000E+00 0.  1.
         -3   -1    0    0    0  501 -0.00000000000E+00 -0.00000000000E+00 -0.42679867275E+03  0.42679867275E+03  0.00000000000E+00 0.  1.
         24    2    1    2    0    0  0.26505770224E+02 -0.17639912585E+02 -0.37977588449E+03  0.38919853889E+03  0.78943383909E+02 0.  0.
         23    2    1    2    0    0 -0.46261951819E+02  0.21069630017E+02  0.22462199909E+03  0.24875279928E+03  0.94014973184E+02 0.  0.
        -11    1    3    3    0    0  0.44035049349E+02 -0.35374887360E+02 -0.20448259058E+03  0.21214051494E+03  0.00000000000E+00 0.  1.
         12    1    3    3    0    0 -0.17529279125E+02  0.17734974775E+02 -0.17529329391E+03  0.17705802395E+03  0.00000000000E+00 0. -1.
        -13    1    4    4    0    0 -0.69153312437E+02  0.84580683319E+00  0.19193780935E+03  0.20401720190E+03  0.00000000000E+00 0.  1.
         13    1    4    4    0    0  0.22891360617E+02  0.20223823184E+02  0.32684189732E+02  0.44735597386E+02  0.00000000000E+00 0. -1.
         21    1    1    2  503  501  0.97485470545E+01 -0.35911576708E+02  0.85851484427E+02  0.93568973969E+02  0.00000000000E+00 0. -1.
         -4    1    1    2    0  502  0.10007634541E+02  0.32481859276E+02 -0.15442437195E+02  0.37332195189E+02  0.00000000000E+00 0.  1.
<scales pt_clust_5="13000.00000" pt_clust_6="13000.00000" pt_clust_7="13000.00000" pt_clust_8="13000.00000" pt_clust_9="29.83718" pt_clust_10="33.98860"></scales>
<clustering>
<clus scale="   33.989">  1 10  2 -1</clus>
<clus scale="   29.837">  1  9  2 -1</clus>
<clus scale="   78.943">  5  6 -1 -1</clus>
<clus scale="   85.257">  2  5  1 -1</clus>
<clus scale="   94.015">  7  8 -1 -1</clus>
<clus scale="   33.989">  1  5  2 -1</clus>
</clustering>
</event>
<event>
10    4  0.3043429E-005  0.2493067E+03  0.7546771E-02  0.1143611E+00
         21   -1    0    0  503  502  0.00000000000E+00  0.00000000000E+00  0.17278656021E+03  0.17278656021E+03  0.00000000000E+00 0. -1.
          2   -1    0    0  502    0 -0.00000000000E+00 -0.00000000000E+00 -0.10598542751E+04  0.10598542751E+04  0.00000000000E+00 0. -1.
         24    2    1    2    0    0  0.20010385644E+02 -0.85458024817E+02 -0.38028906467E+03  0.39854223591E+03  0.80701000993E+02 0.  0.
         23    2    1    2    0    0  0.22038290082E+03 -0.20608070236E+02 -0.34779033826E+03  0.42257122795E+03  0.92817066173E+02 0.  0.
        -13    1    3    3    0    0  0.29494604748E+02 -0.24894794351E+02 -0.53014689173E+02  0.65576213394E+02  0.00000000000E+00 0.  1.
         14    1    3    3    0    0 -0.94842191038E+01 -0.60563230466E+02 -0.32727437550E+03  0.33296602252E+03  0.00000000000E+00 0. -1.
        -11    1    4    4    0    0  0.34456624503E+02 -0.10933132127E+02 -0.11067621476E+02  0.37805880434E+02  0.00000000000E+00 0.  1.
         11    1    4    4    0    0  0.18592627632E+03 -0.96749381094E+01 -0.33672271678E+03  0.38476534751E+03  0.00000000000E+00 0. -1.
         21    1    1    2  503  501 -0.25530080594E+02 -0.96068188656E+01  0.71089772296E+02  0.76143494199E+02  0.00000000000E+00 0. -1.
          1    1    1    2  501    0 -0.21486320587E+03  0.11567291392E+03 -0.23007808423E+03  0.33538387721E+03  0.00000000000E+00 0. -1.
<scales pt_clust_5="13000.00000" pt_clust_6="13000.00000" pt_clust_7="13000.00000" pt_clust_8="13000.00000" pt_clust_9="27.27776" pt_clust_10="231.38458"></scales>
<clustering>
<clus scale="   27.278">  1  9  2 -1</clus>
<clus scale="   80.701">  5  6 -1 -1</clus>
<clus scale="   92.817">  7  8 -1 -1</clus>
<clus scale="  119.497">  2  5  1 -1</clus>
<clus scale="  231.385">  1 10  2 -1</clus>
<clus scale="   27.278">  1  5  2 -1</clus>
</clustering>
</event>
<event>
10    4  0.3043429E-005  0.1705404E+03  0.7546771E-02  0.1206232E+00
         21   -1    0    0  501  502  0.00000000000E+00  0.00000000000E+00  0.26630733857E+03  0.26630733857E+03  0.00000000000E+00 0.  1.
         -3   -1    0    0    0  501 -0.00000000000E+00 -0.00000000000E+00 -0.75185457244E+03  0.75185457244E+03  0.00000000000E+00 0.  1.
         24    2    1    2    0    0 -0.27528789193E+02  0.29935023957E+02 -0.10399643244E+03  0.13762070667E+03  0.80437932908E+02 0.  0.
         23    2    1    2    0    0 -0.14503079527E+03 -0.67270913232E+02 -0.15334997701E+03  0.23941868059E+03  0.90806287353E+02 0.  0.
        -13    1    3    3    0    0 -0.22030255808E+02 -0.77778281252E+01 -0.95839463937E+02  0.98645981312E+02  0.00000000000E+00 0.  1.
         14    1    3    3    0    0 -0.54985333854E+01  0.37712852082E+02 -0.81569685017E+01  0.38974725357E+02  0.00000000000E+00 0. -1.
        -11    1    4    4    0    0 -0.25057707574E+02 -0.54491947276E+02 -0.72914224199E+02  0.94412632191E+02  0.00000000000E+00 0. -1.
         11    1    4    4    0    0 -0.11997308769E+03 -0.12778965956E+02 -0.80435752810E+02  0.14500604840E+03  0.00000000000E+00 0.  1.
         21    1    1    2  503  502  0.24344744010E+02  0.18697113848E+02  0.19237329025E+03  0.19480690806E+03  0.00000000000E+00 0.  1.
         -4    1    1    2    0  503  0.14821484045E+03  0.18638775428E+02 -0.42057411467E+03  0.44631561569E+03  0.00000000000E+00 0.  1.
<scales pt_clust_5="13000.00000" pt_clust_6="13000.00000" pt_clust_7="13000.00000" pt_clust_8="13000.00000" pt_clust_9="30.69607" pt_clust_10="144.35468"></scales>
<clustering>
<clus scale="   30.696">  1  9  2 -1</clus>
<clus scale="   80.438">  5  6 -1 -1</clus>
<clus scale="   90.130">  2  5  1 -1</clus>
<clus scale="   90.806">  7  8 -1 -1</clus>
<clus scale="  144.355">  1 10  2 -1</clus>
<clus scale="   30.696">  1  5  2 -1</clus>
</clustering>
</event>
<event>
10    4  0.3043429E-005  0.1393460E+03  0.7546771E-02  0.1219479E+00
          2   -1    0    0  503    0 -0.00000000000E+00  0.00000000000E+00  0.25067868951E+04  0.25067868951E+04  0.00000000000E+00 0. -1.
         21   -1    0    0  501  502  0.00000000000E+00 -0.00000000000E+00 -0.10998385651E+03  0.10998385651E+03  0.00000000000E+00 0. -1.
         24    2    1    2    0    0 -0.56005423557E+02 -0.76510700493E+02  0.11145510826E+04  0.11214651464E+04  0.80432978837E+02 0.  0.
         23    2    1    2    0    0  0.18115457954E+02 -0.10795390145E+03  0.29247843387E+03  0.32530426374E+03  0.91087952403E+02 0.  0.
        -13    1    3    3    0    0 -0.41000543365E+02 -0.14478656930E+02  0.19913129666E+03  0.20382332882E+03  0.00000000000E+00 0.  1.
         14    1    3    3    0    0 -0.15004880191E+02 -0.62032043563E+02  0.91541978592E+03  0.91764181755E+03  0.00000000000E+00 0. -1.
        -13    1    4    4    0    0 -0.22882433306E+02 -0.47120623702E+02  0.51702757458E+02  0.73601182469E+02  0.00000000000E+00 0.  1.
         13    1    4    4    0    0  0.40997891260E+02 -0.60833277745E+02  0.24077567641E+03  0.25170308127E+03  0.00000000000E+00 0. -1.
         21    1    1    2  503  502 -0.45752822440E+02  0.31720153075E+02 -0.73699611036E+02  0.92364070608E+02  0.00000000000E+00 0. -1.
          1    1    1    2  501    0  0.83642788042E+02  0.15274444886E+03  0.10634731332E+04  0.10776372709E+04  0.00000000000E+00 0. -1.
<scales pt_clust_5="13000.00000" pt_clust_6="13000.00000" pt_clust_7="13000.00000" pt_clust_8="13000.00000" pt_clust_9="55.67305" pt_clust_10="105.45280"></scales>
<clustering>
<clus scale="   55.673">  2  9  1 -1</clus>
<clus scale="   80.433">  5  6 -1 -1</clus>
<clus scale="   91.088">  7  8 -1 -1</clus>
<clus scale="  124.682">  1  5  2 -1</clus>
<clus scale="  105.453">  2 10  1 -1</clus>
<clus scale="   55.673">  2  5  1 -1</clus>
</clustering>
</event>
<event>
10    4  0.3043429E-005  0.9198039E+02  0.7546771E-02  0.1303661E+00
         -1   -1    0    0    0  501 -0.00000000000E+00  0.00000000000E+00  0.49353114615E+03  0.49353114615E+03  0.00000000000E+00 0.  1.
         21   -1    0    0  503  502  0.00000000000E+00 -0.00000000000E+00 -0.74279695200E+02  0.74279695200E+02  0.00000000000E+00 0.  1.
         23    2    1    2    0    0  0.18358146928E+02  0.21348134894E+02  0.25386827408E+03  0.27067055283E+03  0.89558266873E+02 0.  0.
         24    2    1    2    0    0 -0.27314735233E+02  0.61807190083E+02  0.10661296483E+03  0.14964395082E+03  0.80378879313E+02 0.  0.
        -11    1    4    4    0    0 -0.22969877754E+02  0.80330552103E+02  0.72667960633E+02  0.11073050794E+03  0.00000000000E+00 0.  1.
         12    1    4    4    0    0 -0.43448574798E+01 -0.18523362019E+02  0.33945004194E+02  0.38913442880E+02  0.00000000000E+00 0. -1.
        -11    1    3    3    0    0 -0.61083307511E+01  0.52413095086E+02  0.16891201486E+03  0.17696246214E+03  0.00000000000E+00 0.  1.
         11    1    3    3    0    0  0.24466477679E+02 -0.31064960192E+02  0.84956259219E+02  0.93708090698E+02  0.00000000000E+00 0. -1.
         21    1    1    2  503  501  0.37861588655E+02  0.26086873586E+01 -0.27688012781E+01  0.38052219459E+02  0.00000000000E+00 0.  1.
         -2    1    1    2    0  502 -0.28905000349E+02 -0.85764012336E+02  0.61539013321E+02  0.10944411824E+03  0.00000000000E+00 0.  1.
<scales pt_clust_5="13000.00000" pt_clust_6="13000.00000" pt_clust_7="13000.00000" pt_clust_8="13000.00000" pt_clust_9="37.95135" pt_clust_10="85.46074"></scales>
<clustering>
<clus scale="   37.951">  2  9  1 -1</clus>
<clus scale="   80.379">  5  6 -1 -1</clus>
<clus scale="   85.461">  2 10  1 -1</clus>
<clus scale="   83.069">  2  5  1 -1</clus>
<clus scale="   89.558">  7  8 -1 -1</clus>
<clus scale="   37.951">  2  5  1 -1</clus>
</clustering>
</event>
<event>
10    4  0.3043429E-005  0.1272777E+03  0.7546771E-02  0.1239044E+00
         21   -1    0    0  503  502  0.00000000000E+00  0.00000000000E+00  0.44243003867E+03  0.44243003867E+03  0.00000000000E+00 0.  1.
         -3   -1    0    0    0  501 -0.00000000000E+00 -0.00000000000E+00 -0.60698058371E+03  0.60698058371E+03  0.00000000000E+00 0.  1.
         23    2    1    2    0    0  0.54497044895E+02 -0.26289936050E+02 -0.55044011333E+03  0.56117044106E+03  0.90922257523E+02 0.  0.
         24    2    1    2    0    0 -0.21230847145E+02 -0.73150664712E+02  0.90868999511E+02  0.14395344366E+03  0.81631184304E+02 0.  0.
        -11    1    4    4    0    0 -0.38199217436E+02 -0.31371690993E+01  0.21510586531E+02  0.43951420633E+02  0.00000000000E+00 0.  1.
         12    1    4    4    0    0  0.16968370291E+02 -0.70013495613E+02  0.69358412980E+02  0.10000202303E+03  0.00000000000E+00 0. -1.
        -13    1    3    3    0    0  0.65946893957E+02  0.12559612224E+02 -0.38749358469E+03  0.39326583230E+03  0.00000000000E+00 0.  1.
         13    1    3    3    0    0 -0.11449849061E+02 -0.38849548274E+02 -0.16294652865E+03  0.16790460876E+03  0.00000000000E+00 0. -1.
         21    1    1    2  503  501 -0.13106133841E+02 -0.20002115109E+02  0.16445536546E+03  0.16618490480E+03  0.00000000000E+00 0.  1.
         -4    1    1    2    0  502 -0.20160063909E+02  0.11944271587E+03  0.13056520332E+03  0.17810183286E+03  0.00000000000E+00 0.  1.
<scales pt_clust_5="13000.00000" pt_clust_6="13000.00000" pt_clust_7="13000.00000" pt_clust_8="13000.00000" pt_clust_9="23.91350" pt_clust_10="97.65224"></scales>
<clustering>
<clus scale="   23.913">  1  9  2 -1</clus>
<clus scale="   81.631">  5  6 -1 -1</clus>
<clus scale="   90.922">  7  8 -1 -1</clus>
<clus scale="  109.183">  2  7  1 -1</clus>
<clus scale="   97.652">  1 10  2 -1</clus>
<clus scale="   23.913">  1  5  2 -1</clus>
</clustering>
</event>
<event>
10    4  0.3043429E-005  0.1233965E+03  0.7546771E-02  0.1240247E+00
         21   -1    0    0  501  502  0.00000000000E+00  0.00000000000E+00  0.11576719613E+03  0.11576719613E+03  0.00000000000E+00 0.  1.
          2   -1    0    0  503    0 -0.00000000000E+00 -0.00000000000E+00 -0.75718841584E+03  0.75718841584E+03  0.00000000000E+00 0. -1.
         24    2    1    2    0    0  0.17939707380E+02 -0.67114315986E+02 -0.32676999231E+03  0.34372251580E+03  0.80872587943E+02 0.  0.
         23    2    1    2    0    0 -0.70260515007E+02  0.15604875195E+03 -0.14564387519E+03  0.24206763879E+03  0.89982500602E+02 0.  0.
        -13    1    3    3    0    0  0.42523000398E+02 -0.61546420523E+02 -0.28738908608E+03  0.29696574590E+03  0.00000000000E+00 0.  1.
         14    1    3    3    0    0 -0.24583293018E+02 -0.55678954636E+01 -0.39380906237E+02  0.46756769901E+02  0.00000000000E+00 0. -1.
        -11    1    4    4    0    0  0.18767851604E+01  0.66915754394E+02 -0.96189811237E+02  0.11719095654E+03  0.00000000000E+00 0. -1.
         11    1    4    4    0    0 -0.72137300167E+02  0.89132997555E+02 -0.49454063957E+02  0.12487668225E+03  0.00000000000E+00 0.  1.
         21    1    1    2  503  502  0.25982304151E+01 -0.40809351026E+02  0.45852306743E+02  0.61437675462E+02  0.00000000000E+00 0.  1.
          1    1    1    2  501    0  0.49722577211E+02 -0.48125084936E+02 -0.21485965894E+03  0.22572778191E+03  0.00000000000E+00 0. -1.
<scales pt_clust_5="13000.00000" pt_clust_6="13000.00000" pt_clust_7="13000.00000" pt_clust_8="13000.00000" pt_clust_9="40.89198" pt_clust_10="71.88427"></scales>
<clustering>
<clus scale="   40.892">  1  9  2 -1</clus>
<clus scale="   71.884">  1 10  2 -1</clus>
<clus scale="   80.873">  5  6 -1 -1</clus>
<clus scale="   89.983">  7  8 -1 -1</clus>
<clus scale="  116.920">  2  5  1 -1</clus>
<clus scale="   40.892">  1  5  2 -1</clus>
</clustering>
</event>
<event>
10    4  0.3043429E-005  0.1066382E+03  0.7546771E-02  0.1271783E+00
         21   -1    0    0  503  502  0.00000000000E+00  0.00000000000E+00  0.30327889314E+02  0.30327889314E+02  0.00000000000E+00 0. -1.
          2   -1    0    0  502    0 -0.00000000000E+00 -0.00000000000E+00 -0.10622375010E+04  0.10622375010E+04  0.00000000000E+00 0. -1.
         23    2    1    2    0    0 -0.72976728448E+02 -0.47946867012E+02 -0.48514443035E+03  0.50120726547E+03  0.90659250583E+02 0.  0.
         24    2    1    2    0    0  0.24317245892E+02  0.12688864932E+02 -0.22894268193E+03  0.24379560032E+03  0.79178326473E+02 0.  0.
        -11    1    4    4    0    0  0.14452954719E+00 -0.27637521474E+02 -0.37025633834E+02  0.46203366142E+02  0.00000000000E+00 0.  1.
         12    1    4    4    0    0  0.24172716345E+02  0.40326386406E+02 -0.19191704810E+03  0.19759223417E+03  0.00000000000E+00 0. -1.
        -13    1    3    3    0    0 -0.14967107438E+02 -0.63527568980E+02 -0.22940773437E+03  0.23851137272E+03  0.00000000000E+00 0. -1.
         13    1    3    3    0    0 -0.58009621010E+02  0.15580701968E+02 -0.25573669597E+03  0.26269589276E+03  0.00000000000E+00 0.  1.
         21    1    1    2  503  501  0.27140503267E+02  0.75838496935E+00 -0.14918486160E-02  0.27151096986E+02  0.00000000000E+00 0. -1.
          1    1    1    2  501    0  0.21518979289E+02  0.34499617110E+02 -0.31782100761E+03  0.32041142758E+03  0.00000000000E+00 0. -1.
<scales pt_clust_5="13000.00000" pt_clust_6="13000.00000" pt_clust_7="13000.00000" pt_clust_8="13000.00000" pt_clust_9="27.15110" pt_clust_10="41.85749"></scales>
<clustering>
<clus scale="   27.151">  1  9  2 -1</clus>
<clus scale="   41.857">  1 10  2 -1</clus>
<clus scale="   79.178">  5  6 -1 -1</clus>
<clus scale="   90.659">  7  8 -1 -1</clus>
<clus scale="   97.066">  1  5  2 -1</clus>
<clus scale="   27.151">  1  5  2 -1</clus>
</clustering>
</event>
<event>
10    4  0.3043429E-005  0.1376228E+03  0.7546771E-02  0.1220923E+00
         21   -1    0    0  503  502  0.00000000000E+00  0.00000000000E+00  0.12642563426E+03  0.12642563426E+03  0.00000000000E+00 0.  1.
         -1   -1    0    0    0  501 -0.00000000000E+00 -0.00000000000E+00 -0.48188241156E+03  0.48188241156E+03  0.00000000000E+00 0.  1.
         23    2    1    2    0    0  0.79182767778E+02  0.51709457324E+02 -0.39121524159E+03  0.41458396442E+03  0.99431984865E+02 0.  0.
         24    2    1    2    0    0 -0.64391314196E+02 -0.81422974647E+02  0.27094966421E+02  0.13499099331E+03  0.81929780447E+02 0.  0.
        -13    1    4    4    0    0 -0.63518815827E+02 -0.29672015136E+02 -0.10676697926E+02  0.70915867935E+02  0.00000000000E+00 0.  1.
         14    1    4    4    0    0 -0.87249836845E+00 -0.51750959511E+02  0.37771664347E+02  0.64075125371E+02  0.00000000000E+00 0. -1.
        -11    1    3    3    0    0  0.37133644452E+02  0.77037430291E+02 -0.28538870881E+03  0.29792681707E+03  0.00000000000E+00 0.  1.
         11    1    3    3    0    0  0.42049123326E+02 -0.25327972967E+02 -0.10582653278E+03  0.11665714735E+03  0.00000000000E+00 0. -1.
         21    1    1    2  503  501 -0.25125696556E+02 -0.13882610166E+01  0.16550919991E+01  0.25218390623E+02  0.00000000000E+00 0.  1.
         -2    1    1    2    0  502  0.10334242974E+02  0.31101778340E+02  0.70084058740E+01  0.33514697472E+02  0.00000000000E+00 0.  1.
<scales pt_clust_5="13000.00000" pt_clust_6="13000.00000" pt_clust_7="13000.00000" pt_clust_8="13000.00000" pt_clust_9="25.16402" pt_clust_10="31.39857"></scales>
<clustering>
<clus scale="   25.164">  1  9  2 -1</clus>
<clus scale="   31.399">  1 10  2 -1</clus>
<clus scale="   81.930">  5  6 -1 -1</clus>
<clus scale="   99.432">  7  8 -1 -1</clus>
<clus scale="  125.562">  1  5  2 -1</clus>
<clus scale="   25.164">  1  5  2 -1</clus>
</clustering>
</event>
<event>
10    4  0.3043429E-005  0.2883951E+03  0.7546771E-02  0.1091737E+00
         21   -1    0    0  501  502  0.00000000000E+00  0.00000000000E+00  0.36099586442E+03  0.36099586442E+03  0.00000000000E+00 0. -1.
          2   -1    0    0  503    0 -0.00000000000E+00 -0.00000000000E+00 -0.17035573072E+04  0.17035573072E+04  0.00000000000E+00 0. -1.
         24    2    1    2    0    0  0.11111286410E+03  0.24105392347E+03 -0.14274293661E+04  0.14541587596E+04  0.81055786712E+02 0.  0.
         23    2    1    2    0    0 -0.25263680858E+03 -0.30105183949E+03  0.54913867530E+01  0.40425291554E+03  0.94512947711E+02 0.  0.
        -13    1    3    3    0    0  0.89988843130E+02  0.10392288061E+03 -0.78105636126E+03  0.79306178603E+03  0.00000000000E+00 0.  1.
         14    1    3    3    0    0  0.21124020967E+02  0.13713104286E+03 -0.64637300480E+03  0.66109697361E+03  0.00000000000E+00 0. -1.
        -13    1    4    4    0    0 -0.22355324452E+03 -0.29337852380E+03 -0.12766710225E+02  0.36906639003E+03  0.00000000000E+00 0. -1.
         13    1    4    4    0    0 -0.29083564058E+02 -0.76733156912E+01  0.18258096978E+02  0.35186525507E+02  0.00000000000E+00 0.  1.
         21    1    1    2  503  502  0.34755755390E+02 -0.33539912586E+02  0.20194506740E+02  0.52351756145E+02  0.00000000000E+00 0. -1.
          1    1    1    2  501    0  0.10676818909E+03  0.93537828603E+02  0.59182029756E+02  0.15378974032E+03  0.00000000000E+00 0. -1.
<scales pt_clust_5="13000.00000" pt_clust_6="13000.00000" pt_clust_7="13000.00000" pt_clust_8="13000.00000" pt_clust_9="48.29998" pt_clust_10="144.13818"></scales>
<clustering>
<clus scale="   48.300">  1  9  2 -1</clus>
<clus scale="   81.056">  5  6 -1 -1</clus>
<clus scale="   94.513">  7  8 -1 -1</clus>
<clus scale="  144.138">  1 10  2 -1</clus>
<clus scale="  284.269">  2  5  1 -1</clus>
<clus scale="   48.300">  1  5  2 -1</clus>
</clustering>
</event>
<event>
10    4  0.3043429E-005  0.1419918E+03  0.7546771E-02  0.1217642E+00
          2   -1    0    0  503    0 -0.00000000000E+00  0.00000000000E+00  0.20881815281E+03  0.20881815281E+03  0.00000000000E+00 0. -1.
         21   -1    0    0  501  502  0.00000000000E+00 -0.00000000000E+00 -0.67058665938E+03  0.67058665938E+03  0.00000000000E+00 0. -1.
         23    2    1    2    0    0  0.22090479710E+02  0.81638739500E+02  0.81225872488E+02  0.14850562576E+03  0.91123023657E+02 0.  0.
         24    2    1    2    0    0  0.10443222462E+03 -0.21165861593E+02 -0.52746515091E+01  0.13404532231E+03  0.81155672929E+02 0.  0.
        -13    1    4    4    0    0  0.53283643174E+01  0.20009697818E+02 -0.16035306392E+02  0.26189893550E+02  0.00000000000E+00 0.  1.
         14    1    4    4    0    0  0.99103860299E+02 -0.41175559411E+02  0.10760654883E+02  0.10785542876E+03  0.00000000000E+00 0. -1.
        -13    1    3    3    0    0  0.41584899954E+02  0.21938791486E+02  0.15345363831E+01  0.47042207409E+02  0.00000000000E+00 0.  1.
         13    1    3    3    0    0 -0.19494420244E+02  0.59699948014E+02  0.79691336104E+02  0.10146341835E+03  0.00000000000E+00 0. -1.
         21    1    1    2  503  502 -0.81191622541E+02 -0.19152552850E+02 -0.52824231333E+03  0.53478859510E+03  0.00000000000E+00 0. -1.
          1    1    1    2  501    0 -0.45331081785E+02 -0.41320325058E+02 -0.94774142176E+01  0.62065269024E+02  0.00000000000E+00 0. -1.
<scales pt_clust_5="13000.00000" pt_clust_6="13000.00000" pt_clust_7="13000.00000" pt_clust_8="13000.00000" pt_clust_9="116.51360" pt_clust_10="61.33743"></scales>
<clustering>
<clus scale="   61.337">  2 10  1 -1</clus>
<clus scale="   81.156">  5  6 -1 -1</clus>
<clus scale="   91.123">  7  8 -1 -1</clus>
<clus scale="  122.488">  1  7  2 -1</clus>
<clus scale="  116.514">  2  9  1 -1</clus>
<clus scale="   61.337">  2  5  1 -1</clus>
</clustering>
</event>
<event>
10    4  0.3043429E-005  0.1129721E+03  0.7546771E-02  0.1257802E+00
         21   -1    0    0  501  502  0.00000000000E+00  0.00000000000E+00  0.13074282669E+03  0.13074282669E+03  0.00000000000E+00 0. -1.
          2   -1    0    0  503    0 -0.00000000000E+00 -0.00000000000E+00 -0.28931725388E+03  0.28931725388E+03  0.00000000000E+00 0. -1.
         24    2    1    2    0    0  0.91558461704E+02 -0.19607756368E+02 -0.17429396672E+03  0.21343602900E+03  0.80057077268E+02 0.  0.
         23    2    1    2    0    0 -0.18965496110E+02  0.44851590284E+01  0.12802548493E+01  0.89749852940E+02  0.87599031707E+02 0.  0.
        -13    1    3    3    0    0  0.44627617683E+02 -0.49524972133E+02 -0.10750220066E+03  0.12649533696E+03  0.00000000000E+00 0.  1.
         14    1    3    3    0    0  0.46930844021E+02  0.29917215765E+02 -0.66791766057E+02  0.86940692041E+02  0.00000000000E+00 0. -1.
        -13    1    4    4    0    0 -0.42908822621E+02  0.16706444409E+02 -0.24796043092E+02  0.52298337416E+02  0.00000000000E+00 0.  1.
         13    1    4    4    0    0  0.23943326510E+02 -0.12221285380E+02  0.26076297941E+02  0.37451515524E+02  0.00000000000E+00 0. -1.
         21    1    1    2  503  502  0.17525325462E+02 -0.10706145682E+02  0.10450330491E+02  0.23042742790E+02  0.00000000000E+00 0.  1.
          1    1    1    2  501    0 -0.90118291055E+02  0.25828743022E+02  0.39889541858E+01  0.93831455836E+02  0.00000000000E+00 0. -1.
<scales pt_clust_5="13000.00000" pt_clust_6="13000.00000" pt_clust_7="13000.00000" pt_clust_8="13000.00000" pt_clust_9="20.53676" pt_clust_10="85.28503"></scales>
<clustering>
<clus scale="   20.537">  1  9  2 -1</clus>
<clus scale="   80.057">  5  6 -1 -1</clus>
<clus scale="   85.285">  1 10  2 -1</clus>
<clus scale="   87.599">  7  8 -1 -1</clus>
<clus scale="  107.230">  2  5  1 -1</clus>
<clus scale="   20.537">  1  5  2 -1</clus>
</clustering>
</event>
<event>
10    4  0.3043429E-005  0.1104244E+03  0.7546771E-02  0.1267634E+00
          4   -1    0    0  503    0 -0.00000000000E+00  0.00000000000E+00  0.47068956506E+03  0.47068956506E+03  0.00000000000E+00 0. -1.
         21   -1    0    0  501  502  0.00000000000E+00 -0.00000000000E+00 -0.26066976152E+03  0.26066976152E+03  0.00000000000E+00 0. -1.
         24    2    1    2    0    0 -0.83524402793E+01  0.19359661190E+02  0.20996899368E+03  0.23614822054E+03  0.10599266021E+03 0.  0.
         23    2    1    2    0    0 -0.92008729154E+02 -0.78888773962E+02  0.27795188470E+02  0.15321880690E+03  0.89523099745E+02 0.  0.
        -13    1    3    3    0    0 -0.33469849088E+02  0.36758835391E+02  0.41001964254E+02  0.64440700260E+02  0.00000000000E+00 0.  1.
         14    1    3    3    0    0  0.25117408809E+02 -0.17399174201E+02  0.16896702943E+03  0.17170752028E+03  0.00000000000E+00 0. -1.
        -11    1    4    4    0    0 -0.10926092559E+03 -0.59124636230E+02  0.19855844972E+02  0.12580908969E+03  0.00000000000E+00 0. -1.
         11    1    4    4    0    0  0.17252196436E+02 -0.19764137732E+02  0.79393434980E+01  0.27409717206E+02  0.00000000000E+00 0.  1.
         21    1    1    2  503  502  0.62226328979E+02 -0.17844032549E+02 -0.16648195989E+03  0.17862465811E+03  0.00000000000E+00 0. -1.
          3    1    1    2  501    0  0.38134840454E+02  0.77373145320E+02  0.13873758129E+03  0.16336764103E+03  0.00000000000E+00 0. -1.
<scales pt_clust_5="13000.00000" pt_clust_6="13000.00000" pt_clust_7="13000.00000" pt_clust_8="13000.00000" pt_clust_9="64.73427" pt_clust_10="88.31821"></scales>
<clustering>
<clus scale="   64.734">  2  9  1 -1</clus>
<clus scale="   88.318">  2 10  1 -1</clus>
<clus scale="   89.523">  7  8 -1 -1</clus>
<clus scale="   94.728">  2  7  1 -1</clus>
<clus scale="  105.993">  5  6 -1 -1</clus>
<clus scale="   64.734">  2  5  1 -1</clus>
</clustering>
</event>
<event>
10    4  0.3043429E-005  0.1317051E+03  0.7546771E-02  0.1226821E+00
         21   -1    0    0  501  502  0.00000000000E+00  0.00000000000E+00  0.20744050217E+03  0.20744050217E+03  0.00000000000E+00 0. -1.
          2   -1    0    0  503    0 -0.00000000000E+00 -0.00000000000E+00 -0.37126331060E+03  0.37126331060E+03  0.00000000000E+00 0. -1.
         23    2    1    2    0    0  0.50477383104E+02  0.44418017643E+01 -0.29307554779E+02  0.10776226844E+03  0.90476946928E+02 0.  0.
         24    2    1    2    0    0 -0.11199870057E+03  0.10555578641E+03 -0.15580970509E+03  0.23419719511E+03  0.82981498072E+02 0.  0.
        -11    1    4    4    0    0 -0.24059027623E+02 -0.10853709908E+02 -0.10863274100E+02  0.28542083895E+02  0.00000000000E+00 0.  1.
         12    1    4    4    0    0 -0.87939672948E+02  0.11640949632E+03 -0.14494643099E+03  0.20565511122E+03  0.00000000000E+00 0. -1.
        -13    1    3    3    0    0 -0.63718068394E+01 -0.34285828017E+02 -0.84410365647E+01  0.35879925077E+02  0.00000000000E+00 0.  1.
         13    1    3    3    0    0  0.56849189943E+02  0.38727629782E+02 -0.20866518214E+02  0.71882343368E+02  0.00000000000E+00 0. -1.
         21    1    1    2  503  502  0.43227939129E+02 -0.51129413271E+02  0.10996878419E+03  0.12874783540E+03  0.00000000000E+00 0. -1.
          1    1    1    2  501    0  0.18293378338E+02 -0.58868174903E+02 -0.88674332750E+02  0.10799651381E+03  0.00000000000E+00 0. -1.
<scales pt_clust_5="13000.00000" pt_clust_6="13000.00000" pt_clust_7="13000.00000" pt_clust_8="13000.00000" pt_clust_9="102.24599" pt_clust_10="61.64506"></scales>
<clustering>
<clus scale="   61.645">  1 10  2 -1</clus>
<clus scale="   82.981">  5  6 -1 -1</clus>
<clus scale="   90.477">  7  8 -1 -1</clus>
<clus scale="  102.246">  1  9  2 -1</clus>
<clus scale="  126.673">  1  5  2 -1</clus>
<clus scale="   61.645">  1  5  2 -1</clus>
</clustering>
</event>
<event>
10    4  0.3043429E-005  0.1656480E+03  0.7546771E-02  0.1192417E+00
          2   -1    0    0  502    0 -0.00000000000E+00  0.00000000000E+00  0.11865298244E+04  0.11865298244E+04  0.00000000000E+00 0. -1.
         21   -1    0    0  503  502  0.00000000000E+00 -0.00000000000E+00 -0.25648098185E+03  0.25648098185E+03  0.00000000000E+00 0. -1.
         24    2    1    2    0    0 -0.93632699238E+02 -0.41768203906E+02  0.15567560999E+03  0.20338700650E+03  0.81361622669E+02 0.  0.
         23    2    1    2    0    0  0.62021281428E+02  0.18965342923E+03  0.84502674941E+03  0.87273680852E+03  0.88228494055E+02 0.  0.
        -11    1    3    3    0    0 -0.75416325667E+02 -0.29161102476E+01  0.53340156153E+02  0.92419143766E+02  0.00000000000E+00 0.  1.
         12    1    3    3    0    0 -0.18216373571E+02 -0.38852093658E+02  0.10233545384E+03  0.11096786274E+03  0.00000000000E+00 0. -1.
        -13    1    4    4    0    0  0.34624826000E+02  0.42376562801E+02  0.11317776087E+03  0.12571339310E+03  0.00000000000E+00 0.  1.
         13    1    4    4    0    0  0.27396455428E+02  0.14727686643E+03  0.73184898854E+03  0.74702341542E+03  0.00000000000E+00 0. -1.
         21    1    1    2  503  501  0.77660947836E+01 -0.29235476436E+02 -0.19267067506E+03  0.19503080356E+03  0.00000000000E+00 0. -1.
          1    1    1    2  501    0  0.23845323027E+02 -0.11864974889E+03  0.12201715824E+03  0.17185618769E+03  0.00000000000E+00 0. -1.
<scales pt_clust_5="13000.00000" pt_clust_6="13000.00000" pt_clust_7="13000.00000" pt_clust_8="13000.00000" pt_clust_9="30.24939" pt_clust_10="140.19624"></scales>
<clustering>
<clus scale="   30.249">  2  9  1 -1</clus>
<clus scale="   81.362">  5  6 -1 -1</clus>
<clus scale="   88.228">  7  8 -1 -1</clus>
<clus scale="  132.817">  1  5  2 -1</clus>
<clus scale="  140.196">  2 10  1 -1</clus>
<clus scale="   30.249">  2  5  1 -1</clus>
</clustering>
</event>
<event>
10    4  0.3043429E-005  0.2151639E+03  0.7546771E-02  0.1173676E+00
         21   -1    0    0  503  502  0.00000000000E+00  0.00000000000E+00  0.33878136408E+03  0.33878136408E+03  0.00000000000E+00 0.  1.
         -1   -1    0    0    0  501 -0.00000000000E+00 -0.00000000000E+00 -0.30839075300E+03  0.30839075300E+03  0.00000000000E+00 0.  1.
         24    2    1    2    0    0  0.15198341335E+02  0.36442226799E+02 -0.97900365171E+02  0.13281031107E+03  0.80592008000E+02 0.  0.
         23    2    1    2    0    0  0.37388558068E+02  0.16506429935E+03  0.57870029456E+02  0.20073527926E+03  0.91113033291E+02 0.  0.
        -11    1    3    3    0    0  0.39628443726E+02  0.48225689763E+02 -0.64062185926E+02  0.89443246648E+02  0.00000000000E+00 0.  1.
         12    1    3    3    0    0 -0.24430102392E+02 -0.11783462964E+02 -0.33838179245E+02  0.43367064426E+02  0.00000000000E+00 0. -1.
        -13    1    4    4    0    0 -0.28079502188E+02  0.79937167024E+02  0.22362243960E+02  0.87626931190E+02  0.00000000000E+00 0.  1.
         13    1    4    4    0    0  0.65468060257E+02  0.85127132325E+02  0.35507785497E+02  0.11310834807E+03  0.00000000000E+00 0. -1.
         21    1    1    2  503  501 -0.39466929436E+02  0.17866381678E+02 -0.47445654726E+02  0.64249017625E+02  0.00000000000E+00 0.  1.
         -2    1    1    2    0  502 -0.13119969967E+02 -0.21937290783E+03  0.11786660152E+03  0.24937750912E+03  0.00000000000E+00 0.  1.
<scales pt_clust_5="13000.00000" pt_clust_6="13000.00000" pt_clust_7="13000.00000" pt_clust_8="13000.00000" pt_clust_9="43.32258" pt_clust_10="194.92038"></scales>
<clustering>
<clus scale="   43.323">  2  9  1 -1</clus>
<clus scale="   80.592">  5  6 -1 -1</clus>
<clus scale="   91.113">  7  8 -1 -1</clus>
<clus scale="   92.155">  2  5  1 -1</clus>
<clus scale="  194.920">  1 10  2 -1</clus>
<clus scale="  194.920">  1  5  2 -1</clus>
</clustering>
</event>
<event>
10    4  0.3043429E-005  0.1587045E+03  0.7546771E-02  0.1215069E+00
         21   -1    0    0  501  502  0.00000000000E+00  0.00000000000E+00  0.10282693167E+03  0.10282693167E+03  0.00000000000E+00 0. -1.
          2   -1    0    0  503    0 -0.00000000000E+00 -0.00000000000E+00 -0.64527713029E+03  0.64527713029E+03  0.00000000000E+00 0. -1.
         24    2    1    2    0    0 -0.30424334384E+02  0.26869071829E+02 -0.24512064229E+03  0.26181121541E+03  0.82543298283E+02 0.  0.
         23    2    1    2    0    0 -0.97749274358E+02 -0.11176565221E+03 -0.24784254250E+03  0.30254298524E+03  0.89776669536E+02 0.  0.
        -11    1    3    3    0    0 -0.34003054946E+02  0.43804257685E+02 -0.89888753193E+02  0.10561727457E+03  0.00000000000E+00 0.  1.
         12    1    3    3    0    0  0.35787205625E+01 -0.16935185856E+02 -0.15523188910E+03  0.15619394083E+03  0.00000000000E+00 0. -1.
        -13    1    4    4    0    0 -0.33891998945E+02 -0.95345927383E+02 -0.18799023200E+03  0.21349435774E+03  0.00000000000E+00 0.  1.
         13    1    4    4    0    0 -0.63857275414E+02 -0.16419724824E+02 -0.59852310505E+02  0.89048627499E+02  0.00000000000E+00 0. -1.
         21    1    1    2  503  502  0.29568176829E+02  0.51102163126E+02 -0.53164597703E+02  0.79449245472E+02  0.00000000000E+00 0.  1.
          1    1    1    2  501    0  0.98605431913E+02  0.33794417253E+02  0.36775838769E+01  0.10430061583E+03  0.00000000000E+00 0. -1.
<scales pt_clust_5="13000.00000" pt_clust_6="13000.00000" pt_clust_7="13000.00000" pt_clust_8="13000.00000" pt_clust_9="59.03989" pt_clust_10="130.87123"></scales>
<clustering>
<clus scale="   59.040">  1  9  2 -1</clus>
<clus scale="   82.543">  5  6 -1 -1</clus>
<clus scale="   89.777">  7  8 -1 -1</clus>
<clus scale="   92.624">  2  5  1 -1</clus>
<clus scale="  130.871">  1 10  2 -1</clus>
<clus scale="   59.040">  1  5  2 -1</clus>
</clustering>
</event>
<event>
10    4  0.3043429E-005  0.1216155E+03  0.7546771E-02  0.1244400E+00
         21   -1    0    0  501  502  0.00000000000E+00  0.00000000000E+00  0.16316473815E+03  0.16316473815E+03  0.00000000000E+00 0. -1.
         -1   -1    0    0    0  501 -0.00000000000E+00 -0.00000000000E+00 -0.30492694268E+03  0.30492694268E+03  0.00000000000E+00 0.  1.
         23    2    1    2    0    0  0.10744217057E+03 -0.38861665226E+02 -0.12314228435E+03  0.19329249347E+03  0.95623829650E+02 0.  0.
         24    2    1    2    0    0 -0.35708530336E+02 -0.31137747417E+02 -0.12716785945E+02  0.96792247583E+02  0.83440781962E+02 0.  0.
        -11    1    4    4    0    0 -0.30847324193E+02  0.23481083731E+02  0.51773406487E+01  0.39111680598E+02  0.00000000000E+00 0.  1.
         12    1    4    4    0    0 -0.48612061426E+01 -0.54618831148E+02 -0.17894126593E+02  0.57680566984E+02  0.00000000000E+00 0. -1.
        -11    1    3    3    0    0  0.98854347852E+02  0.54469637379E+00 -0.11587139570E+03  0.15231106042E+03  0.00000000000E+00 0. -1.
         11    1    3    3    0    0  0.85878227204E+01 -0.39406361600E+02 -0.72708886472E+01  0.40981433056E+02  0.00000000000E+00 0.  1.
         21    1    1    2  503  502 -0.27664403010E+02 -0.95998741783E+01  0.59256255428E+02  0.66096751702E+02  0.00000000000E+00 0. -1.
         -2    1    1    2    0  503 -0.44069237227E+02  0.79599286821E+02 -0.65159389664E+02  0.11191018807E+03  0.00000000000E+00 0.  1.
<scales pt_clust_5="13000.00000" pt_clust_6="13000.00000" pt_clust_7="13000.00000" pt_clust_8="13000.00000" pt_clust_9="29.28270" pt_clust_10="92.39176"></scales>
<clustering>
<clus scale="   29.283">  1  9  2 -1</clus>
<clus scale="   83.441">  5  6 -1 -1</clus>
<clus scale="   92.392">  1 10  2 -1</clus>
<clus scale="   95.624">  7  8 -1 -1</clus>
<clus scale="  112.289">  1  5  2 -1</clus>
<clus scale="   29.283">  1  5  2 -1</clus>
</clustering>
</event>
<event>
10    4  0.3043429E-005  0.4629209E+03  0.7546771E-02  0.1024470E+00
          2   -1    0    0  502    0 -0.00000000000E+00  0.00000000000E+00  0.15750358096E+04  0.15750358096E+04  0.00000000000E+00 0. -1.
         21   -1    0    0  503  502  0.00000000000E+00 -0.00000000000E+00 -0.62738977810E+03  0.62738977810E+03  0.00000000000E+00 0. -1.
         23    2    1    2    0    0  0.31970949841E+03 -0.35454116592E+03  0.13390594253E+04  0.14264992693E+04  0.11792548064E+03 0.  0.
         24    2    1    2    0    0 -0.14346974505E+03  0.19454644243E+03 -0.25026196359E+03  0.35808854017E+03  0.84643169666E+02 0.  0.
        -11    1    4    4    0    0 -0.53199172043E+02  0.15546930669E+02 -0.48209874777E+02  0.73457817728E+02  0.00000000000E+00 0.  1.
         12    1    4    4    0    0 -0.90270573006E+02  0.17899951176E+03 -0.20205208882E+03  0.28463072244E+03  0.00000000000E+00 0. -1.
        -11    1    3    3    0    0  0.79522470565E+02 -0.34962113624E+02  0.16882884222E+03  0.18986666553E+03  0.00000000000E+00 0.  1.
         11    1    3    3    0    0  0.24018702784E+03 -0.31957905230E+03  0.11702305831E+04  0.12366326038E+04  0.00000000000E+00 0. -1.
         21    1    1    2  503  501 -0.25176385801E+00  0.44749045701E+02 -0.19550784759E+03  0.20056385254E+03  0.00000000000E+00 0. -1.
          1    1    1    2  501    0 -0.17598798950E+03  0.11524567779E+03  0.54356417399E+02  0.21727392575E+03  0.00000000000E+00 0. -1.
<scales pt_clust_5="13000.00000" pt_clust_6="13000.00000" pt_clust_7="13000.00000" pt_clust_8="13000.00000" pt_clust_9="44.74975" pt_clust_10="215.17225"></scales>
<clustering>
<clus scale="   44.750">  2  9  1 -1</clus>
<clus scale="   84.643">  5  6 -1 -1</clus>
<clus scale="  117.925">  7  8 -1 -1</clus>
<clus scale="  215.172">  2 10  1 -1</clus>
<clus scale="  455.581">  2  5  1 -1</clus>
<clus scale="   44.750">  2  5  1 -1</clus>
</clustering>
</event>
<event>
10    4  0.3043429E-005  0.1894848E+03  0.7546771E-02  0.1173629E+00
          2   -1    0    0  503    0 -0.00000000000E+00  0.00000000000E+00  0.18752354634E+04  0.18752354634E+04  0.00000000000E+00 0. -1.
         21   -1    0    0  501  502  0.00000000000E+00 -0.00000000000E+00 -0.93487214329E+02  0.93487214329E+02  0.00000000000E+00 0. -1.
         24    2    1    2    0    0  0.56141779023E+02  0.90477424461E+02  0.11218771688E+04  0.11297213120E+04  0.79522305768E+02 0.  0.
         23    2    1    2    0    0 -0.44685685410E+02  0.99948851370E+02  0.36591764325E+03  0.39343647203E+03  0.94392544763E+02 0.  0.
        -13    1    3    3    0    0  0.30442556293E+02 -0.22125201000E+01  0.14857519459E+03  0.15167805684E+03  0.00000000000E+00 0.  1.
         14    1    3    3    0    0  0.25699222730E+02  0.92689944561E+02  0.97330197423E+03  0.97804325513E+03  0.00000000000E+00 0. -1.
        -13    1    4    4    0    0 -0.22727452382E+02 -0.14906219572E+02  0.57663564534E+02  0.63748091332E+02  0.00000000000E+00 0.  1.
         13    1    4    4    0    0 -0.21958233028E+02  0.11485507094E+03  0.30825407872E+03  0.32968838070E+03  0.00000000000E+00 0. -1.
         21    1    1    2  503  502  0.11124708937E+02  0.36655474845E+02 -0.30451806303E+02  0.48935626001E+02  0.00000000000E+00 0. -1.
          1    1    1    2  501    0 -0.22580802550E+02 -0.22708175068E+03  0.32440524327E+03  0.39662926770E+03  0.00000000000E+00 0. -1.
<scales pt_clust_5="13000.00000" pt_clust_6="13000.00000" pt_clust_7="13000.00000" pt_clust_8="13000.00000" pt_clust_9="38.30644" pt_clust_10="164.30013"></scales>
<clustering>
<clus scale="   38.306">  2  9  1 -1</clus>
<clus scale="   79.522">  5  6 -1 -1</clus>
<clus scale="   94.393">  7  8 -1 -1</clus>
<clus scale="  135.072">  1  5  2 -1</clus>
<clus scale="  164.300">  2 10  1 -1</clus>
<clus scale="   38.306">  2  5  1 -1</clus>
</clustering>
</event>
<event>
10    4  0.3043429E-005  0.2516623E+03  0.7546771E-02  0.1113009E+00
          2   -1    0    0  502    0 -0.00000000000E+00  0.00000000000E+00  0.30186497215E+04  0.30186497215E+04  0.00000000000E+00 0. -1.
         21   -1    0    0  503  502  0.00000000000E+00 -0.00000000000E+00 -0.65289720471E+02  0.65289720471E+02  0.00000000000E+00 0.  1.
         23    2    1    2    0    0  0.14952342406E+03  0.85184298684E+02  0.60123446484E+03  0.63243581154E+03  0.94226084067E+02 0.  0.
         24    2    1    2    0    0 -0.30730635127E+03 -0.23146687370E+03  0.97520136978E+03  0.10514502795E+04  0.80720948122E+02 0.  0.
        -11    1    4    4    0    0 -0.12525152231E+03 -0.11306007565E+03  0.32923447709E+03  0.36995386936E+03  0.00000000000E+00 0.  1.
         12    1    4    4    0    0 -0.18205482896E+03 -0.11840679805E+03  0.64596689269E+03  0.68149641013E+03  0.00000000000E+00 0. -1.
        -11    1    3    3    0    0 -0.88835193475E+01  0.25108539528E+02  0.73685211465E+02  0.78350916152E+02  0.00000000000E+00 0.  1.
         11    1    3    3    0    0  0.15840694340E+03  0.60075759156E+02  0.52754925338E+03  0.55408489539E+03  0.00000000000E+00 0. -1.
         21    1    1    2  503  501  0.56475423517E+02  0.39928512508E+01  0.14254163769E+03  0.15337384001E+03  0.00000000000E+00 0. -1.
          1    1    1    2  501    0  0.10130750369E+03  0.14228972377E+03  0.12343825287E+04  0.12466795109E+04  0.00000000000E+00 0. -1.
<scales pt_clust_5="13000.00000" pt_clust_6="13000.00000" pt_clust_7="13000.00000" pt_clust_8="13000.00000" pt_clust_9="56.61640" pt_clust_10="178.42412"></scales>
<clustering>
<clus scale="   56.616">  2  9  1 -1</clus>
<clus scale="   80.721">  5  6 -1 -1</clus>
<clus scale="   94.226">  7  8 -1 -1</clus>
<clus scale="  178.424">  2 10  1 -1</clus>
<clus scale="  246.924">  2  5  1 -1</clus>
<clus scale="   56.616">  2  5  1 -1</clus>
</clustering>
</event>
<event>
10    4  0.3043429E-005  0.2021896E+03  0.7546771E-02  0.1148822E+00
         21   -1    0    0  503  502  0.00000000000E+00  0.00000000000E+00  0.23563915704E+03  0.23563915704E+03  0.00000000000E+00 0.  1.
          2   -1    0    0  502    0 -0.00000000000E+00 -0.00000000000E+00 -0.31714896896E+03  0.31714896896E+03  0.00000000000E+00 0. -1.
         24    2    1    2    0    0 -0.17469276677E+03  0.10322317587E+03 -0.13065345892E+03  0.25436607409E+03  0.80369064454E+02 0.  0.
         23    2    1    2    0    0  0.14964612990E+03 -0.39390781039E+02 -0.13394301006E+02  0.17980256646E+03  0.90575701940E+02 0.  0.
        -13    1    3    3    0    0 -0.12856992742E+03  0.96716799492E+02 -0.64219499013E+02  0.17322964410E+03  0.00000000000E+00 0.  1.
         14    1    3    3    0    0 -0.46122839351E+02  0.65063763816E+01 -0.66433959902E+02  0.81136429991E+02  0.00000000000E+00 0. -1.
        -11    1    4    4    0    0  0.37936431126E+02 -0.16320630703E+02  0.36673353749E+02  0.55231066152E+02  0.00000000000E+00 0.  1.
         11    1    4    4    0    0  0.11170969877E+03 -0.23070150336E+02 -0.50067654755E+02  0.12457150031E+03  0.00000000000E+00 0. -1.
         21    1    1    2  503  501 -0.25950496779E+02 -0.23947332835E+02  0.29072968460E+02  0.45739922694E+02  0.00000000000E+00 0. -1.
          1    1    1    2  501    0  0.50997133647E+02 -0.39885061999E+02  0.33464979543E+02  0.72879562750E+02  0.00000000000E+00 0. -1.
<scales pt_clust_5="13000.00000" pt_clust_6="13000.00000" pt_clust_7="13000.00000" pt_clust_8="13000.00000" pt_clust_9="35.31151" pt_clust_10="63.90368"></scales>
<clustering>
<clus scale="   35.312">  1  9  2 -1</clus>
<clus scale="   63.904">  1 10  2 -1</clus>
<clus scale="   80.369">  5  6 -1 -1</clus>
<clus scale="   90.576">  7  8 -1 -1</clus>
<clus scale="  197.828">  2  5  1 -1</clus>
<clus scale="   35.312">  1  5  2 -1</clus>
</clustering>
</event>
<event>
10    4  0.3043429E-005  0.4282845E+03  0.7546771E-02  0.1075700E+00
          2   -1    0    0  503    0 -0.00000000000E+00  0.00000000000E+00  0.30321851442E+04  0.30321851442E+04  0.00000000000E+00 0. -1.
         21   -1    0    0  501  502  0.00000000000E+00 -0.00000000000E+00 -0.14638014680E+03  0.14638014680E+03  0.00000000000E+00 0.  1.
         24    2    1    2    0    0  0.10626672738E+03  0.15251699073E+02  0.77856805721E+03  0.78977047110E+03  0.77742817330E+02 0.  0.
         23    2    1    2    0    0  0.36244333274E+03 -0.55598817570E+02  0.10076941282E+04  0.10761703336E+04  0.90767466134E+02 0.  0.
        -13    1    3    3    0    0  0.34069784916E+02  0.14473229736E+02  0.88416782333E+02  0.95852762200E+02  0.00000000000E+00 0.  1.
         14    1    3    3    0    0  0.72196942467E+02  0.77846933672E+00  0.69015127488E+03  0.69391770890E+03  0.00000000000E+00 0. -1.
        -11    1    4    4    0    0  0.39873498035E+02  0.11725097007E+02  0.61398391665E+02  0.74142674921E+02  0.00000000000E+00 0. -1.
         11    1    4    4    0    0  0.32256983470E+03 -0.67323914577E+02  0.94629573652E+03  0.10020276586E+04  0.00000000000E+00 0.  1.
         21    1    1    2  503  502  0.10188432462E+02  0.28399689988E+02 -0.54949953212E+02  0.62688467084E+02  0.00000000000E+00 0.  1.
          1    1    1    2  501    0 -0.47889849258E+03  0.11947428510E+02  0.11544927652E+04  0.12499360192E+04  0.00000000000E+00 0. -1.
<scales pt_clust_5="13000.00000" pt_clust_6="13000.00000" pt_clust_7="13000.00000" pt_clust_8="13000.00000" pt_clust_9="30.17195" pt_clust_10="418.55591"></scales>
<clustering>
<clus scale="   30.172">  2  9  1 -1</clus>
<clus scale="   77.743">  5  6 -1 -1</clus>
<clus scale="   90.767">  7  8 -1 -1</clus>
<clus scale="  133.292">  1  5  2 -1</clus>
<clus scale="  418.556">  2 10  1 -1</clus>
<clus scale="   30.172">  2  5  1 -1</clus>
</clustering>
</event>
<event>
10    4  0.3043429E-005  0.2702227E+03  0.7546771E-02  0.1101633E+00
          2   -1    0    0  503    0 -0.00000000000E+00  0.00000000000E+00  0.30222679076E+04  0.30222679076E+04  0.00000000000E+00 0. -1.
         21   -1    0    0  501  502  0.00000000000E+00 -0.00000000000E+00 -0.47016008221E+02  0.47016008221E+02  0.00000000000E+00 0. -1.
         24    2    1    2    0    0 -0.11174769188E+03  0.26105459274E+03  0.17954797468E+04  0.18195763381E+04  0.80457951508E+02 0.  0.
         23    2    1    2    0    0  0.13412018352E+03 -0.16574529247E+03  0.68440456011E+03  0.72258982437E+03  0.90921541879E+02 0.  0.
        -11    1    3    3    0    0 -0.82282777339E+02  0.96656872899E+02  0.69544078159E+03  0.70693060991E+03  0.00000000000E+00 0.  1.
         12    1    3    3    0    0 -0.29464914539E+02  0.16439771984E+03  0.11000389652E+04  0.11126457282E+04  0.00000000000E+00 0. -1.
        -13    1    4    4    0    0  0.38588893537E+02 -0.11962024374E+03  0.36698676455E+03  0.38791415386E+03  0.00000000000E+00 0. -1.
         13    1    4    4    0    0  0.95531289984E+02 -0.46125048733E+02  0.31741779557E+03  0.33467567051E+03  0.00000000000E+00 0.  1.
         21    1    1    2  503  502 -0.29808190491E+02  0.55308616286E+01  0.10909498804E+02  0.32220115066E+02  0.00000000000E+00 0. -1.
          1    1    1    2  501    0  0.74356988484E+01 -0.10084016189E+03  0.48445809364E+03  0.49489763826E+03  0.00000000000E+00 0. -1.
<scales pt_clust_5="13000.00000" pt_clust_6="13000.00000" pt_clust_7="13000.00000" pt_clust_8="13000.00000" pt_clust_9="30.31697" pt_clust_10="100.09601"></scales>
<clustering>
<clus scale="   30.317">  2  9  1 -1</clus>
<clus scale="   80.458">  5  6 -1 -1</clus>
<clus scale="   90.922">  7  8 -1 -1</clus>
<clus scale="  100.096">  2 10  1 -1</clus>
<clus scale="  266.884">  1  5  2 -1</clus>
<clus scale="   30.317">  2  5  1 -1</clus>
</clustering>
</event>
<event>
10    4  0.3043429E-005  0.9931182E+02  0.7546771E-02  0.1285092E+00
         21   -1    0    0  501  502  0.00000000000E+00  0.00000000000E+00  0.72852245921E+03  0.72852245921E+03  0.00000000000E+00 0.  1.
         -1   -1    0    0    0  501 -0.00000000000E+00 -0.00000000000E+00 -0.91786400991E+02  0.91786400991E+02  0.00000000000E+00 0.  1.
         23    2    1    2    0    0 -0.32481348386E+02 -0.80532354163E+01  0.73057346444E+01  0.92844001490E+02  0.86294508865E+02 0.  0.
         24    2    1    2    0    0  0.51626180347E+02  0.14020716079E+03  0.17813776343E+03  0.24562403546E+03  0.79213594822E+02 0.  0.
        -11    1    4    4    0    0  0.24855061775E+02  0.13730162608E+03  0.16360009404E+03  0.21502209512E+03  0.00000000000E+00 0.  1.
         12    1    4    4    0    0  0.26771118572E+02  0.29055347135E+01  0.14537669381E+02  0.30601940341E+02  0.00000000000E+00 0. -1.
        -11    1    3    3    0    0 -0.58783519773E+02 -0.21971830428E+02  0.36380484557E+01  0.62860949132E+02  0.00000000000E+00 0.  1.
         11    1    3    3    0    0  0.26302171386E+02  0.13918595011E+02  0.36676861887E+01  0.29983052358E+02  0.00000000000E+00 0. -1.
         21    1    1    2  503  502 -0.28417252824E+02 -0.61180122580E+02  0.35775385460E+03  0.36405819334E+03  0.00000000000E+00 0.  1.
         -2    1    1    2    0  503  0.92724208635E+01 -0.70973802796E+02  0.93538705542E+02  0.11778262990E+03  0.00000000000E+00 0.  1.
<scales pt_clust_5="13000.00000" pt_clust_6="13000.00000" pt_clust_7="13000.00000" pt_clust_8="13000.00000" pt_clust_9="67.45775" pt_clust_10="88.56514"></scales>
<clustering>
<clus scale="   67.458">  1  9  2 -1</clus>
<clus scale="   79.214">  5  6 -1 -1</clus>
<clus scale="   86.295">  7  8 -1 -1</clus>
<clus scale="   88.565">  1 10  2 -1</clus>
<clus scale="   93.225">  1  5  2 -1</clus>
<clus scale="   67.458">  1  5  2 -1</clus>
</clustering>
</event>
<event>
10    4  0.3043429E-005  0.1362787E+03  0.7546771E-02  0.1220698E+00
          2   -1    0    0  503    0 -0.00000000000E+00  0.00000000000E+00  0.13766864545E+04  0.13766864545E+04  0.00000000000E+00 0. -1.
         21   -1    0    0  501  502  0.00000000000E+00 -0.00000000000E+00 -0.54880088688E+02  0.54880088688E+02  0.00000000000E+00 0.  1.
         23    2    1    2    0    0 -0.96071559684E+02  0.27706871293E+02  0.78669138120E+03  0.79811609840E+03  0.90047553975E+02 0.  0.
         24    2    1    2    0    0  0.10668263778E+03 -0.14172061904E+02  0.38665620934E+03  0.40927003274E+03  0.80105573686E+02 0.  0.
        -13    1    4    4    0    0  0.18304021046E+02 -0.38375835708E+02  0.12028030567E+03  0.12757387619E+03  0.00000000000E+00 0.  1.
         14    1    4    4    0    0  0.88378616733E+02  0.24203773804E+02  0.26637590367E+03  0.28169615655E+03  0.00000000000E+00 0. -1.
        -13    1    3    3    0    0 -0.33421824842E+02 -0.33176089064E+02  0.26057693214E+03  0.26479805291E+03  0.00000000000E+00 0.  1.
         13    1    3    3    0    0 -0.62649734843E+02  0.60882960357E+02  0.52611444906E+03  0.53331804549E+03  0.00000000000E+00 0. -1.
         21    1    1    2  503  502 -0.19942038071E+02 -0.73837032152E+02  0.15710789672E+02  0.78079581912E+02  0.00000000000E+00 0.  1.
          1    1    1    2  501    0  0.93309599759E+01  0.60302222763E+02  0.13274798556E+03  0.14610083010E+03  0.00000000000E+00 0. -1.
<scales pt_clust_5="13000.00000" pt_clust_6="13000.00000" pt_clust_7="13000.00000" pt_clust_8="13000.00000" pt_clust_9="37.49927" pt_clust_10="61.01987"></scales>
<clustering>
<clus scale="   61.020">  2 10  1 -1</clus>
<clus scale="   37.499">  2  9  1 -1</clus>
<clus scale="   80.106">  5  6 -1 -1</clus>
<clus scale="   90.048">  7  8 -1 -1</clus>
<clus scale="  129.924">  2  5  1 -1</clus>
<clus scale="   61.020">  2  5  1 -1</clus>
</clustering>
</event>
<event>
10    4  0.3043429E-005  0.1892022E+03  0.7546771E-02  0.1160878E+00
         21   -1    0    0  501  502  0.00000000000E+00  0.00000000000E+00  0.50738205070E+02  0.50738205070E+02  0.00000000000E+00 0.  1.
          2   -1    0    0  503    0 -0.00000000000E+00 -0.00000000000E+00 -0.11515205776E+04  0.11515205776E+04  0.00000000000E+00 0. -1.
         23    2    1    2    0    0  0.14250110034E+03  0.53616211402E+02 -0.54119099878E+03  0.57034764213E+03  0.96059741839E+02 0.  0.
         24    2    1    2    0    0 -0.14828936935E+03 -0.11749789987E+03 -0.34912419672E+03  0.40520895782E+03  0.80691395013E+02 0.  0.
        -13    1    4    4    0    0 -0.15843724761E+03 -0.11241217250E+03 -0.32733170158E+03  0.38063749265E+03  0.00000000000E+00 0.  1.
         14    1    4    4    0    0  0.10147878261E+02 -0.50857273784E+01 -0.21792495138E+02  0.24571465168E+02  0.00000000000E+00 0. -1.
        -13    1    3    3    0    0  0.68067659730E+02  0.37500488068E+02 -0.42061483951E+03  0.42773395484E+03  0.00000000000E+00 0. -1.
         13    1    3    3    0    0  0.74433440605E+02  0.16115723334E+02 -0.12057615928E+03  0.14261368730E+03  0.00000000000E+00 0.  1.
         21    1    1    2  503  502 -0.20073764350E+01  0.24139796238E+02 -0.18419968430E+02  0.30431144564E+02  0.00000000000E+00 0.  1.
          1    1    1    2  501    0  0.77956454455E+01  0.39741892234E+02 -0.19204720864E+03  0.19627103819E+03  0.00000000000E+00 0. -1.
<scales pt_clust_5="13000.00000" pt_clust_6="13000.00000" pt_clust_7="13000.00000" pt_clust_8="13000.00000" pt_clust_9="24.22312" pt_clust_10="41.60059"></scales>
<clustering>
<clus scale="   24.223">  1  9  2 -1</clus>
<clus scale="   41.601">  1 10  2 -1</clus>
<clus scale="   80.691">  5  6 -1 -1</clus>
<clus scale="   96.060">  7  8 -1 -1</clus>
<clus scale="  181.882">  1  5  2 -1</clus>
<clus scale="   24.223">  1  5  2 -1</clus>
</clustering>
</event>
<event>
10    4  0.3043429E-005  0.1168865E+03  0.7546771E-02  0.1253364E+00
         -3   -1    0    0    0  501 -0.00000000000E+00  0.00000000000E+00  0.16173534878E+03  0.16173534878E+03  0.00000000000E+00 0.  1.
         21   -1    0    0  503  502  0.00000000000E+00 -0.00000000000E+00 -0.38524268009E+03  0.38524268009E+03  0.00000000000E+00 0.  1.
         23    2    1    2    0    0 -0.43349832037E+02 -0.22344988056E+02  0.22762936823E+01  0.10515490744E+03  0.93133595531E+02 0.  0.
         24    2    1    2    0    0  0.20553703380E+02  0.11196879569E+03  0.11245172644E+02  0.13881968579E+03  0.78644677654E+02 0.  0.
        -13    1    4    4    0    0  0.17372771109E+02  0.76801962672E+02  0.44388033493E+02  0.90391659812E+02  0.00000000000E+00 0.  1.
         14    1    4    4    0    0  0.31809322705E+01  0.35166833021E+02 -0.33142860848E+02  0.48428025977E+02  0.00000000000E+00 0. -1.
        -13    1    3    3    0    0 -0.41161499872E+02  0.30455617275E+02 -0.63978955186E+01  0.51601809682E+02  0.00000000000E+00 0.  1.
         13    1    3    3    0    0 -0.21883321645E+01 -0.52800605331E+02  0.86741892009E+01  0.53553097756E+02  0.00000000000E+00 0. -1.
         21    1    1    2  503  501  0.72370204476E+01 -0.34500289380E+02 -0.24288296902E+03  0.24542775123E+03  0.00000000000E+00 0.  1.
         -4    1    1    2    0  502  0.15559108209E+02 -0.55123518258E+02  0.58541713845E+01  0.57575684416E+02  0.00000000000E+00 0.  1.
<scales pt_clust_5="13000.00000" pt_clust_6="13000.00000" pt_clust_7="13000.00000" pt_clust_8="13000.00000" pt_clust_9="35.25116" pt_clust_10="63.72517"></scales>
<clustering>
<clus scale="   35.251">  2  9  1 -1</clus>
<clus scale="   63.725">  2 10  1 -1</clus>
<clus scale="   78.645">  5  6 -1 -1</clus>
<clus scale="   93.134">  7  8 -1 -1</clus>
<clus scale="  105.705">  2  5  1 -1</clus>
<clus scale="   35.251">  2  5  1 -1</clus>
</clustering>
</event>
<event>
10    4  0.3043429E-005  0.9773771E+02  0.7546771E-02  0.1290251E+00
          2   -1    0    0  502    0 -0.00000000000E+00  0.00000000000E+00  0.50100602720E+03  0.50100602720E+03  0.00000000000E+00 0. -1.
         21   -1    0    0  503  502  0.00000000000E+00 -0.00000000000E+00 -0.65023255487E+02  0.65023255487E+02  0.00000000000E+00 0.  1.
         23    2    1    2    0    0 -0.19291685681E+02  0.24889532693E+02  0.20068267118E+03  0.22197955402E+03  0.89497094460E+02 0.  0.
         24    2    1    2    0    0  0.96472858203E+02  0.19768974269E+02  0.68490358365E+02  0.14396024676E+03  0.79597730783E+02 0.  0.
        -11    1    4    4    0    0  0.87806426014E+02  0.35306032550E+02  0.26380827703E+02  0.98246793607E+02  0.00000000000E+00 0.  1.
         12    1    4    4    0    0  0.86664321893E+01 -0.15537058282E+02  0.42109530662E+02  0.45713453157E+02  0.00000000000E+00 0. -1.
        -13    1    3    3    0    0 -0.42867227417E+02  0.52182818361E+01  0.17963728979E+03  0.18475493372E+03  0.00000000000E+00 0.  1.
         13    1    3    3    0    0  0.23575541736E+02  0.19671250857E+02  0.21045381391E+02  0.37224620298E+02  0.00000000000E+00 0. -1.
         21    1    1    2  503  501 -0.15758510842E+02 -0.18495448979E+02  0.46707467595E+01  0.24743244981E+02  0.00000000000E+00 0.  1.
          1    1    1    2  501    0 -0.61422661680E+02 -0.26163057983E+02  0.16213899541E+03  0.17534623692E+03  0.00000000000E+00 0. -1.
<scales pt_clust_5="13000.00000" pt_clust_6="13000.00000" pt_clust_7="13000.00000" pt_clust_8="13000.00000" pt_clust_9="24.29840" pt_clust_10="69.38646"></scales>
<clustering>
<clus scale="   24.298">  2  9  1 -1</clus>
<clus scale="   69.386">  2 10  1 -1</clus>
<clus scale="   79.598">  5  6 -1 -1</clus>
<clus scale="   88.762">  2  5  1 -1</clus>
<clus scale="   89.497">  7  8 -1 -1</clus>
<clus scale="   24.298">  2  5  1 -1</clus>
</clustering>
</event>
<event>
10    4  0.3043429E-005  0.1021913E+03  0.7546771E-02  0.1285693E+00
          2   -1    0    0  503    0 -0.00000000000E+00  0.00000000000E+00  0.72341396974E+03  0.72341396974E+03  0.00000000000E+00 0. -1.
         21   -1    0    0  501  502  0.00000000000E+00 -0.00000000000E+00 -0.43131941267E+02  0.43131941267E+02  0.00000000000E+00 0.  1.
         23    2    1    2    0    0 -0.39127531070E+01  0.16837382825E+02  0.17507947980E+03  0.20072554517E+03  0.96639087015E+02 0.  0.
         24    2    1    2    0    0  0.20680843609E+02 -0.55637544046E+02  0.93669158144E+02  0.13546237491E+03  0.77800451339E+02 0.  0.
        -11    1    4    4    0    0  0.46447025030E+01 -0.71136243257E+02  0.52128543094E+02  0.88313777924E+02  0.00000000000E+00 0.  1.
         12    1    4    4    0    0  0.16036141106E+02  0.15498699212E+02  0.41540615050E+02  0.47148596984E+02  0.00000000000E+00 0. -1.
        -11    1    3    3    0    0  0.27488324642E+02  0.38550105340E+02  0.14372681062E+03  0.15132453437E+03  0.00000000000E+00 0.  1.
         11    1    3    3    0    0 -0.31401077749E+02 -0.21712722516E+02  0.31352669188E+02  0.49401010799E+02  0.00000000000E+00 0. -1.
         21    1    1    2  503  502 -0.22722242499E+02 -0.23000371064E+02  0.30996635566E+02  0.44789605822E+02  0.00000000000E+00 0. -1.
          1    1    1    2  501    0  0.59541519978E+01  0.61800532285E+02  0.38053675496E+03  0.38556838510E+03  0.00000000000E+00 0. -1.
<scales pt_clust_5="13000.00000" pt_clust_6="13000.00000" pt_clust_7="13000.00000" pt_clust_8="13000.00000" pt_clust_9="32.33137" pt_clust_10="60.36252"></scales>
<clustering>
<clus scale="   32.331">  2  9  1 -1</clus>
<clus scale="   60.363">  2 10  1 -1</clus>
<clus scale="   77.800">  5  6 -1 -1</clus>
<clus scale="   84.598">  2  5  1 -1</clus>
<clus scale="   96.639">  7  8 -1 -1</clus>
<clus scale="   32.331">  2  5  1 -1</clus>
</clustering>
</event>
<event>
10    4  0.3043429E-005  0.1088939E+03  0.7546771E-02  0.1265826E+00
          2   -1    0    0  503    0 -0.00000000000E+00  0.00000000000E+00  0.62687026235E+03  0.62687026235E+03  0.00000000000E+00 0. -1.
         21   -1    0    0  501  502  0.00000000000E+00 -0.00000000000E+00 -0.24462597423E+03  0.24462597423E+03  0.00000000000E+00 0. -1.
         24    2    1    2    0    0 -0.73824108457E+02  0.11192740444E+02  0.33432013390E+03  0.35237822065E+03  0.82614659889E+02 0.  0.
         23    2    1    2    0    0  0.31058885075E+02 -0.21494665499E+02  0.13313402411E+03  0.16542923384E+03  0.90639329465E+02 0.  0.
        -11    1    3    3    0    0 -0.87597037240E+01 -0.31349718146E+02  0.12223351934E+03  0.12649336143E+03  0.00000000000E+00 0.  1.
         12    1    3    3    0    0 -0.65064404733E+02  0.42542458589E+02  0.21208661456E+03  0.22588485921E+03  0.00000000000E+00 0. -1.
        -13    1    4    4    0    0 -0.26262011429E+02 -0.21387402687E+02  0.22010715031E+02  0.40392893114E+02  0.00000000000E+00 0. -1.
         13    1    4    4    0    0  0.57320896503E+02 -0.10726281292E+00  0.11112330908E+03  0.12503634072E+03  0.00000000000E+00 0.  1.
         21    1    1    2  503  502 -0.24710029612E+02  0.93134265796E+01 -0.21008933659E+03  0.21174242567E+03  0.00000000000E+00 0. -1.
          1    1    1    2  501    0  0.67475252994E+02  0.98849847601E+00  0.12487946671E+03  0.14194635642E+03  0.00000000000E+00 0. -1.
<scales pt_clust_5="13000.00000" pt_clust_6="13000.00000" pt_clust_7="13000.00000" pt_clust_8="13000.00000" pt_clust_9="26.40692" pt_clust_10="61.31148"></scales>
<clustering>
<clus scale="   26.407">  2  9  1 -1</clus>
<clus scale="   61.311">  2 10  1 -1</clus>
<clus scale="   82.615">  5  6 -1 -1</clus>
<clus scale="   90.639">  7  8 -1 -1</clus>
<clus scale="  102.311">  1  5  2 -1</clus>
<clus scale="   26.407">  2  5  1 -1</clus>
</clustering>
</event>
<event>
10    4  0.3043429E-005  0.1026091E+03  0.7546771E-02  0.1284957E+00
         21   -1    0    0  503  502  0.00000000000E+00  0.00000000000E+00  0.13745910494E+03  0.13745910494E+03  0.00000000000E+00 0.  1.
         -1   -1    0    0    0  501 -0.00000000000E+00 -0.00000000000E+00 -0.17723679621E+03  0.17723679621E+03  0.00000000000E+00 0.  1.
         23    2    1    2    0    0  0.47093442962E+02 -0.20792726828E+02  0.82205088080E+01  0.10701985683E+03  0.93464127511E+02 0.  0.
         24    2    1    2    0    0 -0.13755923931E+02  0.42608639912E+02  0.38046214454E+02  0.94020309137E+02  0.73400152981E+02 0.  0.
        -13    1    4    4    0    0  0.76094921446E+01  0.36211102636E+02  0.54802351562E+02  0.66124473998E+02  0.00000000000E+00 0.  1.
         14    1    4    4    0    0 -0.21365416076E+02  0.63975372760E+01 -0.16756137108E+02  0.27895835139E+02  0.00000000000E+00 0. -1.
        -13    1    3    3    0    0 -0.13017245699E+02 -0.38914424019E+02  0.15398407014E+02  0.43827982168E+02  0.00000000000E+00 0. -1.
         13    1    3    3    0    0  0.60110688661E+02  0.18121697191E+02 -0.71778982064E+01  0.63191874660E+02  0.00000000000E+00 0.  1.
         21    1    1    2  503  501 -0.20492367869E+02  0.11209085458E+02 -0.32316110676E+01  0.23580162166E+02  0.00000000000E+00 0.  1.
         -2    1    1    2    0  502 -0.12845151161E+02 -0.33024998542E+02 -0.82812803466E+02  0.90075573020E+02  0.00000000000E+00 0.  1.
<scales pt_clust_5="13000.00000" pt_clust_6="13000.00000" pt_clust_7="13000.00000" pt_clust_8="13000.00000" pt_clust_9="23.35767" pt_clust_10="35.98163"></scales>
<clustering>
<clus scale="   23.358">  2  9  1 -1</clus>
<clus scale="   35.982">  1 10  2 -1</clus>
<clus scale="   73.400">  5  6 -1 -1</clus>
<clus scale="   84.739">  1  5  2 -1</clus>
<clus scale="   93.464">  7  8 -1 -1</clus>
<clus scale="   35.982">  1  5  2 -1</clus>
</clustering>
</event>
<event>
10    4  0.3043429E-005  0.1287440E+03  0.7546771E-02  0.1231843E+00
         21   -1    0    0  501  502  0.00000000000E+00  0.00000000000E+00  0.44358754940E+03  0.44358754940E+03  0.00000000000E+00 0.  1.
          2   -1    0    0  503    0 -0.00000000000E+00 -0.00000000000E+00 -0.11215803273E+03  0.11215803273E+03  0.00000000000E+00 0. -1.
         23    2    1    2    0    0  0.97460855198E+02  0.71348880673E+02  0.20160937860E+02  0.15258292026E+03  0.91026386678E+02 0.  0.
         24    2    1    2    0    0 -0.42799733147E+02 -0.52819132029E+01  0.13854366692E+03  0.16645798521E+03  0.81573264184E+02 0.  0.
        -11    1    4    4    0    0 -0.45137819481E+02  0.26043461937E+02  0.11780645478E+03  0.12881787704E+03  0.00000000000E+00 0.  1.
         12    1    4    4    0    0  0.23380863334E+01 -0.31325375140E+02  0.20737212144E+02  0.37640108167E+02  0.00000000000E+00 0. -1.
        -13    1    3    3    0    0  0.83398834189E+02  0.93170758808E+02  0.13426435292E+02  0.12576336909E+03  0.00000000000E+00 0. -1.
         13    1    3    3    0    0  0.14062021009E+02 -0.21821878135E+02  0.67345025676E+01  0.26819551171E+02  0.00000000000E+00 0.  1.
         21    1    1    2  503  502 -0.36131113626E+02 -0.82940381565E+01  0.17208169462E+03  0.17602942386E+03  0.00000000000E+00 0.  1.
          1    1    1    2  501    0 -0.18530008425E+02 -0.57772929314E+02  0.64321726892E+00  0.60675252799E+02  0.00000000000E+00 0. -1.
<scales pt_clust_5="13000.00000" pt_clust_6="13000.00000" pt_clust_7="13000.00000" pt_clust_8="13000.00000" pt_clust_9="37.07086" pt_clust_10="62.92998"></scales>
<clustering>
<clus scale="   37.071">  1  9  2 -1</clus>
<clus scale="   62.930">  1 10  2 -1</clus>
<clus scale="   81.573">  5  6 -1 -1</clus>
<clus scale="   91.026">  7  8 -1 -1</clus>
<clus scale="  122.243">  1  5  2 -1</clus>
<clus scale="   37.071">  1  5  2 -1</clus>
</clustering>
</event>
<event>
10    4  0.3043429E-005  0.3872841E+03  0.7546771E-02  0.1090591E+00
         21   -1    0    0  501  502  0.00000000000E+00  0.00000000000E+00  0.11566787709E+03  0.11566787709E+03  0.00000000000E+00 0.  1.
          2   -1    0    0  503    0 -0.00000000000E+00 -0.00000000000E+00 -0.21294549469E+04  0.21294549469E+04  0.00000000000E+00 0. -1.
         24    2    1    2    0    0 -0.37983253005E+01 -0.90500246075E+02 -0.49656173416E+03  0.51111771044E+03  0.80393011342E+02 0.  0.
         23    2    1    2    0    0 -0.38220627312E+03 -0.83205850850E+01 -0.75154762613E+03  0.84809635080E+03  0.91064364808E+02 0.  0.
        -13    1    3    3    0    0  0.24103381334E+02 -0.56901362628E+02 -0.15643077546E+03  0.16819430898E+03  0.00000000000E+00 0.  1.
         14    1    3    3    0    0 -0.27901706635E+02 -0.33598883447E+02 -0.34013095870E+03  0.34292340146E+03  0.00000000000E+00 0. -1.
        -13    1    4    4    0    0 -0.18889704112E+03  0.29588112446E+02 -0.43638196001E+03  0.47643127895E+03  0.00000000000E+00 0. -1.
         13    1    4    4    0    0 -0.19330923201E+03 -0.37908697531E+02 -0.31516566612E+03  0.37166507185E+03  0.00000000000E+00 0.  1.
         21    1    1    2  503  502  0.20904550888E+02  0.15773815394E+01  0.99082510154E+01  0.23187535845E+02  0.00000000000E+00 0. -1.
          1    1    1    2  501    0  0.36510004754E+03  0.97243449621E+02 -0.77558596052E+03  0.86272122691E+03  0.00000000000E+00 0. -1.
<scales pt_clust_5="13000.00000" pt_clust_6="13000.00000" pt_clust_7="13000.00000" pt_clust_8="13000.00000" pt_clust_9="20.96398" pt_clust_10="376.42580"></scales>
<clustering>
<clus scale="   20.964">  1  9  2 -1</clus>
<clus scale="   80.393">  5  6 -1 -1</clus>
<clus scale="   91.064">  7  8 -1 -1</clus>
<clus scale="  120.986">  2  5  1 -1</clus>
<clus scale="  376.426">  1 10  2 -1</clus>
<clus scale="   20.964">  1  5  2 -1</clus>
</clustering>
</event>
<event>
10    4  0.3043429E-005  0.9669201E+02  0.7546771E-02  0.1294351E+00
         21   -1    0    0  503  502  0.00000000000E+00  0.00000000000E+00  0.43280112067E+03  0.43280112067E+03  0.00000000000E+00 0. -1.
          2   -1    0    0  502    0 -0.00000000000E+00 -0.00000000000E+00 -0.86170945270E+02  0.86170945270E+02  0.00000000000E+00 0. -1.
         23    2    1    2    0    0 -0.20129227558E+02 -0.41420429334E+02 -0.22202108307E+02  0.10448275935E+03  0.91120116443E+02 0.  0.
         24    2    1    2    0    0 -0.30472082402E+02  0.76399650050E+00  0.11210389042E+03  0.14021886630E+03  0.78516983659E+02 0.  0.
        -11    1    4    4    0    0  0.21116564894E+02  0.13823140727E+02  0.14651057523E+02  0.29182906281E+02  0.00000000000E+00 0.  1.
         12    1    4    4    0    0 -0.51588647296E+02 -0.13059144226E+02  0.97452832894E+02  0.11103596002E+03  0.00000000000E+00 0. -1.
        -11    1    3    3    0    0 -0.55297374007E+02 -0.37203247894E+02 -0.13308973832E+02  0.67963298996E+02  0.00000000000E+00 0.  1.
         11    1    3    3    0    0  0.35168146450E+02 -0.42171814393E+01 -0.88931344741E+01  0.36519460357E+02  0.00000000000E+00 0. -1.
         21    1    1    2  503  501  0.26177538723E+02  0.14714988691E+02  0.22363674879E+03  0.22564394482E+03  0.00000000000E+00 0. -1.
          1    1    1    2  501    0  0.24423771237E+02  0.25941444142E+02  0.33091644500E+02  0.48626495466E+02  0.00000000000E+00 0. -1.
<scales pt_clust_5="13000.00000" pt_clust_6="13000.00000" pt_clust_7="13000.00000" pt_clust_8="13000.00000" pt_clust_9="30.02989" pt_clust_10="41.29252"></scales>
<clustering>
<clus scale="   30.030">  1  9  2 -1</clus>
<clus scale="   41.293">  1 10  2 -1</clus>
<clus scale="   78.517">  5  6 -1 -1</clus>
<clus scale="   84.920">  1  5  2 -1</clus>
<clus scale="   91.120">  7  8 -1 -1</clus>
<clus scale="   30.030">  1  5  2 -1</clus>
</clustering>
</event>
<event>
10    4  0.3043429E-005  0.2255471E+03  0.7546771E-02  0.1129978E+00
          2   -1    0    0  503    0 -0.00000000000E+00  0.00000000000E+00  0.42029178024E+03  0.42029178024E+03  0.00000000000E+00 0. -1.
         21   -1    0    0  501  502  0.00000000000E+00 -0.00000000000E+00 -0.31235009156E+03  0.31235009156E+03  0.00000000000E+00 0.  1.
         23    2    1    2    0    0  0.20669290837E+03 -0.49541699038E+02  0.49155394501E+01  0.23218353318E+03  0.93320374182E+02 0.  0.
         24    2    1    2    0    0 -0.19644025524E+03 -0.44263261677E+00 -0.77835768182E+02  0.23187516659E+03  0.95491969672E+02 0.  0.
        -11    1    4    4    0    0 -0.18944393657E+03 -0.72248031640E+01 -0.95064942768E+02  0.21208146130E+03  0.00000000000E+00 0.  1.
         12    1    4    4    0    0 -0.69963186696E+01  0.67821705472E+01  0.17229174587E+02  0.19793705292E+02  0.00000000000E+00 0. -1.
        -13    1    3    3    0    0  0.12801931404E+03 -0.22829807114E+02  0.47971656057E+02  0.13860528361E+03  0.00000000000E+00 0.  1.
         13    1    3    3    0    0  0.78673594331E+02 -0.26711891924E+02 -0.43056116607E+02  0.93578249569E+02  0.00000000000E+00 0. -1.
         21    1    1    2  503  502 -0.31728851980E+02 -0.10791748121E+02 -0.31901551009E+02  0.46269761532E+02  0.00000000000E+00 0. -1.
          1    1    1    2  501    0  0.21476198847E+02  0.60776079776E+02  0.21276346842E+03  0.22231341049E+03  0.00000000000E+00 0. -1.
<scales pt_clust_5="13000.00000" pt_clust_6="13000.00000" pt_clust_7="13000.00000" pt_clust_8="13000.00000" pt_clust_9="33.51391" pt_clust_10="64.09813"></scales>
<clustering>
<clus scale="   33.514">  2  9  1 -1</clus>
<clus scale="   64.098">  2 10  1 -1</clus>
<clus scale="   93.320">  7  8 -1 -1</clus>
<clus scale="   95.492">  5  6 -1 -1</clus>
<clus scale="  224.636">  1  7  2 -1</clus>
<clus scale="   33.514">  2  5  1 -1</clus>
</clustering>
</event>
<event>
10    4  0.3043429E-005  0.1038073E+03  0.7546771E-02  0.1278484E+00
         21   -1    0    0  501  502  0.00000000000E+00  0.00000000000E+00  0.22912615527E+03  0.22912615527E+03  0.00000000000E+00 0.  1.
          2   -1    0    0  503    0 -0.00000000000E+00 -0.00000000000E+00 -0.92799167633E+02  0.92799167633E+02  0.00000000000E+00 0. -1.
         24    2    1    2    0    0 -0.36119066028E+02 -0.88507039352E+01  0.37698416387E+02  0.98803864747E+02  0.83415293561E+02 0.  0.
         23    2    1    2    0    0  0.37823288835E+02  0.27046326012E+02  0.82270437499E+02  0.13454259758E+03  0.95766281898E+02 0.  0.
        -13    1    3    3    0    0 -0.76078321332E+01 -0.43785802255E+02  0.28462897491E+02  0.52775108929E+02  0.00000000000E+00 0.  1.
         14    1    3    3    0    0 -0.28511233895E+02  0.34935098320E+02  0.92355188954E+01  0.46028755817E+02  0.00000000000E+00 0. -1.
        -13    1    4    4    0    0  0.59098642612E+02  0.53109239637E+01  0.85374670088E+02  0.10396965790E+03  0.00000000000E+00 0.  1.
         13    1    4    4    0    0 -0.21275353777E+02  0.21735402049E+02 -0.31042325890E+01  0.30572939677E+02  0.00000000000E+00 0. -1.
         21    1    1    2  503  502 -0.76860563027E+01 -0.49121138200E+02  0.25368327266E+02  0.55816786971E+02  0.00000000000E+00 0.  1.
          1    1    1    2  501    0  0.59818334957E+01  0.30925516123E+02 -0.90101935169E+01  0.32762073601E+02  0.00000000000E+00 0. -1.
<scales pt_clust_5="13000.00000" pt_clust_6="13000.00000" pt_clust_7="13000.00000" pt_clust_8="13000.00000" pt_clust_9="43.83767" pt_clust_10="31.49874"></scales>
<clustering>
<clus scale="   31.499">  1 10  2 -1</clus>
<clus scale="   43.838">  1  9  2 -1</clus>
<clus scale="   83.415">  5  6 -1 -1</clus>
<clus scale="   92.536">  2  5  1 -1</clus>
<clus scale="   95.766">  7  8 -1 -1</clus>
<clus scale="   31.499">  1  5  2 -1</clus>
</clustering>
</event>
<event>
10    4  0.3043429E-005  0.9351564E+02  0.7546771E-02  0.1301843E+00
          2   -1    0    0  503    0 -0.00000000000E+00  0.00000000000E+00  0.37859077125E+03  0.37859077125E+03  0.00000000000E+00 0. -1.
         21   -1    0    0  501  502  0.00000000000E+00 -0.00000000000E+00 -0.13275525928E+03  0.13275525928E+03  0.00000000000E+00 0. -1.
         24    2    1    2    0    0 -0.17703422145E+02 -0.15374042858E+00  0.91517486728E+02  0.12375404435E+03  0.81401341044E+02 0.  0.
         23    2    1    2    0    0 -0.19006389982E+02 -0.50058439894E+02 -0.75607136664E+02  0.13143717493E+03  0.93231977214E+02 0.  0.
        -13    1    3    3    0    0  0.37773618734E+01 -0.24239468061E+02  0.87923234361E+02  0.91281517380E+02  0.00000000000E+00 0.  1.
         14    1    3    3    0    0 -0.21480784019E+02  0.24085727632E+02  0.35942523668E+01  0.32472526968E+02  0.00000000000E+00 0. -1.
        -11    1    4    4    0    0  0.31160796933E+02 -0.38550000582E+02 -0.59633523228E+02  0.77545179753E+02  0.00000000000E+00 0.  1.
         11    1    4    4    0    0 -0.50167186915E+02 -0.11508439312E+02 -0.15973613436E+02  0.53891995180E+02  0.00000000000E+00 0. -1.
         21    1    1    2  503  502  0.25155956535E+02 -0.13211171095E+02  0.15749164271E+02  0.32486818344E+02  0.00000000000E+00 0. -1.
          1    1    1    2  501    0  0.11553855593E+02  0.63423351417E+02  0.21417599764E+03  0.22366799290E+03  0.00000000000E+00 0. -1.
<scales pt_clust_5="13000.00000" pt_clust_6="13000.00000" pt_clust_7="13000.00000" pt_clust_8="13000.00000" pt_clust_9="28.41403" pt_clust_10="61.54678"></scales>
<clustering>
<clus scale="   28.414">  1  9  2 -1</clus>
<clus scale="   61.547">  2 10  1 -1</clus>
<clus scale="   81.401">  5  6 -1 -1</clus>
<clus scale="   81.726">  1  5  2 -1</clus>
<clus scale="   93.232">  7  8 -1 -1</clus>
<clus scale="   61.547">  2  5  1 -1</clus>
</clustering>
</event>
<event>
10    4  0.3043429E-005  0.1429071E+03  0.7546771E-02  0.1221688E+00
          2   -1    0    0  503    0 -0.00000000000E+00  0.00000000000E+00  0.10018409354E+04  0.10018409354E+04  0.00000000000E+00 0. -1.
         21   -1    0    0  501  502  0.00000000000E+00 -0.00000000000E+00 -0.12135955291E+03  0.12135955291E+03  0.00000000000E+00 0.  1.
         24    2    1    2    0    0 -0.40251355837E+02  0.14975036816E+02 -0.30584053831E+02  0.95401422511E+02  0.79508639116E+02 0.  0.
         23    2    1    2    0    0  0.28436662164E+02  0.89001250178E+02  0.73632887187E+03  0.74830751408E+03  0.95152833861E+02 0.  0.
        -13    1    3    3    0    0 -0.29749047176E+02  0.53307969818E+01 -0.57490367535E+02  0.64950485477E+02  0.00000000000E+00 0.  1.
         14    1    3    3    0    0 -0.10502308661E+02  0.96442398338E+01  0.26906313703E+02  0.30450937035E+02  0.00000000000E+00 0. -1.
        -11    1    4    4    0    0  0.58025067424E+02  0.25828561861E+02  0.33768500700E+03  0.34360615100E+03  0.00000000000E+00 0. -1.
         11    1    4    4    0    0 -0.29588405259E+02  0.63172688317E+02  0.39864386487E+03  0.40470136308E+03  0.00000000000E+00 0.  1.
         21    1    1    2  503  502 -0.47450154511E+02  0.49035449303E+00 -0.19351272080E+02  0.51246749573E+02  0.00000000000E+00 0. -1.
          1    1    1    2  501    0  0.59264848184E+02 -0.10446664149E+03  0.19408783650E+03  0.22824480211E+03  0.00000000000E+00 0. -1.
<scales pt_clust_5="13000.00000" pt_clust_6="13000.00000" pt_clust_7="13000.00000" pt_clust_8="13000.00000" pt_clust_9="47.45269" pt_clust_10="106.62259"></scales>
<clustering>
<clus scale="   47.453">  2  9  1 -1</clus>
<clus scale="   79.509">  5  6 -1 -1</clus>
<clus scale="   95.153">  7  8 -1 -1</clus>
<clus scale="  110.359">  1  5  2 -1</clus>
<clus scale="  106.623">  2 10  1 -1</clus>
<clus scale="   47.453">  2  5  1 -1</clus>
</clustering>
</event>
<event>
10    4  0.3043429E-005  0.1070521E+03  0.7546771E-02  0.1270114E+00
          2   -1    0    0  503    0 -0.00000000000E+00  0.00000000000E+00  0.13609351618E+03  0.13609351618E+03  0.00000000000E+00 0. -1.
         21   -1    0    0  501  502  0.00000000000E+00 -0.00000000000E+00 -0.24653606680E+03  0.24653606680E+03  0.00000000000E+00 0.  1.
         23    2    1    2    0    0 -0.26815261598E+02 -0.19095074281E+02  0.66821793380E+02  0.12501593635E+03  0.10039996093E+03 0.  0.
         24    2    1    2    0    0  0.33415039091E+02  0.51068962068E+02 -0.12201054753E+03  0.16446710443E+03  0.91859953228E+02 0.  0.
        -13    1    4    4    0    0  0.32496420204E+02  0.76930807096E+02 -0.83716227725E+02  0.11824877670E+03  0.00000000000E+00 0.  1.
         14    1    4    4    0    0  0.91861888724E+00 -0.25861845028E+02 -0.38294319807E+02  0.46218327732E+02  0.00000000000E+00 0. -1.
        -13    1    3    3    0    0  0.12479296597E+02  0.31502223118E+02  0.20988822208E+01  0.33948905895E+02  0.00000000000E+00 0.  1.
         13    1    3    3    0    0 -0.39294558195E+02 -0.50597297399E+02  0.64722911159E+02  0.91067030459E+02  0.00000000000E+00 0. -1.
         21    1    1    2  503  502 -0.72225078252E+01  0.19676515418E+02 -0.27284933314E+02  0.34406357905E+02  0.00000000000E+00 0. -1.
          1    1    1    2  501    0  0.62273033203E+00 -0.51650403205E+02 -0.27968863148E+02  0.58740184287E+02  0.00000000000E+00 0. -1.
<scales pt_clust_5="13000.00000" pt_clust_6="13000.00000" pt_clust_7="13000.00000" pt_clust_8="13000.00000" pt_clust_9="20.96020" pt_clust_10="47.70256"></scales>
<clustering>
<clus scale="   20.960">  2  9  1 -1</clus>
<clus scale="   47.703">  2 10  1 -1</clus>
<clus scale="   91.860">  5  6 -1 -1</clus>
<clus scale="   99.087">  2  5  1 -1</clus>
<clus scale="  100.400">  7  8 -1 -1</clus>
<clus scale="   20.960">  2  5  1 -1</clus>
</clustering>
</event>
<event>
10    4  0.3043429E-005  0.9693222E+02  0.7546771E-02  0.1294405E+00
         -1   -1    0    0    0  501 -0.00000000000E+00  0.00000000000E+00  0.63600452911E+02  0.63600452911E+02  0.00000000000E+00 0.  1.
         21   -1    0    0  503  502  0.00000000000E+00 -0.00000000000E+00 -0.47384894026E+03  0.47384894026E+03  0.00000000000E+00 0.  1.
         24    2    1    2    0    0  0.20473991703E+01 -0.19994236890E+02 -0.18903991814E+02  0.84456836077E+02  0.79822521268E+02 0.  0.
         23    2    1    2    0    0  0.47375638793E+02  0.53991925843E+02 -0.22781191616E+03  0.25638803529E+03  0.93150288727E+02 0.  0.
        -11    1    3    3    0    0  0.40536612472E+02 -0.12441693942E+02 -0.43704753456E+01  0.42627617264E+02  0.00000000000E+00 0.  1.
         12    1    3    3    0    0 -0.38489213302E+02 -0.75525429480E+01 -0.14533516469E+02  0.41829218813E+02  0.00000000000E+00 0. -1.
        -11    1    4    4    0    0 -0.20110934413E+02  0.36187000228E+01 -0.97719207750E+01  0.22650278331E+02  0.00000000000E+00 0. -1.
         11    1    4    4    0    0  0.67486573206E+02  0.50373225820E+02 -0.21803999538E+03  0.23373775696E+03  0.00000000000E+00 0.  1.
         21    1    1    2  503  501 -0.29074872582E+02 -0.38811319000E+02 -0.16830921069E+03  0.17515609353E+03  0.00000000000E+00 0.  1.
         -2    1    1    2    0  502 -0.20348165381E+02  0.48136300475E+01  0.47766313128E+01  0.21448428271E+02  0.00000000000E+00 0.  1.
<scales pt_clust_5="13000.00000" pt_clust_6="13000.00000" pt_clust_7="13000.00000" pt_clust_8="13000.00000" pt_clust_9="52.05610" pt_clust_10="20.90979"></scales>
<clustering>
<clus scale="   20.910">  2 10  1 -1</clus>
<clus scale="   52.056">  2  9  1 -1</clus>
<clus scale="   79.823">  5  6 -1 -1</clus>
<clus scale="   84.205">  1  5  2 -1</clus>
<clus scale="   93.150">  7  8 -1 -1</clus>
<clus scale="   20.910">  2  5  1 -1</clus>
</clustering>
</event>
<event>
10    4  0.3043429E-005  0.9661315E+02  0.7546771E-02  0.1291166E+00
         21   -1    0    0  501  502  0.00000000000E+00  0.00000000000E+00  0.15389440401E+03  0.15389440401E+03  0.00000000000E+00 0. -1.
          4   -1    0    0  503    0 -0.00000000000E+00 -0.00000000000E+00 -0.26191428687E+03  0.26191428687E+03  0.00000000000E+00 0. -1.
         23    2    1    2    0    0  0.25838669858E+02  0.18805591891E+02 -0.93796022800E+02  0.13234627352E+03  0.87730012398E+02 0.  0.
         24    2    1    2    0    0  0.64809491011E+01 -0.10090361189E+03  0.19001620712E+02  0.13079774707E+03  0.80767861532E+02 0.  0.
        -13    1    4    4    0    0 -0.33683917939E+02 -0.39336355501E+02 -0.81669955349E+01  0.52427616844E+02  0.00000000000E+00 0.  1.
         14    1    4    4    0    0  0.40164867041E+02 -0.61567256388E+02  0.27168616247E+02  0.78370130230E+02  0.00000000000E+00 0. -1.
        -13    1    3    3    0    0 -0.14993173055E+02  0.39804842159E+02 -0.24107883804E+02  0.48891827119E+02  0.00000000000E+00 0.  1.
         13    1    3    3    0    0  0.40831842913E+02 -0.20999250268E+02 -0.69688138996E+02  0.83454446401E+02  0.00000000000E+00 0. -1.
         21    1    1    2  503  502 -0.47531894476E+01  0.37861497674E+02  0.44789133819E+02  0.58840057140E+02  0.00000000000E+00 0. -1.
          3    1    1    2  501    0 -0.27566429512E+02  0.44236522325E+02 -0.78014614588E+02  0.93824613150E+02  0.00000000000E+00 0. -1.
<scales pt_clust_5="13000.00000" pt_clust_6="13000.00000" pt_clust_7="13000.00000" pt_clust_8="13000.00000" pt_clust_9="38.15869" pt_clust_10="54.81977"></scales>
<clustering>
<clus scale="   38.159">  1  9  2 -1</clus>
<clus scale="   54.820">  1 10  2 -1</clus>
<clus scale="   80.768">  5  6 -1 -1</clus>
<clus scale="   87.730">  7  8 -1 -1</clus>
<clus scale="   90.338">  1  5  2 -1</clus>
<clus scale="   38.159">  1  5  2 -1</clus>
</clustering>
</event>
<event>
10    4  0.3043429E-005  0.1159629E+03  0.7546771E-02  0.1254228E+00
         21   -1    0    0  503  502  0.00000000000E+00  0.00000000000E+00  0.34177927257E+03  0.34177927257E+03  0.00000000000E+00 0. -1.
          2   -1    0    0  502    0 -0.00000000000E+00 -0.00000000000E+00 -0.16100859400E+03  0.16100859400E+03  0.00000000000E+00 0. -1.
         24    2    1    2    0    0 -0.53367000096E+02  0.36011479697E+02 -0.31005921378E+02  0.10332839726E+03  0.74635964194E+02 0.  0.
         23    2    1    2    0    0  0.11485257533E+03  0.96861590455E+01  0.12454102154E+02  0.14537924556E+03  0.87721631548E+02 0.  0.
        -13    1    3    3    0    0 -0.24967886345E+02  0.98673805134E+01 -0.52631009707E+02  0.59082854784E+02  0.00000000000E+00 0.  1.
         14    1    3    3    0    0 -0.28399113752E+02  0.26144099183E+02  0.21625088329E+02  0.44245542478E+02  0.00000000000E+00 0. -1.
        -11    1    4    4    0    0  0.26521104020E+02  0.80588783370E+01 -0.35355671374E+02  0.44925916539E+02  0.00000000000E+00 0.  1.
         11    1    4    4    0    0  0.88331471308E+02  0.16272807085E+01  0.47809773528E+02  0.10045332902E+03  0.00000000000E+00 0. -1.
         21    1    1    2  503  501 -0.34156117810E+02  0.23960790300E+02  0.16775626602E+03  0.17286678295E+03  0.00000000000E+00 0. -1.
          1    1    1    2  501    0 -0.27329457422E+02 -0.69658429043E+02  0.31566231768E+02  0.81213440807E+02  0.00000000000E+00 0. -1.
<scales pt_clust_5="13000.00000" pt_clust_6="13000.00000" pt_clust_7="13000.00000" pt_clust_8="13000.00000" pt_clust_9="41.72241" pt_clust_10="72.82606"></scales>
<clustering>
<clus scale="   41.722">  1  9  2 -1</clus>
<clus scale="   72.826">  1 10  2 -1</clus>
<clus scale="   74.636">  5  6 -1 -1</clus>
<clus scale="   87.722">  7  8 -1 -1</clus>
<clus scale="  106.409">  2  5  1 -1</clus>
<clus scale="   41.722">  1  5  2 -1</clus>
</clustering>
</event>
<event>
10    4  0.3043429E-005  0.2038976E+03  0.7546771E-02  0.1147715E+00
          2   -1    0    0  503    0 -0.00000000000E+00  0.00000000000E+00  0.11370348179E+04  0.11370348179E+04  0.00000000000E+00 0. -1.
         21   -1    0    0  501  502  0.00000000000E+00 -0.00000000000E+00 -0.27907788041E+03  0.27907788041E+03  0.00000000000E+00 0. -1.
         24    2    1    2    0    0  0.18230936982E+03 -0.64314534341E+02  0.96834294606E+03  0.99040325585E+03  0.76403418451E+02 0.  0.
         23    2    1    2    0    0 -0.12735061227E+03 -0.59245182457E+02  0.24438508614E+01  0.16710840208E+03  0.90504560912E+02 0.  0.
        -11    1    3    3    0    0  0.23664290124E+02 -0.94443274644E+01  0.43200001176E+02  0.50154103022E+02  0.00000000000E+00 0.  1.
         12    1    3    3    0    0  0.15864507970E+03 -0.54870206877E+02  0.92514294489E+03  0.94024915283E+03  0.00000000000E+00 0. -1.
        -13    1    4    4    0    0 -0.62863008865E+02  0.16150720985E+01  0.35812196205E+02  0.72366288687E+02  0.00000000000E+00 0.  1.
         13    1    4    4    0    0 -0.64487603410E+02 -0.60860254556E+02 -0.33368345343E+02  0.94742113388E+02  0.00000000000E+00 0. -1.
         21    1    1    2  503  502  0.20790915739E+02  0.20598895263E+02 -0.12669116278E+03  0.13002779468E+03  0.00000000000E+00 0. -1.
          1    1    1    2  501    0 -0.75749673285E+02  0.10296082154E+03  0.13861303302E+02  0.12857324567E+03  0.00000000000E+00 0. -1.
<scales pt_clust_5="13000.00000" pt_clust_6="13000.00000" pt_clust_7="13000.00000" pt_clust_8="13000.00000" pt_clust_9="29.26733" pt_clust_10="129.91741"></scales>
<clustering>
<clus scale="   29.267">  2  9  1 -1</clus>
<clus scale="   76.403">  5  6 -1 -1</clus>
<clus scale="   90.505">  7  8 -1 -1</clus>
<clus scale="  129.917">  2 10  1 -1</clus>
<clus scale="  198.042">  1  5  2 -1</clus>
<clus scale="   29.267">  2  5  1 -1</clus>
</clustering>
</event>
<event>
10    4  0.3043429E-005  0.2848714E+03  0.7546771E-02  0.1138136E+00
         21   -1    0    0  501  502  0.00000000000E+00  0.00000000000E+00  0.26682783141E+03  0.26682783141E+03  0.00000000000E+00 0. -1.
          2   -1    0    0  503    0 -0.00000000000E+00 -0.00000000000E+00 -0.46094057765E+03  0.46094057765E+03  0.00000000000E+00 0. -1.
         24    2    1    2    0    0 -0.36801513172E+02 -0.16009579821E+02 -0.10915235062E+03  0.14271258010E+03  0.82716303434E+02 0.  0.
         23    2    1    2    0    0 -0.67244236365E+02  0.25954191978E+03 -0.51580476232E+02  0.28763864207E+03  0.90507720287E+02 0.  0.
        -11    1    3    3    0    0 -0.58208113200E+02 -0.30708021765E+02 -0.81975433770E+02  0.10512439672E+03  0.00000000000E+00 0.  1.
         12    1    3    3    0    0  0.21406600028E+02  0.14698441943E+02 -0.27176916854E+02  0.37588183383E+02  0.00000000000E+00 0. -1.
        -11    1    4    4    0    0  0.10038506839E+02  0.14068831279E+03 -0.30556979690E+02  0.14431805841E+03  0.00000000000E+00 0.  1.
         11    1    4    4    0    0 -0.77282743204E+02  0.11885360699E+03 -0.21023496542E+02  0.14332058365E+03  0.00000000000E+00 0. -1.
         21    1    1    2  503  502  0.14964662980E+02  0.14297147857E+02  0.65884425563E+01  0.21719971231E+02  0.00000000000E+00 0. -1.
          1    1    1    2  501    0  0.89081086557E+02 -0.25782948782E+03 -0.39968361933E+02  0.27569721567E+03  0.00000000000E+00 0. -1.
<scales pt_clust_5="13000.00000" pt_clust_6="13000.00000" pt_clust_7="13000.00000" pt_clust_8="13000.00000" pt_clust_9="20.69661" pt_clust_10="270.11123"></scales>
<clustering>
<clus scale="   20.697">  1  9  2 -1</clus>
<clus scale="   82.716">  5  6 -1 -1</clus>
<clus scale="   90.508">  7  8 -1 -1</clus>
<clus scale="   91.384">  2  5  1 -1</clus>
<clus scale="  270.111">  1 10  2 -1</clus>
<clus scale="   20.697">  1  5  2 -1</clus>
</clustering>
</event>
<event>
10    4  0.3043429E-005  0.1013968E+03  0.7546771E-02  0.1283581E+00
         21   -1    0    0  501  502  0.00000000000E+00  0.00000000000E+00  0.71258004224E+02  0.71258004224E+02  0.00000000000E+00 0. -1.
          2   -1    0    0  503    0 -0.00000000000E+00 -0.00000000000E+00 -0.46317493829E+03  0.46317493829E+03  0.00000000000E+00 0. -1.
         24    2    1    2    0    0  0.30701567265E+02  0.14174405785E+02 -0.18358137141E+03  0.20290473177E+03  0.79528046840E+02 0.  0.
         23    2    1    2    0    0 -0.62871957985E+02 -0.16651396502E+02 -0.10325504121E+03  0.15288749298E+03  0.92102279383E+02 0.  0.
        -11    1    3    3    0    0 -0.85205390062E+01 -0.20233794405E+02 -0.11310760717E+03  0.11521864789E+03  0.00000000000E+00 0.  1.
         12    1    3    3    0    0  0.39222106271E+02  0.34408200190E+02 -0.70473764234E+02  0.87686083878E+02  0.00000000000E+00 0. -1.
        -13    1    4    4    0    0  0.18776656563E+02  0.90115924765E+01 -0.44326806031E+02  0.48975885531E+02  0.00000000000E+00 0.  1.
         13    1    4    4    0    0 -0.81648614549E+02 -0.25662988978E+02 -0.58928235181E+02  0.10391160745E+03  0.00000000000E+00 0. -1.
         21    1    1    2  503  502 -0.39386276232E+02 -0.13135702719E+02  0.95567247821E+01  0.42604652679E+02  0.00000000000E+00 0. -1.
          1    1    1    2  501    0  0.71556666953E+02  0.15612693436E+02 -0.11463724623E+03  0.13603606509E+03  0.00000000000E+00 0. -1.
<scales pt_clust_5="13000.00000" pt_clust_6="13000.00000" pt_clust_7="13000.00000" pt_clust_8="13000.00000" pt_clust_9="41.51898" pt_clust_10="63.47214"></scales>
<clustering>
<clus scale="   41.519">  1  9  2 -1</clus>
<clus scale="   63.472">  1 10  2 -1</clus>
<clus scale="   79.528">  5  6 -1 -1</clus>
<clus scale="   90.129">  2  5  1 -1</clus>
<clus scale="   92.102">  7  8 -1 -1</clus>
<clus scale="   41.519">  1  5  2 -1</clus>
</clustering>
</event>
<event>
10    4  0.3043429E-005  0.3292653E+03  0.7546771E-02  0.1105141E+00
         21   -1    0    0  501  502  0.00000000000E+00  0.00000000000E+00  0.64329746941E+03  0.64329746941E+03  0.00000000000E+00 0. -1.
          4   -1    0    0  503    0 -0.00000000000E+00 -0.00000000000E+00 -0.28122747736E+03  0.28122747736E+03  0.00000000000E+00 0. -1.
         24    2    1    2    0    0 -0.59687475567E+02 -0.82495620392E+02  0.15429645672E+03  0.20153474955E+03  0.80254199859E+02 0.  0.
         23    2    1    2    0    0 -0.26989688758E+03  0.12617423908E+02  0.18328956328E+02  0.28800253491E+03  0.98010102339E+02 0.  0.
        -11    1    3    3    0    0 -0.46843528803E+02 -0.64573783265E+02  0.48274634442E+02  0.93244463677E+02  0.00000000000E+00 0.  1.
         12    1    3    3    0    0 -0.12843946764E+02 -0.17921837127E+02  0.10602182228E+03  0.10829028587E+03  0.00000000000E+00 0. -1.
        -11    1    4    4    0    0 -0.14246118299E+03 -0.40315573558E+02 -0.45556731493E+01  0.14812592038E+03  0.00000000000E+00 0.  1.
         11    1    4    4    0    0 -0.12743570459E+03  0.52932997466E+02  0.22884629477E+02  0.13987661453E+03  0.00000000000E+00 0. -1.
         21    1    1    2  503  502 -0.21865344412E+02 -0.10946580633E+02  0.34971068033E+02  0.42671964019E+02  0.00000000000E+00 0.  1.
          3    1    1    2  501    0  0.35144970756E+03  0.80824777118E+02  0.15447351096E+03  0.39231569830E+03  0.00000000000E+00 0. -1.
<scales pt_clust_5="13000.00000" pt_clust_6="13000.00000" pt_clust_7="13000.00000" pt_clust_8="13000.00000" pt_clust_9="24.45242" pt_clust_10="314.34009"></scales>
<clustering>
<clus scale="   24.452">  1  9  2 -1</clus>
<clus scale="   80.254">  5  6 -1 -1</clus>
<clus scale="   98.010">  7  8 -1 -1</clus>
<clus scale="  134.761">  2  5  1 -1</clus>
<clus scale="  314.340">  1 10  2 -1</clus>
<clus scale="   24.452">  1  5  2 -1</clus>
</clustering>
</event>
<event>
10    4  0.3043429E-005  0.3403436E+03  0.7546771E-02  0.1115090E+00
          2   -1    0    0  502    0 -0.00000000000E+00  0.00000000000E+00  0.11150473414E+04  0.11150473414E+04  0.00000000000E+00 0. -1.
         21   -1    0    0  503  502  0.00000000000E+00 -0.00000000000E+00 -0.19623856935E+03  0.19623856935E+03  0.00000000000E+00 0. -1.
         24    2    1    2    0    0  0.14241655430E+02  0.50332358076E+02  0.27161029484E+03  0.28767858900E+03  0.79061035186E+02 0.  0.
         23    2    1    2    0    0  0.35218837130E+02 -0.33334127465E+03  0.14981168142E+03  0.37838462340E+03  0.91512903251E+02 0.  0.
        -13    1    3    3    0    0 -0.32408316644E+02  0.25150882542E+02  0.10069412841E+03  0.10872981825E+03  0.00000000000E+00 0.  1.
         14    1    3    3    0    0  0.46649972074E+02  0.25181475534E+02  0.17091616643E+03  0.17894877074E+03  0.00000000000E+00 0. -1.
        -11    1    4    4    0    0 -0.13887384726E+02 -0.10233860777E+03  0.84268291386E+02  0.13329364212E+03  0.00000000000E+00 0.  1.
         11    1    4    4    0    0  0.49106221856E+02 -0.23100266688E+03  0.65543390031E+02  0.24509098128E+03  0.00000000000E+00 0. -1.
         21    1    1    2  503  501  0.20368969121E+02 -0.92801132221E+01 -0.30475369466E+02  0.37812214277E+02  0.00000000000E+00 0.  1.
          1    1    1    2  501    0 -0.69829461681E+02  0.29228902980E+03  0.52786216529E+03  0.60741048411E+03  0.00000000000E+00 0. -1.
<scales pt_clust_5="13000.00000" pt_clust_6="13000.00000" pt_clust_7="13000.00000" pt_clust_8="13000.00000" pt_clust_9="22.38337" pt_clust_10="327.80975"></scales>
<clustering>
<clus scale="   22.383">  2  9  1 -1</clus>
<clus scale="   79.061">  5  6 -1 -1</clus>
<clus scale="   91.513">  7  8 -1 -1</clus>
<clus scale="   94.713">  1  5  2 -1</clus>
<clus scale="  327.810">  2 10  1 -1</clus>
<clus scale="   22.383">  2  5  1 -1</clus>
</clustering>
</event>
<event>
10    4  0.3043429E-005  0.1834038E+03  0.7546771E-02  0.1181985E+00
          2   -1    0    0  503    0 -0.00000000000E+00  0.00000000000E+00  0.46958809272E+03  0.46958809272E+03  0.00000000000E+00 0. -1.
         21   -1    0    0  501  502  0.00000000000E+00 -0.00000000000E+00 -0.19165478911E+03  0.19165478911E+03  0.00000000000E+00 0. -1.
         23    2    1    2    0    0 -0.81822116607E+02 -0.55401892024E+02 -0.49584767395E+02  0.14229754358E+03  0.89586345756E+02 0.  0.
         24    2    1    2    0    0 -0.12007514508E+03  0.79979071831E+02  0.19942850554E+03  0.25865260969E+03  0.79465409318E+02 0.  0.
        -11    1    4    4    0    0 -0.17324310553E+02 -0.14732326616E+02  0.44755313217E+02  0.50201705597E+02  0.00000000000E+00 0.  1.
         12    1    4    4    0    0 -0.10275083453E+03  0.94711398448E+02  0.15467319232E+03  0.20845090409E+03  0.00000000000E+00 0. -1.
        -13    1    3    3    0    0 -0.71347139569E+02  0.50751486550E+01 -0.20696610869E+02  0.74461541483E+02  0.00000000000E+00 0. -1.
         13    1    3    3    0    0 -0.10474977038E+02 -0.60477040679E+02 -0.28888156526E+02  0.67836002099E+02  0.00000000000E+00 0.  1.
         21    1    1    2  503  502  0.19523190603E+02  0.16124444051E+02 -0.10739486067E+02  0.27504349261E+02  0.00000000000E+00 0.  1.
          1    1    1    2  501    0  0.18237407109E+03 -0.40701623858E+02  0.13882905153E+03  0.23278837930E+03  0.00000000000E+00 0. -1.
<scales pt_clust_5="13000.00000" pt_clust_6="13000.00000" pt_clust_7="13000.00000" pt_clust_8="13000.00000" pt_clust_9="25.32099" pt_clust_10="165.29431"></scales>
<clustering>
<clus scale="   25.321">  2  9  1 -1</clus>
<clus scale="   79.465">  5  6 -1 -1</clus>
<clus scale="   89.586">  7  8 -1 -1</clus>
<clus scale="  123.362">  1  7  2 -1</clus>
<clus scale="  165.294">  2 10  1 -1</clus>
<clus scale="   25.321">  2  5  1 -1</clus>
</clustering>
</event>
<event>
10    4  0.3043429E-005  0.1459439E+03  0.7546771E-02  0.1215345E+00
          2   -1    0    0  503    0 -0.00000000000E+00  0.00000000000E+00  0.93943512364E+03  0.93943512364E+03  0.00000000000E+00 0. -1.
         21   -1    0    0  501  502  0.00000000000E+00 -0.00000000000E+00 -0.16469127628E+03  0.16469127628E+03  0.00000000000E+00 0. -1.
         23    2    1    2    0    0  0.79696368173E+02 -0.11758308908E+02  0.37832376052E+03  0.39723602227E+03  0.90431303719E+02 0.  0.
         24    2    1    2    0    0  0.10254268225E+03  0.18422720497E+02  0.17669034700E+03  0.21847374573E+03  0.75212369547E+02 0.  0.
        -11    1    4    4    0    0  0.57408510354E+02  0.43664190996E+02  0.13064210873E+03  0.14923022217E+03  0.00000000000E+00 0.  1.
         12    1    4    4    0    0  0.45134171897E+02 -0.25241470499E+02  0.46048238276E+02  0.69243523553E+02  0.00000000000E+00 0. -1.
        -13    1    3    3    0    0 -0.72813828620E+00 -0.30471960238E+02  0.48906641194E+02  0.57627511650E+02  0.00000000000E+00 0.  1.
         13    1    3    3    0    0  0.80424506459E+02  0.18713651330E+02  0.32941711932E+03  0.33960851062E+03  0.00000000000E+00 0. -1.
         21    1    1    2  503  502 -0.10597840305E+03  0.29247356451E+02 -0.10554175456E+03  0.15240043218E+03  0.00000000000E+00 0. -1.
          1    1    1    2  501    0 -0.76260647378E+02 -0.35911768040E+02  0.32527149440E+03  0.33601619975E+03  0.00000000000E+00 0. -1.
<scales pt_clust_5="13000.00000" pt_clust_6="13000.00000" pt_clust_7="13000.00000" pt_clust_8="13000.00000" pt_clust_9="125.07083" pt_clust_10="84.29323"></scales>
<clustering>
<clus scale="   75.212">  5  6 -1 -1</clus>
<clus scale="   84.293">  2 10  1 -1</clus>
<clus scale="   90.431">  7  8 -1 -1</clus>
<clus scale="  118.411">  1  7  2 -1</clus>
<clus scale="  125.071">  2  9  1 -1</clus>
<clus scale="   84.293">  2  5  1 -1</clus>
</clustering>
</event>
<event>
10    4  0.3043429E-005  0.1063347E+03  0.7546771E-02  0.1272929E+00
          4   -1    0    0  503    0 -0.00000000000E+00  0.00000000000E+00  0.13883768796E+03  0.13883768796E+03  0.00000000000E+00 0. -1.
         21   -1    0    0  501  502  0.00000000000E+00 -0.00000000000E+00 -0.37743418272E+03  0.37743418272E+03  0.00000000000E+00 0.  1.
         24    2    1    2    0    0  0.52716007122E+02 -0.20212965675E+01  0.78344872931E+02  0.12482537588E+03  0.81611226566E+02 0.  0.
         23    2    1    2    0    0 -0.40162522988E+02  0.11949017121E+02 -0.48526806794E+02  0.11361292607E+03  0.93793596427E+02 0.  0.
        -11    1    3    3    0    0  0.40170068022E+02  0.25315261575E+02  0.77762425996E+01  0.48114101700E+02  0.00000000000E+00 0.  1.
         12    1    3    3    0    0  0.12545939100E+02 -0.27336558142E+02  0.70568630332E+02  0.76711274177E+02  0.00000000000E+00 0. -1.
        -11    1    4    4    0    0  0.16322684648E+02 -0.28106243666E+02 -0.83580377191E+01  0.33559615041E+02  0.00000000000E+00 0. -1.
         11    1    4    4    0    0 -0.56485207636E+02  0.40055260788E+02 -0.40168769075E+02  0.80053311034E+02  0.00000000000E+00 0.  1.
         21    1    1    2  503  502 -0.26845356652E+02 -0.25513731585E+02 -0.23754967423E+03  0.24041936569E+03  0.00000000000E+00 0.  1.
          3    1    1    2  501    0  0.14291872518E+02  0.15586011031E+02 -0.30864886664E+02  0.37414203035E+02  0.00000000000E+00 0. -1.
<scales pt_clust_5="13000.00000" pt_clust_6="13000.00000" pt_clust_7="13000.00000" pt_clust_8="13000.00000" pt_clust_9="22.37178" pt_clust_10="21.14666"></scales>
<clustering>
<clus scale="   21.147">  2 10  1 -1</clus>
<clus scale="   22.372">  2  9  1 -1</clus>
<clus scale="   81.611">  5  6 -1 -1</clus>
<clus scale="   93.794">  7  8 -1 -1</clus>
<clus scale="   95.761">  1  5  2 -1</clus>
<clus scale="   21.147">  2  5  1 -1</clus>
</clustering>
</event>
<event>
10    4  0.3043429E-005  0.1966558E+03  0.7546771E-02  0.1174566E+00
         21   -1    0    0  501  502  0.00000000000E+00  0.00000000000E+00  0.42961195419E+03  0.42961195419E+03  0.00000000000E+00 0. -1.
          2   -1    0    0  503    0 -0.00000000000E+00 -0.00000000000E+00 -0.10113255131E+04  0.10113255131E+04  0.00000000000E+00 0. -1.
         23    2    1    2    0    0 -0.61841487865E+02 -0.45270528105E+02 -0.12053383457E+03  0.16887706743E+03  0.90095883868E+02 0.  0.
         24    2    1    2    0    0  0.24323848028E+02  0.19622897509E+03 -0.67135467108E+03  0.70446774183E+03  0.80375647095E+02 0.  0.
        -13    1    4    4    0    0 -0.13785373092E+02  0.16054127652E+03 -0.49762148791E+03  0.52305896724E+03  0.00000000000E+00 0.  1.
         14    1    4    4    0    0  0.38109221121E+02  0.35687698571E+02 -0.17373318317E+03  0.18140877459E+03  0.00000000000E+00 0. -1.
        -11    1    3    3    0    0 -0.23137170138E+02  0.27284560035E+02 -0.41960778427E+02  0.55140572943E+02  0.00000000000E+00 0. -1.
         11    1    3    3    0    0 -0.38704317727E+02 -0.72555088139E+02 -0.78573056142E+02  0.11373649448E+03  0.00000000000E+00 0.  1.
         21    1    1    2  503  502 -0.14834567094E+03  0.42313829819E+02  0.25273612407E+03  0.29609533379E+03  0.00000000000E+00 0. -1.
          1    1    1    2  501    0  0.18586331078E+03 -0.19327227680E+03 -0.42561177378E+02  0.27149732429E+03  0.00000000000E+00 0. -1.
<scales pt_clust_5="13000.00000" pt_clust_6="13000.00000" pt_clust_7="13000.00000" pt_clust_8="13000.00000" pt_clust_9="155.44686" pt_clust_10="179.48051"></scales>
<clustering>
<clus scale="   80.376">  5  6 -1 -1</clus>
<clus scale="   90.096">  7  8 -1 -1</clus>
<clus scale="  118.284">  2  7  1 -1</clus>
<clus scale="  155.447">  1  9  2 -1</clus>
<clus scale="  179.481">  1 10  2 -1</clus>
<clus scale="  155.447">  1  5  2 -1</clus>
</clustering>
</event>
<event>
10    4  0.3043429E-005  0.1465210E+03  0.7546771E-02  0.1205520E+00
         21   -1    0    0  501  502  0.00000000000E+00  0.00000000000E+00  0.52824582777E+02  0.52824582777E+02  0.00000000000E+00 0. -1.
          2   -1    0    0  503    0 -0.00000000000E+00 -0.00000000000E+00 -0.12225643402E+04  0.12225643402E+04  0.00000000000E+00 0. -1.
         24    2    1    2    0    0 -0.17402458461E+02  0.12416482811E+03 -0.79435369514E+03  0.80985362660E+03  0.95631341285E+02 0.  0.
         23    2    1    2    0    0 -0.29484123802E+02 -0.85183010533E+02 -0.25838734482E+03  0.28877717619E+03  0.92210512875E+02 0.  0.
        -13    1    3    3    0    0 -0.13488245434E+02  0.11114535542E+03 -0.40298544953E+03  0.41824932198E+03  0.00000000000E+00 0.  1.
         14    1    3    3    0    0 -0.39142130269E+01  0.13019472688E+02 -0.39136824560E+03  0.39160430462E+03  0.00000000000E+00 0. -1.
        -13    1    4    4    0    0 -0.57242579349E+02 -0.59612672640E+02 -0.12269408725E+03  0.14793316963E+03  0.00000000000E+00 0. -1.
         13    1    4    4    0    0  0.27758455547E+02 -0.25570337892E+02 -0.13569325757E+03  0.14084400656E+03  0.00000000000E+00 0.  1.
         21    1    1    2  503  502  0.50171441324E+02  0.28743243977E+02 -0.26314845537E+02  0.63528093742E+02  0.00000000000E+00 0. -1.
          1    1    1    2  501    0 -0.32848590605E+01 -0.67725061554E+02 -0.90683871929E+02  0.11323002645E+03  0.00000000000E+00 0. -1.
<scales pt_clust_5="13000.00000" pt_clust_6="13000.00000" pt_clust_7="13000.00000" pt_clust_8="13000.00000" pt_clust_9="57.82169" pt_clust_10="59.74214"></scales>
<clustering>
<clus scale="   57.822">  1  9  2 -1</clus>
<clus scale="   59.742">  1 10  2 -1</clus>
<clus scale="   92.211">  7  8 -1 -1</clus>
<clus scale="   95.631">  5  6 -1 -1</clus>
<clus scale="  144.312">  1  7  2 -1</clus>
<clus scale="   57.822">  1  5  2 -1</clus>
</clustering>
</event>
<event>
10    4  0.3043429E-005  0.1156059E+03  0.7546771E-02  0.1255517E+00
          2   -1    0    0  502    0 -0.00000000000E+00  0.00000000000E+00  0.18357276624E+03  0.18357276624E+03  0.00000000000E+00 0. -1.
         21   -1    0    0  503  502  0.00000000000E+00 -0.00000000000E+00 -0.19083725514E+03  0.19083725514E+03  0.00000000000E+00 0.  1.
         23    2    1    2    0    0  0.74677325168E+02  0.25643240223E+02  0.40952323940E+02  0.12792922188E+03  0.91948432895E+02 0.  0.
         24    2    1    2    0    0 -0.58573768103E+02  0.64276322572E+02 -0.77273322235E+02  0.13993893032E+03  0.77777927053E+02 0.  0.
        -11    1    4    4    0    0 -0.34415168156E+02  0.45937500714E+01 -0.65996154640E+02  0.74572104478E+02  0.00000000000E+00 0.  1.
         12    1    4    4    0    0 -0.24158599948E+02  0.59682572501E+02 -0.11277167594E+02  0.65366825842E+02  0.00000000000E+00 0. -1.
        -11    1    3    3    0    0  0.72599489782E+02  0.53370087858E+02  0.43407740422E+02  0.10001641927E+03  0.00000000000E+00 0.  1.
         11    1    3    3    0    0  0.20778353859E+01 -0.27726847635E+02 -0.24554164822E+01  0.27912802614E+02  0.00000000000E+00 0. -1.
         21    1    1    2  503  501  0.10298125855E+02 -0.27159452565E+02 -0.64481985044E+01  0.29753428772E+02  0.00000000000E+00 0.  1.
          1    1    1    2  501    0 -0.26401682919E+02 -0.62760110230E+02  0.35504707894E+02  0.76788440404E+02  0.00000000000E+00 0. -1.
<scales pt_clust_5="13000.00000" pt_clust_6="13000.00000" pt_clust_7="13000.00000" pt_clust_8="13000.00000" pt_clust_9="29.04630" pt_clust_10="70.64228"></scales>
<clustering>
<clus scale="   29.046">  2  9  1 -1</clus>
<clus scale="   70.642">  2 10  1 -1</clus>
<clus scale="   77.778">  5  6 -1 -1</clus>
<clus scale="   91.948">  7  8 -1 -1</clus>
<clus scale="  104.688">  2  5  1 -1</clus>
<clus scale="   29.046">  2  5  1 -1</clus>
</clustering>
</event>
<event>
10    4  0.3043429E-005  0.1381087E+03  0.7546771E-02  0.1218703E+00
          2   -1    0    0  502    0 -0.00000000000E+00  0.00000000000E+00  0.44822781939E+03  0.44822781939E+03  0.00000000000E+00 0. -1.
         21   -1    0    0  503  502  0.00000000000E+00 -0.00000000000E+00 -0.14762985448E+03  0.14762985448E+03  0.00000000000E+00 0. -1.
         24    2    1    2    0    0  0.79468191281E+01 -0.11566224164E+03  0.24984447358E+03  0.28683402131E+03  0.80066152181E+02 0.  0.
         23    2    1    2    0    0 -0.37441613336E+02  0.80632213773E+02  0.14475573580E+03  0.19338479440E+03  0.92412268385E+02 0.  0.
        -13    1    3    3    0    0 -0.30811692796E+02 -0.69058996869E+02  0.10141472167E+03  0.12650474787E+03  0.00000000000E+00 0.  1.
         14    1    3    3    0    0  0.38758511924E+02 -0.46603244773E+02  0.14842975191E+03  0.16032927344E+03  0.00000000000E+00 0. -1.
        -11    1    4    4    0    0 -0.39476404236E+02  0.56964773437E+02  0.15322103686E+03  0.16816675664E+03  0.00000000000E+00 0. -1.
         11    1    4    4    0    0  0.20347909003E+01  0.23667440336E+02 -0.84653010550E+01  0.25218037751E+02  0.00000000000E+00 0.  1.
         21    1    1    2  503  501 -0.12684456902E+02  0.16920363631E+02 -0.24734653102E+02  0.32542237421E+02  0.00000000000E+00 0.  1.
          1    1    1    2  501    0  0.42179251110E+02  0.18109664239E+02 -0.69267591376E+02  0.83096620738E+02  0.00000000000E+00 0. -1.
<scales pt_clust_5="13000.00000" pt_clust_6="13000.00000" pt_clust_7="13000.00000" pt_clust_8="13000.00000" pt_clust_9="21.14697" pt_clust_10="44.69497"></scales>
<clustering>
<clus scale="   21.147">  2  9  1 -1</clus>
<clus scale="   44.695">  2 10  1 -1</clus>
<clus scale="   80.066">  5  6 -1 -1</clus>
<clus scale="   92.412">  7  8 -1 -1</clus>
<clus scale="  130.171">  1  5  2 -1</clus>
<clus scale="   21.147">  2  5  1 -1</clus>
</clustering>
</event>
<event>
10    4  0.3043429E-005  0.1248490E+03  0.7546771E-02  0.1239251E+00
         21   -1    0    0  501  502  0.00000000000E+00  0.00000000000E+00  0.41601819689E+02  0.41601819689E+02  0.00000000000E+00 0. -1.
          2   -1    0    0  503    0 -0.00000000000E+00 -0.00000000000E+00 -0.13512326693E+04  0.13512326693E+04  0.00000000000E+00 0. -1.
         24    2    1    2    0    0 -0.80423150294E+02  0.23250264353E+02 -0.10457698253E+04  0.10522979753E+04  0.81780458787E+02 0.  0.
         23    2    1    2    0    0  0.69287053736E+02  0.16008200908E+02 -0.13153995218E+03  0.17710344226E+03  0.94899483286E+02 0.  0.
        -13    1    3    3    0    0 -0.75932757796E+02  0.11421755766E+02 -0.45802527123E+03  0.46441725775E+03  0.00000000000E+00 0.  1.
         14    1    3    3    0    0 -0.44903924982E+01  0.11828508587E+02 -0.58774455406E+03  0.58788071755E+03  0.00000000000E+00 0. -1.
        -11    1    4    4    0    0  0.59084695735E+02  0.50880968159E+02 -0.65958668989E+02  0.10212942870E+03  0.00000000000E+00 0. -1.
         11    1    4    4    0    0  0.10202358001E+02 -0.34872767251E+02 -0.65581283190E+02  0.74974013560E+02  0.00000000000E+00 0.  1.
         21    1    1    2  503  502 -0.22281786874E+02 -0.50534262000E+02 -0.52644947215E+02  0.76299935317E+02  0.00000000000E+00 0. -1.
          1    1    1    2  501    0  0.33417883433E+02  0.11275796738E+02 -0.79676124880E+02  0.87133136068E+02  0.00000000000E+00 0. -1.
<scales pt_clust_5="13000.00000" pt_clust_6="13000.00000" pt_clust_7="13000.00000" pt_clust_8="13000.00000" pt_clust_9="48.48233" pt_clust_10="35.26895"></scales>
<clustering>
<clus scale="   35.269">  1 10  2 -1</clus>
<clus scale="   48.482">  1  9  2 -1</clus>
<clus scale="   81.780">  5  6 -1 -1</clus>
<clus scale="   94.899">  7  8 -1 -1</clus>
<clus scale="  115.193">  2  5  1 -1</clus>
<clus scale="   35.269">  1  5  2 -1</clus>
</clustering>
</event>
<event>
10    4  0.3043429E-005  0.2923127E+03  0.7546771E-02  0.1140308E+00
          2   -1    0    0  503    0 -0.00000000000E+00  0.00000000000E+00  0.13304673142E+04  0.13304673142E+04  0.00000000000E+00 0. -1.
         21   -1    0    0  501  502  0.00000000000E+00 -0.00000000000E+00 -0.12324537619E+03  0.12324537619E+03  0.00000000000E+00 0. -1.
         24    2    1    2    0    0  0.66650301997E+01 -0.62462193974E+01  0.13648485592E+03  0.15820975677E+03  0.79490712402E+02 0.  0.
         23    2    1    2    0    0  0.46777287622E+02 -0.26074929135E+03  0.78541229434E+03  0.83394146466E+03  0.91692893972E+02 0.  0.
        -11    1    3    3    0    0 -0.36382466753E+02 -0.30732763928E+00  0.67430306903E+02  0.76620001477E+02  0.00000000000E+00 0.  1.
         12    1    3    3    0    0  0.43047496953E+02 -0.59388917581E+01  0.69054549013E+02  0.81589755292E+02  0.00000000000E+00 0. -1.
        -11    1    4    4    0    0 -0.13301403458E+02 -0.84607888720E+02  0.35185290743E+03  0.36212689852E+03  0.00000000000E+00 0.  1.
         11    1    4    4    0    0  0.60078691079E+02 -0.17614140263E+03  0.43355938691E+03  0.47181456613E+03  0.00000000000E+00 0. -1.
         21    1    1    2  503  502  0.54907254730E+00 -0.21925712516E+02 -0.25593455421E+02  0.33705538274E+02  0.00000000000E+00 0. -1.
          1    1    1    2  501    0 -0.53991390369E+02  0.28892122326E+03  0.31091824318E+03  0.42785593069E+03  0.00000000000E+00 0. -1.
<scales pt_clust_5="13000.00000" pt_clust_6="13000.00000" pt_clust_7="13000.00000" pt_clust_8="13000.00000" pt_clust_9="21.93259" pt_clust_10="277.55923"></scales>
<clustering>
<clus scale="   21.933">  2  9  1 -1</clus>
<clus scale="   79.491">  5  6 -1 -1</clus>
<clus scale="   80.258">  1  5  2 -1</clus>
<clus scale="   91.693">  7  8 -1 -1</clus>
<clus scale="  277.559">  2 10  1 -1</clus>
<clus scale="   21.933">  2  5  1 -1</clus>
</clustering>
</event>
<event>
10    4  0.3043429E-005  0.2344572E+03  0.7546771E-02  0.1152529E+00
         21   -1    0    0  503  502  0.00000000000E+00  0.00000000000E+00  0.39023292489E+03  0.39023292489E+03  0.00000000000E+00 0. -1.
          2   -1    0    0  502    0 -0.00000000000E+00 -0.00000000000E+00 -0.24674799886E+03  0.24674799886E+03  0.00000000000E+00 0. -1.
         24    2    1    2    0    0 -0.30612615377E+02  0.78141033306E+02 -0.30381193539E+02  0.12012457674E+03  0.80397411095E+02 0.  0.
         23    2    1    2    0    0 -0.19678478793E+03 -0.32814627643E+02 -0.27815705937E+01  0.21816849053E+03  0.88253615100E+02 0.  0.
        -11    1    3    3    0    0 -0.73124308829E+00  0.21438645150E+02  0.26732966326E+02  0.34275380536E+02  0.00000000000E+00 0.  1.
         12    1    3    3    0    0 -0.29881372289E+02  0.56702388156E+02 -0.57114159865E+02  0.85849196208E+02  0.00000000000E+00 0. -1.
        -11    1    4    4    0    0 -0.78070340498E+02  0.13444005222E+02  0.33019409732E+02  0.85825408598E+02  0.00000000000E+00 0. -1.
         11    1    4    4    0    0 -0.11871444743E+03 -0.46258632866E+02 -0.35800980326E+02  0.13234308193E+03  0.00000000000E+00 0.  1.
         21    1    1    2  503  501  0.14302838540E+02 -0.21713456854E+02  0.25069592027E+02  0.36118275751E+02  0.00000000000E+00 0. -1.
          1    1    1    2  501    0  0.21309456477E+03 -0.23612948809E+02  0.15157809814E+03  0.26256958072E+03  0.00000000000E+00 0. -1.
<scales pt_clust_5="13000.00000" pt_clust_6="13000.00000" pt_clust_7="13000.00000" pt_clust_8="13000.00000" pt_clust_9="22.69191" pt_clust_10="226.77623"></scales>
<clustering>
<clus scale="   22.692">  9 10 -1 -1</clus>
<clus scale="   80.397">  5  6 -1 -1</clus>
<clus scale="   88.254">  7  8 -1 -1</clus>
<clus scale="  116.219">  2  5  1 -1</clus>
<clus scale="  226.776">  1  9  2 -1</clus>
<clus scale="  226.776">  1  5  2 -1</clus>
</clustering>
</event>
<event>
10    4  0.3043429E-005  0.1717225E+03  0.7546771E-02  0.1204745E+00
         -3   -1    0    0    0  501 -0.00000000000E+00  0.00000000000E+00  0.34829688680E+03  0.34829688680E+03  0.00000000000E+00 0.  1.
         21   -1    0    0  503  502  0.00000000000E+00 -0.00000000000E+00 -0.31692784785E+03  0.31692784785E+03  0.00000000000E+00 0.  1.
         23    2    1    2    0    0 -0.47326918308E+01  0.38953079874E+02 -0.45483572333E+01  0.93392910896E+02  0.84627462732E+02 0.  0.
         24    2    1    2    0    0 -0.11669252532E+03 -0.11393726111E+03  0.23239070729E+03  0.29628380510E+03  0.84733744131E+02 0.  0.
        -11    1    4    4    0    0 -0.56086355629E+02 -0.58846262284E+02  0.18398863795E+03  0.20114765911E+03  0.00000000000E+00 0.  1.
         12    1    4    4    0    0 -0.60606169694E+02 -0.55090998823E+02  0.48402069338E+02  0.95136145983E+02  0.00000000000E+00 0. -1.
        -13    1    3    3    0    0  0.39067183762E+02  0.20565313961E+02  0.64907443079E+01  0.44624060181E+02  0.00000000000E+00 0.  1.
         13    1    3    3    0    0 -0.43799875593E+02  0.18387765913E+02 -0.11039101541E+02  0.48768850715E+02  0.00000000000E+00 0. -1.
         21    1    1    2  503  501 -0.10026496522E+00 -0.28443250463E+02 -0.56599026130E+02  0.63344126080E+02  0.00000000000E+00 0. -1.
         -4    1    1    2    0  502  0.12152548212E+03  0.10342743170E+03 -0.13987428497E+03  0.21220389259E+03  0.00000000000E+00 0.  1.
<scales pt_clust_5="13000.00000" pt_clust_6="13000.00000" pt_clust_7="13000.00000" pt_clust_8="13000.00000" pt_clust_9="28.44343" pt_clust_10="149.36134"></scales>
<clustering>
<clus scale="   28.443">  2  9  1 -1</clus>
<clus scale="   84.627">  7  8 -1 -1</clus>
<clus scale="   84.734">  5  6 -1 -1</clus>
<clus scale="   91.153">  1  7  2 -1</clus>
<clus scale="  149.361">  2 10  1 -1</clus>
<clus scale="   28.443">  2  5  1 -1</clus>
</clustering>
</event>
<event>
10    4  0.3043429E-005  0.1773173E+03  0.7546771E-02  0.1182010E+00
          2   -1    0    0  503    0 -0.00000000000E+00  0.00000000000E+00  0.96906890290E+03  0.96906890290E+03  0.00000000000E+00 0. -1.
         21   -1    0    0  501  502  0.00000000000E+00 -0.00000000000E+00 -0.79613785764E+02  0.79613785764E+02  0.00000000000E+00 0.  1.
         24    2    1    2    0    0 -0.10188043360E+03 -0.70042247453E+02  0.42521030275E+03  0.44920098440E+03  0.75446561524E+02 0.  0.
         23    2    1    2    0    0 -0.14974664793E+02  0.16457630080E+03  0.16326917885E+03  0.24898812199E+03  0.89602794370E+02 0.  0.
        -13    1    3    3    0    0 -0.36011235732E+02  0.79195564907E+01  0.17748388710E+03  0.18127343615E+03  0.00000000000E+00 0.  1.
         14    1    3    3    0    0 -0.65869197865E+02 -0.77961803944E+02  0.24772641565E+03  0.26792754825E+03  0.00000000000E+00 0. -1.
        -11    1    4    4    0    0 -0.39603853225E+02  0.11760103866E+03  0.72109825551E+02  0.14352106614E+03  0.00000000000E+00 0.  1.
         11    1    4    4    0    0  0.24629188432E+02  0.46975262139E+02  0.91159353302E+02  0.10546705585E+03  0.00000000000E+00 0. -1.
         21    1    1    2  503  502  0.11682399391E+02  0.20379049159E+02  0.47178135556E+02  0.52702567060E+02  0.00000000000E+00 0. -1.
          1    1    1    2  501    0  0.10517269900E+03 -0.11491310251E+03  0.25379749998E+03  0.29779101520E+03  0.00000000000E+00 0. -1.
<scales pt_clust_5="13000.00000" pt_clust_6="13000.00000" pt_clust_7="13000.00000" pt_clust_8="13000.00000" pt_clust_9="23.49009" pt_clust_10="153.01243"></scales>
<clustering>
<clus scale="   23.490">  1  9  2 -1</clus>
<clus scale="   75.447">  5  6 -1 -1</clus>
<clus scale="   89.603">  7  8 -1 -1</clus>
<clus scale="  136.427">  1  5  2 -1</clus>
<clus scale="  153.012">  2 10  1 -1</clus>
<clus scale="  153.012">  2  5  1 -1</clus>
</clustering>
</event>
<event>
10    4  0.3043429E-005  0.1482928E+03  0.7546771E-02  0.1228701E+00
         21   -1    0    0  501  502  0.00000000000E+00  0.00000000000E+00  0.54061603559E+02  0.54061603559E+02  0.00000000000E+00 0. -1.
          2   -1    0    0  503    0 -0.00000000000E+00 -0.00000000000E+00 -0.93545030112E+03  0.93545030112E+03  0.00000000000E+00 0. -1.
         24    2    1    2    0    0 -0.13057891329E+02 -0.18404158191E+02 -0.16944976322E+03  0.18941793195E+03  0.81588658062E+02 0.  0.
         23    2    1    2    0    0  0.10405529655E+03  0.34074157098E+01 -0.19467697252E+03  0.24061543828E+03  0.95695090206E+02 0.  0.
        -13    1    3    3    0    0 -0.31625872731E+02 -0.23614219653E+02 -0.32531218615E+02  0.51147897126E+02  0.00000000000E+00 0.  1.
         14    1    3    3    0    0  0.18567981402E+02  0.52100614613E+01 -0.13691854460E+03  0.13827003482E+03  0.00000000000E+00 0. -1.
        -13    1    4    4    0    0  0.71973862890E+02  0.47492136755E+02 -0.10777877870E+03  0.13802900105E+03  0.00000000000E+00 0. -1.
         13    1    4    4    0    0  0.32081433658E+02 -0.44084721045E+02 -0.86898193815E+02  0.10258643723E+03  0.00000000000E+00 0.  1.
         21    1    1    2  503  502  0.18519607138E+02 -0.20567492934E+02  0.18603900426E+01  0.27739117961E+02  0.00000000000E+00 0.  1.
          1    1    1    2  501    0 -0.10951701236E+03  0.35564235416E+02 -0.51912235187E+03  0.53173941649E+03  0.00000000000E+00 0. -1.
<scales pt_clust_5="13000.00000" pt_clust_6="13000.00000" pt_clust_7="13000.00000" pt_clust_8="13000.00000" pt_clust_9="27.67666" pt_clust_10="113.28375"></scales>
<clustering>
<clus scale="   27.677">  1  9  2 -1</clus>
<clus scale="   81.589">  5  6 -1 -1</clus>
<clus scale="   85.352">  2  5  1 -1</clus>
<clus scale="   95.695">  7  8 -1 -1</clus>
<clus scale="  113.284">  1 10  2 -1</clus>
<clus scale="   27.677">  1  5  2 -1</clus>
</clustering>
</event>
<event>
10    4  0.3043429E-005  0.9931874E+02  0.7546771E-02  0.1287942E+00
         -3   -1    0    0    0  501 -0.00000000000E+00  0.00000000000E+00  0.43774623241E+03  0.43774623241E+03  0.00000000000E+00 0.  1.
         21   -1    0    0  503  502  0.00000000000E+00 -0.00000000000E+00 -0.74637865152E+02  0.74637865152E+02  0.00000000000E+00 0.  1.
         24    2    1    2    0    0 -0.38537692816E+02 -0.59192831265E+02  0.21510589020E+03  0.23944546913E+03  0.77940000284E+02 0.  0.
         23    2    1    2    0    0 -0.31442136140E+00 -0.43281818287E+01  0.88374057787E+02  0.12635252308E+03  0.90200631822E+02 0.  0.
        -13    1    3    3    0    0 -0.61081502999E+02 -0.53012724290E+02  0.17913071600E+03  0.19654290208E+03  0.00000000000E+00 0.  1.
         14    1    3    3    0    0  0.22543810183E+02 -0.61801069755E+01  0.35975174205E+02  0.42902567043E+02  0.00000000000E+00 0. -1.
        -11    1    4    4    0    0  0.31545005870E+02  0.28287524449E+01 -0.49385740480E+00  0.31675434185E+02  0.00000000000E+00 0.  1.
         11    1    4    4    0    0 -0.31859427231E+02 -0.71569342736E+01  0.88867915192E+02  0.94677088898E+02  0.00000000000E+00 0. -1.
         21    1    1    2  503  501  0.60252778070E+01  0.30513142187E+02 -0.31492682082E+02  0.44262228180E+02  0.00000000000E+00 0.  1.
         -4    1    1    2    0  502  0.32826836370E+02  0.33007870907E+02  0.91121101347E+02  0.10232387717E+03  0.00000000000E+00 0.  1.
<scales pt_clust_5="13000.00000" pt_clust_6="13000.00000" pt_clust_7="13000.00000" pt_clust_8="13000.00000" pt_clust_9="31.10234" pt_clust_10="50.56479"></scales>
<clustering>
<clus scale="   31.102">  2  9  1 -1</clus>
<clus scale="   50.565">  2 10  1 -1</clus>
<clus scale="   77.940">  5  6 -1 -1</clus>
<clus scale="   88.333">  1  5  2 -1</clus>
<clus scale="   90.201">  7  8 -1 -1</clus>
<clus scale="   31.102">  2  5  1 -1</clus>
</clustering>
</event>
<event>
10    4  0.3043429E-005  0.1420448E+03  0.7546771E-02  0.1220583E+00
          2   -1    0    0  502    0 -0.00000000000E+00  0.00000000000E+00  0.20010300200E+04  0.20010300200E+04  0.00000000000E+00 0. -1.
         21   -1    0    0  503  502  0.00000000000E+00 -0.00000000000E+00 -0.61260462000E+02  0.61260462000E+02  0.00000000000E+00 0. -1.
         23    2    1    2    0    0 -0.15492283612E+02  0.64755024071E+02  0.39559599300E+03  0.41133870209E+03  0.90940168066E+02 0.  0.
         24    2    1    2    0    0 -0.38877420107E+02  0.79453009466E+02  0.49359739887E+02  0.13258918282E+03  0.85552749651E+02 0.  0.
        -11    1    4    4    0    0 -0.39012987514E+02 -0.37189497481E+01  0.93283204830E+01  0.40284753258E+02  0.00000000000E+00 0.  1.
         12    1    4    4    0    0  0.13556740688E+00  0.83171959214E+02  0.40031419404E+02  0.92304429566E+02  0.00000000000E+00 0. -1.
        -13    1    3    3    0    0 -0.43267366401E+02  0.67489795946E+02  0.33744146392E+03  0.34683379179E+03  0.00000000000E+00 0.  1.
         13    1    3    3    0    0  0.27775082789E+02 -0.27347718753E+01  0.58154529076E+02  0.64504910303E+02  0.00000000000E+00 0. -1.
         21    1    1    2  503  501  0.38285681751E+01  0.28297563637E+02  0.26089979500E+02  0.38679414065E+02  0.00000000000E+00 0.  1.
          1    1    1    2  501    0  0.50541135543E+02 -0.17250559717E+03  0.14687238456E+04  0.14796831830E+04  0.00000000000E+00 0. -1.
<scales pt_clust_5="13000.00000" pt_clust_6="13000.00000" pt_clust_7="13000.00000" pt_clust_8="13000.00000" pt_clust_9="28.55539" pt_clust_10="113.39072"></scales>
<clustering>
<clus scale="   28.555">  2  9  1 -1</clus>
<clus scale="   85.553">  5  6 -1 -1</clus>
<clus scale="   90.940">  7  8 -1 -1</clus>
<clus scale="  115.013">  1  7  2 -1</clus>
<clus scale="  113.391">  2 10  1 -1</clus>
<clus scale="   28.555">  2  5  1 -1</clus>
</clustering>
</event>
<event>
10    4  0.3043429E-005  0.3132892E+03  0.7546771E-02  0.1101466E+00
         -1   -1    0    0    0  501 -0.00000000000E+00  0.00000000000E+00  0.61398057075E+03  0.61398057075E+03  0.00000000000E+00 0.  1.
         21   -1    0    0  503  502  0.00000000000E+00 -0.00000000000E+00 -0.35540101233E+03  0.35540101233E+03  0.00000000000E+00 0.  1.
         24    2    1    2    0    0  0.15832359525E+03  0.26080713879E+02  0.11876442130E+03  0.21445018902E+03  0.78341121716E+02 0.  0.
         23    2    1    2    0    0 -0.94005644016E+02  0.31200012243E+03 -0.19839834635E+02  0.34004715796E+03  0.95169916979E+02 0.  0.
        -13    1    3    3    0    0  0.29113321913E+02  0.26397808437E+02  0.61806444977E+02  0.73242518005E+02  0.00000000000E+00 0.  1.
         14    1    3    3    0    0  0.12921027334E+03 -0.31709455819E+00  0.56957976327E+02  0.14120767101E+03  0.00000000000E+00 0. -1.
        -11    1    4    4    0    0 -0.30343075471E+01  0.78941787983E+02 -0.40934509449E+02  0.88975541449E+02  0.00000000000E+00 0.  1.
         11    1    4    4    0    0 -0.90971336469E+02  0.23305833445E+03  0.21094674814E+02  0.25107161651E+03  0.00000000000E+00 0. -1.
         21    1    1    2  503  501 -0.40936777168E+02 -0.46648654684E+02 -0.27352063390E+02  0.67823683772E+02  0.00000000000E+00 0.  1.
         -2    1    1    2    0  502 -0.23381174068E+02 -0.29143218162E+03  0.18700703515E+03  0.34706055233E+03  0.00000000000E+00 0.  1.
<scales pt_clust_5="13000.00000" pt_clust_6="13000.00000" pt_clust_7="13000.00000" pt_clust_8="13000.00000" pt_clust_9="62.06381" pt_clust_10="298.48430"></scales>
<clustering>
<clus scale="   62.064">  2  9  1 -1</clus>
<clus scale="   78.341">  5  6 -1 -1</clus>
<clus scale="   95.170">  7  8 -1 -1</clus>
<clus scale="  172.000">  1  5  2 -1</clus>
<clus scale="  298.484">  2 10  1 -1</clus>
<clus scale="   62.064">  2  5  1 -1</clus>
</clustering>
</event>
<event>
10    4  0.3043429E-005  0.1131052E+03  0.7546771E-02  0.1259050E+00
          2   -1    0    0  503    0 -0.00000000000E+00  0.00000000000E+00  0.10375587109E+04  0.10375587109E+04  0.00000000000E+00 0. -1.
         21   -1    0    0  501  502  0.00000000000E+00 -0.00000000000E+00 -0.66933548168E+02  0.66933548168E+02  0.00000000000E+00 0. -1.
         24    2    1    2    0    0 -0.16886406106E+02  0.49142235328E+02  0.37295927335E+03  0.38463272495E+03  0.78381142620E+02 0.  0.
         23    2    1    2    0    0  0.24334774487E+02 -0.12547296408E+03  0.28032996472E+03  0.32091711565E+03  0.89817927108E+02 0.  0.
        -13    1    3    3    0    0 -0.43623868749E+02  0.44011976171E+02  0.30845830517E+03  0.31462139470E+03  0.00000000000E+00 0.  1.
         14    1    3    3    0    0  0.26737462643E+02  0.51302591567E+01  0.64500968176E+02  0.70011330250E+02  0.00000000000E+00 0. -1.
        -11    1    4    4    0    0  0.19712455469E+02 -0.83918307622E+02  0.84634808860E+02  0.12080527358E+03  0.00000000000E+00 0.  1.
         11    1    4    4    0    0  0.46223190180E+01 -0.41554656459E+02  0.19569515586E+03  0.20011184207E+03  0.00000000000E+00 0. -1.
         21    1    1    2  503  502  0.42587227470E+02  0.40238847210E+01 -0.22207645796E+02  0.48197957671E+02  0.00000000000E+00 0. -1.
          1    1    1    2  501    0 -0.50035595851E+02  0.72306844032E+02  0.33954357045E+03  0.35074446079E+03  0.00000000000E+00 0. -1.
<scales pt_clust_5="13000.00000" pt_clust_6="13000.00000" pt_clust_7="13000.00000" pt_clust_8="13000.00000" pt_clust_9="42.77690" pt_clust_10="84.49475"></scales>
<clustering>
<clus scale="   42.777">  2  9  1 -1</clus>
<clus scale="   78.381">  5  6 -1 -1</clus>
<clus scale="   84.495">  2 10  1 -1</clus>
<clus scale="   89.818">  7  8 -1 -1</clus>
<clus scale="  104.255">  1  5  2 -1</clus>
<clus scale="   42.777">  2  5  1 -1</clus>
</clustering>
</event>
<event>
10    4  0.3043429E-005  0.2847143E+03  0.7546771E-02  0.1093407E+00
         -1   -1    0    0    0  501 -0.00000000000E+00  0.00000000000E+00  0.12215659095E+04  0.12215659095E+04  0.00000000000E+00 0.  1.
         21   -1    0    0  501  502  0.00000000000E+00 -0.00000000000E+00 -0.11233872682E+03  0.11233872682E+03  0.00000000000E+00 0.  1.
         23    2    1    2    0    0 -0.12477259709E+03 -0.23568888339E+03  0.54293006194E+03  0.61145349196E+03  0.89358099444E+02 0.  0.
         24    2    1    2    0    0  0.77305506363E+02  0.26877625499E+03  0.33964533546E+03  0.44770464562E+03  0.82847324891E+02 0.  0.
        -11    1    4    4    0    0  0.90144583387E+02  0.17323532684E+03  0.22720772022E+03  0.29959952020E+03  0.00000000000E+00 0.  1.
         12    1    4    4    0    0 -0.12839077024E+02  0.95540928158E+02  0.11243761524E+03  0.14810512541E+03  0.00000000000E+00 0. -1.
        -13    1    3    3    0    0 -0.77652618904E+02 -0.19472557026E+03  0.34290319410E+03  0.40190866806E+03  0.00000000000E+00 0.  1.
         13    1    3    3    0    0 -0.47119978190E+02 -0.40963313124E+02  0.20002686784E+03  0.20954482390E+03  0.00000000000E+00 0. -1.
         21    1    1    2  503  502  0.12440767588E+01 -0.23171052734E+02 -0.15576782808E+02  0.27947836668E+02  0.00000000000E+00 0.  1.
         -2    1    1    2    0  503  0.46223013972E+02 -0.99163188718E+01  0.24222856807E+03  0.24679866205E+03  0.00000000000E+00 0.  1.
<scales pt_clust_5="13000.00000" pt_clust_6="13000.00000" pt_clust_7="13000.00000" pt_clust_8="13000.00000" pt_clust_9="23.20443" pt_clust_10="47.43142"></scales>
<clustering>
<clus scale="   23.204">  2  9  1 -1</clus>
<clus scale="   47.431">  2 10  1 -1</clus>
<clus scale="   82.847">  5  6 -1 -1</clus>
<clus scale="   89.358">  7  8 -1 -1</clus>
<clus scale="  282.738">  2  5  1 -1</clus>
<clus scale="   23.204">  2  5  1 -1</clus>
</clustering>
</event>
<event>
10    4  0.3043429E-005  0.1744404E+03  0.7546771E-02  0.1189713E+00
          2   -1    0    0  502    0 -0.00000000000E+00  0.00000000000E+00  0.10377308738E+04  0.10377308738E+04  0.00000000000E+00 0. -1.
         21   -1    0    0  503  502  0.00000000000E+00 -0.00000000000E+00 -0.65416537243E+02  0.65416537243E+02  0.00000000000E+00 0. -1.
         24    2    1    2    0    0  0.60930692383E+02  0.75889136626E+02  0.31082669952E+03  0.33419329788E+03  0.74834570097E+02 0.  0.
         23    2    1    2    0    0  0.10257836246E+03 -0.12744433834E+03  0.21982806682E+03  0.28859535842E+03  0.90545690770E+02 0.  0.
        -11    1    3    3    0    0 -0.57578503852E+01  0.47834821345E+02  0.15651695722E+03  0.16376471192E+03  0.00000000000E+00 0.  1.
         12    1    3    3    0    0  0.66688542768E+02  0.28054315281E+02  0.15430974230E+03  0.17042858595E+03  0.00000000000E+00 0. -1.
        -11    1    4    4    0    0  0.14777088120E+02 -0.19044720726E+02  0.10554264230E+03  0.10826039471E+03  0.00000000000E+00 0.  1.
         11    1    4    4    0    0  0.87801274343E+02 -0.10839961761E+03  0.11428542453E+03  0.18033496370E+03  0.00000000000E+00 0. -1.
         21    1    1    2  503  501 -0.21614895569E+02  0.15645088947E+00  0.11480272081E+02  0.24474983849E+02  0.00000000000E+00 0. -1.
          1    1    1    2  501    0 -0.14189415928E+03  0.51398750825E+02  0.43017929813E+03  0.45588377090E+03  0.00000000000E+00 0. -1.
<scales pt_clust_5="13000.00000" pt_clust_6="13000.00000" pt_clust_7="13000.00000" pt_clust_8="13000.00000" pt_clust_9="21.61546" pt_clust_10="149.10052"></scales>
<clustering>
<clus scale="   21.615">  2  9  1 -1</clus>
<clus scale="   74.835">  5  6 -1 -1</clus>
<clus scale="   90.546">  7  8 -1 -1</clus>
<clus scale="  120.717">  1  5  2 -1</clus>
<clus scale="  149.101">  2 10  1 -1</clus>
<clus scale="   21.615">  2  5  1 -1</clus>
</clustering>
</event>
<event>
10    4  0.3043429E-005  0.1943396E+03  0.7546771E-02  0.1184909E+00
          2   -1    0    0  503    0 -0.00000000000E+00  0.00000000000E+00  0.83209496014E+03  0.83209496014E+03  0.00000000000E+00 0. -1.
         21   -1    0    0  501  502  0.00000000000E+00 -0.00000000000E+00 -0.22300938655E+03  0.22300938655E+03  0.00000000000E+00 0. -1.
         23    2    1    2    0    0 -0.31445750464E+02 -0.68907613592E+01  0.14100993661E+03  0.17085140318E+03  0.90939990828E+02 0.  0.
         24    2    1    2    0    0  0.15694231655E+03  0.13009823438E+03 -0.26765900894E+01  0.21891898659E+03  0.79761627619E+02 0.  0.
        -13    1    4    4    0    0  0.43421471676E+02  0.46612360638E+01  0.20351532522E+02  0.48180246991E+02  0.00000000000E+00 0.  1.
         14    1    4    4    0    0  0.11352084488E+03  0.12543699831E+03 -0.23028122611E+02  0.17073873960E+03  0.00000000000E+00 0. -1.
        -11    1    3    3    0    0  0.14588524234E+02 -0.32728127111E+02  0.25895937493E+02  0.44210348587E+02  0.00000000000E+00 0.  1.
         11    1    3    3    0    0 -0.46034274698E+02  0.25837365752E+02  0.11511399911E+03  0.12664105459E+03  0.00000000000E+00 0. -1.
         21    1    1    2  503  502 -0.92466403072E+01 -0.32492840862E+02 -0.84411755347E+02  0.90921006951E+02  0.00000000000E+00 0. -1.
          1    1    1    2  501    0 -0.11624992578E+03 -0.90714632157E+02  0.55516398241E+03  0.57441294997E+03  0.00000000000E+00 0. -1.
<scales pt_clust_5="13000.00000" pt_clust_6="13000.00000" pt_clust_7="13000.00000" pt_clust_8="13000.00000" pt_clust_9="33.78291" pt_clust_10="177.21734"></scales>
<clustering>
<clus scale="   33.783">  2  9  1 -1</clus>
<clus scale="   79.762">  5  6 -1 -1</clus>
<clus scale="   90.940">  7  8 -1 -1</clus>
<clus scale="   97.127">  1  7  2 -1</clus>
<clus scale="  177.217">  2 10  1 -1</clus>
<clus scale="   33.783">  2  5  1 -1</clus>
</clustering>
</event>
<event>
10    4  0.3043429E-005  0.1275749E+03  0.7546771E-02  0.1242132E+00
         -3   -1    0    0    0  501 -0.00000000000E+00  0.00000000000E+00  0.19516998530E+03  0.19516998530E+03  0.00000000000E+00 0.  1.
         21   -1    0    0  503  502  0.00000000000E+00 -0.00000000000E+00 -0.25678475928E+03  0.25678475928E+03  0.00000000000E+00 0. -1.
         24    2    1    2    0    0 -0.28678806465E+02 -0.42156303020E+02  0.15924744735E+02  0.95547917042E+02  0.79222339852E+02 0.  0.
         23    2    1    2    0    0  0.10821057588E+03  0.19313932363E+02 -0.18052759847E+02  0.15680941452E+03  0.11036636095E+03 0.  0.
        -11    1    3    3    0    0  0.21695332057E+02  0.48061084146E+01 -0.64438594924E+01  0.23136755094E+02  0.00000000000E+00 0.  1.
         12    1    3    3    0    0 -0.50374138521E+02 -0.46962411434E+02  0.22368604227E+02  0.72411161947E+02  0.00000000000E+00 0. -1.
        -11    1    4    4    0    0  0.32407316099E+02 -0.12520140271E+02 -0.56280774593E+02  0.66140106123E+02  0.00000000000E+00 0.  1.
         11    1    4    4    0    0  0.75803259784E+02  0.31834072634E+02  0.38228014746E+02  0.90669308400E+02  0.00000000000E+00 0. -1.
         21    1    1    2  503  501 -0.52162830941E+02 -0.30931829297E+01 -0.11853249913E+03  0.12953950000E+03  0.00000000000E+00 0.  1.
         -4    1    1    2    0  502 -0.27368938477E+02  0.25935553586E+02  0.59045740253E+02  0.70057913009E+02  0.00000000000E+00 0.  1.
<scales pt_clust_5="13000.00000" pt_clust_6="13000.00000" pt_clust_7="13000.00000" pt_clust_8="13000.00000" pt_clust_9="66.38649" pt_clust_10="37.70561"></scales>
<clustering>
<clus scale="   37.706">  2 10  1 -1</clus>
<clus scale="   66.386">  2  9  1 -1</clus>
<clus scale="   79.222">  5  6 -1 -1</clus>
<clus scale="  101.837">  1  5  2 -1</clus>
<clus scale="  110.366">  7  8 -1 -1</clus>
<clus scale="   37.706">  2  5  1 -1</clus>
</clustering>
</event>
<event>
10    4  0.3043429E-005  0.3606838E+03  0.7546771E-02  0.1058566E+00
         21   -1    0    0  503  502  0.00000000000E+00  0.00000000000E+00  0.34692748788E+03  0.34692748788E+03  0.00000000000E+00 0.  1.
          2   -1    0    0  502    0 -0.00000000000E+00 -0.00000000000E+00 -0.81738590528E+03  0.81738590528E+03  0.00000000000E+00 0. -1.
         23    2    1    2    0    0  0.30746621768E+03 -0.10514156309E+03 -0.25081970130E+03  0.42041177222E+03  0.90803702334E+02 0.  0.
         24    2    1    2    0    0 -0.29871430836E+03  0.31643626643E+03 -0.65991282290E+02  0.44736092110E+03  0.80092419481E+02 0.  0.
        -13    1    4    4    0    0 -0.16306081205E+03  0.19292011376E+03 -0.62138406810E+00  0.25260123681E+03  0.00000000000E+00 0.  1.
         14    1    4    4    0    0 -0.13565349630E+03  0.12351615267E+03 -0.65369898222E+02  0.19475968428E+03  0.00000000000E+00 0. -1.
        -13    1    3    3    0    0  0.28122762664E+03 -0.11751833775E+03 -0.20920988360E+03  0.36968677700E+03  0.00000000000E+00 0. -1.
         13    1    3    3    0    0  0.26238591041E+02  0.12376774664E+02 -0.41609817701E+02  0.50724995219E+02  0.00000000000E+00 0.  1.
         21    1    1    2  503  501  0.18763056509E+02 -0.25090018751E+02  0.22638530495E+02  0.38653129155E+02  0.00000000000E+00 0. -1.
          1    1    1    2  501    0 -0.27514965837E+02 -0.18620468459E+03 -0.17628596430E+03  0.25788757069E+03  0.00000000000E+00 0. -1.
<scales pt_clust_5="13000.00000" pt_clust_6="13000.00000" pt_clust_7="13000.00000" pt_clust_8="13000.00000" pt_clust_9="31.32988" pt_clust_10="191.09628"></scales>
<clustering>
<clus scale="   31.330">  1  9  2 -1</clus>
<clus scale="   80.092">  5  6 -1 -1</clus>
<clus scale="   90.804">  7  8 -1 -1</clus>
<clus scale="  191.096">  1 10  2 -1</clus>
<clus scale="  358.137">  1  5  2 -1</clus>
<clus scale="   31.330">  1  5  2 -1</clus>
</clustering>
</event>
<event>
10    4  0.3043429E-005  0.1682748E+03  0.7546771E-02  0.1181683E+00
         21   -1    0    0  501  502  0.00000000000E+00  0.00000000000E+00  0.57120246202E+02  0.57120246202E+02  0.00000000000E+00 0. -1.
          2   -1    0    0  503    0 -0.00000000000E+00 -0.00000000000E+00 -0.67563085502E+03  0.67563085502E+03  0.00000000000E+00 0. -1.
         24    2    1    2    0    0  0.56934457354E+02  0.11479418578E+03 -0.24451412017E+03  0.28657372689E+03  0.76929243169E+02 0.  0.
         23    2    1    2    0    0 -0.48878549408E+02 -0.15136374029E+03 -0.28090098989E+03  0.33553588530E+03  0.91536166240E+02 0.  0.
        -13    1    3    3    0    0  0.62489713308E+02  0.73037378035E+02 -0.21388304579E+03  0.23448961626E+03  0.00000000000E+00 0.  1.
         14    1    3    3    0    0 -0.55552559539E+01  0.41756807740E+02 -0.30631074388E+02  0.52084110625E+02  0.00000000000E+00 0. -1.
        -11    1    4    4    0    0  0.24379138054E+02 -0.62600826910E+02 -0.85174741431E+02  0.10848014786E+03  0.00000000000E+00 0.  1.
         11    1    4    4    0    0 -0.73257687463E+02 -0.88762913385E+02 -0.19572624846E+03  0.22705573744E+03  0.00000000000E+00 0. -1.
         21    1    1    2  503  502 -0.19991403884E+02  0.58594023104E+01 -0.14393786971E+02  0.25321333457E+02  0.00000000000E+00 0. -1.
          1    1    1    2  501    0  0.11935495938E+02  0.30710152209E+02 -0.78701711780E+02  0.85320155585E+02  0.00000000000E+00 0. -1.
<scales pt_clust_5="13000.00000" pt_clust_6="13000.00000" pt_clust_7="13000.00000" pt_clust_8="13000.00000" pt_clust_9="20.83240" pt_clust_10="32.86085"></scales>
<clustering>
<clus scale="   20.832">  1  9  2 -1</clus>
<clus scale="   32.861">  1 10  2 -1</clus>
<clus scale="   76.929">  5  6 -1 -1</clus>
<clus scale="   91.536">  7  8 -1 -1</clus>
<clus scale="  160.797">  2  5  1 -1</clus>
<clus scale="   20.832">  1  5  2 -1</clus>
</clustering>
</event>
<event>
10    4  0.3043429E-005  0.1741562E+03  0.7546771E-02  0.1175166E+00
         21   -1    0    0  501  502  0.00000000000E+00  0.00000000000E+00  0.33396881771E+03  0.33396881771E+03  0.00000000000E+00 0.  1.
          2   -1    0    0  503    0 -0.00000000000E+00 -0.00000000000E+00 -0.61059924507E+03  0.61059924507E+03  0.00000000000E+00 0. -1.
         23    2    1    2    0    0  0.58927172402E+01  0.16852868105E+03 -0.49703954189E+03  0.53285285195E+03  0.91908732848E+02 0.  0.
         24    2    1    2    0    0  0.31197295832E+02 -0.10689701279E+02  0.10370550881E+03  0.13484900282E+03  0.79635921687E+02 0.  0.
        -13    1    4    4    0    0  0.50174531930E+02  0.82553667315E+01  0.36795699497E+02  0.62765900262E+02  0.00000000000E+00 0.  1.
         14    1    4    4    0    0 -0.18977236098E+02 -0.18945068010E+02  0.66909809314E+02  0.72083102557E+02  0.00000000000E+00 0. -1.
        -11    1    3    3    0    0  0.39490125705E+02  0.36327967617E+02 -0.10802951800E+03  0.12062159018E+03  0.00000000000E+00 0. -1.
         11    1    3    3    0    0 -0.33597408465E+02  0.13220071343E+03 -0.38901002389E+03  0.41223126176E+03  0.00000000000E+00 0.  1.
         21    1    1    2  503  502  0.10855242162E+02 -0.74964107022E+02  0.15596426664E+03  0.17338484966E+03  0.00000000000E+00 0.  1.
          1    1    1    2  501    0 -0.47945255234E+02 -0.82874872746E+02 -0.39260660922E+02  0.10348135836E+03  0.00000000000E+00 0. -1.
<scales pt_clust_5="13000.00000" pt_clust_6="13000.00000" pt_clust_7="13000.00000" pt_clust_8="13000.00000" pt_clust_9="75.74598" pt_clust_10="107.39038"></scales>
<clustering>
<clus scale="   75.746">  1  9  2 -1</clus>
<clus scale="   79.636">  5  6 -1 -1</clus>
<clus scale="   91.909">  7  8 -1 -1</clus>
<clus scale="  107.390">  1 10  2 -1</clus>
<clus scale="  168.003">  1  5  2 -1</clus>
<clus scale="   75.746">  1  5  2 -1</clus>
</clustering>
</event>
<event>
10    4  0.3043429E-005  0.2292243E+03  0.7546771E-02  0.1129193E+00
          2   -1    0    0  503    0 -0.00000000000E+00  0.00000000000E+00  0.63925105295E+03  0.63925105295E+03  0.00000000000E+00 0. -1.
         21   -1    0    0  501  502  0.00000000000E+00 -0.00000000000E+00 -0.14962213400E+03  0.14962213400E+03  0.00000000000E+00 0. -1.
         24    2    1    2    0    0 -0.20681101613E+03  0.56427081919E+02  0.28320232266E+03  0.36416305304E+03  0.80351488297E+02 0.  0.
         23    2    1    2    0    0  0.19583943685E+03  0.50360122623E+02  0.15773970528E+03  0.27779876718E+03  0.10677599659E+03 0.  0.
        -11    1    3    3    0    0 -0.29140830954E+02  0.33377959683E+01  0.97158231350E+02  0.10148916607E+03  0.00000000000E+00 0.  1.
         12    1    3    3    0    0 -0.17767018518E+03  0.53089285950E+02  0.18604409131E+03  0.26267388696E+03  0.00000000000E+00 0. -1.
        -11    1    4    4    0    0 -0.80278064090E+01  0.18465185560E+02  0.26386933474E+02  0.33191550305E+02  0.00000000000E+00 0.  1.
         11    1    4    4    0    0  0.20386724326E+03  0.31894937063E+02  0.13135277181E+03  0.24460721687E+03  0.00000000000E+00 0. -1.
         21    1    1    2  503  502 -0.33516004827E+01 -0.25626068089E+02 -0.25293638639E+02  0.36162089916E+02  0.00000000000E+00 0.  1.
          1    1    1    2  501    0  0.14323179760E+02 -0.81161136454E+02  0.73980529646E+02  0.11074927682E+03  0.00000000000E+00 0. -1.
<scales pt_clust_5="13000.00000" pt_clust_6="13000.00000" pt_clust_7="13000.00000" pt_clust_8="13000.00000" pt_clust_9="25.84431" pt_clust_10="86.23583"></scales>
<clustering>
<clus scale="   25.844">  2  9  1 -1</clus>
<clus scale="   80.351">  5  6 -1 -1</clus>
<clus scale="   86.236">  2 10  1 -1</clus>
<clus scale="  106.776">  7  8 -1 -1</clus>
<clus scale="  218.172">  1  5  2 -1</clus>
<clus scale="   25.844">  2  5  1 -1</clus>
</clustering>
</event>
<event>
10    4  0.3043429E-005  0.1039628E+03  0.7546771E-02  0.1279220E+00
         21   -1    0    0  501  502  0.00000000000E+00  0.00000000000E+00  0.27654870240E+03  0.27654870240E+03  0.00000000000E+00 0. -1.
          2   -1    0    0  503    0 -0.00000000000E+00 -0.00000000000E+00 -0.59210913438E+03  0.59210913438E+03  0.00000000000E+00 0. -1.
         24    2    1    2    0    0 -0.48906640148E+02  0.13876157893E+02 -0.37307318224E+03  0.38385013395E+03  0.74651984669E+02 0.  0.
         23    2    1    2    0    0  0.30631170181E+02 -0.77048778503E+02 -0.94095991321E+02  0.15446247685E+03  0.90165505136E+02 0.  0.
        -11    1    3    3    0    0 -0.19196542605E+02  0.21857623677E+02 -0.40542528179E+02  0.49899494506E+02  0.00000000000E+00 0.  1.
         12    1    3    3    0    0 -0.29710097543E+02 -0.79814657844E+01 -0.33253065406E+03  0.33395063944E+03  0.00000000000E+00 0. -1.
        -13    1    4    4    0    0  0.23541171673E+02 -0.36981049512E+01  0.10885396113E+02  0.26198370035E+02  0.00000000000E+00 0.  1.
         13    1    4    4    0    0  0.70899985086E+01 -0.73350673552E+02 -0.10498138743E+03  0.12826410681E+03  0.00000000000E+00 0. -1.
         21    1    1    2  503  502  0.58515701508E+01 -0.46561368339E+02  0.20313217300E+03  0.20848232924E+03  0.00000000000E+00 0. -1.
          1    1    1    2  501    0  0.12423899816E+02  0.10973398895E+03 -0.51523431430E+02  0.12186289675E+03  0.00000000000E+00 0. -1.
<scales pt_clust_5="13000.00000" pt_clust_6="13000.00000" pt_clust_7="13000.00000" pt_clust_8="13000.00000" pt_clust_9="46.92762" pt_clust_10="87.93275"></scales>
<clustering>
<clus scale="   46.928">  1  9  2 -1</clus>
<clus scale="   74.652">  5  6 -1 -1</clus>
<clus scale="   87.933">  1 10  2 -1</clus>
<clus scale="   90.166">  7  8 -1 -1</clus>
<clus scale="   90.837">  2  5  1 -1</clus>
<clus scale="   46.928">  1  5  2 -1</clus>
</clustering>
</event>
<event>
10    4  0.3043429E-005  0.1051691E+03  0.7546771E-02  0.1275521E+00
         -1   -1    0    0    0  501 -0.00000000000E+00  0.00000000000E+00  0.25740608012E+03  0.25740608012E+03  0.00000000000E+00 0.  1.
         21   -1    0    0  503  502  0.00000000000E+00 -0.00000000000E+00 -0.22476807691E+03  0.22476807691E+03  0.00000000000E+00 0.  1.
         23    2    1    2    0    0 -0.52776195891E+02 -0.14173182737E+02  0.10790957519E+03  0.15276012703E+03  0.93300450329E+02 0.  0.
         24    2    1    2    0    0  0.39738913558E+01  0.67623957257E+02  0.20005070732E+02  0.10724874658E+03  0.80705014592E+02 0.  0.
        -13    1    4    4    0    0 -0.27194475176E+02  0.41950289063E+02 -0.16669413311E+02  0.52699483609E+02  0.00000000000E+00 0.  1.
         14    1    4    4    0    0  0.31168366532E+02  0.25673668195E+02  0.36674484042E+02  0.54549262971E+02  0.00000000000E+00 0. -1.
        -13    1    3    3    0    0 -0.73706853285E+02 -0.99239658316E+01  0.46426870672E+02  0.87673483103E+02  0.00000000000E+00 0.  1.
         13    1    3    3    0    0  0.20930657393E+02 -0.42492169054E+01  0.61482704517E+02  0.65086643929E+02  0.00000000000E+00 0. -1.
         21    1    1    2  503  501 -0.12167525854E+02  0.23847697934E+02 -0.11810663849E+03  0.12110301168E+03  0.00000000000E+00 0.  1.
         -2    1    1    2    0  502  0.60969830390E+02 -0.77298472454E+02  0.22829995786E+02  0.10106227174E+03  0.00000000000E+00 0.  1.
<scales pt_clust_5="13000.00000" pt_clust_6="13000.00000" pt_clust_7="13000.00000" pt_clust_8="13000.00000" pt_clust_9="26.77240" pt_clust_10="88.70369"></scales>
<clustering>
<clus scale="   26.772">  2  9  1 -1</clus>
<clus scale="   80.705">  5  6 -1 -1</clus>
<clus scale="   88.704">  2 10  1 -1</clus>
<clus scale="   93.300">  7  8 -1 -1</clus>
<clus scale="   94.175">  2  5  1 -1</clus>
<clus scale="   26.772">  2  5  1 -1</clus>
</clustering>
</event>
<event>
10    4  0.3161370E-005  0.2004078E+03  0.7546771E-02  0.1178845E+00
         21   -1    0    0  503  502  0.00000000000E+00  0.00000000000E+00  0.65391574255E+03  0.65391574255E+03  0.00000000000E+00 0. -1.
         -3   -1    0    0    0  501 -0.00000000000E+00 -0.00000000000E+00 -0.48098934382E+03  0.48098934382E+03  0.00000000000E+00 0.  1.
         23    2    1    2    0    0  0.29896821435E+02  0.13873314138E+02 -0.12354365138E+03  0.15983297755E+03  0.95902336456E+02 0.  0.
         24    2    1    2    0    0 -0.12455794152E+03 -0.14545684076E+03 -0.46074956427E+02  0.21304753428E+03  0.81203306178E+02 0.  0.
        -11    1    4    4    0    0 -0.13412872680E+03 -0.12257795721E+03 -0.31898005800E+02  0.18448130995E+03  0.00000000000E+00 0.  1.
         12    1    4    4    0    0  0.95707852827E+01 -0.22878883547E+02 -0.14176950628E+02  0.28566224329E+02  0.00000000000E+00 0. -1.
        -13    1    3    3    0    0 -0.23844695914E+02 -0.16976891593E+02 -0.76872416881E+02  0.82256627991E+02  0.00000000000E+00 0.  1.
         13    1    3    3    0    0  0.53741517349E+02  0.30850205731E+02 -0.46671234504E+02  0.77576349558E+02  0.00000000000E+00 0. -1.
         21    1    1    2  503  501  0.55456171894E+02  0.21103206032E+03  0.51986753033E+03  0.56380153119E+03  0.00000000000E+00 0. -1.
         -4    1    1    2    0  502  0.39204948189E+02 -0.79448533701E+02 -0.17732252378E+03  0.19822304334E+03  0.00000000000E+00 0.  1.
<scales pt_clust_5="13000.00000" pt_clust_6="13000.00000" pt_clust_7="13000.00000" pt_clust_8="13000.00000" pt_clust_9="183.21935" pt_clust_10="88.59518"></scales>
<clustering>
<clus scale="   81.203">  5  6 -1 -1</clus>
<clus scale="   88.595">  1 10  2 -1</clus>
<clus scale="   95.902">  7  8 -1 -1</clus>
<clus scale="  101.458">  2  7  1 -1</clus>
<clus scale="  183.219">  1  9  2 -1</clus>
<clus scale="   88.595">  1  5  2 -1</clus>
</clustering>
</event>
<event>
10    4  0.3043429E-005  0.9733232E+02  0.7546771E-02  0.1293553E+00
         -1   -1    0    0    0  501 -0.00000000000E+00  0.00000000000E+00  0.30832768571E+03  0.30832768571E+03  0.00000000000E+00 0.  1.
         21   -1    0    0  501  502  0.00000000000E+00 -0.00000000000E+00 -0.93226376100E+02  0.93226376100E+02  0.00000000000E+00 0. -1.
         24    2    1    2    0    0  0.32230210141E+02 -0.40237115813E+01  0.13428361521E+03  0.15888853678E+03  0.78476118058E+02 0.  0.
         23    2    1    2    0    0 -0.21534887032E+02  0.27435857729E+02 -0.15981094222E+01  0.98542796050E+02  0.92150154915E+02 0.  0.
        -11    1    3    3    0    0  0.17245547287E+01 -0.38323787089E+02  0.51333095266E+02  0.64084112036E+02  0.00000000000E+00 0.  1.
         12    1    3    3    0    0  0.30505655412E+02  0.34300075508E+02  0.82950519945E+02  0.94804424744E+02  0.00000000000E+00 0. -1.
        -13    1    4    4    0    0 -0.15856654283E+02 -0.28454474725E+02  0.20148986673E+02  0.38302379572E+02  0.00000000000E+00 0.  1.
         13    1    4    4    0    0 -0.56782327496E+01  0.55890332453E+02 -0.21747096095E+02  0.60240416478E+02  0.00000000000E+00 0. -1.
         21    1    1    2  503  502  0.24278005405E+02  0.21771609755E+02 -0.11172605677E+02  0.34471026317E+02  0.00000000000E+00 0. -1.
         -2    1    1    2    0  503 -0.34973328513E+02 -0.45183755902E+02  0.93588409502E+02  0.10965170267E+03  0.00000000000E+00 0.  1.
<scales pt_clust_5="13000.00000" pt_clust_6="13000.00000" pt_clust_7="13000.00000" pt_clust_8="13000.00000" pt_clust_9="32.61019" pt_clust_10="53.48252"></scales>
<clustering>
<clus scale="   32.610">  2  9  1 -1</clus>
<clus scale="   53.483">  2 10  1 -1</clus>
<clus scale="   78.476">  5  6 -1 -1</clus>
<clus scale="   84.501">  1  5  2 -1</clus>
<clus scale="   92.150">  7  8 -1 -1</clus>
<clus scale="   32.610">  2  5  1 -1</clus>
</clustering>
</event>
<event>
10    4  0.3043429E-005  0.1017517E+03  0.7546771E-02  0.1287084E+00
         21   -1    0    0  503  502  0.00000000000E+00  0.00000000000E+00  0.28229275339E+03  0.28229275339E+03  0.00000000000E+00 0.  1.
         -3   -1    0    0    0  501 -0.00000000000E+00 -0.00000000000E+00 -0.13979120363E+03  0.13979120363E+03  0.00000000000E+00 0.  1.
         24    2    1    2    0    0 -0.64932422373E+01  0.12185464035E+02 -0.46452317617E+02  0.95590298192E+02  0.82395628330E+02 0.  0.
         23    2    1    2    0    0 -0.25917692262E+02 -0.13400072000E+02 -0.11858326089E+02  0.10566401151E+03  0.10086116561E+03 0.  0.
        -13    1    3    3    0    0 -0.19637126261E+02  0.27091404464E+02 -0.61936637032E+02  0.70396789205E+02  0.00000000000E+00 0.  1.
         14    1    3    3    0    0  0.13143884023E+02 -0.14905940429E+02  0.15484319415E+02  0.25193508986E+02  0.00000000000E+00 0. -1.
        -13    1    4    4    0    0 -0.93604598073E+01 -0.45449163426E+02 -0.38923398822E+02  0.60566291283E+02  0.00000000000E+00 0.  1.
         13    1    4    4    0    0 -0.16557232454E+02  0.32049091426E+02  0.27065072733E+02  0.45097720228E+02  0.00000000000E+00 0. -1.
         21    1    1    2  503  501 -0.20512951577E+01  0.32276060220E+02  0.31019354162E+02  0.44812411314E+02  0.00000000000E+00 0. -1.
         -4    1    1    2    0  502  0.34462229657E+02 -0.31061452255E+02  0.16979283931E+03  0.17601723600E+03  0.00000000000E+00 0.  1.
<scales pt_clust_5="13000.00000" pt_clust_6="13000.00000" pt_clust_7="13000.00000" pt_clust_8="13000.00000" pt_clust_9="32.34118" pt_clust_10="34.02012"></scales>
<clustering>
<clus scale="   32.341">  1  9  2 -1</clus>
<clus scale="   34.020">  1 10  2 -1</clus>
<clus scale="   82.396">  5  6 -1 -1</clus>
<clus scale="   83.483">  2  5  1 -1</clus>
<clus scale="  100.861">  7  8 -1 -1</clus>
<clus scale="   32.341">  1  5  2 -1</clus>
</clustering>
</event>
<event>
10    4  0.3043429E-005  0.1529777E+03  0.7546771E-02  0.1209983E+00
         21   -1    0    0  503  502  0.00000000000E+00  0.00000000000E+00  0.30607334568E+03  0.30607334568E+03  0.00000000000E+00 0. -1.
          4   -1    0    0  502    0 -0.00000000000E+00 -0.00000000000E+00 -0.47109145906E+03  0.47109145906E+03  0.00000000000E+00 0. -1.
         23    2    1    2    0    0 -0.45615634660E+01 -0.67708529955E+02 -0.31255160189E+03  0.33313309508E+03  0.93187457860E+02 0.  0.
         24    2    1    2    0    0  0.13937477289E+03 -0.49411893126E+02 -0.18504540345E+01  0.16871669640E+03  0.81209832928E+02 0.  0.
        -13    1    4    4    0    0  0.51293907358E+02  0.19499619618E+02  0.11562938883E+02  0.56080314308E+02  0.00000000000E+00 0.  1.
         14    1    4    4    0    0  0.88080865529E+02 -0.68911512744E+02 -0.13413392917E+02  0.11263638209E+03  0.00000000000E+00 0. -1.
        -13    1    3    3    0    0 -0.19142889945E+02  0.75351051526E+01 -0.13959919618E+02  0.24861765843E+02  0.00000000000E+00 0.  1.
         13    1    3    3    0    0  0.14581326479E+02 -0.75243635107E+02 -0.29859168227E+03  0.30827132923E+03  0.00000000000E+00 0. -1.
         21    1    1    2  503  501 -0.63960327208E+02  0.75002003702E+01  0.12767556905E+03  0.14299729855E+03  0.00000000000E+00 0.  1.
          3    1    1    2  501    0 -0.70852882213E+02  0.10962022271E+03  0.21708373492E+02  0.13231771470E+03  0.00000000000E+00 0. -1.
<scales pt_clust_5="13000.00000" pt_clust_6="13000.00000" pt_clust_7="13000.00000" pt_clust_8="13000.00000" pt_clust_9="64.39858" pt_clust_10="129.64247"></scales>
<clustering>
<clus scale="   64.399">  1  9  2 -1</clus>
<clus scale="   81.210">  5  6 -1 -1</clus>
<clus scale="   93.187">  7  8 -1 -1</clus>
<clus scale="  115.231">  2  7  1 -1</clus>
<clus scale="  129.642">  1 10  2 -1</clus>
<clus scale="   64.399">  1  5  2 -1</clus>
</clustering>
</event>
<event>
10    4  0.3043429E-005  0.1123389E+03  0.7546771E-02  0.1261217E+00
         21   -1    0    0  503  502  0.00000000000E+00  0.00000000000E+00  0.19817933434E+03  0.19817933434E+03  0.00000000000E+00 0.  1.
          2   -1    0    0  502    0 -0.00000000000E+00 -0.00000000000E+00 -0.16321445635E+03  0.16321445635E+03  0.00000000000E+00 0. -1.
         24    2    1    2    0    0  0.62779639521E+02 -0.25624188053E+02 -0.62701542840E+02  0.12116594515E+03  0.78433542810E+02 0.  0.
         23    2    1    2    0    0 -0.62127319847E+02 -0.13224194367E+02  0.91736034964E+02  0.14430635291E+03  0.91510328334E+02 0.  0.
        -11    1    3    3    0    0 -0.12992195880E+02 -0.24474858087E+02 -0.20096297380E+02  0.34229767755E+02  0.00000000000E+00 0.  1.
         12    1    3    3    0    0  0.75771835401E+02 -0.11493299662E+01 -0.42605245460E+02  0.86936177395E+02  0.00000000000E+00 0. -1.
        -11    1    4    4    0    0  0.46832590983E+00  0.31649677378E+02  0.42126538832E+02  0.52693136947E+02  0.00000000000E+00 0. -1.
         11    1    4    4    0    0 -0.62595645757E+02 -0.44873871745E+02  0.49609496132E+02  0.91613215966E+02  0.00000000000E+00 0.  1.
         21    1    1    2  503  501 -0.22943911380E+02  0.13653440930E+02  0.39967650643E+02  0.48065087294E+02  0.00000000000E+00 0. -1.
          1    1    1    2  501    0  0.22291591706E+02  0.25194941491E+02 -0.34037264783E+02  0.47856405333E+02  0.00000000000E+00 0. -1.
<scales pt_clust_5="13000.00000" pt_clust_6="13000.00000" pt_clust_7="13000.00000" pt_clust_8="13000.00000" pt_clust_9="26.69905" pt_clust_10="33.43834"></scales>
<clustering>
<clus scale="   26.699">  1  9  2 -1</clus>
<clus scale="   33.438">  1 10  2 -1</clus>
<clus scale="   78.434">  5  6 -1 -1</clus>
<clus scale="   91.510">  7  8 -1 -1</clus>
<clus scale="  101.969">  2  5  1 -1</clus>
<clus scale="   26.699">  1  5  2 -1</clus>
</clustering>
</event>
<event>
10    4  0.3043429E-005  0.3423158E+03  0.7546771E-02  0.1065814E+00
          2   -1    0    0  503    0 -0.00000000000E+00  0.00000000000E+00  0.11440620072E+04  0.11440620072E+04  0.00000000000E+00 0. -1.
         21   -1    0    0  501  502  0.00000000000E+00 -0.00000000000E+00 -0.12891937760E+03  0.12891937760E+03  0.00000000000E+00 0. -1.
         24    2    1    2    0    0  0.14182000916E+03 -0.41302414447E+02  0.74214392902E+02  0.18357934460E+03  0.79842314660E+02 0.  0.
         23    2    1    2    0    0  0.95392073080E+02 -0.86414168372E+02  0.21088425967E+03  0.26283581844E+03  0.89685229417E+02 0.  0.
        -11    1    3    3    0    0  0.94918336044E+02  0.12754445931E+02  0.49919425510E+02  0.10800053450E+03  0.00000000000E+00 0.  1.
         12    1    3    3    0    0  0.46901673119E+02 -0.54056860379E+02  0.24294967392E+02  0.75578810099E+02  0.00000000000E+00 0. -1.
        -11    1    4    4    0    0 -0.11602525552E+02 -0.27783226124E+02  0.71596074854E+02  0.77669325912E+02  0.00000000000E+00 0. -1.
         11    1    4    4    0    0  0.10699459863E+03 -0.58630942247E+02  0.13928818482E+03  0.18516649253E+03  0.00000000000E+00 0.  1.
         21    1    1    2  503  502  0.19279505909E+02  0.48101721484E+02  0.34601664353E+01  0.51936958994E+02  0.00000000000E+00 0. -1.
          1    1    1    2  501    0 -0.25649158815E+03  0.79614861335E+02  0.72658381064E+03  0.77462926282E+03  0.00000000000E+00 0. -1.
<scales pt_clust_5="13000.00000" pt_clust_6="13000.00000" pt_clust_7="13000.00000" pt_clust_8="13000.00000" pt_clust_9="51.82157" pt_clust_10="267.87313"></scales>
<clustering>
<clus scale="   51.822">  2  9  1 -1</clus>
<clus scale="   79.842">  5  6 -1 -1</clus>
<clus scale="   89.685">  7  8 -1 -1</clus>
<clus scale="  141.359">  5  7 -1 -1</clus>
<clus scale="  267.873">  2 10  1 -1</clus>
<clus scale="   51.822">  2  5  1 -1</clus>
</clustering>
</event>
<event>
10    4  0.3043429E-005  0.3400140E+03  0.7546771E-02  0.1083753E+00
         21   -1    0    0  501  502  0.00000000000E+00  0.00000000000E+00  0.19519291766E+03  0.19519291766E+03  0.00000000000E+00 0.  1.
          2   -1    0    0  503    0 -0.00000000000E+00 -0.00000000000E+00 -0.12404379709E+04  0.12404379709E+04  0.00000000000E+00 0. -1.
         23    2    1    2    0    0 -0.15855652080E+02 -0.18178541344E+03 -0.15656279217E+03  0.25751935463E+03  0.92233247107E+02 0.  0.
         24    2    1    2    0    0 -0.22620888016E+02  0.44603636425E+03 -0.49920443803E+03  0.67647987725E+03  0.94656275912E+02 0.  0.
        -11    1    4    4    0    0 -0.48251820045E+02  0.40500085337E+03 -0.45336114626E+03  0.60982805634E+03  0.00000000000E+00 0.  1.
         12    1    4    4    0    0  0.25630932028E+02  0.41035510879E+02 -0.45843291774E+02  0.66651820909E+02  0.00000000000E+00 0. -1.
        -11    1    3    3    0    0  0.31296572484E+02 -0.44237011954E+02 -0.69180929373E+02  0.87877128223E+02  0.00000000000E+00 0. -1.
         11    1    3    3    0    0 -0.47152224563E+02 -0.13754840149E+03 -0.87381862797E+02  0.16964222640E+03  0.00000000000E+00 0.  1.
         21    1    1    2  503  502 -0.41415382869E+02 -0.33966864791E+02 -0.16458623862E+02  0.56034526333E+02  0.00000000000E+00 0.  1.
          1    1    1    2  501    0  0.79891922965E+02 -0.23028408601E+03 -0.37301919921E+03  0.44559713039E+03  0.00000000000E+00 0. -1.
<scales pt_clust_5="13000.00000" pt_clust_6="13000.00000" pt_clust_7="13000.00000" pt_clust_8="13000.00000" pt_clust_9="53.56288" pt_clust_10="326.57262"></scales>
<clustering>
<clus scale="   53.563">  1  9  2 -1</clus>
<clus scale="   92.233">  7  8 -1 -1</clus>
<clus scale="   94.656">  5  6 -1 -1</clus>
<clus scale="  214.415">  2  7  1 -1</clus>
<clus scale="  326.573">  1 10  2 -1</clus>
<clus scale="   53.563">  1  5  2 -1</clus>
</clustering>
</event>
<event>
10    4  0.3043429E-005  0.1473900E+03  0.7546771E-02  0.1228892E+00
          2   -1    0    0  503    0 -0.00000000000E+00  0.00000000000E+00  0.75647165678E+03  0.75647165678E+03  0.00000000000E+00 0. -1.
         21   -1    0    0  501  502  0.00000000000E+00 -0.00000000000E+00 -0.65520529299E+02  0.65520529299E+02  0.00000000000E+00 0.  1.
         24    2    1    2    0    0  0.97550027622E+01  0.27726344418E+02  0.28436291453E+03  0.29704858078E+03  0.80694993219E+02 0.  0.
         23    2    1    2    0    0 -0.52395581388E+02 -0.12554626447E+03  0.17251510283E+03  0.23770900927E+03  0.90757649314E+02 0.  0.
        -11    1    3    3    0    0 -0.25667685194E+02  0.34707846823E+02  0.96032238802E+02  0.10528843993E+03  0.00000000000E+00 0.  1.
         12    1    3    3    0    0  0.35422687956E+02 -0.69815024045E+01  0.18833067573E+03  0.19176014085E+03  0.00000000000E+00 0. -1.
        -13    1    4    4    0    0 -0.41205715614E+02 -0.94595275677E+02  0.17661200928E+03  0.20454334260E+03  0.00000000000E+00 0. -1.
         13    1    4    4    0    0 -0.11189865773E+02 -0.30950988791E+02 -0.40969064425E+01  0.33165666669E+02  0.00000000000E+00 0.  1.
         21    1    1    2  503  502 -0.21260103125E+02  0.22173881157E+02 -0.24524938527E+01  0.30817003692E+02  0.00000000000E+00 0.  1.
          1    1    1    2  501    0  0.63900681750E+02  0.75646038893E+02  0.23652560397E+03  0.25641759234E+03  0.00000000000E+00 0. -1.
<scales pt_clust_5="13000.00000" pt_clust_6="13000.00000" pt_clust_7="13000.00000" pt_clust_8="13000.00000" pt_clust_9="30.71926" pt_clust_10="116.13301"></scales>
<clustering>
<clus scale="   30.719">  2  9  1 -1</clus>
<clus scale="   80.695">  5  6 -1 -1</clus>
<clus scale="   86.586">  1  5  2 -1</clus>
<clus scale="   90.758">  7  8 -1 -1</clus>
<clus scale="  116.133">  2 10  1 -1</clus>
<clus scale="   30.719">  2  5  1 -1</clus>
</clustering>
</event>
<event>
10    4  0.3043429E-005  0.9588370E+02  0.7546771E-02  0.1291874E+00
          2   -1    0    0  502    0 -0.00000000000E+00  0.00000000000E+00  0.46386693741E+03  0.46386693741E+03  0.00000000000E+00 0. -1.
         21   -1    0    0  503  502  0.00000000000E+00 -0.00000000000E+00 -0.27902634167E+03  0.27902634167E+03  0.00000000000E+00 0. -1.
         23    2    1    2    0    0  0.44769007465E+02  0.45596215310E+02  0.28964871237E+03  0.30999069689E+03  0.90080945285E+02 0.  0.
         24    2    1    2    0    0 -0.22954277639E+01  0.12559321527E+02  0.13019259079E+03  0.15604994988E+03  0.85079202006E+02 0.  0.
        -11    1    4    4    0    0 -0.34319302021E+02  0.20777934064E+02  0.28753279488E+02  0.49358769398E+02  0.00000000000E+00 0.  1.
         12    1    4    4    0    0  0.32023874257E+02 -0.82186125370E+01  0.10143931130E+03  0.10669118048E+03  0.00000000000E+00 0. -1.
        -13    1    3    3    0    0  0.41872317936E+02  0.21755077171E+01  0.45017835776E+02  0.61519341521E+02  0.00000000000E+00 0.  1.
         13    1    3    3    0    0  0.28966895286E+01  0.43420707593E+02  0.24463087659E+03  0.24847135537E+03  0.00000000000E+00 0. -1.
         21    1    1    2  503  501 -0.37710394978E+02 -0.14073199049E+02 -0.22852575393E+03  0.23204342057E+03  0.00000000000E+00 0. -1.
          1    1    1    2  501    0 -0.47631847235E+01 -0.44082337789E+02 -0.64749534885E+01  0.44809211735E+02  0.00000000000E+00 0. -1.
<scales pt_clust_5="13000.00000" pt_clust_6="13000.00000" pt_clust_7="13000.00000" pt_clust_8="13000.00000" pt_clust_9="40.25082" pt_clust_10="57.06188"></scales>
<clustering>
<clus scale="   40.251">  2  9  1 -1</clus>
<clus scale="   57.062">  2 10  1 -1</clus>
<clus scale="   85.079">  5  6 -1 -1</clus>
<clus scale="   90.081">  7  8 -1 -1</clus>
<clus scale="   91.201">  2  5  1 -1</clus>
<clus scale="   40.251">  2  5  1 -1</clus>
</clustering>
</event>
<event>
10    4  0.3043429E-005  0.1690551E+03  0.7546771E-02  0.1199455E+00
          2   -1    0    0  503    0 -0.00000000000E+00  0.00000000000E+00  0.37786269132E+03  0.37786269132E+03  0.00000000000E+00 0. -1.
         21   -1    0    0  501  502  0.00000000000E+00 -0.00000000000E+00 -0.16793316834E+03  0.16793316834E+03  0.00000000000E+00 0. -1.
         23    2    1    2    0    0  0.55538171203E+02  0.19179400100E+02 -0.30500427666E+02  0.10708611277E+03  0.84171382375E+02 0.  0.
         24    2    1    2    0    0 -0.48248417999E+02 -0.15007528592E+03  0.14301455351E+03  0.22735129381E+03  0.79905863347E+02 0.  0.
        -11    1    4    4    0    0  0.11126056708E+02 -0.52248927445E+02  0.14668460544E+02  0.55397683090E+02  0.00000000000E+00 0.  1.
         12    1    4    4    0    0 -0.59374474708E+02 -0.97826358474E+02  0.12834609297E+03  0.17195361072E+03  0.00000000000E+00 0. -1.
        -13    1    3    3    0    0  0.27121130105E+02  0.34622701957E+02 -0.52109885209E+02  0.68188909109E+02  0.00000000000E+00 0.  1.
         13    1    3    3    0    0  0.28417041098E+02 -0.15443301857E+02  0.21609457544E+02  0.38897203657E+02  0.00000000000E+00 0. -1.
         21    1    1    2  503  502  0.21772321720E+02 -0.18730406552E+02 -0.29316575408E+01  0.28869650822E+02  0.00000000000E+00 0.  1.
          1    1    1    2  501    0 -0.29062074923E+02  0.14962629237E+03  0.10034705468E+03  0.18248880226E+03  0.00000000000E+00 0. -1.
<scales pt_clust_5="13000.00000" pt_clust_6="13000.00000" pt_clust_7="13000.00000" pt_clust_8="13000.00000" pt_clust_9="28.72041" pt_clust_10="148.97874"></scales>
<clustering>
<clus scale="   28.720">  2  9  1 -1</clus>
<clus scale="   79.906">  5  6 -1 -1</clus>
<clus scale="   84.171">  7  8 -1 -1</clus>
<clus scale="  107.123">  1  7  2 -1</clus>
<clus scale="  148.979">  2 10  1 -1</clus>
<clus scale="   28.720">  2  5  1 -1</clus>
</clustering>
</event>
<event>
10    4  0.3043429E-005  0.1196193E+03  0.7546771E-02  0.1245932E+00
         -3   -1    0    0    0  501 -0.00000000000E+00  0.00000000000E+00  0.31146954980E+03  0.31146954980E+03  0.00000000000E+00 0.  1.
         21   -1    0    0  501  502  0.00000000000E+00 -0.00000000000E+00 -0.21248931026E+03  0.21248931026E+03  0.00000000000E+00 0.  1.
         24    2    1    2    0    0  0.34518141870E+02 -0.69609652601E+02  0.20893091558E+03  0.23848362560E+03  0.84766186298E+02 0.  0.
         23    2    1    2    0    0 -0.87190930684E+02  0.32952335644E+02 -0.32500781470E+01  0.13077108262E+03  0.91664596347E+02 0.  0.
        -13    1    3    3    0    0  0.50665141174E+02 -0.73471315081E+02  0.12910394987E+03  0.15694846461E+03  0.00000000000E+00 0.  1.
         14    1    3    3    0    0 -0.16146999304E+02  0.38616624802E+01  0.79826965707E+02  0.81535160989E+02  0.00000000000E+00 0. -1.
        -13    1    4    4    0    0  0.17371787724E+02  0.15730574657E+02 -0.78066677955E+01  0.24701701355E+02  0.00000000000E+00 0. -1.
         13    1    4    4    0    0 -0.10456271841E+03  0.17221760987E+02  0.45565896485E+01  0.10606938126E+03  0.00000000000E+00 0.  1.
         21    1    1    2  503  502 -0.19362182765E+02  0.30306066943E+02 -0.55368621746E+02  0.66022996668E+02  0.00000000000E+00 0.  1.
         -4    1    1    2    0  503  0.72034971579E+02  0.63512500143E+01 -0.51331976150E+02  0.88681155172E+02  0.00000000000E+00 0.  1.
<scales pt_clust_5="13000.00000" pt_clust_6="13000.00000" pt_clust_7="13000.00000" pt_clust_8="13000.00000" pt_clust_9="35.96320" pt_clust_10="66.29862"></scales>
<clustering>
<clus scale="   35.963">  2  9  1 -1</clus>
<clus scale="   66.299">  2 10  1 -1</clus>
<clus scale="   84.766">  5  6 -1 -1</clus>
<clus scale="   91.665">  7  8 -1 -1</clus>
<clus scale="  114.419">  1  5  2 -1</clus>
<clus scale="   35.963">  2  5  1 -1</clus>
</clustering>
</event>
<event>
10    4  0.3043429E-005  0.1277230E+03  0.7546771E-02  0.1239173E+00
         21   -1    0    0  503  502  0.00000000000E+00  0.00000000000E+00  0.62594631235E+02  0.62594631235E+02  0.00000000000E+00 0. -1.
          2   -1    0    0  502    0 -0.00000000000E+00 -0.00000000000E+00 -0.75932084709E+03  0.75932084709E+03  0.00000000000E+00 0. -1.
         23    2    1    2    0    0 -0.18194868066E+02  0.50978639427E+02 -0.27761854487E+02  0.11128117659E+03  0.93182105559E+02 0.  0.
         24    2    1    2    0    0 -0.87999185613E+02 -0.91677163452E+01 -0.35349772223E+03  0.37318427708E+03  0.80485783524E+02 0.  0.
        -11    1    4    4    0    0 -0.34200286335E+02 -0.19188381447E+02 -0.44226148995E+02  0.59108424297E+02  0.00000000000E+00 0.  1.
         12    1    4    4    0    0 -0.53798899278E+02  0.10020665102E+02 -0.30927157323E+03  0.31407585278E+03  0.00000000000E+00 0. -1.
        -11    1    3    3    0    0 -0.27490610479E+02 -0.19779738706E+02 -0.20399130829E+02  0.39536012272E+02  0.00000000000E+00 0.  1.
         11    1    3    3    0    0  0.92957424127E+01  0.70758378133E+02 -0.73627236589E+01  0.71745164316E+02  0.00000000000E+00 0. -1.
         21    1    1    2  503  501  0.63955774334E+02 -0.13882301440E+02 -0.13520583354E+03  0.15021210599E+03  0.00000000000E+00 0. -1.
          1    1    1    2  501    0  0.42238279345E+02 -0.27928621642E+02 -0.18026080560E+03  0.18723791866E+03  0.00000000000E+00 0. -1.
<scales pt_clust_5="13000.00000" pt_clust_6="13000.00000" pt_clust_7="13000.00000" pt_clust_8="13000.00000" pt_clust_9="32.05469" pt_clust_10="105.65601"></scales>
<clustering>
<clus scale="   32.055">  9 10 -1 -1</clus>
<clus scale="   80.486">  5  6 -1 -1</clus>
<clus scale="   93.182">  7  8 -1 -1</clus>
<clus scale="  107.763">  2  7  1 -1</clus>
<clus scale="  105.656">  1  9  2 -1</clus>
<clus scale="  105.656">  1  5  2 -1</clus>
</clustering>
</event>
<event>
10    4  0.3043429E-005  0.1887902E+03  0.7546771E-02  0.1176498E+00
          2   -1    0    0  503    0 -0.00000000000E+00  0.00000000000E+00  0.12462898706E+04  0.12462898706E+04  0.00000000000E+00 0. -1.
         21   -1    0    0  501  502  0.00000000000E+00 -0.00000000000E+00 -0.18269208120E+03  0.18269208120E+03  0.00000000000E+00 0. -1.
         24    2    1    2    0    0  0.72930285700E+02  0.85155117980E+02 -0.80667031622E+02  0.16005628455E+03  0.80874121585E+02 0.  0.
         23    2    1    2    0    0 -0.12148390824E+03  0.10787507016E+03  0.33260486075E+03  0.37518184287E+03  0.61155957192E+02 0.  0.
        -11    1    3    3    0    0  0.19581365725E+02 -0.12048816676E+02 -0.30908240589E+02  0.38521723783E+02  0.00000000000E+00 0.  1.
         12    1    3    3    0    0  0.53348919975E+02  0.97203934656E+02 -0.49758791033E+02  0.12153456076E+03  0.00000000000E+00 0. -1.
        -11    1    4    4    0    0 -0.13006035829E+02  0.26361000057E+02  0.11533035597E+03  0.11901743696E+03  0.00000000000E+00 0.  1.
         11    1    4    4    0    0 -0.10847787241E+03  0.81514070102E+02  0.21727450478E+03  0.25616440591E+03  0.00000000000E+00 0. -1.
         21    1    1    2  503  502 -0.41688433822E+02  0.68009941073E+01 -0.99367079049E+01  0.43392593830E+02  0.00000000000E+00 0.  1.
          1    1    1    2  501    0  0.90242056360E+02 -0.19983118225E+03  0.82159666818E+03  0.85035123055E+03  0.00000000000E+00 0. -1.
<scales pt_clust_5="13000.00000" pt_clust_6="13000.00000" pt_clust_7="13000.00000" pt_clust_8="13000.00000" pt_clust_9="42.23954" pt_clust_10="178.61052"></scales>
<clustering>
<clus scale="   42.240">  2  9  1 -1</clus>
<clus scale="   61.156">  7  8 -1 -1</clus>
<clus scale="   80.874">  5  6 -1 -1</clus>
<clus scale="  127.966">  1  5  2 -1</clus>
<clus scale="  178.611">  2 10  1 -1</clus>
<clus scale="   42.240">  2  5  1 -1</clus>
</clustering>
</event>
<event>
10    4  0.3043429E-005  0.1315559E+03  0.7546771E-02  0.1236612E+00
          2   -1    0    0  503    0 -0.00000000000E+00  0.00000000000E+00  0.30158718845E+03  0.30158718845E+03  0.00000000000E+00 0. -1.
         21   -1    0    0  501  502  0.00000000000E+00 -0.00000000000E+00 -0.77056189991E+03  0.77056189991E+03  0.00000000000E+00 0. -1.
         23    2    1    2    0    0 -0.18617830490E+02 -0.51858415506E+02  0.41890271896E+02  0.11314915207E+03  0.89509870206E+02 0.  0.
         24    2    1    2    0    0  0.84068115821E+02 -0.27039977611E+02  0.19331118515E+03  0.22728821540E+03  0.80573631341E+02 0.  0.
        -11    1    4    4    0    0  0.26187983884E+02 -0.21947231001E+02  0.10928416703E+02  0.35873691477E+02  0.00000000000E+00 0.  1.
         12    1    4    4    0    0  0.57880131936E+02 -0.50927466098E+01  0.18238276845E+03  0.19141452392E+03  0.00000000000E+00 0. -1.
        -11    1    3    3    0    0 -0.49140658321E+02 -0.51809359801E+02  0.41566883328E+02  0.82624571725E+02  0.00000000000E+00 0.  1.
         11    1    3    3    0    0  0.30522827830E+02 -0.49055704929E-01  0.32338856850E+00  0.30524580347E+02  0.00000000000E+00 0. -1.
         21    1    1    2  503  502  0.55690621058E+02  0.15449833121E+02 -0.28472474864E+03  0.29053110867E+03  0.00000000000E+00 0. -1.
          1    1    1    2  501    0 -0.12114090639E+03  0.63448559996E+02 -0.41945141987E+03  0.44118061222E+03  0.00000000000E+00 0. -1.
<scales pt_clust_5="13000.00000" pt_clust_6="13000.00000" pt_clust_7="13000.00000" pt_clust_8="13000.00000" pt_clust_9="57.79397" pt_clust_10="103.99448"></scales>
<clustering>
<clus scale="   57.794">  2  9  1 -1</clus>
<clus scale="   80.574">  5  6 -1 -1</clus>
<clus scale="   89.510">  7  8 -1 -1</clus>
<clus scale="  103.899">  1  7  2 -1</clus>
<clus scale="  103.994">  2 10  1 -1</clus>
<clus scale="   57.794">  2  5  1 -1</clus>
</clustering>
</event>
<event>
10    4  0.3043429E-005  0.2016881E+03  0.7546771E-02  0.1149244E+00
         21   -1    0    0  501  502  0.00000000000E+00  0.00000000000E+00  0.12257254865E+03  0.12257254865E+03  0.00000000000E+00 0.  1.
          2   -1    0    0  503    0 -0.00000000000E+00 -0.00000000000E+00 -0.14096362426E+04  0.14096362426E+04  0.00000000000E+00 0. -1.
         23    2    1    2    0    0  0.12250038159E+03  0.60020721115E+02 -0.24716396295E+03  0.29652677317E+03  0.90715335924E+02 0.  0.
         24    2    1    2    0    0 -0.19836407743E+03 -0.25440937566E+03 -0.32311146523E+03  0.46363984218E+03  0.80550894814E+02 0.  0.
        -13    1    4    4    0    0 -0.18020164443E+03 -0.19286006427E+03 -0.28734444868E+03  0.39017235836E+03  0.00000000000E+00 0.  1.
         14    1    4    4    0    0 -0.18162433003E+02 -0.61549311393E+02 -0.35767016549E+02  0.73467483816E+02  0.00000000000E+00 0. -1.
        -13    1    3    3    0    0  0.97984136159E+02  0.76820594615E+02 -0.15012144599E+03  0.19503523590E+03  0.00000000000E+00 0. -1.
         13    1    3    3    0    0  0.24516245432E+02 -0.16799873500E+02 -0.97042516958E+02  0.10149153727E+03  0.00000000000E+00 0.  1.
         21    1    1    2  503  502 -0.51234956889E+02  0.94744662859E+02 -0.16451168884E+03  0.19663587596E+03  0.00000000000E+00 0.  1.
          1    1    1    2  501    0  0.12709865273E+03  0.99643991684E+02 -0.55227657697E+03  0.57540629999E+03  0.00000000000E+00 0. -1.
<scales pt_clust_5="13000.00000" pt_clust_6="13000.00000" pt_clust_7="13000.00000" pt_clust_8="13000.00000" pt_clust_9="107.71059" pt_clust_10="163.87746"></scales>
<clustering>
<clus scale="   80.551">  5  6 -1 -1</clus>
<clus scale="   90.715">  7  8 -1 -1</clus>
<clus scale="  107.711">  1  9  2 -1</clus>
<clus scale="  163.877">  1 10  2 -1</clus>
<clus scale="  197.325">  1  5  2 -1</clus>
<clus scale="  107.711">  1  5  2 -1</clus>
</clustering>
</event>
<event>
10    4  0.3043429E-005  0.6606171E+03  0.7546771E-02  0.1039024E+00
          2   -1    0    0  502    0 -0.00000000000E+00  0.00000000000E+00  0.19204993592E+04  0.19204993592E+04  0.00000000000E+00 0. -1.
         21   -1    0    0  503  502  0.00000000000E+00 -0.00000000000E+00 -0.41267374411E+03  0.41267374411E+03  0.00000000000E+00 0. -1.
         23    2    1    2    0    0  0.81130551490E+01 -0.49887083102E+02 -0.14186941085E+03  0.17617330471E+03  0.91408756873E+02 0.  0.
         24    2    1    2    0    0 -0.24774604647E+03 -0.57740657859E+03  0.10251679803E+04  0.12052444400E+04  0.82875278178E+02 0.  0.
        -11    1    4    4    0    0  0.53405650082E+01 -0.30707858173E+02  0.45024580525E+02  0.54760451419E+02  0.00000000000E+00 0.  1.
         12    1    4    4    0    0 -0.25308661148E+03 -0.54669872042E+03  0.98014339981E+03  0.11504839886E+04  0.00000000000E+00 0. -1.
        -11    1    3    3    0    0 -0.30169905035E+01 -0.27178388212E+02  0.44320452808E+01  0.27702166754E+02  0.00000000000E+00 0.  1.
         11    1    3    3    0    0  0.11130045652E+02 -0.22708694890E+02 -0.14630145613E+03  0.14847113795E+03  0.00000000000E+00 0. -1.
         21    1    1    2  503  501 -0.41077700782E+02  0.13937821312E+02  0.31635640120E+02  0.53688491227E+02  0.00000000000E+00 0. -1.
          1    1    1    2  501    0  0.28071069211E+03  0.61335584038E+03  0.59289140552E+03  0.89806686741E+03  0.00000000000E+00 0. -1.
<scales pt_clust_5="13000.00000" pt_clust_6="13000.00000" pt_clust_7="13000.00000" pt_clust_8="13000.00000" pt_clust_9="43.37788" pt_clust_10="655.39808"></scales>
<clustering>
<clus scale="   43.378">  2  9  1 -1</clus>
<clus scale="   82.875">  5  6 -1 -1</clus>
<clus scale="   91.409">  7  8 -1 -1</clus>
<clus scale="  101.934">  1  7  2 -1</clus>
<clus scale="  655.398">  2 10  1 -1</clus>
<clus scale="   43.378">  2  5  1 -1</clus>
</clustering>
</event>
<event>
10    4  0.3043429E-005  0.1752297E+03  0.7546771E-02  0.1196098E+00
         21   -1    0    0  501  502  0.00000000000E+00  0.00000000000E+00  0.21830058655E+03  0.21830058655E+03  0.00000000000E+00 0.  1.
          2   -1    0    0  503    0 -0.00000000000E+00 -0.00000000000E+00 -0.40806799568E+03  0.40806799568E+03  0.00000000000E+00 0. -1.
         24    2    1    2    0    0  0.26910239917E+02 -0.61162119203E+02 -0.23403871010E+03  0.25610589745E+03  0.79694084129E+02 0.  0.
         23    2    1    2    0    0 -0.10494816695E+03 -0.77402584872E+02 -0.28024660226E+02  0.16207032145E+03  0.92065898258E+02 0.  0.
        -13    1    3    3    0    0  0.47823027607E+02 -0.59144790726E+02 -0.13583705269E+03  0.15568189722E+03  0.00000000000E+00 0.  1.
         14    1    3    3    0    0 -0.20912787690E+02 -0.20173284767E+01 -0.98201657419E+02  0.10042400023E+03  0.00000000000E+00 0. -1.
        -11    1    4    4    0    0 -0.33075714804E+02 -0.61272938137E+02  0.22007304307E+02  0.73025319586E+02  0.00000000000E+00 0.  1.
         11    1    4    4    0    0 -0.71872452146E+02 -0.16129646734E+02 -0.50031964534E+02  0.89045001860E+02  0.00000000000E+00 0. -1.
         21    1    1    2  503  502 -0.21790292605E+02  0.50587561819E+01  0.27745552945E+02  0.35640196045E+02  0.00000000000E+00 0.  1.
          1    1    1    2  501    0  0.99828219637E+02  0.13350594789E+03  0.44550408264E+02  0.17255216729E+03  0.00000000000E+00 0. -1.
<scales pt_clust_5="13000.00000" pt_clust_6="13000.00000" pt_clust_7="13000.00000" pt_clust_8="13000.00000" pt_clust_9="22.36980" pt_clust_10="149.09494"></scales>
<clustering>
<clus scale="   22.370">  1  9  2 -1</clus>
<clus scale="   79.694">  5  6 -1 -1</clus>
<clus scale="   92.066">  7  8 -1 -1</clus>
<clus scale="  103.498">  2  5  1 -1</clus>
<clus scale="  149.095">  1 10  2 -1</clus>
<clus scale="   22.370">  1  5  2 -1</clus>
</clustering>
</event>
<event>
10    4  0.3043429E-005  0.2272387E+03  0.7546771E-02  0.1167707E+00
         -1   -1    0    0    0  501 -0.00000000000E+00  0.00000000000E+00  0.15213282484E+04  0.15213282484E+04  0.00000000000E+00 0.  1.
         21   -1    0    0  503  502  0.00000000000E+00 -0.00000000000E+00 -0.57107764034E+02  0.57107764034E+02  0.00000000000E+00 0.  1.
         24    2    1    2    0    0  0.36288603509E+02  0.14751655491E+02  0.36258344009E+03  0.37308765652E+03  0.78696723823E+02 0.  0.
         23    2    1    2    0    0 -0.10554859278E+03  0.18166958038E+03  0.41905576632E+03  0.47704903120E+03  0.88451687411E+02 0.  0.
        -13    1    3    3    0    0  0.35592472295E+02  0.40779583917E+02  0.16158556366E+03  0.17041036627E+03  0.00000000000E+00 0.  1.
         14    1    3    3    0    0  0.69613121413E+00 -0.26027928426E+02  0.20099787643E+03  0.20267729025E+03  0.00000000000E+00 0. -1.
        -13    1    4    4    0    0 -0.26819886895E+01  0.87186922693E+02  0.13914894288E+03  0.16422904998E+03  0.00000000000E+00 0. -1.
         13    1    4    4    0    0 -0.10286660409E+03  0.94482657683E+02  0.27990682344E+03  0.31281998122E+03  0.00000000000E+00 0.  1.
         21    1    1    2  503  501  0.34901092201E+02  0.16031719042E+02  0.90242410744E+02  0.98075455386E+02  0.00000000000E+00 0.  1.
         -2    1    1    2    0  502  0.34358897072E+02 -0.21245295491E+03  0.59233886720E+03  0.63022386932E+03  0.00000000000E+00 0.  1.
<scales pt_clust_5="13000.00000" pt_clust_6="13000.00000" pt_clust_7="13000.00000" pt_clust_8="13000.00000" pt_clust_9="38.40706" pt_clust_10="209.31744"></scales>
<clustering>
<clus scale="   38.407">  2  9  1 -1</clus>
<clus scale="   78.697">  5  6 -1 -1</clus>
<clus scale="   88.452">  7  8 -1 -1</clus>
<clus scale="   89.660">  1  5  2 -1</clus>
<clus scale="  209.317">  2 10  1 -1</clus>
<clus scale="   38.407">  2  5  1 -1</clus>
</clustering>
</event>
<event>
10    4  0.3043429E-005  0.2261819E+03  0.7546771E-02  0.1140835E+00
          2   -1    0    0  502    0 -0.00000000000E+00  0.00000000000E+00  0.89599410026E+03  0.89599410026E+03  0.00000000000E+00 0. -1.
         21   -1    0    0  503  502  0.00000000000E+00 -0.00000000000E+00 -0.24512205385E+03  0.24512205385E+03  0.00000000000E+00 0.  1.
         24    2    1    2    0    0  0.13070816856E+03  0.63637605330E+02  0.16545475182E+03  0.23412313326E+03  0.79397710861E+02 0.  0.
         23    2    1    2    0    0  0.18659380958E+03 -0.13189873310E+03  0.82291638067E+02  0.26097007365E+03  0.95493141528E+02 0.  0.
        -11    1    3    3    0    0  0.95956967541E+01  0.19141524354E+02 -0.33303748193E+01  0.21669488855E+02  0.00000000000E+00 0.  1.
         12    1    3    3    0    0  0.12111247181E+03  0.44496080976E+02  0.16878512663E+03  0.21245364441E+03  0.00000000000E+00 0. -1.
        -11    1    4    4    0    0  0.15530556956E+03 -0.10453601263E+03  0.23082219860E+02  0.18862764047E+03  0.00000000000E+00 0.  1.
         11    1    4    4    0    0  0.31288240020E+02 -0.27362720467E+02  0.59209418207E+02  0.72342433187E+02  0.00000000000E+00 0. -1.
         21    1    1    2  503  501 -0.32782176194E+02  0.11416806327E+03 -0.32995993781E+02  0.12327916836E+03  0.00000000000E+00 0.  1.
          1    1    1    2  501    0 -0.28451980195E+03 -0.45906935500E+02  0.43612165031E+03  0.52274377883E+03  0.00000000000E+00 0. -1.
<scales pt_clust_5="13000.00000" pt_clust_6="13000.00000" pt_clust_7="13000.00000" pt_clust_8="13000.00000" pt_clust_9="118.78139" pt_clust_10="205.03505"></scales>
<clustering>
<clus scale="   79.398">  5  6 -1 -1</clus>
<clus scale="   95.493">  7  8 -1 -1</clus>
<clus scale="  118.781">  2  9  1 -1</clus>
<clus scale="  171.057">  1  5  2 -1</clus>
<clus scale="  205.035">  2 10  1 -1</clus>
<clus scale="  118.781">  2  5  1 -1</clus>
</clustering>
</event>
<event>
10    4  0.3043429E-005  0.1752423E+03  0.7546771E-02  0.1191332E+00
         21   -1    0    0  503  502  0.00000000000E+00  0.00000000000E+00  0.36115264239E+03  0.36115264239E+03  0.00000000000E+00 0.  1.
         -1   -1    0    0    0  501 -0.00000000000E+00 -0.00000000000E+00 -0.43333879488E+03  0.43333879488E+03  0.00000000000E+00 0.  1.
         23    2    1    2    0    0  0.25866855725E+02 -0.85699981274E+02 -0.30174656724E+02  0.12992998767E+03  0.89206001887E+02 0.  0.
         24    2    1    2    0    0 -0.29407039486E+02  0.16141716921E+03 -0.68730887600E+02  0.19586058527E+03  0.81958266599E+02 0.  0.
        -11    1    4    4    0    0  0.21900345654E+02  0.10449722001E+03 -0.40826113362E+02  0.11430689245E+03  0.00000000000E+00 0.  1.
         12    1    4    4    0    0 -0.51307385140E+02  0.56919949203E+02 -0.27904774237E+02  0.81553692819E+02  0.00000000000E+00 0. -1.
        -11    1    3    3    0    0 -0.17331777334E+02 -0.60573948459E+02  0.12478027624E+02  0.64228458730E+02  0.00000000000E+00 0.  1.
         11    1    3    3    0    0  0.43198633059E+02 -0.25126032815E+02 -0.42652684348E+02  0.65701528942E+02  0.00000000000E+00 0. -1.
         21    1    1    2  503  501  0.17877721787E+01  0.48178568579E+02  0.22761580877E+03  0.23266569795E+03  0.00000000000E+00 0.  1.
         -2    1    1    2    0  502  0.17524115820E+01 -0.12389575651E+03 -0.20089641694E+03  0.23603516638E+03  0.00000000000E+00 0.  1.
<scales pt_clust_5="13000.00000" pt_clust_6="13000.00000" pt_clust_7="13000.00000" pt_clust_8="13000.00000" pt_clust_9="48.21173" pt_clust_10="154.89584"></scales>
<clustering>
<clus scale="   48.212">  1  9  2 -1</clus>
<clus scale="   81.958">  5  6 -1 -1</clus>
<clus scale="   89.206">  7  8 -1 -1</clus>
<clus scale="  114.889">  2  7  1 -1</clus>
<clus scale="  154.896">  1 10  2 -1</clus>
<clus scale="   48.212">  1  5  2 -1</clus>
</clustering>
</event>
<event>
10    4  0.3043429E-005  0.1176223E+03  0.7546771E-02  0.1257820E+00
         -1   -1    0    0    0  501 -0.00000000000E+00  0.00000000000E+00  0.33329524230E+03  0.33329524230E+03  0.00000000000E+00 0.  1.
         21   -1    0    0  503  502  0.00000000000E+00 -0.00000000000E+00 -0.13585562784E+03  0.13585562784E+03  0.00000000000E+00 0.  1.
         23    2    1    2    0    0 -0.44746864401E+02 -0.51019073124E+01  0.15315746535E+03  0.18004228209E+03  0.83244836564E+02 0.  0.
         24    2    1    2    0    0 -0.31032873737E+02 -0.77447463629E+02  0.64128730265E+02  0.13202518459E+03  0.79730837490E+02 0.  0.
        -11    1    4    4    0    0 -0.29327346628E+02  0.74002215069E+01  0.21067945256E+02  0.36860749529E+02  0.00000000000E+00 0.  1.
         12    1    4    4    0    0 -0.17055271093E+01 -0.84847685136E+02  0.43060785009E+02  0.95164435065E+02  0.00000000000E+00 0. -1.
        -11    1    3    3    0    0 -0.50348551176E+02  0.22316996586E+02  0.13716867475E+03  0.14781160399E+03  0.00000000000E+00 0.  1.
         11    1    3    3    0    0  0.56016867745E+01 -0.27418903898E+02  0.15988790605E+02  0.32230678099E+02  0.00000000000E+00 0. -1.
         21    1    1    2  503  501  0.84028903405E+02  0.26810530198E+02 -0.40520027790E+02  0.97064585658E+02  0.00000000000E+00 0.  1.
         -2    1    1    2    0  502 -0.82491652668E+01  0.55738840744E+02  0.20673446633E+02  0.60018817805E+02  0.00000000000E+00 0.  1.
<scales pt_clust_5="13000.00000" pt_clust_6="13000.00000" pt_clust_7="13000.00000" pt_clust_8="13000.00000" pt_clust_9="86.47536" pt_clust_10="56.34596"></scales>
<clustering>
<clus scale="   56.346">  2 10  1 -1</clus>
<clus scale="   79.731">  5  6 -1 -1</clus>
<clus scale="   83.245">  7  8 -1 -1</clus>
<clus scale="   94.974">  1  7  2 -1</clus>
<clus scale="   86.475">  2  9  1 -1</clus>
<clus scale="   56.346">  2  5  1 -1</clus>
</clustering>
</event>
<event>
10    4  0.3043429E-005  0.3125421E+03  0.7546771E-02  0.1126856E+00
          2   -1    0    0  503    0 -0.00000000000E+00  0.00000000000E+00  0.67900251131E+03  0.67900251131E+03  0.00000000000E+00 0. -1.
         21   -1    0    0  501  502  0.00000000000E+00 -0.00000000000E+00 -0.27206452000E+03  0.27206452000E+03  0.00000000000E+00 0. -1.
         23    2    1    2    0    0 -0.96339555356E+00 -0.12937050215E+02  0.60761223005E+02  0.10895148257E+03  0.89499742648E+02 0.  0.
         24    2    1    2    0    0  0.25138220196E+03 -0.15203323552E+03  0.29776237290E+03  0.42737949633E+03  0.87656642659E+02 0.  0.
        -11    1    4    4    0    0  0.76235916730E+02 -0.95865001536E+02  0.11220529034E+03  0.16610852085E+03  0.00000000000E+00 0.  1.
         12    1    4    4    0    0  0.17514628523E+03 -0.56168233985E+02  0.18555708257E+03  0.26127097548E+03  0.00000000000E+00 0. -1.
        -13    1    3    3    0    0  0.22079846976E+02  0.21528468753E+02 -0.49714090449E+01  0.31236349294E+02  0.00000000000E+00 0.  1.
         13    1    3    3    0    0 -0.23043242530E+02 -0.34465518968E+02  0.65732632050E+02  0.77715133277E+02  0.00000000000E+00 0. -1.
         21    1    1    2  503  502 -0.15517911201E+02 -0.33710315362E+02 -0.74660908350E+02  0.83375309088E+02  0.00000000000E+00 0. -1.
          1    1    1    2  501    0 -0.23490089520E+03  0.19868060110E+03  0.12307530375E+03  0.33136074332E+03  0.00000000000E+00 0. -1.
<scales pt_clust_5="13000.00000" pt_clust_6="13000.00000" pt_clust_7="13000.00000" pt_clust_8="13000.00000" pt_clust_9="37.11052" pt_clust_10="299.99813"></scales>
<clustering>
<clus scale="   37.111">  2  9  1 -1</clus>
<clus scale="   87.657">  5  6 -1 -1</clus>
<clus scale="   89.500">  7  8 -1 -1</clus>
<clus scale="   91.173">  1  7  2 -1</clus>
<clus scale="  299.998">  2 10  1 -1</clus>
<clus scale="   37.111">  2  5  1 -1</clus>
</clustering>
</event>
<event>
10    4  0.3043429E-005  0.2778493E+03  0.7546771E-02  0.1109390E+00
         21   -1    0    0  501  502  0.00000000000E+00  0.00000000000E+00  0.26429430088E+03  0.26429430088E+03  0.00000000000E+00 0.  1.
          2   -1    0    0  503    0 -0.00000000000E+00 -0.00000000000E+00 -0.12666213875E+04  0.12666213875E+04  0.00000000000E+00 0. -1.
         24    2    1    2    0    0  0.18080227119E+03  0.11176492712E+02 -0.24383843690E+03  0.31390554757E+03  0.79152600901E+02 0.  0.
         23    2    1    2    0    0  0.79798944616E+02  0.26657302382E+03 -0.11937784228E+02  0.29158932706E+03  0.86329464099E+02 0.  0.
        -11    1    3    3    0    0  0.13880878349E+03 -0.26394060755E+02 -0.17136467193E+03  0.22210442499E+03  0.00000000000E+00 0.  1.
         12    1    3    3    0    0  0.41993487698E+02  0.37570553468E+02 -0.72473764973E+02  0.91801122576E+02  0.00000000000E+00 0. -1.
        -13    1    4    4    0    0  0.30720171309E+02  0.18580305176E+03 -0.40946860777E+02  0.19272557790E+03  0.00000000000E+00 0.  1.
         13    1    4    4    0    0  0.49078773306E+02  0.80769972059E+02  0.29009076549E+02  0.98863749159E+02  0.00000000000E+00 0. -1.
         21    1    1    2  503  502  0.25226866499E+02 -0.51308214000E+02  0.32130856089E+02  0.65584445795E+02  0.00000000000E+00 0. -1.
          1    1    1    2  501    0 -0.28582808230E+03 -0.22644130253E+03 -0.77868172159E+03  0.85983636796E+03  0.00000000000E+00 0. -1.
<scales pt_clust_5="13000.00000" pt_clust_6="13000.00000" pt_clust_7="13000.00000" pt_clust_8="13000.00000" pt_clust_9="57.17454" pt_clust_10="264.09761"></scales>
<clustering>
<clus scale="   57.175">  1  9  2 -1</clus>
<clus scale="   79.153">  5  6 -1 -1</clus>
<clus scale="   86.329">  7  8 -1 -1</clus>
<clus scale="  201.154">  2  5  1 -1</clus>
<clus scale="  264.098">  1 10  2 -1</clus>
<clus scale="   57.175">  1  5  2 -1</clus>
</clustering>
</event>
<event>
10    4  0.3043429E-005  0.1953726E+03  0.7546771E-02  0.1190810E+00
         21   -1    0    0  501  502  0.00000000000E+00  0.00000000000E+00  0.48031864371E+02  0.48031864371E+02  0.00000000000E+00 0.  1.
          2   -1    0    0  503    0 -0.00000000000E+00 -0.00000000000E+00 -0.15638774959E+04  0.15638774959E+04  0.00000000000E+00 0. -1.
         24    2    1    2    0    0  0.45431349428E+01 -0.31258779736E+02 -0.37142225860E+03  0.38116435503E+03  0.79586556475E+02 0.  0.
         23    2    1    2    0    0  0.58970568080E+02 -0.17525130237E+03 -0.47627129385E+03  0.51899800965E+03  0.91290973274E+02 0.  0.
        -13    1    3    3    0    0 -0.83796243024E+01  0.23961275695E+02 -0.70166928204E+02  0.74617415192E+02  0.00000000000E+00 0.  1.
         14    1    3    3    0    0  0.12922759245E+02 -0.55220055430E+02 -0.30125533040E+03  0.30654693983E+03  0.00000000000E+00 0. -1.
        -13    1    4    4    0    0  0.24564919749E+02 -0.10759890160E+03 -0.38387146529E+03  0.39942240895E+03  0.00000000000E+00 0. -1.
         13    1    4    4    0    0  0.34405648331E+02 -0.67652400764E+02 -0.92399828560E+02  0.11957560071E+03  0.00000000000E+00 0.  1.
         21    1    1    2  503  502 -0.28892997238E+01  0.40353296712E+02 -0.32345274007E+02  0.51797233121E+02  0.00000000000E+00 0. -1.
          1    1    1    2  501    0 -0.60624403299E+02  0.16615678539E+03 -0.63580680504E+03  0.65994976244E+03  0.00000000000E+00 0. -1.
<scales pt_clust_5="13000.00000" pt_clust_6="13000.00000" pt_clust_7="13000.00000" pt_clust_8="13000.00000" pt_clust_9="40.45660" pt_clust_10="172.73227"></scales>
<clustering>
<clus scale="   40.457">  1  9  2 -1</clus>
<clus scale="   79.587">  5  6 -1 -1</clus>
<clus scale="   83.870">  2  5  1 -1</clus>
<clus scale="   91.291">  7  8 -1 -1</clus>
<clus scale="  172.732">  1 10  2 -1</clus>
<clus scale="   40.457">  1  5  2 -1</clus>
</clustering>
</event>
<event>
10    4  0.3043429E-005  0.1419288E+03  0.7546771E-02  0.1212848E+00
         21   -1    0    0  501  502  0.00000000000E+00  0.00000000000E+00  0.11543718223E+03  0.11543718223E+03  0.00000000000E+00 0.  1.
          2   -1    0    0  503    0 -0.00000000000E+00 -0.00000000000E+00 -0.71367637103E+03  0.71367637103E+03  0.00000000000E+00 0. -1.
         24    2    1    2    0    0 -0.48434551510E+02  0.89209092542E+02 -0.44641435940E+03  0.46482255411E+03  0.80436674214E+02 0.  0.
         23    2    1    2    0    0  0.79356118688E+02 -0.12293320566E+03 -0.12898114404E+03  0.21501692593E+03  0.90477490510E+02 0.  0.
        -13    1    3    3    0    0 -0.66589588009E+02  0.88743065617E+02 -0.39544625526E+03  0.41071552896E+03  0.00000000000E+00 0.  1.
         14    1    3    3    0    0  0.18155036499E+02  0.46602692481E+00 -0.50968104139E+02  0.54107025153E+02  0.00000000000E+00 0. -1.
        -13    1    4    4    0    0  0.42701763595E+02 -0.11831598482E+03 -0.66125268552E+02  0.14210793088E+03  0.00000000000E+00 0. -1.
         13    1    4    4    0    0  0.36654355093E+02 -0.46172208462E+01 -0.62855875487E+02  0.72908995048E+02  0.00000000000E+00 0.  1.
         21    1    1    2  503  502  0.35007028527E+02  0.63733542739E+02 -0.24750655459E+02  0.76811792467E+02  0.00000000000E+00 0.  1.
          1    1    1    2  501    0 -0.65928595705E+02 -0.30009429618E+02  0.19069700900E+01  0.72462280757E+02  0.00000000000E+00 0. -1.
<scales pt_clust_5="13000.00000" pt_clust_6="13000.00000" pt_clust_7="13000.00000" pt_clust_8="13000.00000" pt_clust_9="55.31860" pt_clust_10="72.43718"></scales>
<clustering>
<clus scale="   72.437">  1 10  2 -1</clus>
<clus scale="   55.319">  1  9  2 -1</clus>
<clus scale="   80.437">  5  6 -1 -1</clus>
<clus scale="   90.477">  7  8 -1 -1</clus>
<clus scale="  135.749">  2  5  1 -1</clus>
<clus scale="   72.437">  1  5  2 -1</clus>
</clustering>
</event>
<event>
10    4  0.3043429E-005  0.1455128E+03  0.7546771E-02  0.1233049E+00
         -1   -1    0    0    0  501 -0.00000000000E+00  0.00000000000E+00  0.40008390012E+03  0.40008390012E+03  0.00000000000E+00 0.  1.
         21   -1    0    0  501  502  0.00000000000E+00 -0.00000000000E+00 -0.24368124770E+03  0.24368124770E+03  0.00000000000E+00 0.  1.
         24    2    1    2    0    0  0.15292523053E+01 -0.76076126563E+02  0.65727020831E+02  0.11434850820E+03  0.54457546897E+02 0.  0.
         23    2    1    2    0    0 -0.92394991309E+02 -0.14244226286E+02  0.21428529111E+03  0.25178055016E+03  0.93464041491E+02 0.  0.
        -11    1    3    3    0    0 -0.98091934202E+01 -0.55615530457E+02  0.14914674018E+02  0.58410230308E+02  0.00000000000E+00 0.  1.
         12    1    3    3    0    0  0.11338445726E+02 -0.20460596106E+02  0.50812346813E+02  0.55938277889E+02  0.00000000000E+00 0. -1.
        -11    1    4    4    0    0 -0.63444693629E+02 -0.52901955722E+02  0.11772930085E+03  0.14381945052E+03  0.00000000000E+00 0. -1.
         11    1    4    4    0    0 -0.28950297680E+02  0.38657729436E+02  0.96555990258E+02  0.10796109964E+03  0.00000000000E+00 0.  1.
         21    1    1    2  503  502 -0.20984537039E+02  0.53143045781E+02 -0.14678427697E+03  0.15751240610E+03  0.00000000000E+00 0.  1.
         -2    1    1    2    0  503  0.11185027604E+03  0.37177307068E+02  0.23174617454E+02  0.12012368337E+03  0.00000000000E+00 0.  1.
<scales pt_clust_5="13000.00000" pt_clust_6="13000.00000" pt_clust_7="13000.00000" pt_clust_8="13000.00000" pt_clust_9="57.13610" pt_clust_10="111.52777"></scales>
<clustering>
<clus scale="   54.458">  5  6 -1 -1</clus>
<clus scale="   57.136">  2  9  1 -1</clus>
<clus scale="   82.591">  1  5  2 -1</clus>
<clus scale="   93.464">  7  8 -1 -1</clus>
<clus scale="  111.528">  2 10  1 -1</clus>
<clus scale="   57.136">  2  5  1 -1</clus>
</clustering>
</event>
<event>
10    4  0.3043429E-005  0.9249595E+02  0.7546771E-02  0.1304242E+00
         -1   -1    0    0    0  501 -0.00000000000E+00  0.00000000000E+00  0.35916589880E+03  0.35916589880E+03  0.00000000000E+00 0.  1.
         21   -1    0    0  503  502  0.00000000000E+00 -0.00000000000E+00 -0.39182041081E+03  0.39182041081E+03  0.00000000000E+00 0. -1.
         23    2    1    2    0    0  0.15231917360E+02 -0.16629474280E+02  0.25922920860E+03  0.27583353722E+03  0.91519434768E+02 0.  0.
         24    2    1    2    0    0  0.79555437423E+02 -0.58299224313E+01  0.17408929282E+02  0.11409930440E+03  0.79702727857E+02 0.  0.
        -11    1    4    4    0    0  0.84907193749E+02 -0.28141432328E+02  0.17549064992E+02  0.91154492187E+02  0.00000000000E+00 0.  1.
         12    1    4    4    0    0 -0.53517563263E+01  0.22311509897E+02 -0.14013570989E+00  0.22944812217E+02  0.00000000000E+00 0. -1.
        -11    1    3    3    0    0 -0.22187366827E+02 -0.38428467757E+02  0.18159321422E+03  0.18693614373E+03  0.00000000000E+00 0.  1.
         11    1    3    3    0    0  0.37419284187E+02  0.21798993478E+02  0.77635994381E+02  0.88897393489E+02  0.00000000000E+00 0. -1.
         21    1    1    2  503  501 -0.53444112914E+02 -0.35588550732E+02 -0.27419691462E+03  0.28161457018E+03  0.00000000000E+00 0. -1.
         -2    1    1    2    0  502 -0.41343241868E+02  0.58047947443E+02 -0.35095735270E+02  0.79438897806E+02  0.00000000000E+00 0.  1.
<scales pt_clust_5="13000.00000" pt_clust_6="13000.00000" pt_clust_7="13000.00000" pt_clust_8="13000.00000" pt_clust_9="64.20917" pt_clust_10="79.15349"></scales>
<clustering>
<clus scale="   64.209">  2  9  1 -1</clus>
<clus scale="   79.153">  2 10  1 -1</clus>
<clus scale="   79.703">  5  6 -1 -1</clus>
<clus scale="   80.822">  2  5  1 -1</clus>
<clus scale="   91.519">  7  8 -1 -1</clus>
<clus scale="   64.209">  2  5  1 -1</clus>
</clustering>
</event>
<event>
10    4  0.3043429E-005  0.1548911E+03  0.7546771E-02  0.1212201E+00
         21   -1    0    0  501  502  0.00000000000E+00  0.00000000000E+00  0.22030113064E+03  0.22030113064E+03  0.00000000000E+00 0. -1.
          2   -1    0    0  503    0 -0.00000000000E+00 -0.00000000000E+00 -0.63166099429E+03  0.63166099429E+03  0.00000000000E+00 0. -1.
         23    2    1    2    0    0  0.23881777505E+02  0.11159350103E+03  0.47337783795E+02  0.15288505175E+03  0.90052898366E+02 0.  0.
         24    2    1    2    0    0 -0.23135908142E+02  0.11880897435E+03 -0.22040994271E+03  0.26460754890E+03  0.82375781994E+02 0.  0.
        -13    1    4    4    0    0 -0.24217007804E+02 -0.24904102638E+01 -0.47715162381E+02  0.53566802511E+02  0.00000000000E+00 0.  1.
         14    1    4    4    0    0  0.10810996621E+01  0.12129938462E+03 -0.17269478033E+03  0.21104074639E+03  0.00000000000E+00 0. -1.
        -13    1    3    3    0    0  0.54871838289E+02  0.46480131175E+02  0.34022493012E+02  0.79554077595E+02  0.00000000000E+00 0.  1.
         13    1    3    3    0    0 -0.30990060784E+02  0.65113369860E+02  0.13315290783E+02  0.73330974156E+02  0.00000000000E+00 0. -1.
         21    1    1    2  503  502 -0.35840412827E+02 -0.79042446960E+02  0.54872210978E+02  0.10268010105E+03  0.00000000000E+00 0. -1.
          1    1    1    2  501    0  0.35094543464E+02 -0.15136002843E+03 -0.29315991571E+03  0.33178942323E+03  0.00000000000E+00 0. -1.
<scales pt_clust_5="13000.00000" pt_clust_6="13000.00000" pt_clust_7="13000.00000" pt_clust_8="13000.00000" pt_clust_9="86.78850" pt_clust_10="131.16968"></scales>
<clustering>
<clus scale="   82.376">  5  6 -1 -1</clus>
<clus scale="   86.788">  1  9  2 -1</clus>
<clus scale="   90.053">  7  8 -1 -1</clus>
<clus scale="  105.887">  2  7  1 -1</clus>
<clus scale="  131.170">  1 10  2 -1</clus>
<clus scale="   86.788">  1  5  2 -1</clus>
</clustering>
</event>
<event>
10    4  0.3043429E-005  0.1972918E+03  0.7546771E-02  0.1152737E+00
          2   -1    0    0  502    0 -0.00000000000E+00  0.00000000000E+00  0.19683467383E+04  0.19683467383E+04  0.00000000000E+00 0. -1.
         21   -1    0    0  503  502  0.00000000000E+00 -0.00000000000E+00 -0.45676258223E+02  0.45676258223E+02  0.00000000000E+00 0.  1.
         24    2    1    2    0    0 -0.12675589042E+03  0.93394348298E+01  0.50781745730E+03  0.53011628711E+03  0.83608774220E+02 0.  0.
         23    2    1    2    0    0  0.21574655641E+03 -0.97410708732E+02  0.12244714871E+04  0.12504433942E+04  0.90790069076E+02 0.  0.
        -11    1    3    3    0    0 -0.72068381156E+02 -0.20981988089E+02  0.16011545775E+03  0.17683623836E+03  0.00000000000E+00 0.  1.
         12    1    3    3    0    0 -0.54687509263E+02  0.30321422918E+02  0.34770199955E+03  0.35328004875E+03  0.00000000000E+00 0. -1.
        -13    1    4    4    0    0  0.20428437427E+03 -0.62326604400E+02  0.11030040895E+04  0.11234922041E+04  0.00000000000E+00 0. -1.
         13    1    4    4    0    0  0.11462182142E+02 -0.35084104332E+02  0.12146739758E+03  0.12695119011E+03  0.00000000000E+00 0.  1.
         21    1    1    2  503  501 -0.51785197186E+02  0.73240745214E+02  0.98447535144E+02  0.13318344711E+03  0.00000000000E+00 0.  1.
          1    1    1    2  501    0 -0.37205468804E+02  0.14830528688E+02  0.91934000593E+02  0.10027986814E+03  0.00000000000E+00 0. -1.
<scales pt_clust_5="13000.00000" pt_clust_6="13000.00000" pt_clust_7="13000.00000" pt_clust_8="13000.00000" pt_clust_9="33.96840" pt_clust_10="135.12953"></scales>
<clustering>
<clus scale="   33.968">  9 10 -1 -1</clus>
<clus scale="   83.609">  5  6 -1 -1</clus>
<clus scale="   90.790">  7  8 -1 -1</clus>
<clus scale="  135.130">  2  9  1 -1</clus>
<clus scale="  194.092">  1  5  2 -1</clus>
<clus scale="  135.130">  2  5  1 -1</clus>
</clustering>
</event>
<event>
10    4  0.3043429E-005  0.9668946E+02  0.7546771E-02  0.1294555E+00
         21   -1    0    0  503  502  0.00000000000E+00  0.00000000000E+00  0.15471154841E+03  0.15471154841E+03  0.00000000000E+00 0. -1.
         -3   -1    0    0    0  501 -0.00000000000E+00 -0.00000000000E+00 -0.49510793725E+03  0.49510793725E+03  0.00000000000E+00 0.  1.
         23    2    1    2    0    0  0.20339546922E+02  0.14109563820E+02 -0.40189288646E+03  0.41308555234E+03  0.92244264887E+02 0.  0.
         24    2    1    2    0    0 -0.36978955731E+02 -0.36659264436E+02 -0.45857740442E+02  0.10551103193E+03  0.79487739084E+02 0.  0.
        -13    1    4    4    0    0 -0.88017096966E+01 -0.37590541955E+02 -0.61989868090E+02  0.73029190629E+02  0.00000000000E+00 0.  1.
         14    1    4    4    0    0 -0.28177246034E+02  0.93127751855E+00  0.16132127649E+02  0.32481841302E+02  0.00000000000E+00 0. -1.
        -13    1    3    3    0    0  0.33135413136E+02  0.46435203858E+02 -0.30134314038E+03  0.30669507987E+03  0.00000000000E+00 0.  1.
         13    1    3    3    0    0 -0.12795866213E+02 -0.32325640038E+02 -0.10054974607E+03  0.10639047247E+03  0.00000000000E+00 0. -1.
         21    1    1    2  503  501  0.17464976826E+02 -0.14073500279E+02  0.85878842155E+02  0.88759587401E+02  0.00000000000E+00 0. -1.
         -4    1    1    2    0  502 -0.82556801710E+00  0.36623200895E+02  0.21475395905E+02  0.42463313997E+02  0.00000000000E+00 0.  1.
<scales pt_clust_5="13000.00000" pt_clust_6="13000.00000" pt_clust_7="13000.00000" pt_clust_8="13000.00000" pt_clust_9="22.42964" pt_clust_10="30.86210"></scales>
<clustering>
<clus scale="   22.430">  1  9  2 -1</clus>
<clus scale="   30.862">  1 10  2 -1</clus>
<clus scale="   79.488">  5  6 -1 -1</clus>
<clus scale="   84.606">  1  5  2 -1</clus>
<clus scale="   92.244">  7  8 -1 -1</clus>
<clus scale="   22.430">  1  5  2 -1</clus>
</clustering>
</event>
<event>
10    4  0.3043429E-005  0.9125630E+02  0.7546771E-02  0.1302927E+00
         21   -1    0    0  501  502  0.00000000000E+00  0.00000000000E+00  0.87810402871E+02  0.87810402871E+02  0.00000000000E+00 0. -1.
         -3   -1    0    0    0  501 -0.00000000000E+00 -0.00000000000E+00 -0.38108548093E+03  0.38108548093E+03  0.00000000000E+00 0.  1.
         23    2    1    2    0    0  0.28614422555E+01 -0.18788489034E+02 -0.25862300652E+03  0.27402184330E+03  0.88548946528E+02 0.  0.
         24    2    1    2    0    0 -0.52352261167E+01  0.30828459534E+02 -0.62327349102E+02  0.10866733208E+03  0.83343200720E+02 0.  0.
        -13    1    4    4    0    0 -0.78722352669E+01  0.22621472652E+02 -0.82937601730E+02  0.86326988212E+02  0.00000000000E+00 0.  1.
         14    1    4    4    0    0  0.26370091503E+01  0.82069868828E+01  0.20610252627E+02  0.22340343872E+02  0.00000000000E+00 0. -1.
        -11    1    3    3    0    0  0.73424621087E+01  0.35054580924E+02 -0.12041378165E+03  0.12562728288E+03  0.00000000000E+00 0. -1.
         11    1    3    3    0    0 -0.44810198532E+01 -0.53843069958E+02 -0.13820922488E+03  0.14839456042E+03  0.00000000000E+00 0.  1.
         21    1    1    2  503  502 -0.11103191414E+02  0.24009329297E+02  0.38054894560E+02  0.46345482551E+02  0.00000000000E+00 0. -1.
         -4    1    1    2    0  503  0.13476975275E+02 -0.36049299797E+02 -0.10379616991E+02  0.39861225863E+02  0.00000000000E+00 0.  1.
<scales pt_clust_5="13000.00000" pt_clust_6="13000.00000" pt_clust_7="13000.00000" pt_clust_8="13000.00000" pt_clust_9="26.45239" pt_clust_10="29.96815"></scales>
<clustering>
<clus scale="   26.452">  1  9  2 -1</clus>
<clus scale="   29.968">  1 10  2 -1</clus>
<clus scale="   83.343">  5  6 -1 -1</clus>
<clus scale="   86.214">  1  5  2 -1</clus>
<clus scale="   88.549">  7  8 -1 -1</clus>
<clus scale="   26.452">  1  5  2 -1</clus>
</clustering>
</event>
<event>
10    4  0.3043429E-005  0.1113962E+03  0.7546771E-02  0.1265043E+00
         21   -1    0    0  503  502  0.00000000000E+00  0.00000000000E+00  0.19019141748E+03  0.19019141748E+03  0.00000000000E+00 0.  1.
         -3   -1    0    0    0  501 -0.00000000000E+00 -0.00000000000E+00 -0.18669580766E+03  0.18669580766E+03  0.00000000000E+00 0.  1.
         23    2    1    2    0    0 -0.12104011994E+02 -0.55835323108E+02 -0.47016898507E+02  0.12227966697E+03  0.97353160179E+02 0.  0.
         24    2    1    2    0    0  0.45458354065E+02  0.23858939911E+02  0.12406056807E+03  0.15656326771E+03  0.80531492457E+02 0.  0.
        -13    1    4    4    0    0  0.39316808847E+02 -0.96030202228E+01  0.11417365639E+03  0.12113485572E+03  0.00000000000E+00 0.  1.
         14    1    4    4    0    0  0.61415452173E+01  0.33461960134E+02  0.98869116772E+01  0.35428411991E+02  0.00000000000E+00 0. -1.
        -11    1    3    3    0    0  0.42962220888E+02 -0.22531428293E+02 -0.21135677831E+02  0.52916297697E+02  0.00000000000E+00 0.  1.
         11    1    3    3    0    0 -0.55066232882E+02 -0.33303894815E+02 -0.25881220676E+02  0.69363369276E+02  0.00000000000E+00 0. -1.
         21    1    1    2  503  501 -0.26378234175E+02  0.79676691972E+01 -0.92663036672E+01  0.29071624899E+02  0.00000000000E+00 0.  1.
         -4    1    1    2    0  502 -0.69761078959E+01  0.24008714000E+02 -0.64281756083E+02  0.68972665559E+02  0.00000000000E+00 0.  1.
<scales pt_clust_5="13000.00000" pt_clust_6="13000.00000" pt_clust_7="13000.00000" pt_clust_8="13000.00000" pt_clust_9="28.29492" pt_clust_10="25.00170"></scales>
<clustering>
<clus scale="   25.002">  1 10  2 -1</clus>
<clus scale="   28.295">  2  9  1 -1</clus>
<clus scale="   80.531">  5  6 -1 -1</clus>
<clus scale="   97.040">  1  5  2 -1</clus>
<clus scale="   97.353">  7  8 -1 -1</clus>
<clus scale="   25.002">  1  5  2 -1</clus>
</clustering>
</event>
<event>
10    4  0.3043429E-005  0.1628670E+03  0.7546771E-02  0.1205264E+00
         21   -1    0    0  503  502  0.00000000000E+00  0.00000000000E+00  0.43601538058E+03  0.43601538058E+03  0.00000000000E+00 0.  1.
         -3   -1    0    0    0  501 -0.00000000000E+00 -0.00000000000E+00 -0.19973844784E+03  0.19973844784E+03  0.00000000000E+00 0.  1.
         24    2    1    2    0    0 -0.63490402675E+02 -0.29855765291E+02 -0.17190241899E+02  0.10697041764E+03  0.78897198181E+02 0.  0.
         23    2    1    2    0    0 -0.98266866009E+02 -0.22617967770E+02  0.57359124042E+02  0.14752401688E+03  0.91133512078E+02 0.  0.
        -11    1    3    3    0    0 -0.48346603173E+02 -0.14661172206E+02  0.27411219735E+02  0.57477986884E+02  0.00000000000E+00 0.  1.
         12    1    3    3    0    0 -0.15143799502E+02 -0.15194593084E+02 -0.44601461634E+02  0.49492430757E+02  0.00000000000E+00 0. -1.
        -13    1    4    4    0    0 -0.31996773912E+02 -0.35814991185E+02  0.63565143639E+02  0.79668278632E+02  0.00000000000E+00 0. -1.
         13    1    4    4    0    0 -0.66270092097E+02  0.13197023415E+02 -0.62060195978E+01  0.67855738245E+02  0.00000000000E+00 0.  1.
         21    1    1    2  503  501  0.15001422134E+03  0.78610172429E+02  0.26053689303E+03  0.31074635709E+03  0.00000000000E+00 0.  1.
         -4    1    1    2    0  502  0.11743047341E+02 -0.26136439369E+02 -0.64428842435E+02  0.70513036818E+02  0.00000000000E+00 0.  1.
<scales pt_clust_5="13000.00000" pt_clust_6="13000.00000" pt_clust_7="13000.00000" pt_clust_8="13000.00000" pt_clust_9="134.98274" pt_clust_10="28.65333"></scales>
<clustering>
<clus scale="   28.653">  1 10  2 -1</clus>
<clus scale="   78.897">  5  6 -1 -1</clus>
<clus scale="   91.134">  7  8 -1 -1</clus>
<clus scale="  105.656">  2  5  1 -1</clus>
<clus scale="  134.983">  1  9  2 -1</clus>
<clus scale="   28.653">  1  5  2 -1</clus>
</clustering>
</event>
<event>
10    4  0.3043429E-005  0.2237848E+03  0.7546771E-02  0.1133723E+00
          2   -1    0    0  502    0 -0.00000000000E+00  0.00000000000E+00  0.17854500263E+04  0.17854500263E+04  0.00000000000E+00 0. -1.
         21   -1    0    0  503  502  0.00000000000E+00 -0.00000000000E+00 -0.84671184544E+02  0.84671184544E+02  0.00000000000E+00 0. -1.
         24    2    1    2    0    0  0.12758562993E+03  0.16924549873E+03  0.10455447234E+04  0.10702452674E+04  0.85668150651E+02 0.  0.
         23    2    1    2    0    0 -0.12295225582E+03 -0.11549395992E+03  0.69480925067E+03  0.72429388627E+03  0.11569626997E+03 0.  0.
        -11    1    3    3    0    0  0.37638020380E+02  0.73245824796E+02  0.23310723028E+03  0.24722571112E+03  0.00000000000E+00 0.  1.
         12    1    3    3    0    0  0.89947609548E+02  0.95999673935E+02  0.81243749309E+03  0.82301955629E+03  0.00000000000E+00 0. -1.
        -13    1    4    4    0    0 -0.19791823076E+02 -0.97708517648E+02  0.35400811137E+03  0.36777766871E+03  0.00000000000E+00 0.  1.
         13    1    4    4    0    0 -0.10316043274E+03 -0.17785442274E+02  0.34080113930E+03  0.35651621757E+03  0.00000000000E+00 0. -1.
         21    1    1    2  503  501  0.13815573992E+02 -0.23464359843E+02 -0.25878821627E+02  0.37565405314E+02  0.00000000000E+00 0. -1.
          1    1    1    2  501    0 -0.18448948100E+02 -0.30287178966E+02 -0.13696310625E+02  0.38016651884E+02  0.00000000000E+00 0. -1.
<scales pt_clust_5="13000.00000" pt_clust_6="13000.00000" pt_clust_7="13000.00000" pt_clust_8="13000.00000" pt_clust_9="27.22951" pt_clust_10="43.35471"></scales>
<clustering>
<clus scale="   27.230">  2  9  1 -1</clus>
<clus scale="   43.355">  2 10  1 -1</clus>
<clus scale="   85.668">  5  6 -1 -1</clus>
<clus scale="  115.696">  7  8 -1 -1</clus>
<clus scale="  209.841">  1  5  2 -1</clus>
<clus scale="   27.230">  2  5  1 -1</clus>
</clustering>
</event>
<event>
10    4  0.3043429E-005  0.1871426E+03  0.7546771E-02  0.1189141E+00
          2   -1    0    0  503    0 -0.00000000000E+00  0.00000000000E+00  0.23060858277E+03  0.23060858277E+03  0.00000000000E+00 0. -1.
         21   -1    0    0  501  502  0.00000000000E+00 -0.00000000000E+00 -0.30829460469E+03  0.30829460469E+03  0.00000000000E+00 0. -1.
         24    2    1    2    0    0  0.32229373891E+01  0.58319205012E+02  0.61544331411E+02  0.11766544346E+03  0.81522603347E+02 0.  0.
         23    2    1    2    0    0 -0.14741749962E+03 -0.86056065751E+02 -0.15088852472E+03  0.24498474049E+03  0.90070031270E+02 0.  0.
        -13    1    3    3    0    0  0.30278139505E+02  0.36238688275E+02  0.36911913499E+00  0.47224405859E+02  0.00000000000E+00 0.  1.
         14    1    3    3    0    0 -0.27055202115E+02  0.22080516737E+02  0.61175212277E+02  0.70441037599E+02  0.00000000000E+00 0. -1.
        -11    1    4    4    0    0 -0.11204771374E+03 -0.34563802526E+02 -0.13819568565E+03  0.18123850069E+03  0.00000000000E+00 0. -1.
         11    1    4    4    0    0 -0.35369785882E+02 -0.51492263225E+02 -0.12692839075E+02  0.63746239804E+02  0.00000000000E+00 0.  1.
         21    1    1    2  503  502  0.43786375772E+01 -0.23218406883E+02 -0.10400145837E+02  0.25815303962E+02  0.00000000000E+00 0.  1.
          1    1    1    2  501    0  0.13981592466E+03  0.50955267621E+02  0.22058317224E+02  0.15043769955E+03  0.00000000000E+00 0. -1.
<scales pt_clust_5="13000.00000" pt_clust_6="13000.00000" pt_clust_7="13000.00000" pt_clust_8="13000.00000" pt_clust_9="23.62767" pt_clust_10="164.04193"></scales>
<clustering>
<clus scale="   23.628">  2  9  1 -1</clus>
<clus scale="   81.523">  5  6 -1 -1</clus>
<clus scale="   90.070">  7  8 -1 -1</clus>
<clus scale="   99.013">  1  5  2 -1</clus>
<clus scale="  164.042">  2 10  1 -1</clus>
<clus scale="   23.628">  2  5  1 -1</clus>
</clustering>
</event>
<event>
10    4  0.3043429E-005  0.3852027E+03  0.7546771E-02  0.1049027E+00
         21   -1    0    0  501  502  0.00000000000E+00  0.00000000000E+00  0.85187625868E+02  0.85187625868E+02  0.00000000000E+00 0. -1.
          2   -1    0    0  503    0 -0.00000000000E+00 -0.00000000000E+00 -0.26730100377E+04  0.26730100377E+04  0.00000000000E+00 0. -1.
         24    2    1    2    0    0  0.10171394621E+03  0.24510374708E+02 -0.91975911624E+02  0.16133322241E+03  0.81377853341E+02 0.  0.
         23    2    1    2    0    0  0.18546977258E+03  0.33900754234E+02 -0.34508551195E+03  0.40450795524E+03  0.94838692607E+02 0.  0.
        -13    1    3    3    0    0  0.53872010024E+02 -0.28498309051E+02 -0.37988375093E+02  0.71815483881E+02  0.00000000000E+00 0.  1.
         14    1    3    3    0    0  0.47841936182E+02  0.53008683759E+02 -0.53987536531E+02  0.89517738533E+02  0.00000000000E+00 0. -1.
        -11    1    4    4    0    0  0.15459267005E+03 -0.10537586901E+02 -0.22988011101E+03  0.27722698247E+03  0.00000000000E+00 0. -1.
         11    1    4    4    0    0  0.30877102531E+02  0.44438341135E+02 -0.11520540095E+03  0.12728097277E+03  0.00000000000E+00 0.  1.
         21    1    1    2  503  502  0.35037306764E+02  0.14814165622E+02 -0.37496787662E+02  0.53414243918E+02  0.00000000000E+00 0. -1.
          1    1    1    2  501    0 -0.32222102555E+03 -0.73225294564E+02 -0.21132642006E+04  0.21389422420E+04  0.00000000000E+00 0. -1.
<scales pt_clust_5="13000.00000" pt_clust_6="13000.00000" pt_clust_7="13000.00000" pt_clust_8="13000.00000" pt_clust_9="38.04040" pt_clust_10="324.21288"></scales>
<clustering>
<clus scale="   38.040">  1  9  2 -1</clus>
<clus scale="   81.378">  5  6 -1 -1</clus>
<clus scale="   94.839">  7  8 -1 -1</clus>
<clus scale="  127.577">  5  7 -1 -1</clus>
<clus scale="  324.213">  1 10  2 -1</clus>
<clus scale="   38.040">  1  5  2 -1</clus>
</clustering>
</event>
<event>
10    4  0.3043429E-005  0.1279414E+03  0.7546771E-02  0.1243985E+00
         21   -1    0    0  503  502  0.00000000000E+00  0.00000000000E+00  0.66879562021E+03  0.66879562021E+03  0.00000000000E+00 0.  1.
          2   -1    0    0  502    0 -0.00000000000E+00 -0.00000000000E+00 -0.74223565423E+03  0.74223565423E+03  0.00000000000E+00 0. -1.
         24    2    1    2    0    0  0.52965631162E+02  0.85560026330E+01 -0.40449424234E+02  0.10532916951E+03  0.81114208148E+02 0.  0.
         23    2    1    2    0    0  0.42241684269E+02  0.24666922538E+02 -0.53045514128E+03  0.54049864311E+03  0.91451130859E+02 0.  0.
        -11    1    3    3    0    0 -0.20485054944E+02  0.16441629695E+00  0.11176444104E+01  0.20516179902E+02  0.00000000000E+00 0.  1.
         12    1    3    3    0    0  0.73450686105E+02  0.83915863361E+01 -0.41567068645E+02  0.84812989608E+02  0.00000000000E+00 0. -1.
        -11    1    4    4    0    0  0.40116144424E+02 -0.29118764029E+02 -0.27536363589E+03  0.27978981295E+03  0.00000000000E+00 0. -1.
         11    1    4    4    0    0  0.21255398450E+01  0.53785686567E+02 -0.25509150539E+03  0.26070883016E+03  0.00000000000E+00 0.  1.
         21    1    1    2  503  501 -0.68467662450E+02  0.10934851672E+03  0.58279828667E+03  0.59690766611E+03  0.00000000000E+00 0.  1.
          1    1    1    2  501    0 -0.26739652981E+02 -0.14257144189E+03 -0.85333755177E+02  0.16829579572E+03  0.00000000000E+00 0. -1.
<scales pt_clust_5="13000.00000" pt_clust_6="13000.00000" pt_clust_7="13000.00000" pt_clust_8="13000.00000" pt_clust_9="127.94143" pt_clust_10="13000.00000"></scales>
<clustering>
<clus scale="   81.114">  5  6 -1 -1</clus>
<clus scale="   91.451">  7  8 -1 -1</clus>
<clus scale="   97.253">  2  5  1 -1</clus>
<clus scale="  128.514">  2  7  1 -1</clus>
<clus scale="  127.941">  1  9  2 -1</clus>
<clus scale="  127.941">  1  5  2 -1</clus>
</clustering>
</event>
<event>
10    4  0.3043429E-005  0.2342565E+03  0.7546771E-02  0.1158213E+00
         21   -1    0    0  501  502  0.00000000000E+00  0.00000000000E+00  0.81942268288E+02  0.81942268288E+02  0.00000000000E+00 0. -1.
          2   -1    0    0  503    0 -0.00000000000E+00 -0.00000000000E+00 -0.18361041613E+04  0.18361041613E+04  0.00000000000E+00 0. -1.
         24    2    1    2    0    0 -0.45776488935E+02  0.46524326708E+02 -0.71714719497E+02  0.12601869907E+03  0.80484232040E+02 0.  0.
         23    2    1    2    0    0 -0.18493829385E+03  0.76039890505E+02 -0.31195254616E+03  0.38176951752E+03  0.91920269673E+02 0.  0.
        -13    1    3    3    0    0 -0.45566227433E+02  0.63013603711E+02 -0.76257575058E+02  0.10891378741E+03  0.00000000000E+00 0.  1.
         14    1    3    3    0    0 -0.21026150171E+00 -0.16489277003E+02  0.45428555610E+01  0.17104911652E+02  0.00000000000E+00 0. -1.
        -13    1    4    4    0    0 -0.11955245175E+00  0.22077771653E+02 -0.64900302227E+02  0.68552837455E+02  0.00000000000E+00 0.  1.
         13    1    4    4    0    0 -0.18481874139E+03  0.53962118852E+02 -0.24705224393E+03  0.31321668007E+03  0.00000000000E+00 0. -1.
         21    1    1    2  503  502 -0.16604176279E+02 -0.31342508159E+02 -0.38167982308E+02  0.52104187558E+02  0.00000000000E+00 0. -1.
          1    1    1    2  501    0  0.24731895906E+03 -0.91221709054E+02 -0.13323266450E+04  0.13581540254E+04  0.00000000000E+00 0. -1.
<scales pt_clust_5="13000.00000" pt_clust_6="13000.00000" pt_clust_7="13000.00000" pt_clust_8="13000.00000" pt_clust_9="35.46902" pt_clust_10="215.46878"></scales>
<clustering>
<clus scale="   35.469">  1  9  2 -1</clus>
<clus scale="   80.484">  5  6 -1 -1</clus>
<clus scale="   91.920">  7  8 -1 -1</clus>
<clus scale="  101.966">  2  5  1 -1</clus>
<clus scale="  215.469">  1 10  2 -1</clus>
<clus scale="   35.469">  1  5  2 -1</clus>
</clustering>
</event>
<event>
10    4  0.3043429E-005  0.2757765E+03  0.7546771E-02  0.1098526E+00
          2   -1    0    0  503    0 -0.00000000000E+00  0.00000000000E+00  0.94934140333E+03  0.94934140333E+03  0.00000000000E+00 0. -1.
         21   -1    0    0  501  502  0.00000000000E+00 -0.00000000000E+00 -0.19493779697E+03  0.19493779697E+03  0.00000000000E+00 0. -1.
         23    2    1    2    0    0  0.22734074634E+03 -0.22074989682E+03  0.44876672048E+03  0.55689327030E+03  0.91237126177E+02 0.  0.
         24    2    1    2    0    0 -0.10177527115E+03  0.18002724966E+03  0.16352393641E+03  0.27540815853E+03  0.79633909663E+02 0.  0.
        -11    1    4    4    0    0 -0.58944080784E+02  0.42441933810E+02  0.28786156436E+02  0.78130437138E+02  0.00000000000E+00 0.  1.
         12    1    4    4    0    0 -0.42831190370E+02  0.13758531585E+03  0.13473777997E+03  0.19727772139E+03  0.00000000000E+00 0. -1.
        -11    1    3    3    0    0  0.29631937813E+02  0.36053761058E+01  0.53344140143E+02  0.61128125793E+02  0.00000000000E+00 0.  1.
         11    1    3    3    0    0  0.19770880853E+03 -0.22435527293E+03  0.39542258034E+03  0.49576514450E+03  0.00000000000E+00 0. -1.
         21    1    1    2  503  502 -0.39894775011E+02 -0.93358969772E+02  0.45256925160E+01  0.10162663137E+03  0.00000000000E+00 0. -1.
          1    1    1    2  501    0 -0.85670700179E+02  0.13408161693E+03  0.13758725696E+03  0.21035114011E+03  0.00000000000E+00 0. -1.
<scales pt_clust_5="13000.00000" pt_clust_6="13000.00000" pt_clust_7="13000.00000" pt_clust_8="13000.00000" pt_clust_9="101.52581" pt_clust_10="146.39258"></scales>
<clustering>
<clus scale="   79.634">  5  6 -1 -1</clus>
<clus scale="   91.237">  7  8 -1 -1</clus>
<clus scale="  101.526">  2  9  1 -1</clus>
<clus scale="  146.393">  2 10  1 -1</clus>
<clus scale="  272.158">  2  5  1 -1</clus>
<clus scale="  101.526">  2  5  1 -1</clus>
</clustering>
</event>
<event>
10    4  0.3043429E-005  0.1015502E+03  0.7546771E-02  0.1282380E+00
         21   -1    0    0  501  502  0.00000000000E+00  0.00000000000E+00  0.28862984926E+03  0.28862984926E+03  0.00000000000E+00 0. -1.
          4   -1    0    0  503    0 -0.00000000000E+00 -0.00000000000E+00 -0.11747047402E+03  0.11747047402E+03  0.00000000000E+00 0. -1.
         23    2    1    2    0    0  0.69058065888E+02  0.60777302908E+01 -0.57841469265E+01  0.11498640674E+03  0.91555786869E+02 0.  0.
         24    2    1    2    0    0 -0.13042721446E+02 -0.47801891499E+01  0.39944946298E+02  0.91011308107E+02  0.80588440099E+02 0.  0.
        -13    1    4    4    0    0 -0.40348875273E+02  0.93246613582E+01  0.43514591150E+02  0.60070797300E+02  0.00000000000E+00 0.  1.
         14    1    4    4    0    0  0.27306153827E+02 -0.14104850508E+02 -0.35696448521E+01  0.30940510808E+02  0.00000000000E+00 0. -1.
        -11    1    3    3    0    0  0.80489709574E+02 -0.13375121524E+02  0.16532084464E+02  0.83251408636E+02  0.00000000000E+00 0. -1.
         11    1    3    3    0    0 -0.11431643686E+02  0.19452851814E+02 -0.22316231391E+02  0.31734998102E+02  0.00000000000E+00 0.  1.
         21    1    1    2  503  502 -0.32742328068E+02 -0.29732490099E+02  0.15355692190E+03  0.15979927809E+03  0.00000000000E+00 0. -1.
          3    1    1    2  501    0 -0.23273016374E+02  0.28434948959E+02 -0.16558346033E+02  0.40303330343E+02  0.00000000000E+00 0. -1.
<scales pt_clust_5="13000.00000" pt_clust_6="13000.00000" pt_clust_7="13000.00000" pt_clust_8="13000.00000" pt_clust_9="47.89929" pt_clust_10="36.74481"></scales>
<clustering>
<clus scale="   36.745">  1 10  2 -1</clus>
<clus scale="   47.899">  1  9  2 -1</clus>
<clus scale="   80.588">  5  6 -1 -1</clus>
<clus scale="   91.556">  7  8 -1 -1</clus>
<clus scale="   91.785">  1  5  2 -1</clus>
<clus scale="   36.745">  1  5  2 -1</clus>
</clustering>
</event>
<event>
10    4  0.3043429E-005  0.4260758E+03  0.7546771E-02  0.1092126E+00
          2   -1    0    0  502    0 -0.00000000000E+00  0.00000000000E+00  0.14868166418E+04  0.14868166418E+04  0.00000000000E+00 0. -1.
         21   -1    0    0  503  502  0.00000000000E+00 -0.00000000000E+00 -0.34432426024E+03  0.34432426024E+03  0.00000000000E+00 0. -1.
         24    2    1    2    0    0 -0.28158573016E+02 -0.96677250388E+01  0.86220431848E+03  0.86660120969E+03  0.81945101669E+02 0.  0.
         23    2    1    2    0    0  0.26211974456E+03  0.36105838216E+03  0.20142941670E+03  0.49802138125E+03  0.91550917248E+02 0.  0.
        -11    1    3    3    0    0  0.39668477710E+01 -0.28093860863E+02  0.11388667392E+03  0.11736769316E+03  0.00000000000E+00 0.  1.
         12    1    3    3    0    0 -0.32125420787E+02  0.18426135824E+02  0.74831764456E+03  0.74923351654E+03  0.00000000000E+00 0. -1.
        -13    1    4    4    0    0  0.12183305200E+03  0.19105938135E+03  0.14982713987E+03  0.27165263040E+03  0.00000000000E+00 0. -1.
         13    1    4    4    0    0  0.14028669256E+03  0.16999900080E+03  0.51602276835E+02  0.22636875084E+03  0.00000000000E+00 0.  1.
         21    1    1    2  503  501 -0.17891427605E+02 -0.28652462526E+02 -0.47326314018E+02  0.58145049567E+02  0.00000000000E+00 0. -1.
          1    1    1    2  501    0 -0.21606974394E+03 -0.32273819459E+03  0.12618496038E+03  0.40837326152E+03  0.00000000000E+00 0. -1.
<scales pt_clust_5="13000.00000" pt_clust_6="13000.00000" pt_clust_7="13000.00000" pt_clust_8="13000.00000" pt_clust_9="33.77968" pt_clust_10="416.12384"></scales>
<clustering>
<clus scale="   33.780">  2  9  1 -1</clus>
<clus scale="   81.945">  5  6 -1 -1</clus>
<clus scale="   87.254">  1  5  2 -1</clus>
<clus scale="   91.551">  7  8 -1 -1</clus>
<clus scale="  416.124">  2 10  1 -1</clus>
<clus scale="   33.780">  2  5  1 -1</clus>
</clustering>
</event>
<event>
10    4  0.3043429E-005  0.1054084E+03  0.7546771E-02  0.1272409E+00
         -3   -1    0    0    0  501 -0.00000000000E+00  0.00000000000E+00  0.13259249484E+03  0.13259249484E+03  0.00000000000E+00 0.  1.
         21   -1    0    0  503  502  0.00000000000E+00 -0.00000000000E+00 -0.18192600636E+03  0.18192600636E+03  0.00000000000E+00 0.  1.
         23    2    1    2    0    0  0.52512173839E+02  0.47485607163E+02  0.76139714327E+01  0.11472979064E+03  0.89958551622E+02 0.  0.
         24    2    1    2    0    0 -0.19702341846E+01 -0.41767115071E+02 -0.45743163654E+02  0.10335740250E+03  0.82716031736E+02 0.  0.
        -11    1    4    4    0    0  0.30893557782E+02 -0.46300473508E+02 -0.13894136844E+02  0.57368918398E+02  0.00000000000E+00 0.  1.
         12    1    4    4    0    0 -0.32863791967E+02  0.45333584370E+01 -0.31849026810E+02  0.45988484101E+02  0.00000000000E+00 0. -1.
        -11    1    3    3    0    0  0.28320613486E+02  0.30957123959E+02  0.48690933971E+02  0.64274471784E+02  0.00000000000E+00 0. -1.
         11    1    3    3    0    0  0.24191560353E+02  0.16528483203E+02 -0.41076962539E+02  0.50455318854E+02  0.00000000000E+00 0.  1.
         21    1    1    2  503  501  0.61037989672E+01  0.26753262372E+02 -0.14537012848E+02  0.31053472462E+02  0.00000000000E+00 0.  1.
         -4    1    1    2    0  502 -0.56645738621E+02 -0.32471754464E+02  0.33326935435E+01  0.65377835603E+02  0.00000000000E+00 0.  1.
<scales pt_clust_5="13000.00000" pt_clust_6="13000.00000" pt_clust_7="13000.00000" pt_clust_8="13000.00000" pt_clust_9="27.44073" pt_clust_10="61.79199"></scales>
<clustering>
<clus scale="   27.441">  2  9  1 -1</clus>
<clus scale="   61.792">  2 10  1 -1</clus>
<clus scale="   82.716">  5  6 -1 -1</clus>
<clus scale="   89.959">  7  8 -1 -1</clus>
<clus scale="   99.299">  2  5  1 -1</clus>
<clus scale="   27.441">  2  5  1 -1</clus>
</clustering>
</event>
<event>
10    4  0.3043429E-005  0.1109491E+03  0.7546771E-02  0.1264346E+00
         21   -1    0    0  501  502  0.00000000000E+00  0.00000000000E+00  0.11847996868E+03  0.11847996868E+03  0.00000000000E+00 0.  1.
          2   -1    0    0  503    0 -0.00000000000E+00 -0.00000000000E+00 -0.58289611051E+03  0.58289611051E+03  0.00000000000E+00 0. -1.
         23    2    1    2    0    0  0.32054654921E+02  0.48263520818E+02 -0.30303771638E+03  0.32260928885E+03  0.94276335104E+02 0.  0.
         24    2    1    2    0    0 -0.17013124218E+02 -0.58058454315E+02 -0.22741552277E+03  0.24873500563E+03  0.80567068415E+02 0.  0.
        -11    1    4    4    0    0  0.31395596189E+02 -0.34013349438E+02 -0.11620981973E+03  0.12508922256E+03  0.00000000000E+00 0.  1.
         12    1    4    4    0    0 -0.48408720406E+02 -0.24045104876E+02 -0.11120570305E+03  0.12364578307E+03  0.00000000000E+00 0. -1.
        -11    1    3    3    0    0 -0.12034413268E+02  0.62319196945E+02 -0.19527197619E+03  0.20532816197E+03  0.00000000000E+00 0.  1.
         11    1    3    3    0    0  0.44089068190E+02 -0.14055676127E+02 -0.10776574019E+03  0.11728112689E+03  0.00000000000E+00 0. -1.
         21    1    1    2  503  502 -0.43500065426E+02 -0.16826190921E+02  0.76576943218E+02  0.89662727070E+02  0.00000000000E+00 0.  1.
          1    1    1    2  501    0  0.28458534722E+02  0.26621124417E+02 -0.10539845893E+02  0.40369057646E+02  0.00000000000E+00 0. -1.
<scales pt_clust_5="13000.00000" pt_clust_6="13000.00000" pt_clust_7="13000.00000" pt_clust_8="13000.00000" pt_clust_9="21.15256" pt_clust_10="38.96887"></scales>
<clustering>
<clus scale="   38.969">  1 10  2 -1</clus>
<clus scale="   21.153">  1  9  2 -1</clus>
<clus scale="   80.567">  5  6 -1 -1</clus>
<clus scale="   94.276">  7  8 -1 -1</clus>
<clus scale="   99.563">  1  5  2 -1</clus>
<clus scale="   38.969">  1  5  2 -1</clus>
</clustering>
</event>
<event>
10    4  0.3043429E-005  0.9589523E+02  0.7546771E-02  0.1299011E+00
          2   -1    0    0  503    0 -0.00000000000E+00  0.00000000000E+00  0.43933072046E+03  0.43933072046E+03  0.00000000000E+00 0. -1.
         21   -1    0    0  501  502  0.00000000000E+00 -0.00000000000E+00 -0.58958241550E+02  0.58958241550E+02  0.00000000000E+00 0.  1.
         24    2    1    2    0    0 -0.15313516950E+01  0.21622227115E+02  0.24621975782E+03  0.25929439517E+03  0.78355270907E+02 0.  0.
         23    2    1    2    0    0  0.59145781221E+00  0.23301203865E+02  0.19122315439E+02  0.99337822799E+02  0.94652227480E+02 0.  0.
        -13    1    3    3    0    0 -0.37418219428E+02 -0.16235872817E+01  0.94099887748E+02  0.10127955398E+03  0.00000000000E+00 0.  1.
         14    1    3    3    0    0  0.35886867733E+02  0.23245814397E+02  0.15211987008E+03  0.15801484118E+03  0.00000000000E+00 0. -1.
        -13    1    4    4    0    0  0.12709745486E+02 -0.21390766161E+02 -0.25075051131E+02  0.35325071783E+02  0.00000000000E+00 0.  1.
         13    1    4    4    0    0 -0.12118287674E+02  0.44691970026E+02  0.44197366570E+02  0.64012751016E+02  0.00000000000E+00 0. -1.
         21    1    1    2  503  502 -0.27284835183E+02 -0.18740798776E+02  0.24199147483E+02  0.41003396306E+02  0.00000000000E+00 0. -1.
          1    1    1    2  501    0  0.28224729066E+02 -0.26182632204E+02  0.90831258160E+02  0.98653347733E+02  0.00000000000E+00 0. -1.
<scales pt_clust_5="13000.00000" pt_clust_6="13000.00000" pt_clust_7="13000.00000" pt_clust_8="13000.00000" pt_clust_9="33.10105" pt_clust_10="38.01962"></scales>
<clustering>
<clus scale="   33.101">  2  9  1 -1</clus>
<clus scale="   38.020">  2 10  1 -1</clus>
<clus scale="   78.355">  5  6 -1 -1</clus>
<clus scale="   79.852">  1  5  2 -1</clus>
<clus scale="   94.652">  7  8 -1 -1</clus>
<clus scale="   33.101">  2  5  1 -1</clus>
</clustering>
</event>
<event>
10    4  0.3043429E-005  0.2567755E+03  0.7546771E-02  0.1149183E+00
          2   -1    0    0  503    0 -0.00000000000E+00  0.00000000000E+00  0.71899800154E+03  0.71899800154E+03  0.00000000000E+00 0. -1.
         21   -1    0    0  501  502  0.00000000000E+00 -0.00000000000E+00 -0.33520316381E+03  0.33520316381E+03  0.00000000000E+00 0.  1.
         23    2    1    2    0    0  0.52586383846E+01  0.32144261679E+02 -0.34950696621E+02  0.10193825588E+03  0.90049708386E+02 0.  0.
         24    2    1    2    0    0 -0.23204048036E+03  0.51478469174E+02  0.44683022345E+03  0.51238625985E+03  0.79935057291E+02 0.  0.
        -11    1    4    4    0    0 -0.95418755649E+02 -0.81683108895E+01  0.12296296169E+03  0.15585682590E+03  0.00000000000E+00 0.  1.
         12    1    4    4    0    0 -0.13662172471E+03  0.59646780064E+02  0.32386726176E+03  0.35652943395E+03  0.00000000000E+00 0. -1.
        -13    1    3    3    0    0  0.16366393662E+02  0.56327747829E+02 -0.82565409639E+00  0.58663069488E+02  0.00000000000E+00 0.  1.
         13    1    3    3    0    0 -0.11107755277E+02 -0.24183486151E+02 -0.34125042524E+02  0.43275186389E+02  0.00000000000E+00 0. -1.
         21    1    1    2  503  502  0.17504951814E+03 -0.22641123643E+03 -0.31870363941E+02  0.28795850722E+03  0.00000000000E+00 0.  1.
          1    1    1    2  501    0  0.51732323841E+02  0.14278850558E+03  0.37856748372E+01  0.15191814240E+03  0.00000000000E+00 0. -1.
<scales pt_clust_5="13000.00000" pt_clust_6="13000.00000" pt_clust_7="13000.00000" pt_clust_8="13000.00000" pt_clust_9="244.01651" pt_clust_10="155.50816"></scales>
<clustering>
<clus scale="   79.935">  5  6 -1 -1</clus>
<clus scale="   90.050">  7  8 -1 -1</clus>
<clus scale="   95.759">  1  7  2 -1</clus>
<clus scale="  155.508">  2 10  1 -1</clus>
<clus scale="  244.017">  2  9  1 -1</clus>
<clus scale="  155.508">  2  5  1 -1</clus>
</clustering>
</event>
<event>
10    4  0.3043429E-005  0.1044702E+03  0.7546771E-02  0.1276150E+00
         -1   -1    0    0    0  501 -0.00000000000E+00  0.00000000000E+00  0.71910546964E+03  0.71910546964E+03  0.00000000000E+00 0.  1.
         21   -1    0    0  503  502  0.00000000000E+00 -0.00000000000E+00 -0.38204160424E+02  0.38204160424E+02  0.00000000000E+00 0.  1.
         24    2    1    2    0    0  0.45484675871E+02 -0.57446337032E+02  0.36984667788E+03  0.38556851141E+03  0.80669538702E+02 0.  0.
         23    2    1    2    0    0 -0.53031040732E+01 -0.92896691157E+01  0.99092644735E+02  0.13544140555E+03  0.91709330117E+02 0.  0.
        -11    1    3    3    0    0  0.39320907478E+02 -0.57293210666E+02  0.14658255263E+03  0.16221926670E+03  0.00000000000E+00 0.  1.
         12    1    3    3    0    0  0.61637683936E+01 -0.15312636592E+00  0.22326412525E+03  0.22334924471E+03  0.00000000000E+00 0. -1.
        -13    1    4    4    0    0 -0.10490211191E+01  0.37916002622E+02  0.19116348185E+02  0.42475386615E+02  0.00000000000E+00 0.  1.
         13    1    4    4    0    0 -0.42540829541E+01 -0.47205671738E+02  0.79976296549E+02  0.92966018930E+02  0.00000000000E+00 0. -1.
         21    1    1    2  503  501 -0.20495128788E+02  0.19301437194E+02  0.13355309277E+02  0.31160232151E+02  0.00000000000E+00 0.  1.
         -2    1    1    2    0  502 -0.19686443010E+02  0.47434568954E+02  0.19860667732E+03  0.20513948096E+03  0.00000000000E+00 0.  1.
<scales pt_clust_5="13000.00000" pt_clust_6="13000.00000" pt_clust_7="13000.00000" pt_clust_8="13000.00000" pt_clust_9="28.15308" pt_clust_10="54.23582"></scales>
<clustering>
<clus scale="   28.153">  2  9  1 -1</clus>
<clus scale="   54.236">  2 10  1 -1</clus>
<clus scale="   80.670">  5  6 -1 -1</clus>
<clus scale="   91.709">  7  8 -1 -1</clus>
<clus scale="   94.926">  1  5  2 -1</clus>
<clus scale="   28.153">  2  5  1 -1</clus>
</clustering>
</event>
<event>
10    4  0.3043429E-005  0.1296672E+03  0.7546771E-02  0.1248219E+00
         21   -1    0    0  503  502  0.00000000000E+00  0.00000000000E+00  0.20993890266E+03  0.20993890266E+03  0.00000000000E+00 0. -1.
          2   -1    0    0  502    0 -0.00000000000E+00 -0.00000000000E+00 -0.19967465811E+03  0.19967465811E+03  0.00000000000E+00 0. -1.
         24    2    1    2    0    0  0.32614701720E+02 -0.45281051554E+01 -0.11372129344E+03  0.14245678543E+03  0.79228660402E+02 0.  0.
         23    2    1    2    0    0  0.74263279392E+02 -0.99409739826E+01  0.80459366952E+02  0.14444869604E+03  0.93690225885E+02 0.  0.
        -11    1    3    3    0    0 -0.15452841483E+02 -0.25282597807E+02 -0.22226410666E+02  0.37040699142E+02  0.00000000000E+00 0.  1.
         12    1    3    3    0    0  0.48067543203E+02  0.20754492652E+02 -0.91494882778E+02  0.10541608629E+03  0.00000000000E+00 0. -1.
        -11    1    4    4    0    0  0.16519067352E+02 -0.40487924518E+02  0.63249228551E+02  0.76893540238E+02  0.00000000000E+00 0. -1.
         11    1    4    4    0    0  0.57744212040E+02  0.30546950536E+02  0.17210138401E+02  0.67555155798E+02  0.00000000000E+00 0.  1.
         21    1    1    2  503  501 -0.28385022582E+02  0.15940726028E+02  0.27425556011E+02  0.42567327562E+02  0.00000000000E+00 0. -1.
          1    1    1    2  501    0 -0.78492958530E+02 -0.14716468900E+01  0.16100615030E+02  0.80140751729E+02  0.00000000000E+00 0. -1.
<scales pt_clust_5="13000.00000" pt_clust_6="13000.00000" pt_clust_7="13000.00000" pt_clust_8="13000.00000" pt_clust_9="25.19237" pt_clust_10="97.80711"></scales>
<clustering>
<clus scale="   25.192">  9 10 -1 -1</clus>
<clus scale="   79.229">  5  6 -1 -1</clus>
<clus scale="   85.799">  2  5  1 -1</clus>
<clus scale="   93.690">  7  8 -1 -1</clus>
<clus scale="   97.807">  1  9  2 -1</clus>
<clus scale="   97.807">  1  5  2 -1</clus>
</clustering>
</event>
<event>
10    4  0.3043429E-005  0.1025084E+03  0.7546771E-02  0.1277221E+00
         21   -1    0    0  503  502  0.00000000000E+00  0.00000000000E+00  0.52701669684E+02  0.52701669684E+02  0.00000000000E+00 0. -1.
          2   -1    0    0  502    0 -0.00000000000E+00 -0.00000000000E+00 -0.10548967925E+04  0.10548967925E+04  0.00000000000E+00 0. -1.
         24    2    1    2    0    0 -0.39875766466E+02  0.28743931282E+02 -0.56036783845E+03  0.56895075142E+03  0.85302712941E+02 0.  0.
         23    2    1    2    0    0  0.53545379966E+02 -0.75379376840E+01 -0.12959246175E+03  0.16676810814E+03  0.89963701185E+02 0.  0.
        -13    1    3    3    0    0  0.17280333484E+02  0.36838808895E+02 -0.23922786673E+03  0.24266371790E+03  0.00000000000E+00 0.  1.
         14    1    3    3    0    0 -0.57156099950E+02 -0.80948776132E+01 -0.32113997172E+03  0.32628703351E+03  0.00000000000E+00 0. -1.
        -11    1    4    4    0    0  0.37370813581E+02  0.19832747298E+02 -0.10618587588E+02  0.43619605403E+02  0.00000000000E+00 0. -1.
         11    1    4    4    0    0  0.16174566385E+02 -0.27370684982E+02 -0.11897387416E+03  0.12314850274E+03  0.00000000000E+00 0.  1.
         21    1    1    2  503  501  0.38091166827E+01  0.30642487288E+02  0.18934072446E+02  0.36221133286E+02  0.00000000000E+00 0. -1.
          1    1    1    2  501    0 -0.17478730183E+02 -0.51848480886E+02 -0.33116889504E+03  0.33565846932E+03  0.00000000000E+00 0. -1.
<scales pt_clust_5="13000.00000" pt_clust_6="13000.00000" pt_clust_7="13000.00000" pt_clust_8="13000.00000" pt_clust_9="30.87833" pt_clust_10="52.01520"></scales>
<clustering>
<clus scale="   30.878">  1  9  2 -1</clus>
<clus scale="   52.015">  1 10  2 -1</clus>
<clus scale="   85.303">  5  6 -1 -1</clus>
<clus scale="   89.964">  7  8 -1 -1</clus>
<clus scale="   98.443">  2  5  1 -1</clus>
<clus scale="   30.878">  1  5  2 -1</clus>
</clustering>
</event>
<event>
10    4  0.3043429E-005  0.1306497E+03  0.7546771E-02  0.1237826E+00
          2   -1    0    0  502    0 -0.00000000000E+00  0.00000000000E+00  0.10956543325E+04  0.10956543325E+04  0.00000000000E+00 0. -1.
         21   -1    0    0  503  502  0.00000000000E+00 -0.00000000000E+00 -0.35555966575E+02  0.35555966575E+02  0.00000000000E+00 0. -1.
         24    2    1    2    0    0  0.28683323885E+02  0.58595692386E+02  0.56349133216E+03  0.57291415524E+03  0.80324091140E+02 0.  0.
         23    2    1    2    0    0 -0.66504397048E+02  0.51913407651E+02  0.19239358735E+03  0.22912560414E+03  0.91462633345E+02 0.  0.
        -13    1    3    3    0    0  0.53317993082E+02  0.25130888879E+02  0.26042460728E+03  0.26701188370E+03  0.00000000000E+00 0.  1.
         14    1    3    3    0    0 -0.24634669197E+02  0.33464803507E+02  0.30306672488E+03  0.30590227154E+03  0.00000000000E+00 0. -1.
        -13    1    4    4    0    0 -0.89115290785E+02  0.35520962242E+02  0.13935669614E+03  0.16918499511E+03  0.00000000000E+00 0. -1.
         13    1    4    4    0    0  0.22610893737E+02  0.16392445409E+02  0.53036891205E+02  0.59940609029E+02  0.00000000000E+00 0.  1.
         21    1    1    2  503  501  0.23651250919E+02 -0.12934547231E+02  0.58472244666E+02  0.64387014051E+02  0.00000000000E+00 0.  1.
          1    1    1    2  501    0  0.14169822244E+02 -0.97574552806E+02  0.24574120177E+03  0.26478352567E+03  0.00000000000E+00 0. -1.
<scales pt_clust_5="13000.00000" pt_clust_6="13000.00000" pt_clust_7="13000.00000" pt_clust_8="13000.00000" pt_clust_9="24.32786" pt_clust_10="104.25285"></scales>
<clustering>
<clus scale="   24.328">  9 10 -1 -1</clus>
<clus scale="   80.324">  5  6 -1 -1</clus>
<clus scale="   91.463">  7  8 -1 -1</clus>
<clus scale="  103.480">  1  5  2 -1</clus>
<clus scale="  104.253">  2  9  1 -1</clus>
<clus scale="  104.253">  2  5  1 -1</clus>
</clustering>
</event>
<event>
10    4  0.3043429E-005  0.1089127E+03  0.7546771E-02  0.1266803E+00
         21   -1    0    0  503  502  0.00000000000E+00  0.00000000000E+00  0.59639525867E+02  0.59639525867E+02  0.00000000000E+00 0.  1.
         -1   -1    0    0    0  501 -0.00000000000E+00 -0.00000000000E+00 -0.35179430015E+03  0.35179430015E+03  0.00000000000E+00 0.  1.
         24    2    1    2    0    0 -0.48066358806E+02 -0.56750331185E+01 -0.10292401494E+03  0.13975920964E+03  0.81220089751E+02 0.  0.
         23    2    1    2    0    0  0.68445668166E+02 -0.37061744989E+02 -0.14014623777E+03  0.18463813591E+03  0.91607264114E+02 0.  0.
        -13    1    3    3    0    0 -0.35182564618E+02  0.29948959089E+02 -0.23662460750E+02  0.51910163286E+02  0.00000000000E+00 0.  1.
         14    1    3    3    0    0 -0.12883794187E+02 -0.35623992207E+02 -0.79261554188E+02  0.87849046357E+02  0.00000000000E+00 0. -1.
        -11    1    4    4    0    0  0.88454775175E+02 -0.22203963755E+02 -0.12730871674E+03  0.15660387165E+03  0.00000000000E+00 0.  1.
         11    1    4    4    0    0 -0.20009107008E+02 -0.14857781234E+02 -0.12837521035E+02  0.28034264263E+02  0.00000000000E+00 0. -1.
         21    1    1    2  503  501  0.10898018087E+02  0.22038259953E+02  0.83196062908E+00  0.24599671918E+02  0.00000000000E+00 0.  1.
         -2    1    1    2    0  502 -0.31277327448E+02  0.20698518154E+02 -0.49916482203E+02  0.62436808547E+02  0.00000000000E+00 0.  1.
<scales pt_clust_5="13000.00000" pt_clust_6="13000.00000" pt_clust_7="13000.00000" pt_clust_8="13000.00000" pt_clust_9="24.58560" pt_clust_10="38.05554"></scales>
<clustering>
<clus scale="   24.586">  1  9  2 -1</clus>
<clus scale="   38.056">  1 10  2 -1</clus>
<clus scale="   81.220">  5  6 -1 -1</clus>
<clus scale="   91.607">  7  8 -1 -1</clus>
<clus scale="  100.333">  2  5  1 -1</clus>
<clus scale="   24.586">  1  5  2 -1</clus>
</clustering>
</event>
<event>
10    4  0.3043429E-005  0.2961134E+03  0.7546771E-02  0.1131699E+00
         21   -1    0    0  501  502  0.00000000000E+00  0.00000000000E+00  0.71578471081E+03  0.71578471081E+03  0.00000000000E+00 0.  1.
          2   -1    0    0  503    0 -0.00000000000E+00 -0.00000000000E+00 -0.82716680711E+03  0.82716680711E+03  0.00000000000E+00 0. -1.
         24    2    1    2    0    0  0.30894327370E+02  0.43925313978E+02 -0.35129641917E+03  0.36400266840E+03  0.78771034071E+02 0.  0.
         23    2    1    2    0    0 -0.29650292621E+03 -0.11424185525E+03 -0.31968905004E+03  0.45630237936E+03  0.71032288109E+02 0.  0.
        -13    1    3    3    0    0  0.41352692159E+02  0.61133881826E+02 -0.24748293626E+03  0.25825413916E+03  0.00000000000E+00 0.  1.
         14    1    3    3    0    0 -0.10458364789E+02 -0.17208567847E+02 -0.10381348291E+03  0.10574852924E+03  0.00000000000E+00 0. -1.
        -13    1    4    4    0    0 -0.16231689292E+03 -0.70584247185E+02 -0.12872054146E+03  0.21885586003E+03  0.00000000000E+00 0.  1.
         13    1    4    4    0    0 -0.13418603330E+03 -0.43657608064E+02 -0.19096850858E+03  0.23744651933E+03  0.00000000000E+00 0. -1.
         21    1    1    2  503  502  0.33514186077E+03  0.60216565601E+02  0.55638286693E+03  0.65230973948E+03  0.00000000000E+00 0.  1.
          1    1    1    2  501    0 -0.69533261929E+02  0.10099975669E+02  0.32205059762E+01  0.70336730673E+02  0.00000000000E+00 0. -1.
<scales pt_clust_5="13000.00000" pt_clust_6="13000.00000" pt_clust_7="13000.00000" pt_clust_8="13000.00000" pt_clust_9="287.46749" pt_clust_10="70.26296"></scales>
<clustering>
<clus scale="   70.263">  1 10  2 -1</clus>
<clus scale="   71.032">  7  8 -1 -1</clus>
<clus scale="   78.771">  5  6 -1 -1</clus>
<clus scale="   95.170">  2  5  1 -1</clus>
<clus scale="  287.467">  1  9  2 -1</clus>
<clus scale="   70.263">  1  5  2 -1</clus>
</clustering>
</event>
<event>
10    4  0.3043429E-005  0.1791730E+03  0.7546771E-02  0.1169962E+00
         21   -1    0    0  501  502  0.00000000000E+00  0.00000000000E+00  0.49556459517E+02  0.49556459517E+02  0.00000000000E+00 0. -1.
          2   -1    0    0  503    0 -0.00000000000E+00 -0.00000000000E+00 -0.14368518512E+04  0.14368518512E+04  0.00000000000E+00 0. -1.
         24    2    1    2    0    0 -0.65242276800E+02 -0.13877691127E+03 -0.10481782645E+04  0.10626055923E+04  0.83290964834E+02 0.  0.
         23    2    1    2    0    0  0.10028809007E+03  0.11631403216E+03 -0.29581441762E+03  0.34635783188E+03  0.94185577181E+02 0.  0.
        -13    1    3    3    0    0  0.13310935418E+02 -0.58153990153E+02 -0.28560181607E+03  0.29176611338E+03  0.00000000000E+00 0.  1.
         14    1    3    3    0    0 -0.78553212218E+02 -0.80622921118E+02 -0.76257644846E+03  0.77083947894E+03  0.00000000000E+00 0. -1.
        -13    1    4    4    0    0  0.10116760277E+03  0.48766193064E+02 -0.19424226476E+03  0.22437264284E+03  0.00000000000E+00 0. -1.
         13    1    4    4    0    0 -0.87951270398E+00  0.67547839097E+02 -0.10157215286E+03  0.12198518904E+03  0.00000000000E+00 0.  1.
         21    1    1    2  503  502 -0.22931987992E+02 -0.76596198422E+01 -0.37265295860E+02  0.44421257580E+02  0.00000000000E+00 0.  1.
          1    1    1    2  501    0 -0.12113825276E+02  0.30122498952E+02 -0.60374137147E+01  0.33023628969E+02  0.00000000000E+00 0. -1.
<scales pt_clust_5="13000.00000" pt_clust_6="13000.00000" pt_clust_7="13000.00000" pt_clust_8="13000.00000" pt_clust_9="24.17738" pt_clust_10="33.64636"></scales>
<clustering>
<clus scale="   24.177">  1  9  2 -1</clus>
<clus scale="   33.646">  1 10  2 -1</clus>
<clus scale="   83.291">  5  6 -1 -1</clus>
<clus scale="   94.186">  7  8 -1 -1</clus>
<clus scale="  173.693">  2  5  1 -1</clus>
<clus scale="   24.177">  1  5  2 -1</clus>
</clustering>
</event>
<event>
10    4  0.3043429E-005  0.1897312E+03  0.7546771E-02  0.1182171E+00
          2   -1    0    0  503    0 -0.00000000000E+00  0.00000000000E+00  0.14179598861E+04  0.14179598861E+04  0.00000000000E+00 0. -1.
         21   -1    0    0  501  502  0.00000000000E+00 -0.00000000000E+00 -0.81027177150E+02  0.81027177150E+02  0.00000000000E+00 0. -1.
         24    2    1    2    0    0  0.70789430377E+02 -0.22834986581E+02  0.90197691982E+03  0.90871331687E+03  0.81639134690E+02 0.  0.
         23    2    1    2    0    0  0.96434348877E+02 -0.81531923763E+02  0.22706652290E+03  0.27466398385E+03  0.89073340381E+02 0.  0.
        -11    1    3    3    0    0  0.21365706966E+02  0.71071735212E+01  0.50674199637E+02  0.55451599242E+02  0.00000000000E+00 0.  1.
         12    1    3    3    0    0  0.49423723410E+02 -0.29942160102E+02  0.85130272018E+03  0.85326171763E+03  0.00000000000E+00 0. -1.
        -11    1    4    4    0    0  0.45828167570E+02 -0.72101180381E+02  0.19776979376E+03  0.21543373106E+03  0.00000000000E+00 0. -1.
         11    1    4    4    0    0  0.50606181307E+02 -0.94307433825E+01  0.29296729141E+02  0.59230252790E+02  0.00000000000E+00 0.  1.
         21    1    1    2  503  502  0.20684410474E+02  0.10932605458E+02  0.54420955197E+01  0.24020472568E+02  0.00000000000E+00 0. -1.
          1    1    1    2  501    0 -0.18790818973E+03  0.93434304886E+02  0.20244717075E+03  0.29158929000E+03  0.00000000000E+00 0. -1.
<scales pt_clust_5="13000.00000" pt_clust_6="13000.00000" pt_clust_7="13000.00000" pt_clust_8="13000.00000" pt_clust_9="23.39587" pt_clust_10="167.52274"></scales>
<clustering>
<clus scale="   23.396">  2  9  1 -1</clus>
<clus scale="   81.639">  5  6 -1 -1</clus>
<clus scale="   89.073">  7  8 -1 -1</clus>
<clus scale="  110.963">  1  5  2 -1</clus>
<clus scale="  167.523">  2 10  1 -1</clus>
<clus scale="   23.396">  2  5  1 -1</clus>
</clustering>
</event>
<event>
10    4  0.3043429E-005  0.1394776E+03  0.7546771E-02  0.1231787E+00
          2   -1    0    0  503    0 -0.00000000000E+00  0.00000000000E+00  0.17238132707E+04  0.17238132707E+04  0.00000000000E+00 0. -1.
         21   -1    0    0  501  502  0.00000000000E+00 -0.00000000000E+00 -0.79190064869E+02  0.79190064869E+02  0.00000000000E+00 0. -1.
         24    2    1    2    0    0 -0.37808165803E+01 -0.54305223382E+02  0.97165143928E+03  0.97645419649E+03  0.79955778632E+02 0.  0.
         23    2    1    2    0    0  0.13649597613E+03  0.71841217312E+02  0.61154465395E+03  0.63680679710E+03  0.87998415043E+02 0.  0.
        -13    1    3    3    0    0 -0.20275240038E+02 -0.13377264130E+02  0.77566040631E+02  0.81280546340E+02  0.00000000000E+00 0.  1.
         14    1    3    3    0    0  0.16494423457E+02 -0.40927959253E+02  0.89408539864E+03  0.89517365015E+03  0.00000000000E+00 0. -1.
        -11    1    4    4    0    0  0.68951530676E+02  0.77003641553E+02  0.44836182520E+03  0.46012194111E+03  0.00000000000E+00 0.  1.
         11    1    4    4    0    0  0.67544445459E+02 -0.51624242415E+01  0.16318282875E+03  0.17668485598E+03  0.00000000000E+00 0. -1.
         21    1    1    2  503  502 -0.68881808667E+02  0.18835355743E+02 -0.25591054936E+02  0.75857605314E+02  0.00000000000E+00 0. -1.
          1    1    1    2  501    0 -0.63833350887E+02 -0.36371349672E+02  0.87018167528E+02  0.11388473665E+03  0.00000000000E+00 0. -1.
<scales pt_clust_5="13000.00000" pt_clust_6="13000.00000" pt_clust_7="13000.00000" pt_clust_8="13000.00000" pt_clust_9="71.41060" pt_clust_10="108.21404"></scales>
<clustering>
<clus scale="   71.411">  2  9  1 -1</clus>
<clus scale="   79.956">  5  6 -1 -1</clus>
<clus scale="   87.998">  7  8 -1 -1</clus>
<clus scale="   96.249">  1  5  2 -1</clus>
<clus scale="  108.214">  2 10  1 -1</clus>
<clus scale="   71.411">  2  5  1 -1</clus>
</clustering>
</event>
<event>
10    4  0.3043429E-005  0.2067717E+03  0.7546771E-02  0.1180967E+00
         -3   -1    0    0    0  501 -0.00000000000E+00  0.00000000000E+00  0.13556709946E+03  0.13556709946E+03  0.00000000000E+00 0.  1.
         21   -1    0    0  503  502  0.00000000000E+00 -0.00000000000E+00 -0.53984745706E+03  0.53984745706E+03  0.00000000000E+00 0.  1.
         24    2    1    2    0    0 -0.24768714746E+02  0.17446534574E+02 -0.44661773785E+02  0.10007171705E+03  0.84272200138E+02 0.  0.
         23    2    1    2    0    0  0.92036087060E+02 -0.16124156195E+03 -0.28045923758E+03  0.34897248321E+03  0.93031862678E+02 0.  0.
        -11    1    3    3    0    0 -0.46596719175E+02 -0.94548478750E+01 -0.56222140179E+01  0.47877527888E+02  0.00000000000E+00 0.  1.
         12    1    3    3    0    0  0.21828004429E+02  0.26901382449E+02 -0.39039559767E+02  0.52194189158E+02  0.00000000000E+00 0. -1.
        -11    1    4    4    0    0 -0.16167815325E+02 -0.44931051557E+02 -0.50751837549E+02  0.69684622845E+02  0.00000000000E+00 0. -1.
         11    1    4    4    0    0  0.10820390238E+03 -0.11631051039E+03 -0.22970740003E+03  0.27928786036E+03  0.00000000000E+00 0.  1.
         21    1    1    2  503  501  0.10206885597E+02 -0.22366672045E+02  0.42542510036E+01  0.24950895446E+02  0.00000000000E+00 0. -1.
         -4    1    1    2    0  502 -0.77474257910E+02  0.16616169942E+03 -0.83413597234E+02  0.20141946082E+03  0.00000000000E+00 0.  1.
<scales pt_clust_5="13000.00000" pt_clust_6="13000.00000" pt_clust_7="13000.00000" pt_clust_8="13000.00000" pt_clust_9="24.58554" pt_clust_10="184.66084"></scales>
<clustering>
<clus scale="   24.586">  1  9  2 -1</clus>
<clus scale="   84.272">  5  6 -1 -1</clus>
<clus scale="   88.073">  1  5  2 -1</clus>
<clus scale="   93.032">  7  8 -1 -1</clus>
<clus scale="  184.661">  2 10  1 -1</clus>
<clus scale="  184.661">  2  5  1 -1</clus>
</clustering>
</event>
<event>
10    4  0.3043429E-005  0.1688314E+03  0.7546771E-02  0.1204703E+00
         21   -1    0    0  501  502  0.00000000000E+00  0.00000000000E+00  0.65423574939E+03  0.65423574939E+03  0.00000000000E+00 0.  1.
          2   -1    0    0  503    0 -0.00000000000E+00 -0.00000000000E+00 -0.37913353998E+03  0.37913353998E+03  0.00000000000E+00 0. -1.
         23    2    1    2    0    0  0.12569780461E+02 -0.24056217249E+02 -0.31832040480E+03  0.33251013431E+03  0.92186812146E+02 0.  0.
         24    2    1    2    0    0 -0.10750514744E+03 -0.10154107219E+03  0.23232353582E+03  0.28715250654E+03  0.81328904146E+02 0.  0.
        -11    1    4    4    0    0 -0.10788108191E+03 -0.10719469576E+03  0.23573752681E+03  0.28053736325E+03  0.00000000000E+00 0.  1.
         12    1    4    4    0    0  0.37593446749E+00  0.56536235736E+01 -0.34139909921E+01  0.66151432887E+01  0.00000000000E+00 0. -1.
        -11    1    3    3    0    0 -0.26380671556E+02 -0.38987649040E+02 -0.23086854010E+03  0.23561888595E+03  0.00000000000E+00 0.  1.
         11    1    3    3    0    0  0.38950452017E+02  0.14931431791E+02 -0.87451864700E+02  0.96891248351E+02  0.00000000000E+00 0. -1.
         21    1    1    2  503  502  0.10740033972E+03  0.97457302577E+02  0.35337168165E+03  0.38197421927E+03  0.00000000000E+00 0. -1.
          1    1    1    2  501    0 -0.12464972733E+02  0.28139986861E+02  0.77273967474E+01  0.31732429252E+02  0.00000000000E+00 0. -1.
<scales pt_clust_5="13000.00000" pt_clust_6="13000.00000" pt_clust_7="13000.00000" pt_clust_8="13000.00000" pt_clust_9="147.95156" pt_clust_10="30.77719"></scales>
<clustering>
<clus scale="   30.777">  1 10  2 -1</clus>
<clus scale="   81.329">  5  6 -1 -1</clus>
<clus scale="   92.187">  7  8 -1 -1</clus>
<clus scale="   96.003">  2  7  1 -1</clus>
<clus scale="  147.952">  1  9  2 -1</clus>
<clus scale="   30.777">  1  5  2 -1</clus>
</clustering>
</event>
<event>
10    4  0.3043429E-005  0.1926925E+03  0.7546771E-02  0.1174562E+00
          2   -1    0    0  503    0 -0.00000000000E+00  0.00000000000E+00  0.34177493367E+03  0.34177493367E+03  0.00000000000E+00 0. -1.
         21   -1    0    0  501  502  0.00000000000E+00 -0.00000000000E+00 -0.49600184393E+03  0.49600184393E+03  0.00000000000E+00 0. -1.
         23    2    1    2    0    0  0.10690784063E+03  0.14358233734E+02  0.21250623625E+03  0.24675924917E+03  0.63998291696E+02 0.  0.
         24    2    1    2    0    0 -0.11134964395E+03  0.17126102720E+03 -0.31122087401E+03  0.38074901503E+03  0.79889282062E+02 0.  0.
        -13    1    4    4    0    0 -0.27930522056E+02  0.65637547766E+02 -0.50700346736E+02  0.87515295224E+02  0.00000000000E+00 0.  1.
         14    1    4    4    0    0 -0.83419121892E+02  0.10562347943E+03 -0.26052052727E+03  0.29323371981E+03  0.00000000000E+00 0. -1.
        -11    1    3    3    0    0  0.24162884352E+02 -0.11362140624E+02  0.13963558904E+02  0.30131780515E+02  0.00000000000E+00 0.  1.
         11    1    3    3    0    0  0.82744956282E+02  0.25720374358E+02  0.19854267735E+03  0.21662746865E+03  0.00000000000E+00 0. -1.
         21    1    1    2  503  502  0.12580542280E+02 -0.19345847086E+02 -0.35855189381E+02  0.42639494006E+02  0.00000000000E+00 0. -1.
          1    1    1    2  501    0 -0.81387389659E+01 -0.16627341385E+03 -0.19657083129E+02  0.16762901939E+03  0.00000000000E+00 0. -1.
<scales pt_clust_5="13000.00000" pt_clust_6="13000.00000" pt_clust_7="13000.00000" pt_clust_8="13000.00000" pt_clust_9="23.07665" pt_clust_10="175.35143"></scales>
<clustering>
<clus scale="   23.077">  2  9  1 -1</clus>
<clus scale="   63.998">  7  8 -1 -1</clus>
<clus scale="   79.889">  5  6 -1 -1</clus>
<clus scale="  125.746">  1  7  2 -1</clus>
<clus scale="  175.351">  2 10  1 -1</clus>
<clus scale="   23.077">  2  5  1 -1</clus>
</clustering>
</event>
<event>
10    4  0.3043429E-005  0.9907019E+02  0.7546771E-02  0.1288087E+00
         21   -1    0    0  503  502  0.00000000000E+00  0.00000000000E+00  0.15125257526E+03  0.15125257526E+03  0.00000000000E+00 0. -1.
          2   -1    0    0  502    0 -0.00000000000E+00 -0.00000000000E+00 -0.11552102585E+04  0.11552102585E+04  0.00000000000E+00 0. -1.
         24    2    1    2    0    0 -0.31489837802E+02  0.32251510078E+02 -0.99313110834E+03  0.99728850960E+03  0.79013943342E+02 0.  0.
         23    2    1    2    0    0 -0.16244525534E+01 -0.63384882338E+01 -0.10763221221E+03  0.14074009402E+03  0.90444821198E+02 0.  0.
        -11    1    3    3    0    0 -0.42252452510E+01  0.39211327816E+02 -0.21116563039E+03  0.21481690898E+03  0.00000000000E+00 0.  1.
         12    1    3    3    0    0 -0.27264592551E+02 -0.69598177377E+01 -0.78196547796E+03  0.78247160063E+03  0.00000000000E+00 0. -1.
        -13    1    4    4    0    0  0.31873168501E+02  0.22111802963E+01 -0.10047901036E+03  0.10543633013E+03  0.00000000000E+00 0.  1.
         13    1    4    4    0    0 -0.33497621055E+02 -0.85496685300E+01 -0.71532018486E+01  0.35303763892E+02  0.00000000000E+00 0. -1.
         21    1    1    2  503  501  0.34131834712E+02  0.34792691458E+02  0.96057744400E+02  0.10771538320E+03  0.00000000000E+00 0. -1.
          1    1    1    2  501    0 -0.10175443568E+01 -0.60705713302E+02  0.74789294506E+00  0.60718846892E+02  0.00000000000E+00 0. -1.
<scales pt_clust_5="13000.00000" pt_clust_6="13000.00000" pt_clust_7="13000.00000" pt_clust_8="13000.00000" pt_clust_9="48.73924" pt_clust_10="43.97545"></scales>
<clustering>
<clus scale="   48.739">  1  9  2 -1</clus>
<clus scale="   43.975">  1 10  2 -1</clus>
<clus scale="   79.014">  5  6 -1 -1</clus>
<clus scale="   88.757">  2  5  1 -1</clus>
<clus scale="   90.445">  7  8 -1 -1</clus>
<clus scale="   48.739">  1  5  2 -1</clus>
</clustering>
</event>
<event>
10    4  0.3043429E-005  0.1553938E+03  0.7546771E-02  0.1217788E+00
         21   -1    0    0  501  502  0.00000000000E+00  0.00000000000E+00  0.18725750552E+03  0.18725750552E+03  0.00000000000E+00 0.  1.
         -1   -1    0    0    0  501 -0.00000000000E+00 -0.00000000000E+00 -0.49969512431E+03  0.49969512431E+03  0.00000000000E+00 0.  1.
         23    2    1    2    0    0 -0.35731427679E+01  0.16320228548E+02 -0.71200298248E+02  0.11750070803E+03  0.91966389011E+02 0.  0.
         24    2    1    2    0    0  0.43493471354E+02 -0.12336151850E+03 -0.17753988976E+03  0.23418861208E+03  0.78829862839E+02 0.  0.
        -11    1    4    4    0    0  0.49202056177E+02 -0.45222013394E+02 -0.46154572960E+02  0.81216484981E+02  0.00000000000E+00 0.  1.
         12    1    4    4    0    0 -0.57085848235E+01 -0.78139505102E+02 -0.13138531680E+03  0.15297212710E+03  0.00000000000E+00 0. -1.
        -13    1    3    3    0    0  0.12746696445E+02 -0.26383911581E+02 -0.65085530265E+02  0.71377274467E+02  0.00000000000E+00 0.  1.
         13    1    3    3    0    0 -0.16319839212E+02  0.42704140129E+02 -0.61147679831E+01  0.46123433562E+02  0.00000000000E+00 0. -1.
         21    1    1    2  503  502  0.34117122382E+02 -0.10140482566E+02  0.10851166665E+03  0.11419977770E+03  0.00000000000E+00 0.  1.
         -2    1    1    2    0  503 -0.74037450968E+02  0.11718177251E+03 -0.17220909743E+03  0.22106353203E+03  0.00000000000E+00 0.  1.
<scales pt_clust_5="13000.00000" pt_clust_6="13000.00000" pt_clust_7="13000.00000" pt_clust_8="13000.00000" pt_clust_9="35.59224" pt_clust_10="133.91449"></scales>
<clustering>
<clus scale="   35.592">  1  9  2 -1</clus>
<clus scale="   78.830">  5  6 -1 -1</clus>
<clus scale="   91.966">  7  8 -1 -1</clus>
<clus scale="   93.164">  2  7  1 -1</clus>
<clus scale="  133.914">  1 10  2 -1</clus>
<clus scale="   35.592">  1  5  2 -1</clus>
</clustering>
</event>
<event>
10    4  0.3043429E-005  0.2850938E+03  0.7546771E-02  0.1139818E+00
         21   -1    0    0  503  502  0.00000000000E+00  0.00000000000E+00  0.39499438474E+03  0.39499438474E+03  0.00000000000E+00 0. -1.
          2   -1    0    0  502    0 -0.00000000000E+00 -0.00000000000E+00 -0.11327521045E+04  0.11327521045E+04  0.00000000000E+00 0. -1.
         24    2    1    2    0    0 -0.30796590853E+02 -0.12569812244E+02 -0.52377020159E+02  0.10229211078E+03  0.81325847663E+02 0.  0.
         23    2    1    2    0    0 -0.16587821871E+03 -0.17497698576E+03 -0.85733288215E+03  0.89528033701E+03  0.91513288845E+02 0.  0.
        -11    1    3    3    0    0  0.23019143834E+02  0.14894608237E+02 -0.17571388260E+02  0.32565073665E+02  0.00000000000E+00 0.  1.
         12    1    3    3    0    0 -0.53815734688E+02 -0.27464420481E+02 -0.34805631899E+02  0.69727037111E+02  0.00000000000E+00 0. -1.
        -11    1    4    4    0    0 -0.82912129254E+02 -0.10105858633E+03 -0.30419851388E+03  0.33109514478E+03  0.00000000000E+00 0.  1.
         11    1    4    4    0    0 -0.82966089454E+02 -0.73918399427E+02 -0.55313436826E+03  0.56418519222E+03  0.00000000000E+00 0. -1.
         21    1    1    2  503  501  0.47213187609E+02 -0.63376433858E+02  0.22038068926E+03  0.23412241595E+03  0.00000000000E+00 0. -1.
          1    1    1    2  501    0  0.14946162195E+03  0.25092323186E+03 -0.48428506762E+02  0.29605162555E+03  0.00000000000E+00 0. -1.
<scales pt_clust_5="13000.00000" pt_clust_6="13000.00000" pt_clust_7="13000.00000" pt_clust_8="13000.00000" pt_clust_9="79.02947" pt_clust_10="270.00700"></scales>
<clustering>
<clus scale="   79.029">  1  9  2 -1</clus>
<clus scale="   81.326">  5  6 -1 -1</clus>
<clus scale="   87.538">  2  5  1 -1</clus>
<clus scale="   91.513">  7  8 -1 -1</clus>
<clus scale="  270.007">  1 10  2 -1</clus>
<clus scale="   79.029">  1  5  2 -1</clus>
</clustering>
</event>
<event>
10    4  0.3043429E-005  0.4212690E+03  0.7546771E-02  0.1036687E+00
         -1   -1    0    0    0  501 -0.00000000000E+00  0.00000000000E+00  0.49424205477E+03  0.49424205477E+03  0.00000000000E+00 0.  1.
         21   -1    0    0  503  502  0.00000000000E+00 -0.00000000000E+00 -0.63155125294E+03  0.63155125294E+03  0.00000000000E+00 0.  1.
         24    2    1    2    0    0 -0.36491089096E+03  0.98605195361E+02 -0.75140504325E+02  0.39562414218E+03  0.89383575632E+02 0.  0.
         23    2    1    2    0    0  0.43135871471E+03 -0.12196434028E+03 -0.51662152333E+02  0.45962726167E+03  0.87421968785E+02 0.  0.
        -13    1    3    3    0    0 -0.70288912871E+02  0.40179524841E+02  0.14333330215E+02  0.82221468267E+02  0.00000000000E+00 0.  1.
         14    1    3    3    0    0 -0.29462197809E+03  0.58425670520E+02 -0.89473834540E+02  0.31340267392E+03  0.00000000000E+00 0. -1.
        -11    1    4    4    0    0  0.29178707866E+03 -0.11760892103E+03 -0.13591105897E+02  0.31489089498E+03  0.00000000000E+00 0.  1.
         11    1    4    4    0    0  0.13957163605E+03 -0.43554192568E+01 -0.38071046436E+02  0.14473636669E+03  0.00000000000E+00 0. -1.
         21    1    1    2  503  501 -0.80002858280E+02 -0.20579017620E+02 -0.12348304236E+03  0.14856653408E+03  0.00000000000E+00 0.  1.
         -2    1    1    2    0  502  0.13555034532E+02  0.43938162543E+02  0.11297650084E+03  0.12197536978E+03  0.00000000000E+00 0.  1.
<scales pt_clust_5="13000.00000" pt_clust_6="13000.00000" pt_clust_7="13000.00000" pt_clust_8="13000.00000" pt_clust_9="77.85026" pt_clust_10="45.98155"></scales>
<clustering>
<clus scale="   45.982">  2 10  1 -1</clus>
<clus scale="   77.850">  2  9  1 -1</clus>
<clus scale="   87.422">  7  8 -1 -1</clus>
<clus scale="   89.384">  5  6 -1 -1</clus>
<clus scale="  420.857">  2  7  1 -1</clus>
<clus scale="   45.982">  2  5  1 -1</clus>
</clustering>
</event>
<event>
10    4  0.3043429E-005  0.1538524E+03  0.7546771E-02  0.1224820E+00
         21   -1    0    0  501  502  0.00000000000E+00  0.00000000000E+00  0.98172760511E+02  0.98172760511E+02  0.00000000000E+00 0.  1.
          2   -1    0    0  503    0 -0.00000000000E+00 -0.00000000000E+00 -0.67049028868E+03  0.67049028868E+03  0.00000000000E+00 0. -1.
         24    2    1    2    0    0  0.20365547070E+02 -0.35303643987E+01 -0.30592198838E+03  0.31694437020E+03  0.80238717872E+02 0.  0.
         23    2    1    2    0    0  0.87518706948E+02 -0.82835817162E+02 -0.17684897241E+03  0.23368667682E+03  0.93875487799E+02 0.  0.
        -13    1    3    3    0    0  0.44618906741E+02  0.16248188695E+02 -0.22953015125E+03  0.23439057321E+03  0.00000000000E+00 0.  1.
         14    1    3    3    0    0 -0.24253359672E+02 -0.19778553094E+02 -0.76391837130E+02  0.82553796993E+02  0.00000000000E+00 0. -1.
        -13    1    4    4    0    0  0.88648016461E+01  0.18035259778E+02 -0.48426201131E+02  0.52430451643E+02  0.00000000000E+00 0. -1.
         13    1    4    4    0    0  0.78653905302E+02 -0.10087107694E+03 -0.12842277128E+03  0.18125622517E+03  0.00000000000E+00 0.  1.
         21    1    1    2  503  502 -0.11173066690E+03  0.35622179398E+02 -0.26156326138E+01  0.11730099371E+03  0.00000000000E+00 0.  1.
          1    1    1    2  501    0  0.38464128806E+01  0.50744002163E+02 -0.86930934769E+02  0.10073100847E+03  0.00000000000E+00 0. -1.
<scales pt_clust_5="13000.00000" pt_clust_6="13000.00000" pt_clust_7="13000.00000" pt_clust_8="13000.00000" pt_clust_9="121.89317" pt_clust_10="50.88960"></scales>
<clustering>
<clus scale="   50.890">  1 10  2 -1</clus>
<clus scale="   80.239">  5  6 -1 -1</clus>
<clus scale="   82.842">  2  5  1 -1</clus>
<clus scale="   93.875">  7  8 -1 -1</clus>
<clus scale="  121.893">  1  9  2 -1</clus>
<clus scale="   50.890">  1  5  2 -1</clus>
</clustering>
</event>
<event>
10    4  0.3043429E-005  0.1672848E+03  0.7546771E-02  0.1192706E+00
          2   -1    0    0  502    0 -0.00000000000E+00  0.00000000000E+00  0.37062615596E+03  0.37062615596E+03  0.00000000000E+00 0. -1.
         21   -1    0    0  503  502  0.00000000000E+00 -0.00000000000E+00 -0.42268245903E+03  0.42268245903E+03  0.00000000000E+00 0. -1.
         23    2    1    2    0    0  0.88850730923E+02 -0.36537930175E+02 -0.23607758096E+03  0.27100199348E+03  0.92086825963E+02 0.  0.
         24    2    1    2    0    0 -0.10586147431E+03 -0.11979016564E+03 -0.31476662363E+02  0.18193345828E+03  0.80948548115E+02 0.  0.
        -11    1    4    4    0    0 -0.10595006273E+02 -0.25560546815E+02  0.24268603011E+02  0.36804358485E+02  0.00000000000E+00 0.  1.
         12    1    4    4    0    0 -0.95266468042E+02 -0.94229618824E+02 -0.55745265374E+02  0.14512909980E+03  0.00000000000E+00 0. -1.
        -11    1    3    3    0    0  0.21289482934E+02 -0.20474710723E+00  0.15034539050E+01  0.21343485624E+02  0.00000000000E+00 0.  1.
         11    1    3    3    0    0  0.67561247989E+02 -0.36333183068E+02 -0.23758103486E+03  0.24965850786E+03  0.00000000000E+00 0. -1.
         21    1    1    2  503  501 -0.27436502645E+01  0.25637045569E+02 -0.42945868582E+02  0.50091250240E+02  0.00000000000E+00 0.  1.
          1    1    1    2  501    0  0.19754393657E+02  0.13069105024E+03  0.25844380882E+03  0.29028191298E+03  0.00000000000E+00 0. -1.
<scales pt_clust_5="13000.00000" pt_clust_6="13000.00000" pt_clust_7="13000.00000" pt_clust_8="13000.00000" pt_clust_9="25.78344" pt_clust_10="146.39520"></scales>
<clustering>
<clus scale="   25.783">  2  9  1 -1</clus>
<clus scale="   80.949">  5  6 -1 -1</clus>
<clus scale="   92.087">  7  8 -1 -1</clus>
<clus scale="  128.141">  1  7  2 -1</clus>
<clus scale="  146.395">  2 10  1 -1</clus>
<clus scale="   25.783">  2  5  1 -1</clus>
</clustering>
</event>
<event>
10    4  0.3043429E-005  0.1361775E+03  0.7546771E-02  0.1233999E+00
         21   -1    0    0  503  502  0.00000000000E+00  0.00000000000E+00  0.18156936614E+03  0.18156936614E+03  0.00000000000E+00 0.  1.
         -1   -1    0    0    0  501 -0.00000000000E+00 -0.00000000000E+00 -0.31233843604E+03  0.31233843604E+03  0.00000000000E+00 0.  1.
         24    2    1    2    0    0  0.42801887455E+02 -0.11339888373E+03 -0.11776608540E+03  0.18513074489E+03  0.75585934090E+02 0.  0.
         23    2    1    2    0    0  0.70572176787E-01  0.30081068322E+02  0.30421669556E+02  0.10076525046E+03  0.91232023275E+02 0.  0.
        -13    1    3    3    0    0  0.26240052019E+02 -0.11238564323E+03 -0.70978627601E+02  0.13548814971E+03  0.00000000000E+00 0.  1.
         14    1    3    3    0    0  0.16561835436E+02 -0.10132404955E+01 -0.46787457794E+02  0.49642595179E+02  0.00000000000E+00 0. -1.
        -13    1    4    4    0    0  0.24241198443E+02 -0.12892263436E+02  0.41945005703E+02  0.50132122056E+02  0.00000000000E+00 0.  1.
         13    1    4    4    0    0 -0.24170626266E+02  0.42973331758E+02 -0.11523336147E+02  0.50633128408E+02  0.00000000000E+00 0. -1.
         21    1    1    2  503  501  0.35680616038E+02  0.11107350680E+03 -0.63896742675E+01  0.11683859898E+03  0.00000000000E+00 0.  1.
         -2    1    1    2    0  502 -0.78553075670E+02 -0.27755691394E+02 -0.37034979792E+02  0.91173207852E+02  0.00000000000E+00 0.  1.
<scales pt_clust_5="13000.00000" pt_clust_6="13000.00000" pt_clust_7="13000.00000" pt_clust_8="13000.00000" pt_clust_9="113.27433" pt_clust_10="83.31249"></scales>
<clustering>
<clus scale="   75.586">  5  6 -1 -1</clus>
<clus scale="   83.312">  1 10  2 -1</clus>
<clus scale="   91.232">  7  8 -1 -1</clus>
<clus scale="   98.821">  1  7  2 -1</clus>
<clus scale="  113.274">  1  9  2 -1</clus>
<clus scale="   83.312">  1  5  2 -1</clus>
</clustering>
</event>
<event>
10    4  0.3043429E-005  0.2558734E+03  0.7546771E-02  0.1118444E+00
         21   -1    0    0  503  502  0.00000000000E+00  0.00000000000E+00  0.34512395580E+03  0.34512395580E+03  0.00000000000E+00 0. -1.
          2   -1    0    0  502    0 -0.00000000000E+00 -0.00000000000E+00 -0.97250183458E+03  0.97250183458E+03  0.00000000000E+00 0. -1.
         24    2    1    2    0    0 -0.10061702685E+01 -0.20604839103E+03 -0.18626462616E+03  0.28916611001E+03  0.80408807949E+02 0.  0.
         23    2    1    2    0    0 -0.14643643597E+03 -0.20038496587E+03 -0.34497978172E+02  0.26394113162E+03  0.82927957499E+02 0.  0.
        -13    1    3    3    0    0 -0.35280994288E+02 -0.68640477828E+02 -0.46016607003E+02  0.89854281336E+02  0.00000000000E+00 0.  1.
         14    1    3    3    0    0  0.34274824020E+02 -0.13740791321E+03 -0.14024801916E+03  0.19931182868E+03  0.00000000000E+00 0. -1.
        -13    1    4    4    0    0 -0.53870720377E+01 -0.67064499308E+02 -0.14523896881E+02  0.68830307229E+02  0.00000000000E+00 0.  1.
         13    1    4    4    0    0 -0.14104936393E+03 -0.13332046656E+03 -0.19974081292E+02  0.19511082439E+03  0.00000000000E+00 0. -1.
         21    1    1    2  503  501  0.84038865757E+00  0.76455747403E+02  0.11015999816E+03  0.13409479020E+03  0.00000000000E+00 0. -1.
          1    1    1    2  501    0  0.14660221758E+03  0.32997760950E+03 -0.51677527261E+03  0.63042375855E+03  0.00000000000E+00 0. -1.
<scales pt_clust_5="13000.00000" pt_clust_6="13000.00000" pt_clust_7="13000.00000" pt_clust_8="13000.00000" pt_clust_9="76.46037" pt_clust_10="242.06242"></scales>
<clustering>
<clus scale="   76.460">  1  9  2 -1</clus>
<clus scale="   80.409">  5  6 -1 -1</clus>
<clus scale="   82.928">  7  8 -1 -1</clus>
<clus scale="  204.851">  2  5  1 -1</clus>
<clus scale="  242.062">  1 10  2 -1</clus>
<clus scale="   76.460">  1  5  2 -1</clus>
</clustering>
</event>
<event>
10    4  0.3043429E-005  0.1799326E+03  0.7546771E-02  0.1181013E+00
          2   -1    0    0  502    0 -0.00000000000E+00  0.00000000000E+00  0.30151668236E+03  0.30151668236E+03  0.00000000000E+00 0. -1.
         21   -1    0    0  503  502  0.00000000000E+00 -0.00000000000E+00 -0.35541928127E+03  0.35541928127E+03  0.00000000000E+00 0.  1.
         23    2    1    2    0    0  0.95053937315E+02  0.17086377532E+02  0.87706256799E+02  0.15841742576E+03  0.89869338518E+02 0.  0.
         24    2    1    2    0    0 -0.15454069106E+03  0.15978519314E+03 -0.10673442751E+03  0.25921585787E+03  0.79915516755E+02 0.  0.
        -11    1    4    4    0    0 -0.12349404162E+03  0.13203760447E+03 -0.11823328430E+03  0.21601809375E+03  0.00000000000E+00 0.  1.
         12    1    4    4    0    0 -0.31046649435E+02  0.27747588673E+02  0.11498856787E+02  0.43197764129E+02  0.00000000000E+00 0. -1.
        -11    1    3    3    0    0  0.88556281407E+02 -0.19938148151E+02  0.44329637446E+02  0.10101911445E+03  0.00000000000E+00 0.  1.
         11    1    3    3    0    0  0.64976559081E+01  0.37024525683E+02  0.43376619353E+02  0.57398311307E+02  0.00000000000E+00 0. -1.
         21    1    1    2  503  501  0.23832762874E+02 -0.55420122448E+02 -0.84092525285E+02  0.10349368757E+03  0.00000000000E+00 0. -1.
          1    1    1    2  501    0  0.35653990869E+02 -0.12145144822E+03  0.49218097090E+02  0.13580899242E+03  0.00000000000E+00 0. -1.
<scales pt_clust_5="13000.00000" pt_clust_6="13000.00000" pt_clust_7="13000.00000" pt_clust_8="13000.00000" pt_clust_9="60.32736" pt_clust_10="161.21194"></scales>
<clustering>
<clus scale="   60.327">  2  9  1 -1</clus>
<clus scale="   79.916">  5  6 -1 -1</clus>
<clus scale="   89.869">  7  8 -1 -1</clus>
<clus scale="  133.516">  1  7  2 -1</clus>
<clus scale="  161.212">  2 10  1 -1</clus>
<clus scale="   60.327">  2  5  1 -1</clus>
</clustering>
</event>
<event>
10    4  0.3043429E-005  0.3209411E+03  0.7546771E-02  0.1112841E+00
         21   -1    0    0  501  502  0.00000000000E+00  0.00000000000E+00  0.10436172599E+03  0.10436172599E+03  0.00000000000E+00 0. -1.
          2   -1    0    0  503    0 -0.00000000000E+00 -0.00000000000E+00 -0.16211056658E+04  0.16211056658E+04  0.00000000000E+00 0. -1.
         23    2    1    2    0    0 -0.33470722888E+02 -0.77508802494E+02 -0.19206267313E+03  0.22853292568E+03  0.90616355912E+02 0.  0.
         24    2    1    2    0    0  0.31022164374E+03 -0.66999256813E+02 -0.82952763898E+03  0.89171929028E+03  0.79503585823E+02 0.  0.
        -11    1    4    4    0    0  0.13944617727E+03  0.26129050886E+01 -0.29586929310E+03  0.32709433231E+03  0.00000000000E+00 0.  1.
         12    1    4    4    0    0  0.17077546647E+03 -0.69612161901E+02 -0.53365834588E+03  0.56462495797E+03  0.00000000000E+00 0. -1.
        -11    1    3    3    0    0 -0.48875922884E+02 -0.55192670902E+02 -0.63989248115E+02  0.97620236803E+02  0.00000000000E+00 0. -1.
         11    1    3    3    0    0  0.15405199996E+02 -0.22316131591E+02 -0.12807342501E+03  0.13091268888E+03  0.00000000000E+00 0.  1.
         21    1    1    2  503  502  0.10493691196E+02  0.32033847136E+02 -0.21555407171E+02  0.40011504540E+02  0.00000000000E+00 0.  1.
          1    1    1    2  501    0 -0.28724461205E+03  0.11247421217E+03 -0.47359822053E+03  0.56520367130E+03  0.00000000000E+00 0. -1.
<scales pt_clust_5="13000.00000" pt_clust_6="13000.00000" pt_clust_7="13000.00000" pt_clust_8="13000.00000" pt_clust_9="33.70883" pt_clust_10="310.93788"></scales>
<clustering>
<clus scale="   33.709">  1  9  2 -1</clus>
<clus scale="   79.504">  5  6 -1 -1</clus>
<clus scale="   90.616">  7  8 -1 -1</clus>
<clus scale="  119.560">  2  7  1 -1</clus>
<clus scale="  310.938">  1 10  2 -1</clus>
<clus scale="   33.709">  1  5  2 -1</clus>
</clustering>
</event>
<event>
10    4  0.3043429E-005  0.2429365E+03  0.7546771E-02  0.1118764E+00
          2   -1    0    0  503    0 -0.00000000000E+00  0.00000000000E+00  0.12451062708E+04  0.12451062708E+04  0.00000000000E+00 0. -1.
         21   -1    0    0  501  502  0.00000000000E+00 -0.00000000000E+00 -0.10764649026E+03  0.10764649026E+03  0.00000000000E+00 0. -1.
         24    2    1    2    0    0 -0.68536241867E+02 -0.21592656821E+03  0.54688316541E+03  0.59745617610E+03  0.80939399799E+02 0.  0.
         23    2    1    2    0    0  0.76735744967E+02  0.20446573681E+03  0.33566185904E+03  0.41177134028E+03  0.95875653722E+02 0.  0.
        -13    1    3    3    0    0 -0.64639731928E+02 -0.17039638292E+03  0.34187418027E+03  0.38741602624E+03  0.00000000000E+00 0.  1.
         14    1    3    3    0    0 -0.38965099392E+01 -0.45530185296E+02  0.20500898515E+03  0.21004014986E+03  0.00000000000E+00 0. -1.
        -13    1    4    4    0    0 -0.20243527535E+02  0.17595103357E+02  0.52067631318E+02  0.58569841218E+02  0.00000000000E+00 0.  1.
         13    1    4    4    0    0  0.96979272502E+02  0.18687063346E+03  0.28359422772E+03  0.35320149906E+03  0.00000000000E+00 0. -1.
         21    1    1    2  503  502  0.77627656569E+02  0.68970233373E+02  0.52702811175E+02  0.11644969928E+03  0.00000000000E+00 0. -1.
          1    1    1    2  501    0 -0.85827159668E+02 -0.57509401971E+02  0.20221194487E+03  0.22707554536E+03  0.00000000000E+00 0. -1.
<scales pt_clust_5="13000.00000" pt_clust_6="13000.00000" pt_clust_7="13000.00000" pt_clust_8="13000.00000" pt_clust_9="69.73410" pt_clust_10="103.31333"></scales>
<clustering>
<clus scale="   80.939">  5  6 -1 -1</clus>
<clus scale="   95.876">  7  8 -1 -1</clus>
<clus scale="  103.313">  2 10  1 -1</clus>
<clus scale="   69.734">  2  9  1 -1</clus>
<clus scale="  237.439">  1  5  2 -1</clus>
<clus scale="  103.313">  2  5  1 -1</clus>
</clustering>
</event>
<event>
10    4  0.3043429E-005  0.1130805E+03  0.7546771E-02  0.1270734E+00
         21   -1    0    0  501  502  0.00000000000E+00  0.00000000000E+00  0.25446724718E+02  0.25446724718E+02  0.00000000000E+00 0.  1.
         -1   -1    0    0    0  501 -0.00000000000E+00 -0.00000000000E+00 -0.14257217867E+04  0.14257217867E+04  0.00000000000E+00 0.  1.
         24    2    1    2    0    0  0.64686070137E+00 -0.43404166248E+01 -0.52931342030E+03  0.53525205941E+03  0.79390254740E+02 0.  0.
         23    2    1    2    0    0 -0.93130139316E+02  0.36504014521E+02 -0.53445148960E+03  0.55482771095E+03  0.11040664917E+03 0.  0.
        -11    1    3    3    0    0  0.23670222715E+02  0.28457705842E+02 -0.18926161102E+03  0.19284729158E+03  0.00000000000E+00 0.  1.
         12    1    3    3    0    0 -0.23023362014E+02 -0.32798122467E+02 -0.34005180928E+03  0.34240476783E+03  0.00000000000E+00 0. -1.
        -13    1    4    4    0    0 -0.66015380205E+02 -0.30519921482E+02 -0.33144059603E+03  0.33932633957E+03  0.00000000000E+00 0. -1.
         13    1    4    4    0    0 -0.27114759111E+02  0.67023936003E+02 -0.20301089357E+03  0.21550137138E+03  0.00000000000E+00 0.  1.
         21    1    1    2  503  502  0.29738033187E+02 -0.26770891585E+02 -0.35277750823E+02  0.53343705882E+02  0.00000000000E+00 0.  1.
         -2    1    1    2    0  503  0.62745245428E+02 -0.53927063116E+01 -0.30123240129E+03  0.30774503520E+03  0.00000000000E+00 0.  1.
<scales pt_clust_5="13000.00000" pt_clust_6="13000.00000" pt_clust_7="13000.00000" pt_clust_8="13000.00000" pt_clust_9="40.01289" pt_clust_10="69.47450"></scales>
<clustering>
<clus scale="   40.013">  1  9  2 -1</clus>
<clus scale="   69.475">  1 10  2 -1</clus>
<clus scale="   79.390">  5  6 -1 -1</clus>
<clus scale="   83.069">  2  5  1 -1</clus>
<clus scale="  110.407">  7  8 -1 -1</clus>
<clus scale="   40.013">  1  5  2 -1</clus>
</clustering>
</event>
<event>
10    4  0.3043429E-005  0.1804008E+03  0.7546771E-02  0.1191356E+00
         21   -1    0    0  501  502  0.00000000000E+00  0.00000000000E+00  0.21095737318E+03  0.21095737318E+03  0.00000000000E+00 0. -1.
          2   -1    0    0  503    0 -0.00000000000E+00 -0.00000000000E+00 -0.10162663620E+04  0.10162663620E+04  0.00000000000E+00 0. -1.
         23    2    1    2    0    0 -0.27045229427E+02 -0.38792941065E+02  0.68983241430E+02  0.12495548626E+03  0.92837757610E+02 0.  0.
         24    2    1    2    0    0  0.43967756146E+02 -0.14004870514E+03 -0.50066706750E+02  0.17492932056E+03  0.80912228220E+02 0.  0.
        -13    1    4    4    0    0  0.40047294170E+02 -0.38644104874E+02 -0.47897740410E+02  0.73425786671E+02  0.00000000000E+00 0.  1.
         14    1    4    4    0    0  0.39204619756E+01 -0.10140460027E+03 -0.21689663405E+01  0.10150353389E+03  0.00000000000E+00 0. -1.
        -13    1    3    3    0    0 -0.25996187334E+02 -0.17209345898E+02  0.89734528661E+02  0.94996047160E+02  0.00000000000E+00 0. -1.
         13    1    3    3    0    0 -0.10490420931E+01 -0.21583595167E+02 -0.20751287231E+02  0.29959439103E+02  0.00000000000E+00 0.  1.
         21    1    1    2  503  502  0.27812791952E+02 -0.16765284497E+02  0.33380581321E+02  0.46571336354E+02  0.00000000000E+00 0. -1.
          1    1    1    2  501    0 -0.44735318671E+02  0.19560693070E+03 -0.85760610483E+03  0.88076759200E+03  0.00000000000E+00 0. -1.
<scales pt_clust_5="13000.00000" pt_clust_6="13000.00000" pt_clust_7="13000.00000" pt_clust_8="13000.00000" pt_clust_9="32.47501" pt_clust_10="161.23800"></scales>
<clustering>
<clus scale="   32.475">  1  9  2 -1</clus>
<clus scale="   80.912">  5  6 -1 -1</clus>
<clus scale="   92.838">  7  8 -1 -1</clus>
<clus scale="  105.256">  2  7  1 -1</clus>
<clus scale="  161.238">  1 10  2 -1</clus>
<clus scale="   32.475">  1  5  2 -1</clus>
</clustering>
</event>
<event>
10    4  0.3043429E-005  0.1806070E+03  0.7546771E-02  0.1168531E+00
         -1   -1    0    0    0  501 -0.00000000000E+00  0.00000000000E+00  0.51806210535E+03  0.51806210535E+03  0.00000000000E+00 0.  1.
         21   -1    0    0  503  502  0.00000000000E+00 -0.00000000000E+00 -0.84412206414E+03  0.84412206414E+03  0.00000000000E+00 0.  1.
         23    2    1    2    0    0 -0.88635480619E+02  0.12028582123E+03  0.39417834023E+03  0.43124610536E+03  0.90948954204E+02 0.  0.
         24    2    1    2    0    0  0.36651674682E+02 -0.24373595470E+03 -0.93154811879E+02  0.27530019953E+03  0.79761018154E+02 0.  0.
        -11    1    4    4    0    0  0.44445162399E+02 -0.24488929007E+03 -0.82825612689E+02  0.26230939551E+03  0.00000000000E+00 0.  1.
         12    1    4    4    0    0 -0.77934877172E+01  0.11533353782E+01 -0.10329199190E+02  0.12990804024E+02  0.00000000000E+00 0. -1.
        -13    1    3    3    0    0 -0.45047886556E+02  0.12082284358E+03  0.32290017342E+03  0.34769525969E+03  0.00000000000E+00 0.  1.
         13    1    3    3    0    0 -0.43587594063E+02 -0.53702235449E+00  0.71278166812E+02  0.83550845676E+02  0.00000000000E+00 0. -1.
         21    1    1    2  503  501  0.49583809234E+02  0.68531758933E+00 -0.33712238498E+03  0.34074994681E+03  0.00000000000E+00 0.  1.
         -2    1    1    2    0  502  0.23999967032E+01  0.12276481588E+03 -0.28996110216E+03  0.31488791779E+03  0.00000000000E+00 0.  1.
<scales pt_clust_5="13000.00000" pt_clust_6="13000.00000" pt_clust_7="13000.00000" pt_clust_8="13000.00000" pt_clust_9="49.58855" pt_clust_10="127.28475"></scales>
<clustering>
<clus scale="   49.589">  2  9  1 -1</clus>
<clus scale="   79.761">  5  6 -1 -1</clus>
<clus scale="   90.949">  7  8 -1 -1</clus>
<clus scale="  127.285">  2 10  1 -1</clus>
<clus scale="  175.240">  2  5  1 -1</clus>
<clus scale="   49.589">  2  5  1 -1</clus>
</clustering>
</event>
<event>
10    4  0.3043429E-005  0.1048278E+03  0.7546771E-02  0.1275661E+00
          2   -1    0    0  503    0 -0.00000000000E+00  0.00000000000E+00  0.36386490897E+03  0.36386490897E+03  0.00000000000E+00 0. -1.
         21   -1    0    0  501  502  0.00000000000E+00 -0.00000000000E+00 -0.14105058050E+03  0.14105058050E+03  0.00000000000E+00 0. -1.
         23    2    1    2    0    0  0.49300654361E+02  0.53660357661E+02  0.13737417175E+03  0.18074781842E+03  0.92131006147E+02 0.  0.
         24    2    1    2    0    0 -0.44817013526E+02  0.17317279952E+02  0.87348565897E+02  0.12818940283E+03  0.80587208341E+02 0.  0.
        -13    1    4    4    0    0  0.10075376354E+02  0.20178163553E+02  0.65090086299E+02  0.68886797193E+02  0.00000000000E+00 0.  1.
         14    1    4    4    0    0 -0.54892389880E+02 -0.28608836012E+01  0.22258479598E+02  0.59302605640E+02  0.00000000000E+00 0. -1.
        -13    1    3    3    0    0 -0.14113152473E+02  0.49591867710E+02  0.43889425832E+02  0.67711270225E+02  0.00000000000E+00 0. -1.
         13    1    3    3    0    0  0.63413806834E+02  0.40684899518E+01  0.93484745921E+02  0.11303654819E+03  0.00000000000E+00 0.  1.
         21    1    1    2  503  502 -0.32820311149E+02 -0.62684676613E+02 -0.83359772460E+02  0.10934072055E+03  0.00000000000E+00 0. -1.
          1    1    1    2  501    0  0.28336670314E+02 -0.82929610004E+01  0.81451363276E+02  0.86637547669E+02  0.00000000000E+00 0. -1.
<scales pt_clust_5="13000.00000" pt_clust_6="13000.00000" pt_clust_7="13000.00000" pt_clust_8="13000.00000" pt_clust_9="69.69802" pt_clust_10="29.52526"></scales>
<clustering>
<clus scale="   29.525">  2 10  1 -1</clus>
<clus scale="   69.698">  2  9  1 -1</clus>
<clus scale="   80.587">  5  6 -1 -1</clus>
<clus scale="   92.131">  7  8 -1 -1</clus>
<clus scale="   94.842">  2  5  1 -1</clus>
<clus scale="   29.525">  2  5  1 -1</clus>
</clustering>
</event>
<event>
10    4  0.3043429E-005  0.1097059E+03  0.7546771E-02  0.1265091E+00
          2   -1    0    0  503    0 -0.00000000000E+00  0.00000000000E+00  0.44355680046E+03  0.44355680046E+03  0.00000000000E+00 0. -1.
         21   -1    0    0  501  502  0.00000000000E+00 -0.00000000000E+00 -0.63551785908E+02  0.63551785908E+02  0.00000000000E+00 0.  1.
         23    2    1    2    0    0 -0.67370479945E+02  0.85820209261E+01  0.21082010237E+03  0.23950346158E+03  0.91128260678E+02 0.  0.
         24    2    1    2    0    0  0.32229129087E+02 -0.51504927173E+02  0.33426642524E+02  0.10667793244E+03  0.81063965816E+02 0.  0.
        -11    1    4    4    0    0  0.40469702268E+02 -0.64191474148E+02  0.69720763088E+01  0.76203359526E+02  0.00000000000E+00 0.  1.
         12    1    4    4    0    0 -0.82405731806E+01  0.12686546976E+02  0.26454566215E+02  0.30474572911E+02  0.00000000000E+00 0. -1.
        -11    1    3    3    0    0  0.38347894037E+01  0.36841002182E+02  0.69676572174E+02  0.78910010528E+02  0.00000000000E+00 0.  1.
         11    1    3    3    0    0 -0.71205269349E+02 -0.28258981256E+02  0.14114353019E+03  0.16059345105E+03  0.00000000000E+00 0. -1.
         21    1    1    2  503  502  0.21957803950E+02  0.14797976877E+02  0.55355197128E+01  0.27051196876E+02  0.00000000000E+00 0. -1.
          1    1    1    2  501    0  0.13183546908E+02  0.28124929369E+02  0.13022274995E+03  0.13387599548E+03  0.00000000000E+00 0. -1.
<scales pt_clust_5="13000.00000" pt_clust_6="13000.00000" pt_clust_7="13000.00000" pt_clust_8="13000.00000" pt_clust_9="26.47877" pt_clust_10="31.85105"></scales>
<clustering>
<clus scale="   26.479">  2  9  1 -1</clus>
<clus scale="   31.851">  2 10  1 -1</clus>
<clus scale="   81.064">  5  6 -1 -1</clus>
<clus scale="   91.128">  7  8 -1 -1</clus>
<clus scale="  101.501">  2  5  1 -1</clus>
<clus scale="   26.479">  2  5  1 -1</clus>
</clustering>
</event>
<event>
10    4  0.3043429E-005  0.2295082E+03  0.7546771E-02  0.1173846E+00
         21   -1    0    0  501  502  0.00000000000E+00  0.00000000000E+00  0.52951012997E+02  0.52951012997E+02  0.00000000000E+00 0. -1.
          2   -1    0    0  503    0 -0.00000000000E+00 -0.00000000000E+00 -0.22894354672E+04  0.22894354672E+04  0.00000000000E+00 0. -1.
         24    2    1    2    0    0 -0.18602678401E+01  0.13659097630E+02 -0.48848732218E+03  0.49420205597E+03  0.73659871358E+02 0.  0.
         23    2    1    2    0    0 -0.15950221658E+02  0.17249323796E+03 -0.32092855726E+03  0.37606530874E+03  0.91769552994E+02 0.  0.
        -11    1    3    3    0    0 -0.34066528619E+02 -0.13306265707E+01 -0.14846482772E+03  0.15232893359E+03  0.00000000000E+00 0.  1.
         12    1    3    3    0    0  0.32206260779E+02  0.14989724201E+02 -0.34002249446E+03  0.34187312238E+03  0.00000000000E+00 0. -1.
        -11    1    4    4    0    0 -0.54055926522E+02  0.95290482959E+02 -0.16792392423E+03  0.20050128096E+03  0.00000000000E+00 0.  1.
         11    1    4    4    0    0  0.38105704865E+02  0.77202755005E+02 -0.15300463302E+03  0.17556402778E+03  0.00000000000E+00 0. -1.
         21    1    1    2  503  502 -0.25494078626E+02  0.44165290795E+02 -0.38456908417E+02  0.63870609524E+02  0.00000000000E+00 0. -1.
          1    1    1    2  501    0  0.43304568123E+02 -0.23031762639E+03 -0.13886116664E+04  0.14082485060E+04  0.00000000000E+00 0. -1.
<scales pt_clust_5="13000.00000" pt_clust_6="13000.00000" pt_clust_7="13000.00000" pt_clust_8="13000.00000" pt_clust_9="50.99530" pt_clust_10="210.36254"></scales>
<clustering>
<clus scale="   50.995">  1  9  2 -1</clus>
<clus scale="   73.660">  5  6 -1 -1</clus>
<clus scale="   75.639">  2  5  1 -1</clus>
<clus scale="   91.770">  7  8 -1 -1</clus>
<clus scale="  210.363">  1 10  2 -1</clus>
<clus scale="   50.995">  1  5  2 -1</clus>
</clustering>
</event>
<event>
10    4  0.3043429E-005  0.1498469E+03  0.7546771E-02  0.1222381E+00
         21   -1    0    0  501  502  0.00000000000E+00  0.00000000000E+00  0.14180519249E+03  0.14180519249E+03  0.00000000000E+00 0. -1.
          2   -1    0    0  503    0 -0.00000000000E+00 -0.00000000000E+00 -0.84373229812E+03  0.84373229812E+03  0.00000000000E+00 0. -1.
         23    2    1    2    0    0  0.58776965300E+01  0.33813901032E+02 -0.81520474730E+02  0.12511385252E+03  0.88487067261E+02 0.  0.
         24    2    1    2    0    0 -0.10639397000E+03 -0.94033276699E+02 -0.63881581073E+03  0.65936006770E+03  0.80672950004E+02 0.  0.
        -11    1    4    4    0    0 -0.79632796386E+02 -0.67105932010E+02 -0.28348844961E+03  0.30201041279E+03  0.00000000000E+00 0.  1.
         12    1    4    4    0    0 -0.26761173610E+02 -0.26927344690E+02 -0.35532736112E+03  0.35734965491E+03  0.00000000000E+00 0. -1.
        -13    1    3    3    0    0  0.34500882755E+02 -0.14974046373E+02 -0.40297107316E+02  0.55121591357E+02  0.00000000000E+00 0.  1.
         13    1    3    3    0    0 -0.28623186225E+02  0.48787947406E+02 -0.41223367415E+02  0.69992261163E+02  0.00000000000E+00 0. -1.
         21    1    1    2  503  502 -0.19784020767E+02 -0.42145492171E+01  0.55975345718E+02  0.59518142033E+02  0.00000000000E+00 0. -1.
          1    1    1    2  501    0  0.12030029423E+03  0.64433924884E+02 -0.37566165894E+02  0.14154542836E+03  0.00000000000E+00 0. -1.
<scales pt_clust_5="13000.00000" pt_clust_6="13000.00000" pt_clust_7="13000.00000" pt_clust_8="13000.00000" pt_clust_9="20.22795" pt_clust_10="126.27732"></scales>
<clustering>
<clus scale="   20.228">  1  9  2 -1</clus>
<clus scale="   80.673">  5  6 -1 -1</clus>
<clus scale="   88.487">  7  8 -1 -1</clus>
<clus scale="   94.346">  2  7  1 -1</clus>
<clus scale="  126.277">  1 10  2 -1</clus>
<clus scale="   20.228">  1  5  2 -1</clus>
</clustering>
</event>
<event>
10    4  0.3043429E-005  0.9713375E+02  0.7546771E-02  0.1292614E+00
         21   -1    0    0  503  502  0.00000000000E+00  0.00000000000E+00  0.10121626556E+04  0.10121626556E+04  0.00000000000E+00 0. -1.
         -3   -1    0    0    0  501 -0.00000000000E+00 -0.00000000000E+00 -0.20604904117E+02  0.20604904117E+02  0.00000000000E+00 0.  1.
         24    2    1    2    0    0  0.35815095407E+02  0.10739601334E+02  0.24393116367E+03  0.25934500421E+03  0.79745586108E+02 0.  0.
         23    2    1    2    0    0 -0.17501835923E+02 -0.26884342949E+02  0.43684349394E+03  0.44740343502E+03  0.91151046687E+02 0.  0.
        -13    1    3    3    0    0  0.29853179747E+02 -0.32423059268E+02  0.13545823932E+03  0.14244789122E+03  0.00000000000E+00 0.  1.
         14    1    3    3    0    0  0.59619156602E+01  0.43162660602E+02  0.10847292435E+03  0.11689711299E+03  0.00000000000E+00 0. -1.
        -11    1    4    4    0    0 -0.21940047943E+02  0.29392364490E+02  0.11693312913E+03  0.12255053441E+03  0.00000000000E+00 0.  1.
         11    1    4    4    0    0  0.44382120195E+01 -0.56276707439E+02  0.31991036481E+03  0.32485290062E+03  0.00000000000E+00 0. -1.
         21    1    1    2  503  501  0.12847685674E+02  0.31449309217E+02  0.27140424854E+03  0.27352218960E+03  0.00000000000E+00 0.  1.
         -4    1    1    2    0  502 -0.31160945158E+02 -0.15304567603E+02  0.39378845316E+02  0.52496930873E+02  0.00000000000E+00 0.  1.
<scales pt_clust_5="13000.00000" pt_clust_6="13000.00000" pt_clust_7="13000.00000" pt_clust_8="13000.00000" pt_clust_9="33.97237" pt_clust_10="33.16893"></scales>
<clustering>
<clus scale="   33.972">  1  9  2 -1</clus>
<clus scale="   33.169">  1 10  2 -1</clus>
<clus scale="   79.746">  5  6 -1 -1</clus>
<clus scale="   86.521">  2  5  1 -1</clus>
<clus scale="   91.151">  7  8 -1 -1</clus>
<clus scale="   33.972">  1  5  2 -1</clus>
</clustering>
</event>
<event>
10    4  0.3043429E-005  0.9318952E+02  0.7546771E-02  0.1301725E+00
         21   -1    0    0  503  502  0.00000000000E+00  0.00000000000E+00  0.18386020977E+03  0.18386020977E+03  0.00000000000E+00 0.  1.
         -3   -1    0    0    0  501 -0.00000000000E+00 -0.00000000000E+00 -0.30137450150E+03  0.30137450150E+03  0.00000000000E+00 0.  1.
         23    2    1    2    0    0 -0.27367712147E+02  0.13323039548E+02 -0.19187795893E+03  0.21437929154E+03  0.90635724011E+02 0.  0.
         24    2    1    2    0    0 -0.27137061348E+01  0.67950315143E+02 -0.12228305091E+02  0.10561769139E+03  0.79880884817E+02 0.  0.
        -13    1    4    4    0    0  0.10078187577E+01  0.80563013124E+02 -0.27805084744E+02  0.85232256334E+02  0.00000000000E+00 0.  1.
         14    1    4    4    0    0 -0.37215248925E+01 -0.12612697980E+02  0.15576779653E+02  0.20385435051E+02  0.00000000000E+00 0. -1.
        -11    1    3    3    0    0 -0.49867338382E+02  0.37047870098E+02 -0.13830537991E+03  0.15161686657E+03  0.00000000000E+00 0.  1.
         11    1    3    3    0    0  0.22499626235E+02 -0.23724830551E+02 -0.53572579019E+02  0.62762424970E+02  0.00000000000E+00 0. -1.
         21    1    1    2  503  501  0.16398020851E+02  0.15060745153E+02  0.60547385240E+02  0.64511293521E+02  0.00000000000E+00 0. -1.
         -4    1    1    2    0  502  0.13683397431E+02 -0.96334099844E+02  0.26044587046E+02  0.10072643482E+03  0.00000000000E+00 0.  1.
<scales pt_clust_5="13000.00000" pt_clust_6="13000.00000" pt_clust_7="13000.00000" pt_clust_8="13000.00000" pt_clust_9="22.26480" pt_clust_10="91.22123"></scales>
<clustering>
<clus scale="   22.265">  1  9  2 -1</clus>
<clus scale="   79.881">  5  6 -1 -1</clus>
<clus scale="   90.636">  7  8 -1 -1</clus>
<clus scale="   91.221">  1 10  2 -1</clus>
<clus scale="   82.767">  1  5  2 -1</clus>
<clus scale="   22.265">  1  5  2 -1</clus>
</clustering>
</event>
<event>
10    4  0.3043429E-005  0.1058426E+03  0.7546771E-02  0.1272480E+00
         21   -1    0    0  503  502  0.00000000000E+00  0.00000000000E+00  0.48050635027E+03  0.48050635027E+03  0.00000000000E+00 0.  1.
          2   -1    0    0  502    0 -0.00000000000E+00 -0.00000000000E+00 -0.67845311816E+02  0.67845311816E+02  0.00000000000E+00 0. -1.
         24    2    1    2    0    0 -0.21061268289E+02  0.48935771795E+02 -0.81470248194E+01  0.96727222388E+02  0.80321197416E+02 0.  0.
         23    2    1    2    0    0  0.42871098662E+02 -0.62309217153E+02  0.28111572678E+03  0.30464221085E+03  0.89780037576E+02 0.  0.
        -13    1    3    3    0    0  0.17036379383E+02  0.37528709773E+02  0.22097180647E+02  0.46764598494E+02  0.00000000000E+00 0.  1.
         14    1    3    3    0    0 -0.38097647672E+02  0.11407062022E+02 -0.30244205466E+02  0.49962623894E+02  0.00000000000E+00 0. -1.
        -11    1    4    4    0    0  0.37595198793E+02 -0.17265475132E+02  0.34432140604E+02  0.53824417418E+02  0.00000000000E+00 0. -1.
         11    1    4    4    0    0  0.52758998694E+01 -0.45043742020E+02  0.24668358617E+03  0.25081779343E+03  0.00000000000E+00 0.  1.
         21    1    1    2  503  501 -0.15207232612E+01  0.21352062860E+02  0.93276925863E+02  0.95701661878E+02  0.00000000000E+00 0.  1.
          1    1    1    2  501    0 -0.20289107112E+02 -0.79786175022E+01  0.46415410632E+02  0.51280566971E+02  0.00000000000E+00 0. -1.
<scales pt_clust_5="13000.00000" pt_clust_6="13000.00000" pt_clust_7="13000.00000" pt_clust_8="13000.00000" pt_clust_9="21.40615" pt_clust_10="21.15034"></scales>
<clustering>
<clus scale="   21.406">  1  9  2 -1</clus>
<clus scale="   21.150">  1 10  2 -1</clus>
<clus scale="   80.321">  5  6 -1 -1</clus>
<clus scale="   89.780">  7  8 -1 -1</clus>
<clus scale="   97.947">  2  5  1 -1</clus>
<clus scale="   21.406">  1  5  2 -1</clus>
</clustering>
</event>
<event>
10    4  0.3043429E-005  0.3767933E+03  0.7546771E-02  0.1052340E+00
          2   -1    0    0  503    0 -0.00000000000E+00  0.00000000000E+00  0.11680558084E+04  0.11680558084E+04  0.00000000000E+00 0. -1.
         21   -1    0    0  501  502  0.00000000000E+00 -0.00000000000E+00 -0.19924508922E+03  0.19924508922E+03  0.00000000000E+00 0. -1.
         24    2    1    2    0    0 -0.96988998629E+02 -0.34706885807E+03  0.41515853243E+03  0.55567482621E+03  0.80958306179E+02 0.  0.
         23    2    1    2    0    0  0.19467621584E+03  0.32400793162E+03  0.43910853967E+03  0.58648962604E+03  0.90960447843E+02 0.  0.
        -13    1    3    3    0    0  0.93228860094E+01 -0.52499118642E+02  0.87198898878E+02  0.10220920520E+03  0.00000000000E+00 0.  1.
         14    1    3    3    0    0 -0.10631188464E+03 -0.29456973943E+03  0.32795963356E+03  0.45346562102E+03  0.00000000000E+00 0. -1.
        -13    1    4    4    0    0  0.33507573880E+02  0.11798572736E+03  0.18384952048E+03  0.22100686765E+03  0.00000000000E+00 0.  1.
         13    1    4    4    0    0  0.16116864196E+03  0.20602220426E+03  0.25525901919E+03  0.36548275839E+03  0.00000000000E+00 0. -1.
         21    1    1    2  503  502 -0.83110250375E+02 -0.55832181091E+02  0.21729263495E+02  0.10245343847E+03  0.00000000000E+00 0. -1.
          1    1    1    2  501    0 -0.14576966841E+02  0.78893107537E+02  0.92814383580E+02  0.12268300689E+03  0.00000000000E+00 0. -1.
<scales pt_clust_5="13000.00000" pt_clust_6="13000.00000" pt_clust_7="13000.00000" pt_clust_8="13000.00000" pt_clust_9="94.52320" pt_clust_10="80.22853"></scales>
<clustering>
<clus scale="   80.229">  2 10  1 -1</clus>
<clus scale="   80.958">  5  6 -1 -1</clus>
<clus scale="   90.960">  7  8 -1 -1</clus>
<clus scale="   94.523">  2  9  1 -1</clus>
<clus scale="  374.505">  1  5  2 -1</clus>
<clus scale="   80.229">  2  5  1 -1</clus>
</clustering>
</event>
<event>
10    4  0.3043429E-005  0.1052750E+03  0.7546771E-02  0.1275027E+00
         21   -1    0    0  501  502  0.00000000000E+00  0.00000000000E+00  0.13235915636E+03  0.13235915636E+03  0.00000000000E+00 0. -1.
          2   -1    0    0  503    0 -0.00000000000E+00 -0.00000000000E+00 -0.68243497847E+03  0.68243497847E+03  0.00000000000E+00 0. -1.
         24    2    1    2    0    0 -0.15659923700E+02 -0.50257255621E+02 -0.56455271791E+03  0.57265705072E+03  0.80282635048E+02 0.  0.
         23    2    1    2    0    0  0.39097179490E+02  0.22229873148E+02 -0.60088513248E+02  0.11906873952E+03  0.92433644324E+02 0.  0.
        -11    1    3    3    0    0 -0.22519012846E+02 -0.22948108985E+02 -0.67070109437E+02  0.74378230857E+02  0.00000000000E+00 0.  1.
         12    1    3    3    0    0  0.68590891456E+01 -0.27309146636E+02 -0.49748260847E+03  0.49827881986E+03  0.00000000000E+00 0. -1.
        -11    1    4    4    0    0  0.58134139449E+02 -0.10136239469E+02 -0.55903483917E+02  0.81286659632E+02  0.00000000000E+00 0. -1.
         11    1    4    4    0    0 -0.19036959959E+02  0.32366112617E+02 -0.41850293312E+01  0.37782079891E+02  0.00000000000E+00 0.  1.
         21    1    1    2  503  502  0.28205040747E+02 -0.13664318456E+02  0.27598316407E+02  0.41760088493E+02  0.00000000000E+00 0. -1.
          1    1    1    2  501    0 -0.51642296537E+02  0.41691700928E+02  0.46967092635E+02  0.81308256091E+02  0.00000000000E+00 0. -1.
<scales pt_clust_5="13000.00000" pt_clust_6="13000.00000" pt_clust_7="13000.00000" pt_clust_8="13000.00000" pt_clust_9="31.34068" pt_clust_10="46.55830"></scales>
<clustering>
<clus scale="   31.341">  1  9  2 -1</clus>
<clus scale="   46.558">  1 10  2 -1</clus>
<clus scale="   80.283">  5  6 -1 -1</clus>
<clus scale="   92.434">  7  8 -1 -1</clus>
<clus scale="   94.785">  2  5  1 -1</clus>
<clus scale="   31.341">  1  5  2 -1</clus>
</clustering>
</event>
<event>
10    4  0.3043429E-005  0.2520895E+03  0.7546771E-02  0.1142033E+00
          2   -1    0    0  503    0 -0.00000000000E+00  0.00000000000E+00  0.66738508451E+03  0.66738508451E+03  0.00000000000E+00 0. -1.
         21   -1    0    0  501  502  0.00000000000E+00 -0.00000000000E+00 -0.16615795259E+03  0.16615795259E+03  0.00000000000E+00 0. -1.
         23    2    1    2    0    0 -0.77010203762E+02  0.64930199327E+01  0.14972469623E+03  0.19147734144E+03  0.90957994870E+02 0.  0.
         24    2    1    2    0    0 -0.10873409637E+03 -0.17611502213E+03  0.20313323433E+03  0.29980707361E+03  0.76036608059E+02 0.  0.
        -13    1    4    4    0    0 -0.26042889186E+02 -0.74082804022E+02  0.33748822439E+02  0.85472082840E+02  0.00000000000E+00 0.  1.
         14    1    4    4    0    0 -0.82691207189E+02 -0.10203221811E+03  0.16938441189E+03  0.21433499077E+03  0.00000000000E+00 0. -1.
        -11    1    3    3    0    0 -0.44452843023E+02  0.39845615131E+02  0.38905656005E+02  0.71255725154E+02  0.00000000000E+00 0. -1.
         11    1    3    3    0    0 -0.32557360738E+02 -0.33352595199E+02  0.11081904023E+03  0.12022161629E+03  0.00000000000E+00 0.  1.
         21    1    1    2  503  502 -0.93172022584E+01 -0.26909392793E+02  0.79365879589E+00  0.28487814460E+02  0.00000000000E+00 0. -1.
          1    1    1    2  501    0  0.19506150240E+03  0.19653139499E+03  0.14757554256E+03  0.31377080759E+03  0.00000000000E+00 0. -1.
<scales pt_clust_5="13000.00000" pt_clust_6="13000.00000" pt_clust_7="13000.00000" pt_clust_8="13000.00000" pt_clust_9="28.47676" pt_clust_10="240.34886"></scales>
<clustering>
<clus scale="   28.477">  2  9  1 -1</clus>
<clus scale="   76.037">  5  6 -1 -1</clus>
<clus scale="   90.958">  7  8 -1 -1</clus>
<clus scale="  120.042">  1  7  2 -1</clus>
<clus scale="  240.349">  2 10  1 -1</clus>
<clus scale="   28.477">  2  5  1 -1</clus>
</clustering>
</event>
<event>
10    4  0.3043429E-005  0.1765993E+03  0.7546771E-02  0.1198108E+00
         21   -1    0    0  501  502  0.00000000000E+00  0.00000000000E+00  0.15595763214E+03  0.15595763214E+03  0.00000000000E+00 0. -1.
         -1   -1    0    0    0  501 -0.00000000000E+00 -0.00000000000E+00 -0.54159854770E+03  0.54159854770E+03  0.00000000000E+00 0.  1.
         24    2    1    2    0    0  0.52642448518E+02  0.19073164351E+02 -0.89627221395E+02  0.13047944353E+03  0.76529950898E+02 0.  0.
         23    2    1    2    0    0  0.55457081727E+02  0.11247366606E+03 -0.85768536625E+02  0.17741638892E+03  0.91621611601E+02 0.  0.
        -13    1    3    3    0    0  0.35503169234E+02  0.48845189435E+02 -0.59799345335E+02  0.84984052969E+02  0.00000000000E+00 0.  1.
         14    1    3    3    0    0  0.17139279284E+02 -0.29772025084E+02 -0.29827876060E+02  0.45495390560E+02  0.00000000000E+00 0. -1.
        -13    1    4    4    0    0 -0.22809415239E+02  0.99046675400E+01 -0.23268085959E+02  0.34055479542E+02  0.00000000000E+00 0.  1.
         13    1    4    4    0    0  0.78266496966E+02  0.10256899852E+03 -0.62500450665E+02  0.14336090938E+03  0.00000000000E+00 0. -1.
         21    1    1    2  503  502  0.94088882420E+01  0.17867439598E+02  0.57703227625E+02  0.61134565134E+02  0.00000000000E+00 0. -1.
         -2    1    1    2    0  503 -0.11750841849E+03 -0.14941427001E+03 -0.26794838516E+03  0.32852578226E+03  0.00000000000E+00 0.  1.
<scales pt_clust_5="13000.00000" pt_clust_6="13000.00000" pt_clust_7="13000.00000" pt_clust_8="13000.00000" pt_clust_9="20.19338" pt_clust_10="150.97288"></scales>
<clustering>
<clus scale="   20.193">  1  9  2 -1</clus>
<clus scale="   76.530">  5  6 -1 -1</clus>
<clus scale="   91.622">  7  8 -1 -1</clus>
<clus scale="   96.767">  2  5  1 -1</clus>
<clus scale="  150.973">  1 10  2 -1</clus>
<clus scale="   20.193">  1  5  2 -1</clus>
</clustering>
</event>
<event>
10    4  0.3043429E-005  0.1317245E+03  0.7546771E-02  0.1229107E+00
         -3   -1    0    0    0  501 -0.00000000000E+00  0.00000000000E+00  0.31924239713E+03  0.31924239713E+03  0.00000000000E+00 0.  1.
         21   -1    0    0  503  502  0.00000000000E+00 -0.00000000000E+00 -0.19584751476E+03  0.19584751476E+03  0.00000000000E+00 0. -1.
         23    2    1    2    0    0  0.48708410406E+02 -0.58168185098E+02  0.12436140085E+03  0.17537790687E+03  0.97650423423E+02 0.  0.
         24    2    1    2    0    0 -0.69034339001E+02  0.14368114065E+03 -0.78592209161E+02  0.19584195904E+03  0.82263767479E+02 0.  0.
        -13    1    4    4    0    0  0.17732269257E+02  0.18340098602E+02 -0.30008840830E+01  0.25686531394E+02  0.00000000000E+00 0.  1.
         14    1    4    4    0    0 -0.86766608258E+02  0.12534104205E+03 -0.75591325078E+02  0.17015542765E+03  0.00000000000E+00 0. -1.
        -11    1    3    3    0    0 -0.24101644043E+02 -0.25720265738E+02  0.11248978460E+02  0.36999470693E+02  0.00000000000E+00 0. -1.
         11    1    3    3    0    0  0.72810054449E+02 -0.32447919360E+02  0.11311242239E+03  0.13837843617E+03  0.00000000000E+00 0.  1.
         21    1    1    2  503  501  0.20999894796E+02  0.98278880609E+01  0.42764964804E+01  0.23576924891E+02  0.00000000000E+00 0. -1.
         -4    1    1    2    0  502 -0.67396620111E+00 -0.95340843613E+02  0.73349194201E+02  0.12029312109E+03  0.00000000000E+00 0.  1.
<scales pt_clust_5="13000.00000" pt_clust_6="13000.00000" pt_clust_7="13000.00000" pt_clust_8="13000.00000" pt_clust_9="23.18584" pt_clust_10="94.12268"></scales>
<clustering>
<clus scale="   23.186">  2  9  1 -1</clus>
<clus scale="   82.264">  5  6 -1 -1</clus>
<clus scale="   94.123">  2 10  1 -1</clus>
<clus scale="   97.650">  7  8 -1 -1</clus>
<clus scale="  120.760">  2  5  1 -1</clus>
<clus scale="   23.186">  2  5  1 -1</clus>
</clustering>
</event>
<event>
10    4  0.3043429E-005  0.2053170E+03  0.7546771E-02  0.1172889E+00
          2   -1    0    0  502    0 -0.00000000000E+00  0.00000000000E+00  0.17129548016E+04  0.17129548016E+04  0.00000000000E+00 0. -1.
         21   -1    0    0  503  502  0.00000000000E+00 -0.00000000000E+00 -0.10373016283E+03  0.10373016283E+03  0.00000000000E+00 0. -1.
         23    2    1    2    0    0 -0.31402741542E+02  0.51216868201E+02  0.23810817596E+03  0.26161801940E+03  0.90217430959E+02 0.  0.
         24    2    1    2    0    0  0.22812177312E+02  0.15222494535E+03  0.76937170017E+03  0.78878671161E+03  0.80986628360E+02 0.  0.
        -11    1    4    4    0    0  0.40997023795E+02  0.39626766256E+02  0.32783152394E+03  0.33275297843E+03  0.00000000000E+00 0.  1.
         12    1    4    4    0    0 -0.18184846483E+02  0.11259817909E+03  0.44154017623E+03  0.45603373318E+03  0.00000000000E+00 0. -1.
        -13    1    3    3    0    0 -0.49300155182E+02 -0.30750007917E+01  0.13452936211E+03  0.14331123543E+03  0.00000000000E+00 0. -1.
         13    1    3    3    0    0  0.17897413640E+02  0.54291868992E+02  0.10357881385E+03  0.11830678397E+03  0.00000000000E+00 0.  1.
         21    1    1    2  503  501  0.37239546898E+02  0.15187658738E+02 -0.58047467516E+02  0.70618392194E+02  0.00000000000E+00 0. -1.
          1    1    1    2  501    0 -0.28648982668E+02 -0.21862947228E+03  0.65979223014E+03  0.69566184121E+03  0.00000000000E+00 0. -1.
<scales pt_clust_5="13000.00000" pt_clust_6="13000.00000" pt_clust_7="13000.00000" pt_clust_8="13000.00000" pt_clust_9="40.21752" pt_clust_10="188.66962"></scales>
<clustering>
<clus scale="   40.218">  2  9  1 -1</clus>
<clus scale="   80.987">  5  6 -1 -1</clus>
<clus scale="   90.217">  7  8 -1 -1</clus>
<clus scale="  107.976">  1  7  2 -1</clus>
<clus scale="  188.670">  2 10  1 -1</clus>
<clus scale="   40.218">  2  5  1 -1</clus>
</clustering>
</event>
<event>
10    4  0.3043429E-005  0.2466876E+03  0.7546771E-02  0.1154317E+00
          2   -1    0    0  502    0 -0.00000000000E+00  0.00000000000E+00  0.79682213737E+03  0.79682213737E+03  0.00000000000E+00 0. -1.
         21   -1    0    0  503  502  0.00000000000E+00 -0.00000000000E+00 -0.14605913326E+03  0.14605913326E+03  0.00000000000E+00 0. -1.
         24    2    1    2    0    0  0.48561625403E+02  0.54570793234E+01 -0.18752946343E+02  0.10070779548E+03  0.86037061181E+02 0.  0.
         23    2    1    2    0    0 -0.14338118082E+03  0.19982705330E+03  0.34796043817E+03  0.43554971825E+03  0.90211286958E+02 0.  0.
        -11    1    3    3    0    0  0.23203734106E+02 -0.15249086500E+02  0.30704284607E+02  0.41396871968E+02  0.00000000000E+00 0.  1.
         12    1    3    3    0    0  0.25357891297E+02  0.20706165823E+02 -0.49457230950E+02  0.59310923508E+02  0.00000000000E+00 0. -1.
        -11    1    4    4    0    0 -0.91700660083E+02  0.16635889985E+03  0.30889941854E+03  0.36263362419E+03  0.00000000000E+00 0. -1.
         11    1    4    4    0    0 -0.51680520734E+02  0.33468153449E+02  0.39061019631E+02  0.72916094062E+02  0.00000000000E+00 0.  1.
         21    1    1    2  503  501 -0.15808510087E+02 -0.20460238017E+02  0.97142867371E+01  0.27620602775E+02  0.00000000000E+00 0. -1.
          1    1    1    2  501    0  0.11062806550E+03 -0.18482389460E+03  0.31184122555E+03  0.37900315413E+03  0.00000000000E+00 0. -1.
<scales pt_clust_5="13000.00000" pt_clust_6="13000.00000" pt_clust_7="13000.00000" pt_clust_8="13000.00000" pt_clust_9="25.85595" pt_clust_10="229.60118"></scales>
<clustering>
<clus scale="   25.856">  2  9  1 -1</clus>
<clus scale="   86.037">  5  6 -1 -1</clus>
<clus scale="   90.211">  7  8 -1 -1</clus>
<clus scale="   95.661">  1  5  2 -1</clus>
<clus scale="  229.601">  2 10  1 -1</clus>
<clus scale="   25.856">  2  5  1 -1</clus>
</clustering>
</event>
<event>
10    4  0.3043429E-005  0.1318625E+03  0.7546771E-02  0.1227396E+00
         21   -1    0    0  501  502  0.00000000000E+00  0.00000000000E+00  0.64177017621E+02  0.64177017621E+02  0.00000000000E+00 0. -1.
          2   -1    0    0  503    0 -0.00000000000E+00 -0.00000000000E+00 -0.93203125745E+03  0.93203125745E+03  0.00000000000E+00 0. -1.
         24    2    1    2    0    0 -0.74648928862E+02 -0.36005972256E+02 -0.29446870353E+03  0.31643167765E+03  0.80921546227E+02 0.  0.
         23    2    1    2    0    0  0.12973471080E+03  0.49413783032E+02 -0.13404955989E+03  0.21359323286E+03  0.91542162299E+02 0.  0.
        -13    1    3    3    0    0  0.15623762929E+02 -0.17714217333E+02 -0.65704739012E+02  0.69821258886E+02  0.00000000000E+00 0.  1.
         14    1    3    3    0    0 -0.90272691791E+02 -0.18291754922E+02 -0.22876396452E+03  0.24661041876E+03  0.00000000000E+00 0. -1.
        -11    1    4    4    0    0  0.39987127753E+02  0.63856265877E+02 -0.58257979124E+02  0.95239619956E+02  0.00000000000E+00 0.  1.
         11    1    4    4    0    0  0.89747583043E+02 -0.14442482845E+02 -0.75791580761E+02  0.11835361290E+03  0.00000000000E+00 0. -1.
         21    1    1    2  503  502 -0.53317958914E+02  0.37942976100E+02 -0.80762825634E+02  0.10394762230E+03  0.00000000000E+00 0. -1.
          1    1    1    2  501    0 -0.17678230202E+01 -0.51350786876E+02 -0.35857315078E+03  0.36223574226E+03  0.00000000000E+00 0. -1.
<scales pt_clust_5="13000.00000" pt_clust_6="13000.00000" pt_clust_7="13000.00000" pt_clust_8="13000.00000" pt_clust_9="60.69792" pt_clust_10="51.38123"></scales>
<clustering>
<clus scale="   51.381">  1 10  2 -1</clus>
<clus scale="   60.698">  1  9  2 -1</clus>
<clus scale="   80.922">  5  6 -1 -1</clus>
<clus scale="   91.542">  7  8 -1 -1</clus>
<clus scale="  124.724">  2  5  1 -1</clus>
<clus scale="   51.381">  1  5  2 -1</clus>
</clustering>
</event>
<event>
10    4  0.3043429E-005  0.1627201E+03  0.7546771E-02  0.1187998E+00
         21   -1    0    0  501  502  0.00000000000E+00  0.00000000000E+00  0.19977264145E+03  0.19977264145E+03  0.00000000000E+00 0.  1.
         -3   -1    0    0    0  501 -0.00000000000E+00 -0.00000000000E+00 -0.31885509696E+03  0.31885509696E+03  0.00000000000E+00 0.  1.
         24    2    1    2    0    0 -0.10021653939E+03  0.89547645563E+02 -0.11109188006E+03  0.19132925313E+03  0.78761295664E+02 0.  0.
         23    2    1    2    0    0  0.53899949026E+02 -0.12783844893E+03 -0.41429532372E+02  0.17256987781E+03  0.93893998985E+02 0.  0.
        -13    1    3    3    0    0 -0.66935528966E+02  0.79795794291E+02 -0.38792087893E+02  0.11114207083E+03  0.00000000000E+00 0.  1.
         14    1    3    3    0    0 -0.33281010422E+02  0.97518512716E+01 -0.72299792171E+02  0.80187182305E+02  0.00000000000E+00 0. -1.
        -11    1    4    4    0    0 -0.15155824092E+02 -0.67090525225E+02  0.60830647443E+01  0.69049556520E+02  0.00000000000E+00 0.  1.
         11    1    4    4    0    0  0.69055773118E+02 -0.60747923702E+02 -0.47512597116E+02  0.10352032129E+03  0.00000000000E+00 0. -1.
         21    1    1    2  503  502  0.10719122557E+02 -0.26720453922E+02  0.67331131696E+02  0.73228160851E+02  0.00000000000E+00 0. -1.
         -4    1    1    2    0  503  0.35597467805E+02  0.65011257286E+02 -0.33892174765E+02  0.81500446615E+02  0.00000000000E+00 0.  1.
<scales pt_clust_5="13000.00000" pt_clust_6="13000.00000" pt_clust_7="13000.00000" pt_clust_8="13000.00000" pt_clust_9="28.79032" pt_clust_10="70.87511"></scales>
<clustering>
<clus scale="   28.790">  1  9  2 -1</clus>
<clus scale="   70.875">  1 10  2 -1</clus>
<clus scale="   78.761">  5  6 -1 -1</clus>
<clus scale="   93.894">  7  8 -1 -1</clus>
<clus scale="  154.483">  2  5  1 -1</clus>
<clus scale="   28.790">  1  5  2 -1</clus>
</clustering>
</event>
<event>
10    4  0.3043429E-005  0.2983512E+03  0.7546771E-02  0.1123709E+00
         21   -1    0    0  503  502  0.00000000000E+00  0.00000000000E+00  0.41014403845E+03  0.41014403845E+03  0.00000000000E+00 0. -1.
          2   -1    0    0  502    0 -0.00000000000E+00 -0.00000000000E+00 -0.54205617410E+03  0.54205617410E+03  0.00000000000E+00 0. -1.
         23    2    1    2    0    0 -0.72072063815E+01  0.65779960726E+02  0.80385711931E+01  0.11359185196E+03  0.91975774787E+02 0.  0.
         24    2    1    2    0    0 -0.86271002784E+02 -0.16649107980E+03 -0.87717197659E+02  0.22252549941E+03  0.81616943995E+02 0.  0.
        -13    1    4    4    0    0 -0.98674935888E+02 -0.15895978125E+03 -0.70329415216E+02  0.19987791692E+03  0.00000000000E+00 0.  1.
         14    1    4    4    0    0  0.12403933104E+02 -0.75312985517E+01 -0.17387782443E+02  0.22647582489E+02  0.00000000000E+00 0. -1.
        -13    1    3    3    0    0 -0.14300990368E+01 -0.23565582382E+02 -0.81532358508E+00  0.23623010156E+02  0.00000000000E+00 0.  1.
         13    1    3    3    0    0 -0.57771073447E+01  0.89345543108E+02  0.88538947782E+01  0.89968841803E+02  0.00000000000E+00 0. -1.
         21    1    1    2  503  501  0.21945582294E+03  0.28751526846E+03  0.56193558890E+02  0.36603770828E+03  0.00000000000E+00 0. -1.
          1    1    1    2  501    0 -0.12597761378E+03 -0.18680414939E+03 -0.10842706807E+03  0.25004515291E+03  0.00000000000E+00 0. -1.
<scales pt_clust_5="13000.00000" pt_clust_6="13000.00000" pt_clust_7="13000.00000" pt_clust_8="13000.00000" pt_clust_9="13000.00000" pt_clust_10="298.35120"></scales>
<clustering>
<clus scale="   81.617">  5  6 -1 -1</clus>
<clus scale="   91.976">  7  8 -1 -1</clus>
<clus scale="  113.307">  2  7  1 -1</clus>
<clus scale="  188.980">  2  5  1 -1</clus>
<clus scale="  298.351">  2 10  1 -1</clus>
<clus scale="  298.351">  1  5  2 -1</clus>
</clustering>
</event>
<event>
10    4  0.3043429E-005  0.1743144E+03  0.7546771E-02  0.1202169E+00
          4   -1    0    0  502    0 -0.00000000000E+00  0.00000000000E+00  0.42527969117E+03  0.42527969117E+03  0.00000000000E+00 0. -1.
         21   -1    0    0  503  502  0.00000000000E+00 -0.00000000000E+00 -0.17285220229E+03  0.17285220229E+03  0.00000000000E+00 0. -1.
         24    2    1    2    0    0 -0.25827457501E+02  0.11350161092E+02  0.32250067382E+02  0.94352491801E+02  0.84062132647E+02 0.  0.
         23    2    1    2    0    0  0.11410947472E+03  0.11312539748E+03  0.10354128464E+03  0.20997631523E+03  0.86896073317E+02 0.  0.
        -13    1    3    3    0    0 -0.34538342341E+02  0.23300220125E+02  0.53905677785E+02  0.68129431577E+02  0.00000000000E+00 0.  1.
         14    1    3    3    0    0  0.87108848398E+01 -0.11950059033E+02 -0.21655610403E+02  0.26223060224E+02  0.00000000000E+00 0. -1.
        -11    1    4    4    0    0  0.56695307596E+02  0.87983596155E+02  0.10364063610E+03  0.14729851509E+03  0.00000000000E+00 0. -1.
         11    1    4    4    0    0  0.57414167123E+02  0.25141801322E+02 -0.99351458538E-01  0.62677800144E+02  0.00000000000E+00 0.  1.
         21    1    1    2  503  501 -0.31750893921E+02  0.12633325306E+02 -0.56377447961E+02  0.65925236531E+02  0.00000000000E+00 0. -1.
          3    1    1    2  501    0 -0.56531123297E+02 -0.13710888388E+03  0.17301358482E+03  0.22787784989E+03  0.00000000000E+00 0. -1.
<scales pt_clust_5="13000.00000" pt_clust_6="13000.00000" pt_clust_7="13000.00000" pt_clust_8="13000.00000" pt_clust_9="34.17192" pt_clust_10="151.11125"></scales>
<clustering>
<clus scale="   34.172">  2  9  1 -1</clus>
<clus scale="   84.062">  5  6 -1 -1</clus>
<clus scale="   86.896">  7  8 -1 -1</clus>
<clus scale="   92.131">  1  5  2 -1</clus>
<clus scale="  151.111">  2 10  1 -1</clus>
<clus scale="   34.172">  2  5  1 -1</clus>
</clustering>
</event>
<event>
10    4  0.3043429E-005  0.1200763E+03  0.7546771E-02  0.1249198E+00
         21   -1    0    0  503  502  0.00000000000E+00  0.00000000000E+00  0.15242328915E+03  0.15242328915E+03  0.00000000000E+00 0.  1.
          2   -1    0    0  502    0 -0.00000000000E+00 -0.00000000000E+00 -0.15933934131E+03  0.15933934131E+03  0.00000000000E+00 0. -1.
         23    2    1    2    0    0 -0.18959046987E+02  0.81389949474E+02 -0.22394800017E+02  0.13067698029E+03  0.97934553517E+02 0.  0.
         24    2    1    2    0    0  0.54262799610E+02 -0.32607839358E+02  0.37019429037E+02  0.10851383980E+03  0.79981827263E+02 0.  0.
        -13    1    4    4    0    0  0.30898272758E+02  0.11675169375E+02  0.47014036207E+02  0.57457222695E+02  0.00000000000E+00 0.  1.
         14    1    4    4    0    0  0.23364526851E+02 -0.44283008734E+02 -0.99946071693E+01  0.51056617103E+02  0.00000000000E+00 0. -1.
        -13    1    3    3    0    0 -0.22305065906E+02  0.10326937231E+03 -0.24465653590E+02  0.10844651874E+03  0.00000000000E+00 0. -1.
         13    1    3    3    0    0  0.33460189182E+01 -0.21879422835E+02  0.20708535728E+01  0.22230461549E+02  0.00000000000E+00 0.  1.
         21    1    1    2  503  501 -0.10959982417E+02 -0.20230285547E+02  0.84776483414E+01  0.24520525877E+02  0.00000000000E+00 0.  1.
          1    1    1    2  501    0 -0.24343770205E+02 -0.28551824568E+02 -0.30018329520E+02  0.48051284490E+02  0.00000000000E+00 0. -1.
<scales pt_clust_5="13000.00000" pt_clust_6="13000.00000" pt_clust_7="13000.00000" pt_clust_8="13000.00000" pt_clust_9="23.00838" pt_clust_10="39.01519"></scales>
<clustering>
<clus scale="   23.008">  1  9  2 -1</clus>
<clus scale="   39.015">  1 10  2 -1</clus>
<clus scale="   79.982">  5  6 -1 -1</clus>
<clus scale="   97.935">  7  8 -1 -1</clus>
<clus scale="  105.945">  1  5  2 -1</clus>
<clus scale="   23.008">  1  5  2 -1</clus>
</clustering>
</event>
<event>
10    4  0.3043429E-005  0.1940630E+03  0.7546771E-02  0.1183667E+00
         21   -1    0    0  501  502  0.00000000000E+00  0.00000000000E+00  0.77403188886E+02  0.77403188886E+02  0.00000000000E+00 0.  1.
         -1   -1    0    0    0  501 -0.00000000000E+00 -0.00000000000E+00 -0.12004308814E+04  0.12004308814E+04  0.00000000000E+00 0.  1.
         24    2    1    2    0    0 -0.91481651456E+01 -0.50903784397E+02 -0.23324229961E+03  0.25237252013E+03  0.81332861736E+02 0.  0.
         23    2    1    2    0    0  0.10577218066E+03  0.20470303679E+03 -0.67647977657E+03  0.72053737854E+03  0.91968137373E+02 0.  0.
        -11    1    3    3    0    0  0.25223831460E+02 -0.30311166296E+02 -0.44648671804E+02  0.59569391215E+02  0.00000000000E+00 0.  1.
         12    1    3    3    0    0 -0.34371996606E+02 -0.20592618101E+02 -0.18859362781E+03  0.19280312892E+03  0.00000000000E+00 0. -1.
        -13    1    4    4    0    0  0.82330603413E+02  0.19381338570E+03 -0.65113127452E+03  0.68433463554E+03  0.00000000000E+00 0.  1.
         13    1    4    4    0    0  0.23441577252E+02  0.10889651089E+02 -0.25348502051E+02  0.36202743006E+02  0.00000000000E+00 0. -1.
         21    1    1    2  503  502 -0.73901462015E+02 -0.20386660122E+02 -0.44769863538E+02  0.88777151791E+02  0.00000000000E+00 0. -1.
         -2    1    1    2    0  503 -0.22722553504E+02 -0.13341259227E+03 -0.16853575284E+03  0.21614701987E+03  0.00000000000E+00 0.  1.
<scales pt_clust_5="13000.00000" pt_clust_6="13000.00000" pt_clust_7="13000.00000" pt_clust_8="13000.00000" pt_clust_9="76.66187" pt_clust_10="170.88678"></scales>
<clustering>
<clus scale="   76.662">  1  9  2 -1</clus>
<clus scale="   81.333">  5  6 -1 -1</clus>
<clus scale="   91.968">  7  8 -1 -1</clus>
<clus scale="  100.284">  2  5  1 -1</clus>
<clus scale="  170.887">  1 10  2 -1</clus>
<clus scale="   76.662">  1  5  2 -1</clus>
</clustering>
</event>
<event>
10    4  0.3043429E-005  0.2385497E+03  0.7546771E-02  0.1147605E+00
          2   -1    0    0  503    0 -0.00000000000E+00  0.00000000000E+00  0.97913001631E+03  0.97913001631E+03  0.00000000000E+00 0. -1.
         21   -1    0    0  501  502  0.00000000000E+00 -0.00000000000E+00 -0.29969348170E+03  0.29969348170E+03  0.00000000000E+00 0. -1.
         23    2    1    2    0    0  0.85206323184E+02 -0.20827399054E+02 -0.84295157328E+02  0.15187970327E+03  0.90927843116E+02 0.  0.
         24    2    1    2    0    0 -0.98755476182E+02  0.25423550935E+03  0.71608727667E+03  0.77052907108E+03  0.80905644308E+02 0.  0.
        -11    1    4    4    0    0 -0.91445716267E+02  0.12581407641E+03  0.37357911566E+03  0.40466388090E+03  0.00000000000E+00 0.  1.
         12    1    4    4    0    0 -0.73097599154E+01  0.12842143294E+03  0.34250816101E+03  0.36586519018E+03  0.00000000000E+00 0. -1.
        -13    1    3    3    0    0  0.27040217758E+02  0.48638935455E+01 -0.83907795589E+02  0.88291273620E+02  0.00000000000E+00 0. -1.
         13    1    3    3    0    0  0.58166105427E+02 -0.25691292600E+02 -0.38736173926E+00  0.63588429648E+02  0.00000000000E+00 0.  1.
         21    1    1    2  503  502 -0.10425851159E+03 -0.49179990508E+02  0.72736304953E+02  0.13630509442E+03  0.00000000000E+00 0. -1.
          1    1    1    2  501    0  0.11780766459E+03 -0.18422811979E+03 -0.25091889694E+02  0.22010962924E+03  0.00000000000E+00 0. -1.
<scales pt_clust_5="13000.00000" pt_clust_6="13000.00000" pt_clust_7="13000.00000" pt_clust_8="13000.00000" pt_clust_9="115.27579" pt_clust_10="224.41088"></scales>
<clustering>
<clus scale="   80.906">  5  6 -1 -1</clus>
<clus scale="   90.928">  7  8 -1 -1</clus>
<clus scale="  115.276">  1  9  2 -1</clus>
<clus scale="  123.993">  1  7  2 -1</clus>
<clus scale="  224.411">  2 10  1 -1</clus>
<clus scale="  224.411">  2  5  1 -1</clus>
</clustering>
</event>
<event>
10    4  0.3140900E-005  0.2977997E+03  0.7546771E-02  0.1086683E+00
         21   -1    0    0  501  502  0.00000000000E+00  0.00000000000E+00  0.87817064671E+03  0.87817064671E+03  0.00000000000E+00 0. -1.
          2   -1    0    0  503    0 -0.00000000000E+00 -0.00000000000E+00 -0.51720509518E+03  0.51720509518E+03  0.00000000000E+00 0. -1.
         24    2    1    2    0    0  0.15009313740E+03  0.19701256327E+03  0.12499022249E+03  0.28867780651E+03  0.79814912609E+02 0.  0.
         23    2    1    2    0    0 -0.39516292169E+03 -0.18281950075E+03  0.53047650372E+03  0.69204680881E+03  0.89144601868E+02 0.  0.
        -11    1    3    3    0    0 -0.64075821680E+01  0.28296517167E+02  0.22722729613E+02  0.36852034328E+02  0.00000000000E+00 0.  1.
         12    1    3    3    0    0  0.15650071956E+03  0.16871604610E+03  0.10226749288E+03  0.25182577218E+03  0.00000000000E+00 0. -1.
        -11    1    4    4    0    0 -0.15842101561E+03 -0.51043897612E+02  0.14419641283E+03  0.22021649153E+03  0.00000000000E+00 0. -1.
         11    1    4    4    0    0 -0.23674190609E+03 -0.13177560313E+03  0.38628009090E+03  0.47183031728E+03  0.00000000000E+00 0.  1.
         21    1    1    2  503  502 -0.21950258612E+02 -0.78266542472E+01 -0.13360485762E+02  0.26862109925E+02  0.00000000000E+00 0. -1.
          1    1    1    2  501    0  0.26702004291E+03 -0.63664082727E+01 -0.28114068892E+03  0.38778901665E+03  0.00000000000E+00 0. -1.
<scales pt_clust_5="13000.00000" pt_clust_6="13000.00000" pt_clust_7="13000.00000" pt_clust_8="13000.00000" pt_clust_9="23.30387" pt_clust_10="252.51922"></scales>
<clustering>
<clus scale="   23.304">  2  9  1 -1</clus>
<clus scale="   79.815">  5  6 -1 -1</clus>
<clus scale="   89.145">  7  8 -1 -1</clus>
<clus scale="  252.519">  1 10  2 -1</clus>
<clus scale="  295.141">  2  5  1 -1</clus>
<clus scale="  252.519">  1  5  2 -1</clus>
</clustering>
</event>
<event>
10    4  0.3043429E-005  0.2147131E+03  0.7546771E-02  0.1174033E+00
          4   -1    0    0  503    0 -0.00000000000E+00  0.00000000000E+00  0.49973062044E+03  0.49973062044E+03  0.00000000000E+00 0. -1.
         21   -1    0    0  501  502  0.00000000000E+00 -0.00000000000E+00 -0.32372869125E+03  0.32372869125E+03  0.00000000000E+00 0.  1.
         23    2    1    2    0    0  0.43723934871E+01 -0.87828095891E+00  0.95423039154E+02  0.13249784709E+03  0.91816305084E+02 0.  0.
         24    2    1    2    0    0  0.11889974252E+03  0.13896943882E+03  0.68466256362E+02  0.21152810860E+03  0.81282585909E+02 0.  0.
        -13    1    4    4    0    0  0.12572167450E+03  0.11399111173E+03  0.73855853909E+02  0.18507998312E+03  0.00000000000E+00 0.  1.
         14    1    4    4    0    0 -0.68219319837E+01  0.24978327088E+02 -0.53895975464E+01  0.26448125488E+02  0.00000000000E+00 0. -1.
        -11    1    3    3    0    0  0.36528476819E+02 -0.28775030323E+02  0.66050827686E+02  0.80777743388E+02  0.00000000000E+00 0.  1.
         11    1    3    3    0    0 -0.32156083332E+02  0.27896749364E+02  0.29372211468E+02  0.51720103701E+02  0.00000000000E+00 0. -1.
         21    1    1    2  503  502 -0.14272333336E+02  0.43402190823E+02 -0.18476404230E+03  0.19032919113E+03  0.00000000000E+00 0.  1.
          3    1    1    2  501    0 -0.10899980267E+03 -0.18149334869E+03  0.19687667598E+03  0.28910416487E+03  0.00000000000E+00 0. -1.
<scales pt_clust_5="13000.00000" pt_clust_6="13000.00000" pt_clust_7="13000.00000" pt_clust_8="13000.00000" pt_clust_9="45.68862" pt_clust_10="198.73318"></scales>
<clustering>
<clus scale="   45.689">  2  9  1 -1</clus>
<clus scale="   81.283">  5  6 -1 -1</clus>
<clus scale="   91.816">  7  8 -1 -1</clus>
<clus scale="   91.986">  1  7  2 -1</clus>
<clus scale="  198.733">  2 10  1 -1</clus>
<clus scale="   45.689">  2  5  1 -1</clus>
</clustering>
</event>
<event>
10    4  0.3043429E-005  0.1128064E+03  0.7546771E-02  0.1259007E+00
          2   -1    0    0  503    0 -0.00000000000E+00  0.00000000000E+00  0.64888500092E+03  0.64888500092E+03  0.00000000000E+00 0. -1.
         21   -1    0    0  501  502  0.00000000000E+00 -0.00000000000E+00 -0.30036564655E+03  0.30036564655E+03  0.00000000000E+00 0.  1.
         23    2    1    2    0    0 -0.33382536692E+02  0.56591987611E+02  0.25462793688E+03  0.27831078521E+03  0.91128810534E+02 0.  0.
         24    2    1    2    0    0  0.57139444271E+02 -0.43617312510E+02  0.82144503834E+02  0.13622140907E+03  0.81493353941E+02 0.  0.
        -11    1    4    4    0    0  0.43603437302E+02 -0.48003794723E+02  0.96332580718E+02  0.11612747375E+03  0.00000000000E+00 0.  1.
         12    1    4    4    0    0  0.13536006969E+02  0.43864822128E+01 -0.14188076884E+02  0.20093935317E+02  0.00000000000E+00 0. -1.
        -13    1    3    3    0    0 -0.53496010165E+02  0.67756308821E+02  0.17071492696E+03  0.19130166433E+03  0.00000000000E+00 0. -1.
         13    1    3    3    0    0  0.20113473473E+02 -0.11164321210E+02  0.83913009918E+02  0.87009120883E+02  0.00000000000E+00 0.  1.
         21    1    1    2  503  502 -0.15088461276E+02 -0.66539638434E+02 -0.25424886680E+03  0.26324450880E+03  0.00000000000E+00 0.  1.
          1    1    1    2  501    0 -0.86684463040E+01  0.53564963333E+02  0.26599578046E+03  0.27147394438E+03  0.00000000000E+00 0. -1.
<scales pt_clust_5="13000.00000" pt_clust_6="13000.00000" pt_clust_7="13000.00000" pt_clust_8="13000.00000" pt_clust_9="30.17865" pt_clust_10="54.26187"></scales>
<clustering>
<clus scale="   54.262">  2 10  1 -1</clus>
<clus scale="   30.179">  2  9  1 -1</clus>
<clus scale="   81.493">  5  6 -1 -1</clus>
<clus scale="   91.129">  7  8 -1 -1</clus>
<clus scale="  105.176">  2  5  1 -1</clus>
<clus scale="   54.262">  2  5  1 -1</clus>
</clustering>
</event>
<event>
10    4  0.3043429E-005  0.9005600E+02  0.7546771E-02  0.1309525E+00
         -3   -1    0    0    0  501 -0.00000000000E+00  0.00000000000E+00  0.14645824733E+03  0.14645824733E+03  0.00000000000E+00 0.  1.
         21   -1    0    0  501  502  0.00000000000E+00 -0.00000000000E+00 -0.34303655839E+03  0.34303655839E+03  0.00000000000E+00 0.  1.
         23    2    1    2    0    0 -0.16080605425E+02  0.27595276704E+02  0.57087144197E+02  0.11070461430E+03  0.89311166307E+02 0.  0.
         24    2    1    2    0    0 -0.94142868258E+01  0.69022332866E+01  0.26471317803E+02  0.83834249148E+02  0.78684058381E+02 0.  0.
        -11    1    4    4    0    0 -0.11091283318E+02  0.24400953354E+02 -0.20459207178E+02  0.33719463942E+02  0.00000000000E+00 0.  1.
         12    1    4    4    0    0  0.16769964919E+01 -0.17498720067E+02  0.46930524981E+02  0.50114785206E+02  0.00000000000E+00 0. -1.
        -13    1    3    3    0    0 -0.32987567530E+02 -0.22062029741E+02  0.37823639794E+02  0.54822809990E+02  0.00000000000E+00 0.  1.
         13    1    3    3    0    0  0.16906962105E+02  0.49657306444E+02  0.19263504403E+02  0.55881804309E+02  0.00000000000E+00 0. -1.
         21    1    1    2  503  502 -0.23135927004E+02 -0.43489404187E+01 -0.16189516169E+03  0.16359776214E+03  0.00000000000E+00 0.  1.
         -4    1    1    2    0  503  0.48630819255E+02 -0.30148569572E+02 -0.11824161137E+03  0.13135818014E+03  0.00000000000E+00 0.  1.
<scales pt_clust_5="13000.00000" pt_clust_6="13000.00000" pt_clust_7="13000.00000" pt_clust_8="13000.00000" pt_clust_9="23.54112" pt_clust_10="46.51133"></scales>
<clustering>
<clus scale="   23.541">  2  9  1 -1</clus>
<clus scale="   46.511">  2 10  1 -1</clus>
<clus scale="   78.684">  5  6 -1 -1</clus>
<clus scale="   79.528">  2  5  1 -1</clus>
<clus scale="   89.311">  7  8 -1 -1</clus>
<clus scale="   23.541">  2  5  1 -1</clus>
</clustering>
</event>
<event>
10    4  0.3043429E-005  0.8970056E+02  0.7546771E-02  0.1308710E+00
         -1   -1    0    0    0  501 -0.00000000000E+00  0.00000000000E+00  0.58485712742E+03  0.58485712742E+03  0.00000000000E+00 0.  1.
         21   -1    0    0  501  502  0.00000000000E+00 -0.00000000000E+00 -0.13849234996E+03  0.13849234996E+03  0.00000000000E+00 0.  1.
         23    2    1    2    0    0  0.37671834618E+02  0.15391906399E+01  0.41834924260E+03  0.42916308464E+03  0.87996182842E+02 0.  0.
         24    2    1    2    0    0  0.59864763850E+02  0.13467179355E+02  0.10294699230E+03  0.14398452718E+03  0.79801666471E+02 0.  0.
        -11    1    4    4    0    0  0.68226554182E+02 -0.20317102385E+01  0.41092100472E+02  0.79671521030E+02  0.00000000000E+00 0.  1.
         12    1    4    4    0    0 -0.83617903325E+01  0.15498889593E+02  0.61854891832E+02  0.64313006147E+02  0.00000000000E+00 0. -1.
        -13    1    3    3    0    0  0.12615882461E+02 -0.42535975070E+02  0.22065797150E+03  0.22507423231E+03  0.00000000000E+00 0. -1.
         13    1    3    3    0    0  0.25055952157E+02  0.44075165710E+02  0.19769127111E+03  0.20408885232E+03  0.00000000000E+00 0.  1.
         21    1    1    2  503  502 -0.16133985690E+02 -0.34971310696E+02 -0.49289551672E+02  0.62552042093E+02  0.00000000000E+00 0.  1.
         -2    1    1    2    0  503 -0.81402612778E+02  0.19964940701E+02 -0.25641905775E+02  0.87649823480E+02  0.00000000000E+00 0.  1.
<scales pt_clust_5="13000.00000" pt_clust_6="13000.00000" pt_clust_7="13000.00000" pt_clust_8="13000.00000" pt_clust_9="38.51361" pt_clust_10="92.55848"></scales>
<clustering>
<clus scale="   38.514">  2  9  1 -1</clus>
<clus scale="   79.802">  5  6 -1 -1</clus>
<clus scale="   87.996">  7  8 -1 -1</clus>
<clus scale="   92.558">  2 10  1 -1</clus>
<clus scale="   81.677">  2  5  1 -1</clus>
<clus scale="   38.514">  2  5  1 -1</clus>
</clustering>
</event>
<event>
10    4  0.3043429E-005  0.2004691E+03  0.7546771E-02  0.1160409E+00
         21   -1    0    0  501  502  0.00000000000E+00  0.00000000000E+00  0.25513257579E+03  0.25513257579E+03  0.00000000000E+00 0. -1.
          2   -1    0    0  503    0 -0.00000000000E+00 -0.00000000000E+00 -0.37426788455E+03  0.37426788455E+03  0.00000000000E+00 0. -1.
         24    2    1    2    0    0 -0.49894786818E+01  0.13422178085E+03 -0.11231481157E+02  0.15492387260E+03  0.76386378245E+02 0.  0.
         23    2    1    2    0    0  0.19111069095E+03 -0.58275434901E+02 -0.12046835435E+03  0.25076072330E+03  0.91918406434E+02 0.  0.
        -13    1    3    3    0    0 -0.17707027043E+02  0.21704010752E+02  0.23414343945E+02  0.36508004490E+02  0.00000000000E+00 0.  1.
         14    1    3    3    0    0  0.12717548361E+02  0.11251777010E+03 -0.34645825103E+02  0.11841586811E+03  0.00000000000E+00 0. -1.
        -13    1    4    4    0    0  0.46454597797E+02  0.16948715306E+02 -0.57847453952E+02  0.76102671015E+02  0.00000000000E+00 0.  1.
         13    1    4    4    0    0  0.14465609315E+03 -0.75224150207E+02 -0.62620900394E+02  0.17465805228E+03  0.00000000000E+00 0. -1.
         21    1    1    2  503  502 -0.22606717578E+02 -0.12384076643E+01  0.35891636243E+02  0.42435915041E+02  0.00000000000E+00 0. -1.
          1    1    1    2  501    0 -0.16351449469E+03 -0.74707938284E+02 -0.23327109499E+02  0.18127994940E+03  0.00000000000E+00 0. -1.
<scales pt_clust_5="13000.00000" pt_clust_6="13000.00000" pt_clust_7="13000.00000" pt_clust_8="13000.00000" pt_clust_9="22.64061" pt_clust_10="178.15406"></scales>
<clustering>
<clus scale="   22.641">  1  9  2 -1</clus>
<clus scale="   76.386">  5  6 -1 -1</clus>
<clus scale="   91.918">  7  8 -1 -1</clus>
<clus scale="  154.585">  2  5  1 -1</clus>
<clus scale="  178.154">  1 10  2 -1</clus>
<clus scale="   22.641">  1  5  2 -1</clus>
</clustering>
</event>
<event>
10    4  0.3043429E-005  0.4395932E+03  0.7546771E-02  0.1081513E+00
          2   -1    0    0  503    0 -0.00000000000E+00  0.00000000000E+00  0.26145813924E+04  0.26145813924E+04  0.00000000000E+00 0. -1.
         21   -1    0    0  501  502  0.00000000000E+00 -0.00000000000E+00 -0.29982736191E+03  0.29982736191E+03  0.00000000000E+00 0. -1.
         24    2    1    2    0    0  0.18999043157E+02  0.55796593747E+02  0.65943500673E+02  0.11965866781E+03  0.80594218074E+02 0.  0.
         23    2    1    2    0    0 -0.16742375059E+03  0.34331746953E+03  0.21757563061E+04  0.22109016964E+04  0.90957190508E+02 0.  0.
        -13    1    3    3    0    0 -0.25431503473E+02 -0.27028035587E+01  0.10597312563E+02  0.27683380385E+02  0.00000000000E+00 0.  1.
         14    1    3    3    0    0  0.44430546630E+02  0.58499397306E+02  0.55346188110E+02  0.91975287427E+02  0.00000000000E+00 0. -1.
        -13    1    4    4    0    0 -0.98675807010E+02  0.28711759619E+03  0.17156139484E+04  0.17422699701E+04  0.00000000000E+00 0.  1.
         13    1    4    4    0    0 -0.68747943576E+02  0.56199873333E+02  0.46014235770E+03  0.46863172626E+03  0.00000000000E+00 0. -1.
         21    1    1    2  503  502  0.37424677464E+02  0.69425205384E+02 -0.41182605516E+02  0.88974561662E+02  0.00000000000E+00 0. -1.
          1    1    1    2  501    0  0.11100002997E+03 -0.46853926866E+03  0.11423682926E+03  0.49487382845E+03  0.00000000000E+00 0. -1.
<scales pt_clust_5="13000.00000" pt_clust_6="13000.00000" pt_clust_7="13000.00000" pt_clust_8="13000.00000" pt_clust_9="78.86993" pt_clust_10="430.08018"></scales>
<clustering>
<clus scale="   78.870">  2  9  1 -1</clus>
<clus scale="   80.594">  5  6 -1 -1</clus>
<clus scale="   90.957">  7  8 -1 -1</clus>
<clus scale="  105.357">  1  5  2 -1</clus>
<clus scale="  430.080">  2 10  1 -1</clus>
<clus scale="   78.870">  2  5  1 -1</clus>
</clustering>
</event>
<event>
10    4  0.3043429E-005  0.4249323E+03  0.7546771E-02  0.1085489E+00
          2   -1    0    0  503    0 -0.00000000000E+00  0.00000000000E+00  0.21969477183E+04  0.21969477183E+04  0.00000000000E+00 0. -1.
         21   -1    0    0  501  502  0.00000000000E+00 -0.00000000000E+00 -0.52029518762E+03  0.52029518762E+03  0.00000000000E+00 0. -1.
         23    2    1    2    0    0 -0.53260656863E+02 -0.22977731433E+01  0.55016202259E+03  0.56015083166E+03  0.90822496019E+02 0.  0.
         24    2    1    2    0    0 -0.11928188254E+03  0.42084331178E+03  0.80124520874E+03  0.91633605524E+03  0.79628016590E+02 0.  0.
        -11    1    4    4    0    0  0.85756399728E+01  0.78526653786E+02  0.13211548918E+03  0.15393011218E+03  0.00000000000E+00 0.  1.
         12    1    4    4    0    0 -0.12785752252E+03  0.34231665799E+03  0.66912971956E+03  0.76240594305E+03  0.00000000000E+00 0. -1.
        -11    1    3    3    0    0  0.24460910946E+02 -0.74075384911E+01  0.95269896646E+02  0.98638537082E+02  0.00000000000E+00 0.  1.
         11    1    3    3    0    0 -0.77721567809E+02  0.51097653478E+01  0.45489212594E+03  0.46151229458E+03  0.00000000000E+00 0. -1.
         21    1    1    2  503  502  0.23066153485E+02 -0.45432485466E+02 -0.40446898905E+03  0.40766569794E+03  0.00000000000E+00 0. -1.
          1    1    1    2  501    0  0.14947638592E+03 -0.37311305317E+03  0.72971428844E+03  0.83309032112E+03  0.00000000000E+00 0. -1.
<scales pt_clust_5="13000.00000" pt_clust_6="13000.00000" pt_clust_7="13000.00000" pt_clust_8="13000.00000" pt_clust_9="50.95251" pt_clust_10="417.40505"></scales>
<clustering>
<clus scale="   50.953">  2  9  1 -1</clus>
<clus scale="   79.628">  5  6 -1 -1</clus>
<clus scale="   90.822">  7  8 -1 -1</clus>
<clus scale="  104.868">  1  7  2 -1</clus>
<clus scale="  417.405">  2 10  1 -1</clus>
<clus scale="   50.953">  2  5  1 -1</clus>
</clustering>
</event>
<event>
10    4  0.3043429E-005  0.1503603E+03  0.7546771E-02  0.1202058E+00
         21   -1    0    0  501  502  0.00000000000E+00  0.00000000000E+00  0.13109533754E+04  0.13109533754E+04  0.00000000000E+00 0. -1.
          4   -1    0    0  503    0 -0.00000000000E+00 -0.00000000000E+00 -0.47721070488E+02  0.47721070488E+02  0.00000000000E+00 0. -1.
         24    2    1    2    0    0  0.12468994372E+03  0.80993395946E+02  0.18015208792E+03  0.24671019744E+03  0.79395431143E+02 0.  0.
         23    2    1    2    0    0 -0.74732735217E+01 -0.72343375473E+02  0.51798182352E+03  0.53084863601E+03  0.90585269566E+02 0.  0.
        -13    1    3    3    0    0  0.30466643250E+02 -0.48635196521E+01  0.68983828554E+01  0.31614203459E+02  0.00000000000E+00 0.  1.
         14    1    3    3    0    0  0.94223300475E+02  0.85856915598E+02  0.17325370507E+03  0.21509599398E+03  0.00000000000E+00 0. -1.
        -13    1    4    4    0    0  0.62089985858E+00  0.21726523656E+02  0.93583872136E+02  0.96074806640E+02  0.00000000000E+00 0.  1.
         13    1    4    4    0    0 -0.80941733803E+01 -0.94069899129E+02  0.42439795139E+03  0.43477382937E+03  0.00000000000E+00 0. -1.
         21    1    1    2  503  502 -0.38191588345E+02 -0.25070455631E+02  0.31552588413E+03  0.31881610487E+03  0.00000000000E+00 0.  1.
          3    1    1    2  501    0 -0.79025081858E+02  0.16420435158E+02  0.24957250932E+03  0.26229950755E+03  0.00000000000E+00 0. -1.
<scales pt_clust_5="13000.00000" pt_clust_6="13000.00000" pt_clust_7="13000.00000" pt_clust_8="13000.00000" pt_clust_9="45.68507" pt_clust_10="89.41771"></scales>
<clustering>
<clus scale="   45.685">  1  9  2 -1</clus>
<clus scale="   79.395">  5  6 -1 -1</clus>
<clus scale="   89.418">  1 10  2 -1</clus>
<clus scale="   90.585">  7  8 -1 -1</clus>
<clus scale="  143.896">  2  5  1 -1</clus>
<clus scale="   45.685">  1  5  2 -1</clus>
</clustering>
</event>
<event>
10    4  0.3043429E-005  0.1585784E+03  0.7546771E-02  0.1221460E+00
          2   -1    0    0  503    0 -0.00000000000E+00  0.00000000000E+00  0.25040454771E+03  0.25040454771E+03  0.00000000000E+00 0. -1.
         21   -1    0    0  501  502  0.00000000000E+00 -0.00000000000E+00 -0.28607966981E+03  0.28607966981E+03  0.00000000000E+00 0.  1.
         24    2    1    2    0    0  0.19657596703E+02 -0.78282659773E+00 -0.57872495857E+02  0.98745186544E+02  0.77552254406E+02 0.  0.
         23    2    1    2    0    0  0.10763302339E+03  0.64688323867E+02 -0.17580406399E+02  0.15725395653E+03  0.93006930858E+02 0.  0.
        -13    1    3    3    0    0  0.25818961202E+02 -0.17443220145E+02 -0.70414433968E+02  0.77000501281E+02  0.00000000000E+00 0.  1.
         14    1    3    3    0    0 -0.61613644991E+01  0.16660393547E+02  0.12541938111E+02  0.21744685264E+02  0.00000000000E+00 0. -1.
        -11    1    4    4    0    0  0.99116928500E+02  0.44871418783E+02  0.23084521969E+02  0.11122277147E+03  0.00000000000E+00 0.  1.
         11    1    4    4    0    0  0.85160948911E+01  0.19816905084E+02 -0.40664928368E+02  0.46031185065E+02  0.00000000000E+00 0. -1.
         21    1    1    2  503  502  0.62277687614E+01 -0.20715894961E+02 -0.88046755609E+02  0.90665123289E+02  0.00000000000E+00 0.  1.
          1    1    1    2  501    0 -0.13351838886E+03 -0.43189602309E+02  0.12782453576E+03  0.18981995114E+03  0.00000000000E+00 0. -1.
<scales pt_clust_5="13000.00000" pt_clust_6="13000.00000" pt_clust_7="13000.00000" pt_clust_8="13000.00000" pt_clust_9="21.63177" pt_clust_10="128.44001"></scales>
<clustering>
<clus scale="   21.632">  2  9  1 -1</clus>
<clus scale="   77.552">  5  6 -1 -1</clus>
<clus scale="   81.154">  1  5  2 -1</clus>
<clus scale="   93.007">  7  8 -1 -1</clus>
<clus scale="  128.440">  2 10  1 -1</clus>
<clus scale="   21.632">  2  5  1 -1</clus>
</clustering>
</event>
<event>
10    4  0.3043429E-005  0.2076733E+03  0.7546771E-02  0.1144920E+00
         21   -1    0    0  503  502  0.00000000000E+00  0.00000000000E+00  0.15554573521E+03  0.15554573521E+03  0.00000000000E+00 0.  1.
         -1   -1    0    0    0  501 -0.00000000000E+00 -0.00000000000E+00 -0.57424161050E+03  0.57424161050E+03  0.00000000000E+00 0.  1.
         23    2    1    2    0    0  0.60544718108E+01  0.17866120900E+03 -0.28543686875E+03  0.34904485700E+03  0.91660361814E+02 0.  0.
         24    2    1    2    0    0  0.66700476106E+02 -0.20172887704E+03 -0.10011635307E+03  0.24613647951E+03  0.73596121153E+02 0.  0.
        -13    1    4    4    0    0  0.78827236117E+02 -0.13282449256E+03 -0.75944330134E+02  0.17211513663E+03  0.00000000000E+00 0.  1.
         14    1    4    4    0    0 -0.12126760011E+02 -0.68904384478E+02 -0.24172022933E+02  0.74021342877E+02  0.00000000000E+00 0. -1.
        -11    1    3    3    0    0 -0.28598044240E+02  0.14221333697E+03 -0.24408053265E+03  0.28393271697E+03  0.00000000000E+00 0.  1.
         11    1    3    3    0    0  0.34652516050E+02  0.36447872032E+02 -0.41356336098E+02  0.65112140033E+02  0.00000000000E+00 0. -1.
         21    1    1    2  503  501  0.78615617431E+01  0.38435126758E+02  0.11891761019E+02  0.40993622700E+02  0.00000000000E+00 0.  1.
         -2    1    1    2    0  502 -0.80616509660E+02 -0.15367458724E+02 -0.45034414490E+02  0.93612386498E+02  0.00000000000E+00 0.  1.
<scales pt_clust_5="13000.00000" pt_clust_6="13000.00000" pt_clust_7="13000.00000" pt_clust_8="13000.00000" pt_clust_9="39.23089" pt_clust_10="79.55463"></scales>
<clustering>
<clus scale="   39.231">  1  9  2 -1</clus>
<clus scale="   73.596">  5  6 -1 -1</clus>
<clus scale="   79.555">  1 10  2 -1</clus>
<clus scale="   91.660">  7  8 -1 -1</clus>
<clus scale="  200.357">  1  5  2 -1</clus>
<clus scale="   39.231">  1  5  2 -1</clus>
</clustering>
</event>
<event>
10    4  0.3043429E-005  0.1528673E+03  0.7546771E-02  0.1202974E+00
         21   -1    0    0  501  502  0.00000000000E+00  0.00000000000E+00  0.34710625824E+03  0.34710625824E+03  0.00000000000E+00 0. -1.
          2   -1    0    0  503    0 -0.00000000000E+00 -0.00000000000E+00 -0.43877544119E+03  0.43877544119E+03  0.00000000000E+00 0. -1.
         23    2    1    2    0    0  0.90102496552E+01  0.10264316836E+03 -0.47200976711E+02  0.14676425602E+03  0.93247037664E+02 0.  0.
         24    2    1    2    0    0  0.12511738056E+03 -0.21955964588E+02  0.60648224479E+02  0.16343201154E+03  0.83038496882E+02 0.  0.
        -11    1    4    4    0    0  0.12860728807E+03 -0.22075663136E+02  0.31712647164E+02  0.13428649015E+03  0.00000000000E+00 0.  1.
         12    1    4    4    0    0 -0.34899075128E+01  0.11969854812E+00  0.28935577316E+02  0.29145521385E+02  0.00000000000E+00 0. -1.
        -13    1    3    3    0    0  0.47224122880E+02  0.68947193389E+02 -0.46868712139E+02  0.95814975007E+02  0.00000000000E+00 0. -1.
         13    1    3    3    0    0 -0.38213873225E+02  0.33695974968E+02 -0.33226457203E+00  0.50949281012E+02  0.00000000000E+00 0.  1.
         21    1    1    2  503  502  0.11292604611E-02 -0.23485951643E+02  0.16610175041E+03  0.16775393115E+03  0.00000000000E+00 0. -1.
          1    1    1    2  501    0 -0.13412875947E+03 -0.57201252127E+02 -0.27121818113E+03  0.30793150072E+03  0.00000000000E+00 0. -1.
<scales pt_clust_5="13000.00000" pt_clust_6="13000.00000" pt_clust_7="13000.00000" pt_clust_8="13000.00000" pt_clust_9="23.48595" pt_clust_10="128.34730"></scales>
<clustering>
<clus scale="   23.486">  1  9  2 -1</clus>
<clus scale="   83.038">  5  6 -1 -1</clus>
<clus scale="   93.247">  7  8 -1 -1</clus>
<clus scale="  134.245">  2  7  1 -1</clus>
<clus scale="  128.347">  1 10  2 -1</clus>
<clus scale="   23.486">  1  5  2 -1</clus>
</clustering>
</event>
<event>
10    4  0.3043429E-005  0.1546756E+03  0.7546771E-02  0.1222053E+00
         21   -1    0    0  503  502  0.00000000000E+00  0.00000000000E+00  0.35170339222E+02  0.35170339222E+02  0.00000000000E+00 0. -1.
          2   -1    0    0  502    0 -0.00000000000E+00 -0.00000000000E+00 -0.17132709237E+04  0.17132709237E+04  0.00000000000E+00 0. -1.
         24    2    1    2    0    0  0.19592673625E+02  0.82642186196E+01 -0.41138893035E+03  0.42035858473E+03  0.83715694919E+02 0.  0.
         23    2    1    2    0    0  0.32170720158E+02  0.69805762645E+02 -0.29539860468E+03  0.31822393792E+03  0.89990773336E+02 0.  0.
        -11    1    3    3    0    0 -0.12137454087E+02 -0.24737166790E+02 -0.60299197003E+02  0.66296593968E+02  0.00000000000E+00 0.  1.
         12    1    3    3    0    0  0.31730127713E+02  0.33001385410E+02 -0.35108973334E+03  0.35406199076E+03  0.00000000000E+00 0. -1.
        -13    1    4    4    0    0  0.45296261961E+02  0.11188253767E+02 -0.64289517916E+02  0.79435952086E+02  0.00000000000E+00 0.  1.
         13    1    4    4    0    0 -0.13125541802E+02  0.58617508878E+02 -0.23110908676E+03  0.23878798583E+03  0.00000000000E+00 0. -1.
         21    1    1    2  503  501  0.79977075392E+02  0.36961753632E+02 -0.19332765067E+03  0.21245725295E+03  0.00000000000E+00 0.  1.
          1    1    1    2  501    0 -0.13174046918E+03 -0.11503173490E+03 -0.77798539877E+03  0.79740148730E+03  0.00000000000E+00 0. -1.
<scales pt_clust_5="13000.00000" pt_clust_6="13000.00000" pt_clust_7="13000.00000" pt_clust_8="13000.00000" pt_clust_9="91.42865" pt_clust_10="125.80236"></scales>
<clustering>
<clus scale="   83.716">  5  6 -1 -1</clus>
<clus scale="   86.374">  2  5  1 -1</clus>
<clus scale="   89.991">  7  8 -1 -1</clus>
<clus scale="   91.429">  1  9  2 -1</clus>
<clus scale="  125.802">  1 10  2 -1</clus>
<clus scale="   91.429">  1  5  2 -1</clus>
</clustering>
</event>
<event>
10    4  0.3043429E-005  0.9521109E+02  0.7546771E-02  0.1295362E+00
         21   -1    0    0  501  502  0.00000000000E+00  0.00000000000E+00  0.71708128113E+02  0.71708128113E+02  0.00000000000E+00 0. -1.
          2   -1    0    0  503    0 -0.00000000000E+00 -0.00000000000E+00 -0.47002665274E+03  0.47002665274E+03  0.00000000000E+00 0. -1.
         23    2    1    2    0    0  0.25332303854E+02 -0.16481159784E+01 -0.19121136540E+03  0.21233704889E+03  0.88773837180E+02 0.  0.
         24    2    1    2    0    0 -0.25839655890E+01  0.61611841024E+02  0.21210314909E+01  0.10120403882E+03  0.80218843591E+02 0.  0.
        -11    1    4    4    0    0  0.38488975185E+02  0.34726042063E+02 -0.24827642881E+01  0.51898586943E+02  0.00000000000E+00 0.  1.
         12    1    4    4    0    0 -0.41072940774E+02  0.26885798961E+02  0.46037957790E+01  0.49305451881E+02  0.00000000000E+00 0. -1.
        -13    1    3    3    0    0 -0.17967766922E+02  0.31472229284E+02 -0.96160878949E+02  0.10276310867E+03  0.00000000000E+00 0.  1.
         13    1    3    3    0    0  0.43300070776E+02 -0.33120345262E+02 -0.95050486453E+02  0.10957394022E+03  0.00000000000E+00 0. -1.
         21    1    1    2  503  502  0.22250216449E+02 -0.13987061902E+02 -0.50641892883E+02  0.57055335836E+02  0.00000000000E+00 0. -1.
          1    1    1    2  501    0 -0.44998554714E+02 -0.45976663144E+02 -0.15858629784E+03  0.17113835731E+03  0.00000000000E+00 0. -1.
<scales pt_clust_5="13000.00000" pt_clust_6="13000.00000" pt_clust_7="13000.00000" pt_clust_8="13000.00000" pt_clust_9="26.28136" pt_clust_10="62.95526"></scales>
<clustering>
<clus scale="   26.281">  2  9  1 -1</clus>
<clus scale="   62.955">  1 10  2 -1</clus>
<clus scale="   80.219">  5  6 -1 -1</clus>
<clus scale="   87.289">  1  5  2 -1</clus>
<clus scale="   88.774">  7  8 -1 -1</clus>
<clus scale="   62.955">  1  5  2 -1</clus>
</clustering>
</event>
<event>
10    4  0.3043429E-005  0.9718873E+02  0.7546771E-02  0.1289543E+00
          2   -1    0    0  502    0 -0.00000000000E+00  0.00000000000E+00  0.59332074419E+03  0.59332074419E+03  0.00000000000E+00 0. -1.
         21   -1    0    0  503  502  0.00000000000E+00 -0.00000000000E+00 -0.55531160001E+02  0.55531160001E+02  0.00000000000E+00 0. -1.
         24    2    1    2    0    0  0.65773035605E+02  0.19897749614E+02  0.17713746712E+03  0.20619135310E+03  0.80094813716E+02 0.  0.
         23    2    1    2    0    0  0.22565245547E+02 -0.54373320388E+02  0.12976981859E+03  0.16672814511E+03  0.86558767773E+02 0.  0.
        -11    1    3    3    0    0  0.60361100164E+02  0.36171284385E+02  0.75861637952E+02  0.10347372778E+03  0.00000000000E+00 0.  1.
         12    1    3    3    0    0  0.54119354405E+01 -0.16273534770E+02  0.10127582917E+03  0.10271762533E+03  0.00000000000E+00 0. -1.
        -13    1    4    4    0    0  0.22443087171E+02  0.13593337841E+02  0.74945224882E+02  0.79405652998E+02  0.00000000000E+00 0.  1.
         13    1    4    4    0    0  0.12215837565E+00 -0.67966658229E+02  0.54824593712E+02  0.87322492115E+02  0.00000000000E+00 0. -1.
         21    1    1    2  503  501  0.54832665450E+01  0.32540235493E+02  0.77888765121E+01  0.33905747821E+02  0.00000000000E+00 0. -1.
          1    1    1    2  501    0 -0.93821547696E+02  0.19353352807E+01  0.22309342196E+03  0.24202665815E+03  0.00000000000E+00 0. -1.
<scales pt_clust_5="13000.00000" pt_clust_6="13000.00000" pt_clust_7="13000.00000" pt_clust_8="13000.00000" pt_clust_9="32.99899" pt_clust_10="93.05417"></scales>
<clustering>
<clus scale="   32.999">  2  9  1 -1</clus>
<clus scale="   80.095">  5  6 -1 -1</clus>
<clus scale="   86.559">  7  8 -1 -1</clus>
<clus scale="   93.054">  2 10  1 -1</clus>
<clus scale="   91.479">  1  5  2 -1</clus>
<clus scale="   32.999">  2  5  1 -1</clus>
</clustering>
</event>
<event>
10    4  0.3043429E-005  0.1431468E+03  0.7546771E-02  0.1221968E+00
          2   -1    0    0  502    0 -0.00000000000E+00  0.00000000000E+00  0.74287046074E+03  0.74287046074E+03  0.00000000000E+00 0. -1.
         21   -1    0    0  503  502  0.00000000000E+00 -0.00000000000E+00 -0.51964428029E+02  0.51964428029E+02  0.00000000000E+00 0.  1.
         24    2    1    2    0    0  0.44572457962E+01 -0.71761695880E+02  0.50664775725E+03  0.51867815832E+03  0.84649122613E+02 0.  0.
         23    2    1    2    0    0  0.18884993503E+02  0.55460632745E+02  0.13916993951E+03  0.19631791941E+03  0.12545887237E+03 0.  0.
        -13    1    3    3    0    0  0.43995086372E+02 -0.34275716102E+02  0.28748456584E+03  0.29284427250E+03  0.00000000000E+00 0.  1.
         14    1    3    3    0    0 -0.39537840576E+02 -0.37485979777E+02  0.21916319140E+03  0.22583388582E+03  0.00000000000E+00 0. -1.
        -13    1    4    4    0    0 -0.47447923063E+02  0.51658694412E+01  0.21917162035E+02  0.52520030481E+02  0.00000000000E+00 0. -1.
         13    1    4    4    0    0  0.66332916566E+02  0.50294763304E+02  0.11725277747E+03  0.14379788893E+03  0.00000000000E+00 0.  1.
         21    1    1    2  503  501  0.37819967279E+01  0.24655950642E+02 -0.18220501937E+01  0.25010783039E+02  0.00000000000E+00 0.  1.
          1    1    1    2  501    0 -0.27124236027E+02 -0.83548875079E+01  0.46910386147E+02  0.54828027995E+02  0.00000000000E+00 0. -1.
<scales pt_clust_5="13000.00000" pt_clust_6="13000.00000" pt_clust_7="13000.00000" pt_clust_8="13000.00000" pt_clust_9="24.94433" pt_clust_10="27.36255"></scales>
<clustering>
<clus scale="   24.944">  2  9  1 -1</clus>
<clus scale="   27.363">  2 10  1 -1</clus>
<clus scale="   84.649">  5  6 -1 -1</clus>
<clus scale="  109.163">  1  5  2 -1</clus>
<clus scale="  125.459">  7  8 -1 -1</clus>
<clus scale="   24.944">  2  5  1 -1</clus>
</clustering>
</event>
<event>
10    4  0.3043429E-005  0.9266321E+02  0.7546771E-02  0.1303313E+00
         21   -1    0    0  503  502  0.00000000000E+00  0.00000000000E+00  0.20672544159E+03  0.20672544159E+03  0.00000000000E+00 0. -1.
          2   -1    0    0  502    0 -0.00000000000E+00 -0.00000000000E+00 -0.13578783836E+03  0.13578783836E+03  0.00000000000E+00 0. -1.
         24    2    1    2    0    0 -0.48714383741E-01  0.61507683099E+01 -0.31635812138E+02  0.86969871052E+02  0.80778088225E+02 0.  0.
         23    2    1    2    0    0 -0.67721542680E+02  0.12640925913E+02  0.96451245312E+02  0.14991569890E+03  0.91792557990E+02 0.  0.
        -13    1    3    3    0    0  0.10408162726E+02  0.38709599215E+02  0.43593451122E+00  0.40086817804E+02  0.00000000000E+00 0.  1.
         14    1    3    3    0    0 -0.10456877110E+02 -0.32558830905E+02 -0.32071746649E+02  0.46883053249E+02  0.00000000000E+00 0. -1.
        -13    1    4    4    0    0 -0.63353901916E+02  0.46942689222E+02  0.77148203496E+02  0.11031399849E+03  0.00000000000E+00 0. -1.
         13    1    4    4    0    0 -0.43676407638E+01 -0.34301763309E+02  0.19303041815E+02  0.39601700409E+02  0.00000000000E+00 0.  1.
         21    1    1    2  503  501  0.35121462654E+02  0.16144913343E+02  0.32955269551E+02  0.50795916735E+02  0.00000000000E+00 0.  1.
          1    1    1    2  501    0  0.32648794410E+02 -0.34936607566E+02 -0.26833099492E+02  0.54831793268E+02  0.00000000000E+00 0. -1.
<scales pt_clust_5="13000.00000" pt_clust_6="13000.00000" pt_clust_7="13000.00000" pt_clust_8="13000.00000" pt_clust_9="38.65456" pt_clust_10="48.95144"></scales>
<clustering>
<clus scale="   38.655">  1  9  2 -1</clus>
<clus scale="   48.951">  1 10  2 -1</clus>
<clus scale="   80.778">  5  6 -1 -1</clus>
<clus scale="   81.766">  2  5  1 -1</clus>
<clus scale="   91.793">  7  8 -1 -1</clus>
<clus scale="   38.655">  1  5  2 -1</clus>
</clustering>
</event>
<event>
10    4  0.3043429E-005  0.1375532E+03  0.7546771E-02  0.1219197E+00
         21   -1    0    0  503  502  0.00000000000E+00  0.00000000000E+00  0.15494537830E+03  0.15494537830E+03  0.00000000000E+00 0. -1.
         -1   -1    0    0    0  501 -0.00000000000E+00 -0.00000000000E+00 -0.46295044688E+03  0.46295044688E+03  0.00000000000E+00 0.  1.
         24    2    1    2    0    0  0.80091392046E+02  0.55338156106E+02 -0.19119234449E+03  0.22955559894E+03  0.81635273067E+02 0.  0.
         23    2    1    2    0    0 -0.10820395303E+03 -0.24282294725E+02 -0.20902871953E+03  0.25411359813E+03  0.92644427121E+02 0.  0.
        -11    1    3    3    0    0  0.23074502925E+02 -0.21203990147E+02 -0.53874087553E+02  0.62325429746E+02  0.00000000000E+00 0.  1.
         12    1    3    3    0    0  0.57016889121E+02  0.76542146253E+02 -0.13731825694E+03  0.16723016919E+03  0.00000000000E+00 0. -1.
        -11    1    4    4    0    0 -0.60910378930E+01 -0.38852764648E+02 -0.78029387461E+02  0.87379765226E+02  0.00000000000E+00 0.  1.
         11    1    4    4    0    0 -0.10211291514E+03  0.14570469923E+02 -0.13099933207E+03  0.16673383290E+03  0.00000000000E+00 0. -1.
         21    1    1    2  503  501 -0.20756151470E+02 -0.20293489515E+02 -0.31691607778E+00  0.29030052985E+02  0.00000000000E+00 0.  1.
         -2    1    1    2    0  502  0.48868712454E+02 -0.10762371866E+02  0.92532911521E+02  0.10519657513E+03  0.00000000000E+00 0.  1.
<scales pt_clust_5="13000.00000" pt_clust_6="13000.00000" pt_clust_7="13000.00000" pt_clust_8="13000.00000" pt_clust_9="29.02832" pt_clust_10="42.44135"></scales>
<clustering>
<clus scale="   29.028">  1  9  2 -1</clus>
<clus scale="   42.441">  1 10  2 -1</clus>
<clus scale="   81.635">  5  6 -1 -1</clus>
<clus scale="   92.644">  7  8 -1 -1</clus>
<clus scale="  130.392">  2  5  1 -1</clus>
<clus scale="   29.028">  1  5  2 -1</clus>
</clustering>
</event>
<event>
10    4  0.3043429E-005  0.1664955E+03  0.7546771E-02  0.1194967E+00
         21   -1    0    0  503  502  0.00000000000E+00  0.00000000000E+00  0.81644893266E+02  0.81644893266E+02  0.00000000000E+00 0. -1.
          2   -1    0    0  502    0 -0.00000000000E+00 -0.00000000000E+00 -0.10435767340E+04  0.10435767340E+04  0.00000000000E+00 0. -1.
         24    2    1    2    0    0  0.12006397268E+02  0.86021256744E+02 -0.32595330775E+03  0.34766941074E+03  0.84170363806E+02 0.  0.
         23    2    1    2    0    0 -0.15494641669E+03 -0.46265554377E+02 -0.24199341952E+03  0.30493757683E+03  0.90979212485E+02 0.  0.
        -13    1    3    3    0    0  0.35354771489E+02  0.27879022859E+02 -0.63509749884E+02  0.77850421405E+02  0.00000000000E+00 0.  1.
         14    1    3    3    0    0 -0.23348374221E+02  0.58142233885E+02 -0.26244355787E+03  0.26981898934E+03  0.00000000000E+00 0. -1.
        -13    1    4    4    0    0 -0.31549259493E+02 -0.39556136128E+02 -0.12462803719E+03  0.13450721666E+03  0.00000000000E+00 0.  1.
         13    1    4    4    0    0 -0.12339715720E+03 -0.67094182481E+01 -0.11736538233E+03  0.17043036017E+03  0.00000000000E+00 0. -1.
         21    1    1    2  503  501  0.17034450267E+02  0.16071047729E+02  0.23392185650E+02  0.33100535048E+02  0.00000000000E+00 0.  1.
          1    1    1    2  501    0  0.12590556916E+03 -0.55826750097E+02 -0.41737729916E+03  0.43951410469E+03  0.00000000000E+00 0. -1.
<scales pt_clust_5="13000.00000" pt_clust_6="13000.00000" pt_clust_7="13000.00000" pt_clust_8="13000.00000" pt_clust_9="23.41903" pt_clust_10="139.44013"></scales>
<clustering>
<clus scale="   23.419">  1  9  2 -1</clus>
<clus scale="   84.170">  5  6 -1 -1</clus>
<clus scale="   90.979">  7  8 -1 -1</clus>
<clus scale="  123.679">  2  5  1 -1</clus>
<clus scale="  139.440">  1 10  2 -1</clus>
<clus scale="   23.419">  1  5  2 -1</clus>
</clustering>
</event>
<event>
10    4  0.3043429E-005  0.5286957E+03  0.7546771E-02  0.1069345E+00
         21   -1    0    0  501  502  0.00000000000E+00  0.00000000000E+00  0.95413954246E+03  0.95413954246E+03  0.00000000000E+00 0.  1.
         -1   -1    0    0    0  501 -0.00000000000E+00 -0.00000000000E+00 -0.64129903953E+03  0.64129903953E+03  0.00000000000E+00 0.  1.
         24    2    1    2    0    0  0.22745684165E+02  0.10996686257E+02 -0.10487069685E+00  0.83891434614E+02  0.79996678349E+02 0.  0.
         23    2    1    2    0    0 -0.18308268034E+03  0.51628190911E+03  0.43257895523E+03  0.70445667917E+03  0.95228056808E+02 0.  0.
        -11    1    3    3    0    0  0.45959087201E+02  0.49194941957E+01 -0.22196480422E+02  0.51274973063E+02  0.00000000000E+00 0.  1.
         12    1    3    3    0    0 -0.23213403036E+02  0.60771920617E+01  0.22091609725E+02  0.32616461551E+02  0.00000000000E+00 0. -1.
        -11    1    4    4    0    0 -0.15875872770E+03  0.45756906594E+03  0.41678714436E+03  0.63897207093E+03  0.00000000000E+00 0.  1.
         11    1    4    4    0    0 -0.24323952648E+02  0.58712843171E+02  0.15791810865E+02  0.65484608237E+02  0.00000000000E+00 0. -1.
         21    1    1    2  503  502  0.37212391418E+02 -0.26912427944E+02  0.19700573553E+03  0.20228766815E+03  0.00000000000E+00 0. -1.
         -2    1    1    2    0  503  0.12312460476E+03 -0.50036616743E+03 -0.31663931713E+03  0.60480280006E+03  0.00000000000E+00 0.  1.
<scales pt_clust_5="13000.00000" pt_clust_6="13000.00000" pt_clust_7="13000.00000" pt_clust_8="13000.00000" pt_clust_9="45.92429" pt_clust_10="520.04907"></scales>
<clustering>
<clus scale="   45.924">  1  9  2 -1</clus>
<clus scale="   79.997">  5  6 -1 -1</clus>
<clus scale="   84.294">  2  5  1 -1</clus>
<clus scale="   95.228">  7  8 -1 -1</clus>
<clus scale="  520.049">  1 10  2 -1</clus>
<clus scale="   45.924">  1  5  2 -1</clus>
</clustering>
</event>
<event>
10    4  0.3043429E-005  0.1358421E+03  0.7546771E-02  0.1221468E+00
         21   -1    0    0  501  502  0.00000000000E+00  0.00000000000E+00  0.56904304277E+02  0.56904304277E+02  0.00000000000E+00 0. -1.
          2   -1    0    0  503    0 -0.00000000000E+00 -0.00000000000E+00 -0.16386522516E+04  0.16386522516E+04  0.00000000000E+00 0. -1.
         24    2    1    2    0    0  0.86839822502E+02 -0.31952255156E+02 -0.34470973227E+03  0.36572824051E+03  0.79813814599E+02 0.  0.
         23    2    1    2    0    0 -0.11854614559E+03 -0.33806952007E+02 -0.46158790576E+03  0.48623120951E+03  0.90339889968E+02 0.  0.
        -13    1    3    3    0    0  0.68850794645E+02 -0.11477177820E+02 -0.32417172578E+03  0.33160136509E+03  0.00000000000E+00 0.  1.
         14    1    3    3    0    0  0.17989027857E+02 -0.20475077336E+02 -0.20538006490E+02  0.34126875417E+02  0.00000000000E+00 0. -1.
        -11    1    4    4    0    0 -0.26768400519E+02  0.80310946119E+01 -0.22999791980E+02  0.36194421920E+02  0.00000000000E+00 0.  1.
         11    1    4    4    0    0 -0.91777745069E+02 -0.41838046619E+02 -0.43858811378E+03  0.45003678759E+03  0.00000000000E+00 0. -1.
         21    1    1    2  503  502  0.53501231231E+02 -0.98884447462E+02 -0.10837755628E+03  0.15616084784E+03  0.00000000000E+00 0. -1.
          1    1    1    2  501    0 -0.21794908145E+02  0.16464365462E+03 -0.66707275303E+03  0.68743625804E+03  0.00000000000E+00 0. -1.
<scales pt_clust_5="13000.00000" pt_clust_6="13000.00000" pt_clust_7="13000.00000" pt_clust_8="13000.00000" pt_clust_9="112.43005" pt_clust_10="134.25024"></scales>
<clustering>
<clus scale="   79.814">  5  6 -1 -1</clus>
<clus scale="   90.340">  7  8 -1 -1</clus>
<clus scale="  112.430">  1  9  2 -1</clus>
<clus scale="  134.250">  1 10  2 -1</clus>
<clus scale="  129.082">  2  5  1 -1</clus>
<clus scale="  112.430">  1  5  2 -1</clus>
</clustering>
</event>
<event>
10    4  0.3043429E-005  0.1289235E+03  0.7546771E-02  0.1231408E+00
          2   -1    0    0  502    0 -0.00000000000E+00  0.00000000000E+00  0.93285616194E+03  0.93285616194E+03  0.00000000000E+00 0. -1.
         21   -1    0    0  503  502  0.00000000000E+00 -0.00000000000E+00 -0.43953269079E+02  0.43953269079E+02  0.00000000000E+00 0.  1.
         23    2    1    2    0    0 -0.45591608572E+02  0.52104357068E+02  0.21997468332E+03  0.24740688481E+03  0.89598250825E+02 0.  0.
         24    2    1    2    0    0  0.31441920734E+02 -0.13579832002E+03  0.26063763207E+03  0.30635826335E+03  0.80583076204E+02 0.  0.
        -13    1    4    4    0    0 -0.16785725863E+02 -0.89741428986E+02  0.17906018589E+03  0.20099212632E+03  0.00000000000E+00 0.  1.
         14    1    4    4    0    0  0.48227646597E+02 -0.46056891035E+02  0.81577446176E+02  0.10536613703E+03  0.00000000000E+00 0. -1.
        -11    1    3    3    0    0  0.21344970519E+02  0.17706910503E+01  0.92027704289E+02  0.94487255596E+02  0.00000000000E+00 0. -1.
         11    1    3    3    0    0 -0.66936579091E+02  0.50333666018E+02  0.12794697903E+03  0.15291962921E+03  0.00000000000E+00 0.  1.
         21    1    1    2  503  501 -0.20352828332E+02  0.28479449684E+02  0.66940061855E+02  0.75539979856E+02  0.00000000000E+00 0.  1.
          1    1    1    2  501    0  0.34502516170E+02  0.55214513270E+02  0.34135051562E+03  0.34750430301E+03  0.00000000000E+00 0. -1.
<scales pt_clust_5="13000.00000" pt_clust_6="13000.00000" pt_clust_7="13000.00000" pt_clust_8="13000.00000" pt_clust_9="35.00452" pt_clust_10="66.19292"></scales>
<clustering>
<clus scale="   35.005">  2  9  1 -1</clus>
<clus scale="   66.193">  2 10  1 -1</clus>
<clus scale="   80.583">  5  6 -1 -1</clus>
<clus scale="   89.598">  7  8 -1 -1</clus>
<clus scale="  122.829">  2  5  1 -1</clus>
<clus scale="   35.005">  2  5  1 -1</clus>
</clustering>
</event>
<event>
10    4  0.3043429E-005  0.4316987E+03  0.7546771E-02  0.1033325E+00
          2   -1    0    0  503    0 -0.00000000000E+00  0.00000000000E+00  0.80230800722E+03  0.80230800722E+03  0.00000000000E+00 0. -1.
         21   -1    0    0  501  502  0.00000000000E+00 -0.00000000000E+00 -0.55486560172E+03  0.55486560172E+03  0.00000000000E+00 0. -1.
         24    2    1    2    0    0 -0.17224695078E+03 -0.24307937921E+03  0.46073075425E+03  0.55618454531E+03  0.91169204689E+02 0.  0.
         23    2    1    2    0    0 -0.23592915887E+02 -0.55462465375E+02  0.94662027470E+02  0.14506099762E+03  0.91918892728E+02 0.  0.
        -11    1    3    3    0    0 -0.93198281042E+02 -0.77175869400E+02  0.24148213434E+03  0.27010304628E+03  0.00000000000E+00 0.  1.
         12    1    3    3    0    0 -0.79048669736E+02 -0.16590350981E+03  0.21924861991E+03  0.28608149903E+03  0.00000000000E+00 0. -1.
        -13    1    4    4    0    0 -0.52514778062E+02 -0.50603635617E+02  0.89219635128E+02  0.11523312521E+03  0.00000000000E+00 0. -1.
         13    1    4    4    0    0  0.28921862175E+02 -0.48588297583E+01  0.54423923417E+01  0.29827872413E+02  0.00000000000E+00 0.  1.
         21    1    1    2  503  502  0.11899235338E+03  0.38239535935E+03 -0.35274921952E+03  0.53368286734E+03  0.00000000000E+00 0. -1.
          1    1    1    2  501    0  0.76847513281E+02 -0.83853514770E+02  0.44798843298E+02  0.12224519867E+03  0.00000000000E+00 0. -1.
<scales pt_clust_5="13000.00000" pt_clust_6="13000.00000" pt_clust_7="13000.00000" pt_clust_8="13000.00000" pt_clust_9="361.33094" pt_clust_10="113.74078"></scales>
<clustering>
<clus scale="   91.169">  5  6 -1 -1</clus>
<clus scale="   91.919">  7  8 -1 -1</clus>
<clus scale="   92.865">  5  7 -1 -1</clus>
<clus scale="  113.741">  2 10  1 -1</clus>
<clus scale="  361.331">  2  9  1 -1</clus>
<clus scale="  113.741">  2  5  1 -1</clus>
</clustering>
</event>
<event>
10    4  0.3043429E-005  0.1013505E+03  0.7546771E-02  0.1284013E+00
         -1   -1    0    0    0  501 -0.00000000000E+00  0.00000000000E+00  0.18443008069E+03  0.18443008069E+03  0.00000000000E+00 0.  1.
         21   -1    0    0  501  502  0.00000000000E+00 -0.00000000000E+00 -0.27489466017E+03  0.27489466017E+03  0.00000000000E+00 0.  1.
         23    2    1    2    0    0 -0.32309754171E+02  0.26720588110E+02  0.96802427542E+02  0.14064462673E+03  0.93017691905E+02 0.  0.
         24    2    1    2    0    0  0.59273645659E+02  0.38991222081E+02 -0.32481228653E+02  0.11172491970E+03  0.79960909182E+02 0.  0.
        -11    1    4    4    0    0  0.76487527678E+02  0.23528476844E+02 -0.36974733796E+02  0.88153627561E+02  0.00000000000E+00 0.  1.
         12    1    4    4    0    0 -0.17213882019E+02  0.15462745237E+02  0.44935051430E+01  0.23571292135E+02  0.00000000000E+00 0. -1.
        -13    1    3    3    0    0 -0.59138583670E+02  0.40427252484E+02  0.63397244635E+02  0.95660574163E+02  0.00000000000E+00 0. -1.
         13    1    3    3    0    0  0.26828829500E+02 -0.13706664374E+02  0.33405182906E+02  0.44984052570E+02  0.00000000000E+00 0.  1.
         21    1    1    2  503  502  0.35067032157E+02  0.27394349925E+01 -0.82409878814E+02  0.89602396031E+02  0.00000000000E+00 0.  1.
         -2    1    1    2    0  503 -0.62030923645E+02 -0.68451245183E+02 -0.72375899559E+02  0.11735279840E+03  0.00000000000E+00 0.  1.
<scales pt_clust_5="13000.00000" pt_clust_6="13000.00000" pt_clust_7="13000.00000" pt_clust_8="13000.00000" pt_clust_9="35.17387" pt_clust_10="80.44998"></scales>
<clustering>
<clus scale="   35.174">  2  9  1 -1</clus>
<clus scale="   79.961">  5  6 -1 -1</clus>
<clus scale="   80.450">  2 10  1 -1</clus>
<clus scale="   89.517">  2  5  1 -1</clus>
<clus scale="   93.018">  7  8 -1 -1</clus>
<clus scale="   35.174">  2  5  1 -1</clus>
</clustering>
</event>
<event>
10    4  0.3043429E-005  0.8200078E+02  0.7546771E-02  0.1331284E+00
         21   -1    0    0  501  502  0.00000000000E+00  0.00000000000E+00  0.10099169028E+03  0.10099169028E+03  0.00000000000E+00 0. -1.
          4   -1    0    0  503    0 -0.00000000000E+00 -0.00000000000E+00 -0.13501549492E+04  0.13501549492E+04  0.00000000000E+00 0. -1.
         24    2    1    2    0    0 -0.21131677087E+02 -0.28484772551E+02 -0.10025124080E+04  0.10062574756E+04  0.79152062904E+02 0.  0.
         23    2    1    2    0    0 -0.18777165926E+01 -0.14391216285E+02 -0.26498014214E+03  0.27398454060E+03  0.68135305358E+02 0.  0.
        -11    1    3    3    0    0 -0.33090599939E+02 -0.23472825057E+02 -0.22445993729E+03  0.22809696353E+03  0.00000000000E+00 0.  1.
         12    1    3    3    0    0  0.11958922852E+02 -0.50119474940E+01 -0.77805247070E+03  0.77816051212E+03  0.00000000000E+00 0. -1.
        -13    1    4    4    0    0 -0.27757977465E+02 -0.24403939849E+02 -0.98470038344E+02  0.10517797319E+03  0.00000000000E+00 0. -1.
         13    1    4    4    0    0  0.25880260872E+02  0.10012723564E+02 -0.16651010379E+03  0.16880656741E+03  0.00000000000E+00 0.  1.
         21    1    1    2  503  502 -0.31404520456E+02 -0.16001633591E+02 -0.52963524287E+02  0.63619423822E+02  0.00000000000E+00 0. -1.
          3    1    1    2  501    0  0.54413914136E+02  0.58877622427E+02  0.71292815493E+02  0.10728519942E+03  0.00000000000E+00 0. -1.
<scales pt_clust_5="13000.00000" pt_clust_6="13000.00000" pt_clust_7="13000.00000" pt_clust_8="13000.00000" pt_clust_9="35.24622" pt_clust_10="50.60672"></scales>
<clustering>
<clus scale="   35.246">  1  9  2 -1</clus>
<clus scale="   50.607">  1 10  2 -1</clus>
<clus scale="   68.135">  7  8 -1 -1</clus>
<clus scale="   71.425">  1  7  2 -1</clus>
<clus scale="   79.152">  5  6 -1 -1</clus>
<clus scale="   35.246">  1  5  2 -1</clus>
</clustering>
</event>
<event>
10    4  0.3043429E-005  0.1942653E+03  0.7546771E-02  0.1179042E+00
         21   -1    0    0  501  502  0.00000000000E+00  0.00000000000E+00  0.10831288475E+03  0.10831288475E+03  0.00000000000E+00 0. -1.
          2   -1    0    0  503    0 -0.00000000000E+00 -0.00000000000E+00 -0.14266624401E+04  0.14266624401E+04  0.00000000000E+00 0. -1.
         24    2    1    2    0    0 -0.29188153004E+02  0.55401277085E+02 -0.14348971220E+03  0.17600057680E+03  0.80409301382E+02 0.  0.
         23    2    1    2    0    0  0.39754062826E+02 -0.22589018199E+03 -0.32326756174E+03  0.40677714502E+03  0.91427399691E+02 0.  0.
        -11    1    3    3    0    0 -0.24423389565E+02 -0.95663460496E+01 -0.83213666130E+02  0.87249820431E+02  0.00000000000E+00 0.  1.
         12    1    3    3    0    0 -0.47647634395E+01  0.64967623135E+02 -0.60276046071E+02  0.88750756371E+02  0.00000000000E+00 0. -1.
        -13    1    4    4    0    0  0.36260928305E+02 -0.93123288091E+02 -0.20864032436E+03  0.23133868387E+03  0.00000000000E+00 0.  1.
         13    1    4    4    0    0  0.34931345214E+01 -0.13276689389E+03 -0.11462723738E+03  0.17543846115E+03  0.00000000000E+00 0. -1.
         21    1    1    2  503  502  0.42973103660E+02  0.71526999416E+02  0.93214435901E+01  0.83962423704E+02  0.00000000000E+00 0. -1.
          1    1    1    2  501    0 -0.53539013482E+02  0.98961905484E+02 -0.86091372497E+03  0.86823517928E+03  0.00000000000E+00 0. -1.
<scales pt_clust_5="13000.00000" pt_clust_6="13000.00000" pt_clust_7="13000.00000" pt_clust_8="13000.00000" pt_clust_9="83.44339" pt_clust_10="171.40614"></scales>
<clustering>
<clus scale="   80.409">  5  6 -1 -1</clus>
<clus scale="   83.443">  1  9  2 -1</clus>
<clus scale="   91.427">  7  8 -1 -1</clus>
<clus scale="  110.898">  2  5  1 -1</clus>
<clus scale="  171.406">  1 10  2 -1</clus>
<clus scale="   83.443">  1  5  2 -1</clus>
</clustering>
</event>
<event>
10    4  0.3043429E-005  0.1569904E+03  0.7546771E-02  0.1211293E+00
          2   -1    0    0  503    0 -0.00000000000E+00  0.00000000000E+00  0.30987344972E+03  0.30987344972E+03  0.00000000000E+00 0. -1.
         21   -1    0    0  501  502  0.00000000000E+00 -0.00000000000E+00 -0.28886307568E+03  0.28886307568E+03  0.00000000000E+00 0. -1.
         24    2    1    2    0    0  0.52622967092E+02  0.47611415050E+02  0.43886860607E+01  0.10774241217E+03  0.80951487364E+02 0.  0.
         23    2    1    2    0    0  0.11175811362E+03  0.13312658770E+02 -0.12731892889E+03  0.19210247807E+03  0.89588780458E+02 0.  0.
        -13    1    3    3    0    0 -0.10956136041E+02  0.40116970450E+02 -0.84815234674E+01  0.42442248708E+02  0.00000000000E+00 0.  1.
         14    1    3    3    0    0  0.63579103133E+02  0.74944446004E+01  0.12870209528E+02  0.65300163464E+02  0.00000000000E+00 0. -1.
        -11    1    4    4    0    0  0.53362109707E+02  0.50147689956E+02 -0.51296201395E+02  0.89406967501E+02  0.00000000000E+00 0. -1.
         11    1    4    4    0    0  0.58396003911E+02 -0.36835031185E+02 -0.76022727491E+02  0.10269551057E+03  0.00000000000E+00 0.  1.
         21    1    1    2  503  502  0.76061960900E+01 -0.58332003544E+02 -0.19143733162E+02  0.61862422971E+02  0.00000000000E+00 0. -1.
          1    1    1    2  501    0 -0.17198727680E+03 -0.25920702764E+01  0.16308435002E+03  0.23702921219E+03  0.00000000000E+00 0. -1.
<scales pt_clust_5="13000.00000" pt_clust_6="13000.00000" pt_clust_7="13000.00000" pt_clust_8="13000.00000" pt_clust_9="58.82582" pt_clust_10="128.91798"></scales>
<clustering>
<clus scale="   58.826">  2  9  1 -1</clus>
<clus scale="   80.951">  5  6 -1 -1</clus>
<clus scale="   89.589">  7  8 -1 -1</clus>
<clus scale="  103.681">  1  5  2 -1</clus>
<clus scale="  128.918">  2 10  1 -1</clus>
<clus scale="   58.826">  2  5  1 -1</clus>
</clustering>
</event>
<event>
10    4  0.3043429E-005  0.1394902E+03  0.7546771E-02  0.1235853E+00
          2   -1    0    0  503    0 -0.00000000000E+00  0.00000000000E+00  0.10940790952E+04  0.10940790952E+04  0.00000000000E+00 0. -1.
         21   -1    0    0  501  502  0.00000000000E+00 -0.00000000000E+00 -0.51809241149E+02  0.51809241149E+02  0.00000000000E+00 0. -1.
         24    2    1    2    0    0 -0.29659634855E+02 -0.15348142137E+02  0.33589972653E+03  0.34697406952E+03  0.80293955136E+02 0.  0.
         23    2    1    2    0    0  0.11272382932E+03  0.63698315850E+02  0.30481647635E+03  0.34316846356E+03  0.89929822593E+02 0.  0.
        -11    1    3    3    0    0  0.14291157450E+02 -0.35687657726E+02  0.15652967728E+03  0.16118122088E+03  0.00000000000E+00 0.  1.
         12    1    3    3    0    0 -0.43950792305E+02  0.20339515588E+02  0.17937004924E+03  0.18579284864E+03  0.00000000000E+00 0. -1.
        -11    1    4    4    0    0  0.95810813527E+02  0.86136659784E+02  0.26185100809E+03  0.29183074990E+03  0.00000000000E+00 0. -1.
         11    1    4    4    0    0  0.16913015795E+02 -0.22438343934E+02  0.42965468256E+02  0.51337713664E+02  0.00000000000E+00 0.  1.
         21    1    1    2  503  502  0.59386337820E+01 -0.46004550864E+02  0.20395309052E+01  0.46431086114E+02  0.00000000000E+00 0. -1.
          1    1    1    2  501    0 -0.89002828249E+02 -0.23456228486E+01  0.39951412032E+03  0.40931471720E+03  0.00000000000E+00 0. -1.
<scales pt_clust_5="13000.00000" pt_clust_6="13000.00000" pt_clust_7="13000.00000" pt_clust_8="13000.00000" pt_clust_9="46.38627" pt_clust_10="106.63093"></scales>
<clustering>
<clus scale="   46.386">  2  9  1 -1</clus>
<clus scale="   80.294">  5  6 -1 -1</clus>
<clus scale="   88.520">  1  5  2 -1</clus>
<clus scale="   89.930">  7  8 -1 -1</clus>
<clus scale="  106.631">  2 10  1 -1</clus>
<clus scale="   46.386">  2  5  1 -1</clus>
</clustering>
</event>
<event>
10    4  0.3043429E-005  0.9004673E+02  0.7546771E-02  0.1307939E+00
          2   -1    0    0  503    0 -0.00000000000E+00  0.00000000000E+00  0.27509496993E+03  0.27509496993E+03  0.00000000000E+00 0. -1.
         21   -1    0    0  501  502  0.00000000000E+00 -0.00000000000E+00 -0.15431147965E+03  0.15431147965E+03  0.00000000000E+00 0.  1.
         24    2    1    2    0    0  0.15495253740E+02  0.21561151417E+02 -0.19393556790E+02  0.86926936306E+02  0.80468603018E+02 0.  0.
         23    2    1    2    0    0  0.12550723777E+02 -0.87972858164E+01 -0.55844765420E+02  0.10598430940E+03  0.88764424791E+02 0.  0.
        -11    1    3    3    0    0  0.16272237061E+02 -0.25131203480E+02 -0.26137931034E+02  0.39743609877E+02  0.00000000000E+00 0.  1.
         12    1    3    3    0    0 -0.77698332095E+00  0.46692354897E+02  0.67443742436E+01  0.47183326428E+02  0.00000000000E+00 0. -1.
        -13    1    4    4    0    0 -0.31400716286E+02 -0.21337151755E+02 -0.61357596133E+01  0.38456814407E+02  0.00000000000E+00 0. -1.
         13    1    4    4    0    0  0.43951440062E+02  0.12539865939E+02 -0.49709005807E+02  0.67527494990E+02  0.00000000000E+00 0.  1.
         21    1    1    2  503  502 -0.11529744884E+02 -0.44972750482E+02  0.10663930889E+02  0.47636149351E+02  0.00000000000E+00 0. -1.
          1    1    1    2  501    0 -0.16516232633E+02  0.32208884881E+02  0.18535788160E+03  0.18885905453E+03  0.00000000000E+00 0. -1.
<scales pt_clust_5="13000.00000" pt_clust_6="13000.00000" pt_clust_7="13000.00000" pt_clust_8="13000.00000" pt_clust_9="43.24152" pt_clust_10="36.19668"></scales>
<clustering>
<clus scale="   36.197">  2 10  1 -1</clus>
<clus scale="   43.242">  1  9  2 -1</clus>
<clus scale="   80.469">  5  6 -1 -1</clus>
<clus scale="   81.881">  1  5  2 -1</clus>
<clus scale="   88.764">  7  8 -1 -1</clus>
<clus scale="   36.197">  2  5  1 -1</clus>
</clustering>
</event>
<event>
10    4  0.3043429E-005  0.2092435E+03  0.7546771E-02  0.1173256E+00
         21   -1    0    0  503  502  0.00000000000E+00  0.00000000000E+00  0.11281798298E+04  0.11281798298E+04  0.00000000000E+00 0.  1.
         -3   -1    0    0    0  501 -0.00000000000E+00 -0.00000000000E+00 -0.18559404183E+03  0.18559404183E+03  0.00000000000E+00 0.  1.
         24    2    1    2    0    0 -0.14869758969E+02 -0.60033508349E+02  0.10304815331E+03  0.14440414806E+03  0.80053133730E+02 0.  0.
         23    2    1    2    0    0 -0.17708312652E+03  0.29898879505E+02 -0.53325304733E+02  0.20753384165E+03  0.89299107580E+02 0.  0.
        -13    1    3    3    0    0  0.22522821502E+02 -0.57319229847E+02  0.49379352072E+02  0.78937266293E+02  0.00000000000E+00 0.  1.
         14    1    3    3    0    0 -0.37392580471E+02 -0.27142785013E+01  0.53668801237E+02  0.65466881767E+02  0.00000000000E+00 0. -1.
        -13    1    4    4    0    0 -0.78376483413E+02  0.10656298263E+02 -0.69966099853E+02  0.10560153869E+03  0.00000000000E+00 0.  1.
         13    1    4    4    0    0 -0.98706643102E+02  0.19242581241E+02  0.16640795121E+02  0.10193230296E+03  0.00000000000E+00 0. -1.
         21    1    1    2  503  501  0.19107707866E+03 -0.10326865506E+03  0.64139473719E+03  0.67717211549E+03  0.00000000000E+00 0.  1.
         -4    1    1    2    0  502  0.87580682413E+00  0.13340328390E+03  0.25146820217E+03  0.28466376639E+03  0.00000000000E+00 0.  1.
<scales pt_clust_5="13000.00000" pt_clust_6="13000.00000" pt_clust_7="13000.00000" pt_clust_8="13000.00000" pt_clust_9="189.23142" pt_clust_10="127.36279"></scales>
<clustering>
<clus scale="   80.053">  5  6 -1 -1</clus>
<clus scale="   89.299">  7  8 -1 -1</clus>
<clus scale="  101.161">  2  5  1 -1</clus>
<clus scale="  127.363">  1 10  2 -1</clus>
<clus scale="  189.231">  1  9  2 -1</clus>
<clus scale="  127.363">  1  5  2 -1</clus>
</clustering>
</event>
<event>
10    4  0.3043429E-005  0.3627956E+03  0.7546771E-02  0.1112344E+00
         21   -1    0    0  501  502  0.00000000000E+00  0.00000000000E+00  0.20301748110E+03  0.20301748110E+03  0.00000000000E+00 0. -1.
          2   -1    0    0  503    0 -0.00000000000E+00 -0.00000000000E+00 -0.19921938302E+04  0.19921938302E+04  0.00000000000E+00 0. -1.
         24    2    1    2    0    0  0.26609112365E+02 -0.40928125949E+01 -0.10356928669E+03  0.13386730951E+03  0.80430488213E+02 0.  0.
         23    2    1    2    0    0 -0.26543205808E+03  0.23523404005E+03 -0.41285841581E+03  0.55165533893E+03  0.89901670731E+02 0.  0.
        -13    1    3    3    0    0 -0.87033152710E+01 -0.31171803306E+02 -0.73076356384E+02  0.79922355324E+02  0.00000000000E+00 0.  1.
         14    1    3    3    0    0  0.35312427636E+02  0.27078990712E+02 -0.30492930302E+02  0.53944954184E+02  0.00000000000E+00 0. -1.
        -13    1    4    4    0    0 -0.64153486694E+02  0.58659927756E+02 -0.16641630362E+03  0.18775261141E+03  0.00000000000E+00 0.  1.
         13    1    4    4    0    0 -0.20127857139E+03  0.17657411229E+03 -0.24644211219E+03  0.36390272752E+03  0.00000000000E+00 0. -1.
         21    1    1    2  503  502 -0.33345265104E+02 -0.34252228154E+02  0.92284439109E+02  0.10393045531E+03  0.00000000000E+00 0. -1.
          1    1    1    2  501    0  0.27216821082E+03 -0.19688899930E+03 -0.13650330857E+04  0.14057582076E+04  0.00000000000E+00 0. -1.
<scales pt_clust_5="13000.00000" pt_clust_6="13000.00000" pt_clust_7="13000.00000" pt_clust_8="13000.00000" pt_clust_9="47.80295" pt_clust_10="351.48038"></scales>
<clustering>
<clus scale="   47.803">  1  9  2 -1</clus>
<clus scale="   80.430">  5  6 -1 -1</clus>
<clus scale="   83.820">  2  5  1 -1</clus>
<clus scale="   89.902">  7  8 -1 -1</clus>
<clus scale="  351.480">  1 10  2 -1</clus>
<clus scale="   47.803">  1  5  2 -1</clus>
</clustering>
</event>
<event>
10    4  0.3043429E-005  0.1166524E+03  0.7546771E-02  0.1257959E+00
         21   -1    0    0  501  502  0.00000000000E+00  0.00000000000E+00  0.24725856519E+03  0.24725856519E+03  0.00000000000E+00 0. -1.
          2   -1    0    0  503    0 -0.00000000000E+00 -0.00000000000E+00 -0.22161497624E+03  0.22161497624E+03  0.00000000000E+00 0. -1.
         23    2    1    2    0    0  0.10073466170E+02 -0.19449676730E+02 -0.96592194823E+02  0.13535121492E+03  0.92250390970E+02 0.  0.
         24    2    1    2    0    0 -0.61412717429E+02 -0.31687964110E+02  0.39057930996E+02  0.10789376034E+03  0.73074568867E+02 0.  0.
        -11    1    4    4    0    0 -0.29825381710E+01 -0.30426670487E+02 -0.93879702718E+01  0.31981428934E+02  0.00000000000E+00 0.  1.
         12    1    4    4    0    0 -0.58430179258E+02 -0.12612936232E+01  0.48445901268E+02  0.75912331405E+02  0.00000000000E+00 0. -1.
        -11    1    3    3    0    0  0.49515324073E+02  0.26156559551E+01 -0.52400759848E+02  0.72141864453E+02  0.00000000000E+00 0.  1.
         11    1    3    3    0    0 -0.39441857903E+02 -0.22065332685E+02 -0.44191434975E+02  0.63209350467E+02  0.00000000000E+00 0. -1.
         21    1    1    2  503  502  0.18015550092E+02 -0.69094731335E+02  0.70295524205E+02  0.10020031271E+03  0.00000000000E+00 0. -1.
          1    1    1    2  501    0  0.33323701167E+02  0.12023237217E+03  0.12882328571E+02  0.12542825347E+03  0.00000000000E+00 0. -1.
<scales pt_clust_5="13000.00000" pt_clust_6="13000.00000" pt_clust_7="13000.00000" pt_clust_8="13000.00000" pt_clust_9="71.40478" pt_clust_10="90.92804"></scales>
<clustering>
<clus scale="   71.405">  1  9  2 -1</clus>
<clus scale="   73.075">  5  6 -1 -1</clus>
<clus scale="   92.250">  7  8 -1 -1</clus>
<clus scale="   97.097">  2  7  1 -1</clus>
<clus scale="   90.928">  1 10  2 -1</clus>
<clus scale="   71.405">  1  5  2 -1</clus>
</clustering>
</event>
<event>
10    4  0.3043429E-005  0.2283994E+03  0.7546771E-02  0.1127771E+00
          2   -1    0    0  503    0 -0.00000000000E+00  0.00000000000E+00  0.33039477734E+03  0.33039477734E+03  0.00000000000E+00 0. -1.
         21   -1    0    0  501  502  0.00000000000E+00 -0.00000000000E+00 -0.18566496884E+03  0.18566496884E+03  0.00000000000E+00 0. -1.
         24    2    1    2    0    0 -0.88703594019E+02  0.36273335569E+01 -0.27636238422E+02  0.12355050175E+03  0.81360184780E+02 0.  0.
         23    2    1    2    0    0 -0.23709238168E+02  0.17449986754E+02  0.45936814685E+02  0.10623563977E+03  0.91154759624E+02 0.  0.
        -11    1    3    3    0    0 -0.11957139603E+02  0.31962261373E+02 -0.23885983619E+02  0.41654526200E+02  0.00000000000E+00 0.  1.
         12    1    3    3    0    0 -0.76746454416E+02 -0.28334927816E+02 -0.37502548027E+01  0.81895975547E+02  0.00000000000E+00 0. -1.
        -11    1    4    4    0    0 -0.25925487730E-01 -0.28885649016E+02  0.45859155050E+02  0.54198187175E+02  0.00000000000E+00 0.  1.
         11    1    4    4    0    0 -0.23683312680E+02  0.46335635770E+02  0.77659635192E-01  0.52037452597E+02  0.00000000000E+00 0. -1.
         21    1    1    2  503  502  0.85856939081E+01 -0.73638438190E+02 -0.39189114659E+02  0.83857739217E+02  0.00000000000E+00 0. -1.
          1    1    1    2  501    0  0.10382713828E+03  0.52561117878E+02  0.16561834689E+03  0.20241586544E+03  0.00000000000E+00 0. -1.
<scales pt_clust_5="13000.00000" pt_clust_6="13000.00000" pt_clust_7="13000.00000" pt_clust_8="13000.00000" pt_clust_9="74.13726" pt_clust_10="113.05060"></scales>
<clustering>
<clus scale="   74.137">  2  9  1 -1</clus>
<clus scale="   81.360">  5  6 -1 -1</clus>
<clus scale="   91.155">  7  8 -1 -1</clus>
<clus scale="   93.491">  5  7 -1 -1</clus>
<clus scale="  113.051">  2 10  1 -1</clus>
<clus scale="   74.137">  2  5  1 -1</clus>
</clustering>
</event>
<event>
10    4  0.3043429E-005  0.2013876E+03  0.7546771E-02  0.1174373E+00
          2   -1    0    0  503    0 -0.00000000000E+00  0.00000000000E+00  0.12116105693E+04  0.12116105693E+04  0.00000000000E+00 0. -1.
         21   -1    0    0  501  502  0.00000000000E+00 -0.00000000000E+00 -0.19012914859E+03  0.19012914859E+03  0.00000000000E+00 0.  1.
         23    2    1    2    0    0  0.43992089478E+02  0.66848522201E+02  0.81740454544E+02  0.14710735743E+03  0.92493480006E+02 0.  0.
         24    2    1    2    0    0  0.17508390714E+03  0.27322451843E+02  0.36483758300E+03  0.41393404908E+03  0.82668277500E+02 0.  0.
        -13    1    4    4    0    0  0.17316471985E+03  0.74121284961E+01  0.34310014701E+03  0.38439390049E+03  0.00000000000E+00 0.  1.
         14    1    4    4    0    0  0.19191872835E+01  0.19910323347E+02  0.21737435988E+02  0.29540148593E+02  0.00000000000E+00 0. -1.
        -13    1    3    3    0    0  0.61279139561E+02  0.79864250259E+02  0.67684628209E+02  0.12130391713E+03  0.00000000000E+00 0.  1.
         13    1    3    3    0    0 -0.17287050083E+02 -0.13015728058E+02  0.14055826336E+02  0.25803440302E+02  0.00000000000E+00 0. -1.
         21    1    1    2  503  502 -0.14400902517E+03 -0.11668318673E+02 -0.87538556486E+02  0.16893119269E+03  0.00000000000E+00 0.  1.
          1    1    1    2  501    0 -0.75066971442E+02 -0.82502655371E+02  0.66244193964E+03  0.67176711868E+03  0.00000000000E+00 0. -1.
<scales pt_clust_5="13000.00000" pt_clust_6="13000.00000" pt_clust_7="13000.00000" pt_clust_8="13000.00000" pt_clust_9="183.63804" pt_clust_10="111.54260"></scales>
<clustering>
<clus scale="   82.668">  5  6 -1 -1</clus>
<clus scale="   92.493">  7  8 -1 -1</clus>
<clus scale="  111.543">  2 10  1 -1</clus>
<clus scale="  110.624">  1  7  2 -1</clus>
<clus scale="  183.638">  2  9  1 -1</clus>
<clus scale="  111.543">  2  5  1 -1</clus>
</clustering>
</event>
<event>
10    4  0.3043429E-005  0.1774764E+03  0.7546771E-02  0.1171388E+00
         21   -1    0    0  501  502  0.00000000000E+00  0.00000000000E+00  0.52759213888E+02  0.52759213888E+02  0.00000000000E+00 0. -1.
          2   -1    0    0  503    0 -0.00000000000E+00 -0.00000000000E+00 -0.19379798641E+04  0.19379798641E+04  0.00000000000E+00 0. -1.
         24    2    1    2    0    0  0.13633752192E+03  0.92113761427E+02 -0.94687853360E+03  0.96442523360E+03  0.80400304086E+02 0.  0.
         23    2    1    2    0    0 -0.17255826372E+03  0.76656673248E+02 -0.46458332281E+03  0.50943605203E+03  0.89637198474E+02 0.  0.
        -11    1    3    3    0    0  0.66584026904E+02  0.38688317693E+02 -0.23863752615E+03  0.25075503475E+03  0.00000000000E+00 0.  1.
         12    1    3    3    0    0  0.69753495021E+02  0.53425443733E+02 -0.70824100744E+03  0.71367019885E+03  0.00000000000E+00 0. -1.
        -13    1    4    4    0    0 -0.17096904815E+03  0.53725896680E+02 -0.44311868585E+03  0.47798646126E+03  0.00000000000E+00 0. -1.
         13    1    4    4    0    0 -0.15892155742E+01  0.22930776568E+02 -0.21464636954E+02  0.31449590772E+02  0.00000000000E+00 0.  1.
         21    1    1    2  503  502 -0.20973511402E+02 -0.15418601885E+01 -0.16753729240E+02  0.26887784527E+02  0.00000000000E+00 0. -1.
          1    1    1    2  501    0  0.57194253197E+02 -0.16722857449E+03 -0.45700506456E+03  0.48999000781E+03  0.00000000000E+00 0. -1.
<scales pt_clust_5="13000.00000" pt_clust_6="13000.00000" pt_clust_7="13000.00000" pt_clust_8="13000.00000" pt_clust_9="21.03011" pt_clust_10="175.03757"></scales>
<clustering>
<clus scale="   21.030">  1  9  2 -1</clus>
<clus scale="   80.400">  5  6 -1 -1</clus>
<clus scale="   89.637">  7  8 -1 -1</clus>
<clus scale="  175.038">  1 10  2 -1</clus>
<clus scale="  172.995">  2  5  1 -1</clus>
<clus scale="   21.030">  1  5  2 -1</clus>
</clustering>
</event>
<event>
10    4  0.3043429E-005  0.1332844E+03  0.7546771E-02  0.1226841E+00
         21   -1    0    0  501  502  0.00000000000E+00  0.00000000000E+00  0.15272911929E+03  0.15272911929E+03  0.00000000000E+00 0. -1.
          2   -1    0    0  503    0 -0.00000000000E+00 -0.00000000000E+00 -0.24513056487E+03  0.24513056487E+03  0.00000000000E+00 0. -1.
         23    2    1    2    0    0 -0.60140083499E+02 -0.36185713051E+02 -0.34344545788E+02  0.12422623462E+03  0.96573153977E+02 0.  0.
         24    2    1    2    0    0  0.12303114411E+03  0.27796757993E+02 -0.20864245510E+02  0.15110357362E+03  0.80545956106E+02 0.  0.
        -11    1    4    4    0    0  0.57258948586E+01  0.31691501273E+02 -0.65510238222E+01  0.32864160388E+02  0.00000000000E+00 0.  1.
         12    1    4    4    0    0  0.11730524925E+03 -0.38947432801E+01 -0.14313221688E+02  0.11823941323E+03  0.00000000000E+00 0. -1.
        -13    1    3    3    0    0 -0.22854645939E+02 -0.67135064396E+02 -0.21144351155E+02  0.74003616792E+02  0.00000000000E+00 0. -1.
         13    1    3    3    0    0 -0.37285437560E+02  0.30949351345E+02 -0.13200194633E+02  0.50222617824E+02  0.00000000000E+00 0.  1.
         21    1    1    2  503  502  0.20590773657E+02 -0.13443043259E+02  0.70202391753E+01  0.25573015660E+02  0.00000000000E+00 0.  1.
          1    1    1    2  501    0 -0.83481834267E+02  0.21831998317E+02 -0.44212893464E+02  0.96956860261E+02  0.00000000000E+00 0. -1.
<scales pt_clust_5="13000.00000" pt_clust_6="13000.00000" pt_clust_7="13000.00000" pt_clust_8="13000.00000" pt_clust_9="24.59055" pt_clust_10="81.79520"></scales>
<clustering>
<clus scale="   24.591">  1  9  2 -1</clus>
<clus scale="   80.546">  5  6 -1 -1</clus>
<clus scale="   81.795">  1 10  2 -1</clus>
<clus scale="   96.573">  7  8 -1 -1</clus>
<clus scale="  122.172">  1  5  2 -1</clus>
<clus scale="   24.591">  1  5  2 -1</clus>
</clustering>
</event>
<event>
10    4  0.3043429E-005  0.1479171E+03  0.7546771E-02  0.1226509E+00
          2   -1    0    0  503    0 -0.00000000000E+00  0.00000000000E+00  0.32951829839E+03  0.32951829839E+03  0.00000000000E+00 0. -1.
         21   -1    0    0  501  502  0.00000000000E+00 -0.00000000000E+00 -0.30803961994E+03  0.30803961994E+03  0.00000000000E+00 0. -1.
         24    2    1    2    0    0  0.31919689666E+02  0.32003396665E+02 -0.42405365979E+02  0.10139848742E+03  0.80251817431E+02 0.  0.
         23    2    1    2    0    0  0.76733496873E+02 -0.12057550127E+03  0.12176029342E+03  0.20998991708E+03  0.94041029206E+02 0.  0.
        -11    1    3    3    0    0  0.30457526951E+02  0.54448710245E+02 -0.11926001595E+02  0.63518127408E+02  0.00000000000E+00 0.  1.
         12    1    3    3    0    0  0.14621627155E+01 -0.22445313581E+02 -0.30479364384E+02  0.37880360014E+02  0.00000000000E+00 0. -1.
        -13    1    4    4    0    0  0.32308434295E+02 -0.11917541358E+03  0.70665123453E+02  0.14226796477E+03  0.00000000000E+00 0.  1.
         13    1    4    4    0    0  0.44425062577E+02 -0.14000876893E+01  0.51095169969E+02  0.67721952311E+02  0.00000000000E+00 0. -1.
         21    1    1    2  503  502 -0.49201005266E+02  0.15520455819E+02 -0.17120600925E+03  0.17881029353E+03  0.00000000000E+00 0. -1.
          1    1    1    2  501    0 -0.59452181272E+02  0.73051648782E+02  0.11332976026E+03  0.14735922030E+03  0.00000000000E+00 0. -1.
<scales pt_clust_5="13000.00000" pt_clust_6="13000.00000" pt_clust_7="13000.00000" pt_clust_8="13000.00000" pt_clust_9="51.59092" pt_clust_10="114.17424"></scales>
<clustering>
<clus scale="   51.591">  2  9  1 -1</clus>
<clus scale="   80.252">  5  6 -1 -1</clus>
<clus scale="   90.001">  1  5  2 -1</clus>
<clus scale="   94.041">  7  8 -1 -1</clus>
<clus scale="  114.174">  2 10  1 -1</clus>
<clus scale="   51.591">  2  5  1 -1</clus>
</clustering>
</event>
<event>
10    4  0.3043429E-005  0.3134955E+03  0.7546771E-02  0.1082061E+00
         21   -1    0    0  501  502  0.00000000000E+00  0.00000000000E+00  0.51617479255E+03  0.51617479255E+03  0.00000000000E+00 0. -1.
          2   -1    0    0  503    0 -0.00000000000E+00 -0.00000000000E+00 -0.45878119069E+03  0.45878119069E+03  0.00000000000E+00 0. -1.
         24    2    1    2    0    0  0.13476825259E+03 -0.37284348058E+02 -0.45525660819E+01  0.16144515358E+03  0.80568028648E+02 0.  0.
         23    2    1    2    0    0  0.85068973096E+02  0.28999842734E+02  0.62893434404E+01  0.12479999989E+03  0.86358341055E+02 0.  0.
        -13    1    3    3    0    0  0.14269422831E+03 -0.45620571847E+02 -0.30126634750E+01  0.14983976612E+03  0.00000000000E+00 0.  1.
         14    1    3    3    0    0 -0.79259757193E+01  0.83362237887E+01 -0.15399026068E+01  0.11605387464E+02  0.00000000000E+00 0. -1.
        -11    1    4    4    0    0  0.74400843647E+02  0.87769370910E+01  0.39335129816E+02  0.84615439476E+02  0.00000000000E+00 0.  1.
         11    1    4    4    0    0  0.10668129449E+02  0.20222905643E+02 -0.33045786376E+02  0.40184560416E+02  0.00000000000E+00 0. -1.
         21    1    1    2  503  502 -0.83570348049E+02  0.31378656923E+03 -0.68549726714E+02  0.33188112199E+03  0.00000000000E+00 0. -1.
          1    1    1    2  501    0 -0.13626687764E+03 -0.30550206391E+03  0.12420655121E+03  0.35682970778E+03  0.00000000000E+00 0. -1.
<scales pt_clust_5="13000.00000" pt_clust_6="13000.00000" pt_clust_7="13000.00000" pt_clust_8="13000.00000" pt_clust_9="313.49548" pt_clust_10="13000.00000"></scales>
<clustering>
<clus scale="   80.568">  5  6 -1 -1</clus>
<clus scale="   86.358">  7  8 -1 -1</clus>
<clus scale="  101.632">  5  7 -1 -1</clus>
<clus scale="  286.240">  2  5  1 -1</clus>
<clus scale="  313.495">  2  9  1 -1</clus>
<clus scale="  313.495">  1  5  2 -1</clus>
</clustering>
</event>
<event>
10    4  0.3043429E-005  0.1486149E+03  0.7546771E-02  0.1210150E+00
         21   -1    0    0  503  502  0.00000000000E+00  0.00000000000E+00  0.47509830235E+03  0.47509830235E+03  0.00000000000E+00 0. -1.
          2   -1    0    0  502    0 -0.00000000000E+00 -0.00000000000E+00 -0.25528373372E+03  0.25528373372E+03  0.00000000000E+00 0. -1.
         23    2    1    2    0    0  0.81866258264E+02  0.34437148643E+02  0.14825633913E+03  0.19578179329E+03  0.91992211847E+02 0.  0.
         24    2    1    2    0    0 -0.60931575132E+02  0.85155787635E+02 -0.18394631907E+03  0.22664762805E+03  0.81047726578E+02 0.  0.
        -11    1    4    4    0    0 -0.19341532910E+02 -0.14468002193E+02 -0.27981831968E+02  0.36964860381E+02  0.00000000000E+00 0.  1.
         12    1    4    4    0    0 -0.41590042222E+02  0.99623789827E+02 -0.15596448710E+03  0.18968276766E+03  0.00000000000E+00 0. -1.
        -11    1    3    3    0    0  0.55844745101E+02  0.66321985054E+02  0.99278034720E+02  0.13180807803E+03  0.00000000000E+00 0. -1.
         11    1    3    3    0    0  0.26021513163E+02 -0.31884836410E+02  0.48978304413E+02  0.63973715254E+02  0.00000000000E+00 0.  1.
         21    1    1    2  503  501 -0.18664752572E+02  0.18128733752E+02  0.84263305669E+02  0.88189164064E+02  0.00000000000E+00 0.  1.
          1    1    1    2  501    0 -0.22699305610E+01 -0.13772167003E+03  0.17124124290E+03  0.21976345067E+03  0.00000000000E+00 0. -1.
<scales pt_clust_5="13000.00000" pt_clust_6="13000.00000" pt_clust_7="13000.00000" pt_clust_8="13000.00000" pt_clust_9="26.01968" pt_clust_10="124.56987"></scales>
<clustering>
<clus scale="   26.020">  1  9  2 -1</clus>
<clus scale="   81.048">  5  6 -1 -1</clus>
<clus scale="   91.992">  7  8 -1 -1</clus>
<clus scale="  125.234">  2  7  1 -1</clus>
<clus scale="  124.570">  1 10  2 -1</clus>
<clus scale="   26.020">  1  5  2 -1</clus>
</clustering>
</event>
<event>
10    4  0.3043429E-005  0.3269099E+03  0.7546771E-02  0.1125282E+00
         -1   -1    0    0    0  501 -0.00000000000E+00  0.00000000000E+00  0.46497651749E+03  0.46497651749E+03  0.00000000000E+00 0.  1.
         21   -1    0    0  501  502  0.00000000000E+00 -0.00000000000E+00 -0.44515524095E+03  0.44515524095E+03  0.00000000000E+00 0.  1.
         24    2    1    2    0    0  0.10432237216E+02 -0.15877724264E+02 -0.73069974887E+01  0.83157271812E+02  0.80627575566E+02 0.  0.
         23    2    1    2    0    0 -0.26764201627E+03  0.61800395243E+02 -0.24853649089E+02  0.29160725248E+03  0.94686578242E+02 0.  0.
        -11    1    3    3    0    0 -0.31782287335E+02 -0.23903457246E+02 -0.55225585714E+01  0.40149566744E+02  0.00000000000E+00 0.  1.
         12    1    3    3    0    0  0.42214524551E+02  0.80257329815E+01 -0.17844389173E+01  0.43007705068E+02  0.00000000000E+00 0. -1.
        -11    1    4    4    0    0 -0.35477320116E+02  0.29632284407E+02  0.24155471280E+02  0.52155530048E+02  0.00000000000E+00 0. -1.
         11    1    4    4    0    0 -0.23216469615E+03  0.32168110835E+02 -0.49009120369E+02  0.23945172243E+03  0.00000000000E+00 0.  1.
         21    1    1    2  503  502 -0.85364234725E+02 -0.55118220889E+02 -0.11558244091E+03  0.15389727577E+03  0.00000000000E+00 0.  1.
         -2    1    1    2    0  503  0.34257401378E+03  0.91955499106E+01  0.16756436402E+03  0.38146995838E+03  0.00000000000E+00 0.  1.
<scales pt_clust_5="13000.00000" pt_clust_6="13000.00000" pt_clust_7="13000.00000" pt_clust_8="13000.00000" pt_clust_9="101.60914" pt_clust_10="312.89715"></scales>
<clustering>
<clus scale="   80.628">  5  6 -1 -1</clus>
<clus scale="   82.836">  1  5  2 -1</clus>
<clus scale="   94.687">  7  8 -1 -1</clus>
<clus scale="  101.609">  2  9  1 -1</clus>
<clus scale="  312.897">  2 10  1 -1</clus>
<clus scale="  101.609">  2  5  1 -1</clus>
</clustering>
</event>
<event>
10    4  0.3043429E-005  0.1650855E+03  0.7546771E-02  0.1211210E+00
          2   -1    0    0  502    0 -0.00000000000E+00  0.00000000000E+00  0.27097011325E+03  0.27097011325E+03  0.00000000000E+00 0. -1.
         21   -1    0    0  503  502  0.00000000000E+00 -0.00000000000E+00 -0.35767812686E+03  0.35767812686E+03  0.00000000000E+00 0. -1.
         24    2    1    2    0    0 -0.33480863004E+02  0.70462318919E+01  0.45601357917E+02  0.10075116812E+03  0.83070430739E+02 0.  0.
         23    2    1    2    0    0 -0.14403452270E+03 -0.43090405030E+02 -0.11888904685E+03  0.21221956259E+03  0.91103296047E+02 0.  0.
        -13    1    3    3    0    0 -0.19148327556E+02 -0.35211352664E+02  0.38483377398E+02  0.55564990242E+02  0.00000000000E+00 0.  1.
         14    1    3    3    0    0 -0.14332535449E+02  0.42257584556E+02  0.71179805189E+01  0.45186177882E+02  0.00000000000E+00 0. -1.
        -11    1    4    4    0    0 -0.23883556699E+02 -0.15433134017E+02  0.13355667202E+02  0.31416233902E+02  0.00000000000E+00 0.  1.
         11    1    4    4    0    0 -0.12015096600E+03 -0.27657271013E+02 -0.13224471405E+03  0.18080332869E+03  0.00000000000E+00 0. -1.
         21    1    1    2  503  501  0.20340902005E+02  0.29814290326E+02 -0.12023858829E+03  0.12553868852E+03  0.00000000000E+00 0. -1.
          1    1    1    2  501    0  0.15717448370E+03  0.62298828120E+01  0.10681826361E+03  0.19013882088E+03  0.00000000000E+00 0. -1.
<scales pt_clust_5="13000.00000" pt_clust_6="13000.00000" pt_clust_7="13000.00000" pt_clust_8="13000.00000" pt_clust_9="36.09216" pt_clust_10="137.67144"></scales>
<clustering>
<clus scale="   36.092">  2  9  1 -1</clus>
<clus scale="   83.070">  5  6 -1 -1</clus>
<clus scale="   89.323">  1  5  2 -1</clus>
<clus scale="   91.103">  7  8 -1 -1</clus>
<clus scale="  137.671">  2 10  1 -1</clus>
<clus scale="   36.092">  2  5  1 -1</clus>
</clustering>
</event>
<event>
10    4  0.3043429E-005  0.9002605E+02  0.7546771E-02  0.1308570E+00
         21   -1    0    0  501  502  0.00000000000E+00  0.00000000000E+00  0.20075060401E+03  0.20075060401E+03  0.00000000000E+00 0.  1.
          2   -1    0    0  503    0 -0.00000000000E+00 -0.00000000000E+00 -0.16623682705E+03  0.16623682705E+03  0.00000000000E+00 0. -1.
         23    2    1    2    0    0 -0.52986315896E+00 -0.16327564622E+02 -0.37719558144E+02  0.98524371638E+02  0.89540028024E+02 0.  0.
         24    2    1    2    0    0 -0.19356773156E+02 -0.42395033807E+02  0.52115142543E+01  0.93129890545E+02  0.80461127717E+02 0.  0.
        -11    1    4    4    0    0  0.70018693601E+01 -0.49959230514E+02  0.27801500779E+02  0.57600992471E+02  0.00000000000E+00 0.  1.
         12    1    4    4    0    0 -0.26358642516E+02  0.75641967068E+01 -0.22589986525E+02  0.35528898074E+02  0.00000000000E+00 0. -1.
        -13    1    3    3    0    0  0.97206067268E+01  0.31613400580E+02 -0.36817270158E+02  0.49491501020E+02  0.00000000000E+00 0.  1.
         13    1    3    3    0    0 -0.10250469886E+02 -0.47940965202E+02 -0.90228798612E+00  0.49032870618E+02  0.00000000000E+00 0. -1.
         21    1    1    2  503  502  0.38543574966E+01  0.38377723960E+02  0.11473368687E+03  0.12104348256E+03  0.00000000000E+00 0.  1.
          1    1    1    2  501    0  0.16032278819E+02  0.20344874469E+02 -0.47711866021E+02  0.54289686318E+02  0.00000000000E+00 0. -1.
<scales pt_clust_5="13000.00000" pt_clust_6="13000.00000" pt_clust_7="13000.00000" pt_clust_8="13000.00000" pt_clust_9="52.27746" pt_clust_10="25.90267"></scales>
<clustering>
<clus scale="   25.903">  1 10  2 -1</clus>
<clus scale="   52.277">  1  9  2 -1</clus>
<clus scale="   80.461">  5  6 -1 -1</clus>
<clus scale="   81.002">  1  5  2 -1</clus>
<clus scale="   89.540">  7  8 -1 -1</clus>
<clus scale="   25.903">  1  5  2 -1</clus>
</clustering>
</event>
<event>
10    4  0.3043429E-005  0.1446555E+03  0.7546771E-02  0.1208867E+00
         -3   -1    0    0    0  501 -0.00000000000E+00  0.00000000000E+00  0.23013945456E+03  0.23013945456E+03  0.00000000000E+00 0.  1.
         21   -1    0    0  503  502  0.00000000000E+00 -0.00000000000E+00 -0.27554247175E+03  0.27554247175E+03  0.00000000000E+00 0.  1.
         24    2    1    2    0    0  0.33869364426E+02  0.11924783612E+03  0.15276366511E+03  0.21335989140E+03  0.82574364133E+02 0.  0.
         23    2    1    2    0    0 -0.22326031640E+02 -0.57388572749E+02 -0.11345482721E+03  0.15787967257E+03  0.90896057244E+02 0.  0.
        -13    1    3    3    0    0  0.27066797840E+02  0.13097214498E+03  0.12796373937E+03  0.18509736060E+03  0.00000000000E+00 0.  1.
         14    1    3    3    0    0  0.68025665865E+01 -0.11724308859E+02  0.24799925747E+02  0.28262530804E+02  0.00000000000E+00 0. -1.
        -13    1    4    4    0    0  0.23546384961E+02 -0.10891275782E+02 -0.80784416470E+02  0.84847946806E+02  0.00000000000E+00 0.  1.
         13    1    4    4    0    0 -0.45872416601E+02 -0.46497296967E+02 -0.32670410740E+02  0.73031725763E+02  0.00000000000E+00 0. -1.
         21    1    1    2  503  501  0.10164666830E+02  0.17950300283E+02 -0.97457408632E+01  0.22814758316E+02  0.00000000000E+00 0.  1.
         -4    1    1    2    0  502 -0.21707999617E+02 -0.79809563657E+02 -0.74966114225E+02  0.11162760403E+03  0.00000000000E+00 0.  1.
<scales pt_clust_5="13000.00000" pt_clust_6="13000.00000" pt_clust_7="13000.00000" pt_clust_8="13000.00000" pt_clust_9="20.62847" pt_clust_10="75.53833"></scales>
<clustering>
<clus scale="   20.628">  2  9  1 -1</clus>
<clus scale="   75.538">  2 10  1 -1</clus>
<clus scale="   82.574">  5  6 -1 -1</clus>
<clus scale="   90.896">  7  8 -1 -1</clus>
<clus scale="  139.577">  1  5  2 -1</clus>
<clus scale="   20.628">  2  5  1 -1</clus>
</clustering>
</event>
<event>
10    4  0.3043429E-005  0.1675989E+03  0.7546771E-02  0.1212783E+00
          2   -1    0    0  503    0 -0.00000000000E+00  0.00000000000E+00  0.75359123019E+03  0.75359123019E+03  0.00000000000E+00 0. -1.
         21   -1    0    0  501  502  0.00000000000E+00 -0.00000000000E+00 -0.10423198516E+03  0.10423198516E+03  0.00000000000E+00 0. -1.
         24    2    1    2    0    0  0.47367377529E+02  0.65395925921E+01  0.20333806451E+02  0.93750638702E+02  0.78033863464E+02 0.  0.
         23    2    1    2    0    0 -0.43901513844E+02 -0.13840722127E+03  0.47889388926E+03  0.50796956040E+03  0.87234255297E+02 0.  0.
        -11    1    3    3    0    0 -0.18234871682E+02 -0.13636898007E+02  0.30538816769E+01  0.22973935793E+02  0.00000000000E+00 0.  1.
         12    1    3    3    0    0  0.65602249211E+02  0.20176490600E+02  0.17279924774E+02  0.70776702909E+02  0.00000000000E+00 0. -1.
        -11    1    4    4    0    0  0.24993980423E+02 -0.58253867821E+02  0.19460850728E+03  0.20467213606E+03  0.00000000000E+00 0.  1.
         11    1    4    4    0    0 -0.68895494267E+02 -0.80153353449E+02  0.28428538199E+03  0.30329742434E+03  0.00000000000E+00 0. -1.
         21    1    1    2  503  502 -0.46455243783E+02 -0.12006455875E+02  0.66979305640E+01  0.48446949661E+02  0.00000000000E+00 0. -1.
          1    1    1    2  501    0  0.42989380098E+02  0.14387408455E+03  0.14343361875E+03  0.20765606660E+03  0.00000000000E+00 0. -1.
<scales pt_clust_5="13000.00000" pt_clust_6="13000.00000" pt_clust_7="13000.00000" pt_clust_8="13000.00000" pt_clust_9="47.98171" pt_clust_10="143.10691"></scales>
<clustering>
<clus scale="   47.982">  2  9  1 -1</clus>
<clus scale="   78.034">  5  6 -1 -1</clus>
<clus scale="   82.553">  1  5  2 -1</clus>
<clus scale="   87.234">  7  8 -1 -1</clus>
<clus scale="  143.107">  2 10  1 -1</clus>
<clus scale="   47.982">  2  5  1 -1</clus>
</clustering>
</event>
<event>
10    4  0.3043429E-005  0.9599103E+02  0.7546771E-02  0.1294436E+00
          2   -1    0    0  503    0 -0.00000000000E+00  0.00000000000E+00  0.13332500218E+04  0.13332500218E+04  0.00000000000E+00 0. -1.
         21   -1    0    0  501  502  0.00000000000E+00 -0.00000000000E+00 -0.29433515354E+02  0.29433515354E+02  0.00000000000E+00 0. -1.
         24    2    1    2    0    0  0.37598395177E+02  0.47640825998E+01  0.81215661224E+03  0.81708280564E+03  0.81176429254E+02 0.  0.
         23    2    1    2    0    0  0.61899315570E+01  0.60237180368E+02  0.26831531029E+03  0.28974894421E+03  0.91074210318E+02 0.  0.
        -13    1    3    3    0    0  0.20100999678E+02 -0.22837367682E+02  0.10897365832E+03  0.11314085804E+03  0.00000000000E+00 0.  1.
         14    1    3    3    0    0  0.17497395500E+02  0.27601450282E+02  0.70318295392E+03  0.70394194760E+03  0.00000000000E+00 0. -1.
        -11    1    4    4    0    0 -0.40977391178E+02  0.18110487454E+02  0.13398108722E+03  0.14127302672E+03  0.00000000000E+00 0.  1.
         11    1    4    4    0    0  0.47167322735E+02  0.42126692914E+02  0.13433422306E+03  0.14847591749E+03  0.00000000000E+00 0. -1.
         21    1    1    2  503  502  0.13384478052E+02 -0.19763093945E+02  0.33640146321E+01  0.24104786442E+02  0.00000000000E+00 0.  1.
          1    1    1    2  501    0 -0.57172804786E+02 -0.45238169023E+02  0.21998056929E+03  0.23174700086E+03  0.00000000000E+00 0. -1.
<scales pt_clust_5="13000.00000" pt_clust_6="13000.00000" pt_clust_7="13000.00000" pt_clust_8="13000.00000" pt_clust_9="23.86889" pt_clust_10="73.81731"></scales>
<clustering>
<clus scale="   23.869">  2  9  1 -1</clus>
<clus scale="   73.817">  2 10  1 -1</clus>
<clus scale="   81.176">  5  6 -1 -1</clus>
<clus scale="   86.657">  1  5  2 -1</clus>
<clus scale="   91.074">  7  8 -1 -1</clus>
<clus scale="   23.869">  2  5  1 -1</clus>
</clustering>
</event>
<event>
10    4  0.3138812E-005  0.1113623E+03  0.7546771E-02  0.1263319E+00
          2   -1    0    0  503    0 -0.00000000000E+00  0.00000000000E+00  0.88395478741E+03  0.88395478741E+03  0.00000000000E+00 0. -1.
         21   -1    0    0  501  502  0.00000000000E+00 -0.00000000000E+00 -0.12817254409E+03  0.12817254409E+03  0.00000000000E+00 0.  1.
         23    2    1    2    0    0  0.17567153687E+02 -0.50089687266E+02  0.42069729385E+03  0.43424697216E+03  0.93630326954E+02 0.  0.
         24    2    1    2    0    0 -0.31212432792E+02  0.17119194254E+03 -0.17911145240E+02  0.19250310413E+03  0.80347612430E+02 0.  0.
        -11    1    4    4    0    0 -0.57121072854E+02  0.13916707842E+03 -0.15704781342E+02  0.15125122425E+03  0.00000000000E+00 0.  1.
         12    1    4    4    0    0  0.25908640062E+02  0.32024864120E+02 -0.22063638980E+01  0.41251879877E+02  0.00000000000E+00 0. -1.
        -11    1    3    3    0    0 -0.32601636293E+02 -0.42810740816E+02  0.16434568800E+03  0.17293100180E+03  0.00000000000E+00 0. -1.
         11    1    3    3    0    0  0.50168789980E+02 -0.72789464494E+01  0.25635160584E+03  0.26131597036E+03  0.00000000000E+00 0.  1.
         21    1    1    2  503  502  0.26032866177E+02 -0.34378299388E+02  0.35012356202E+02  0.55546761175E+02  0.00000000000E+00 0. -1.
          1    1    1    2  501    0 -0.12387587073E+02 -0.86723955891E+02  0.31798373851E+03  0.32983049404E+03  0.00000000000E+00 0. -1.
<scales pt_clust_5="13000.00000" pt_clust_6="13000.00000" pt_clust_7="13000.00000" pt_clust_8="13000.00000" pt_clust_9="43.12282" pt_clust_10="89.14236"></scales>
<clustering>
<clus scale="   43.123">  2  9  1 -1</clus>
<clus scale="   80.348">  5  6 -1 -1</clus>
<clus scale="   89.142">  2 10  1 -1</clus>
<clus scale="   93.630">  7  8 -1 -1</clus>
<clus scale="  100.452">  2  5  1 -1</clus>
<clus scale="   43.123">  2  5  1 -1</clus>
</clustering>
</event>
<event>
10    4  0.3043429E-005  0.2644741E+03  0.7546771E-02  0.1139525E+00
          2   -1    0    0  502    0 -0.00000000000E+00  0.00000000000E+00  0.25443428877E+04  0.25443428877E+04  0.00000000000E+00 0. -1.
         21   -1    0    0  503  502  0.00000000000E+00 -0.00000000000E+00 -0.54387621778E+02  0.54387621778E+02  0.00000000000E+00 0. -1.
         24    2    1    2    0    0  0.59389102090E+02 -0.44754184146E+02  0.45485254499E+03  0.46792261766E+03  0.80812969157E+02 0.  0.
         23    2    1    2    0    0  0.12377150234E+03 -0.19366164052E+03  0.47127972149E+03  0.53231030821E+03  0.91790372807E+02 0.  0.
        -11    1    3    3    0    0 -0.67461509749E+01 -0.37677670372E+02  0.10397846947E+03  0.11079999779E+03  0.00000000000E+00 0.  1.
         12    1    3    3    0    0  0.66135253064E+02 -0.70765137735E+01  0.35087407553E+03  0.35712261987E+03  0.00000000000E+00 0. -1.
        -13    1    4    4    0    0  0.26086827857E+02 -0.12302618291E+03  0.21465059193E+03  0.24877869862E+03  0.00000000000E+00 0. -1.
         13    1    4    4    0    0  0.97684674485E+02 -0.70635457606E+02  0.25662912956E+03  0.28353160959E+03  0.00000000000E+00 0.  1.
         21    1    1    2  503  501  0.18645842246E+02  0.13543412777E+02  0.53571999480E+02  0.58318526996E+02  0.00000000000E+00 0. -1.
          1    1    1    2  501    0 -0.20180644668E+03  0.22487241189E+03  0.15102510000E+04  0.15401790566E+04  0.00000000000E+00 0. -1.
<scales pt_clust_5="13000.00000" pt_clust_6="13000.00000" pt_clust_7="13000.00000" pt_clust_8="13000.00000" pt_clust_9="23.04542" pt_clust_10="248.03454"></scales>
<clustering>
<clus scale="   23.045">  2  9  1 -1</clus>
<clus scale="   80.813">  5  6 -1 -1</clus>
<clus scale="   91.790">  7  8 -1 -1</clus>
<clus scale="  110.431">  1  5  2 -1</clus>
<clus scale="  248.035">  2 10  1 -1</clus>
<clus scale="   23.045">  2  5  1 -1</clus>
</clustering>
</event>
<event>
10    4  0.3043429E-005  0.1282461E+03  0.7546771E-02  0.1250041E+00
          2   -1    0    0  503    0 -0.00000000000E+00  0.00000000000E+00  0.38996687534E+03  0.38996687534E+03  0.00000000000E+00 0. -1.
         21   -1    0    0  501  502  0.00000000000E+00 -0.00000000000E+00 -0.46266338328E+03  0.46266338328E+03  0.00000000000E+00 0.  1.
         24    2    1    2    0    0  0.99062793145E+00  0.30400066016E+02 -0.38564494057E+01  0.85593699462E+02  0.79914102811E+02 0.  0.
         23    2    1    2    0    0 -0.43922704318E+02 -0.25372964527E+02  0.54213253331E+02  0.11668812292E+03  0.90022496691E+02 0.  0.
        -13    1    3    3    0    0 -0.26886828708E+01  0.57280089224E+02 -0.88056263724E+01  0.58015314297E+02  0.00000000000E+00 0.  1.
         14    1    3    3    0    0  0.36793108022E+01 -0.26880023209E+02  0.49491769667E+01  0.27578385165E+02  0.00000000000E+00 0. -1.
        -11    1    4    4    0    0 -0.38325332117E+02  0.25114783768E+02  0.52258741498E+01  0.46118252419E+02  0.00000000000E+00 0. -1.
         11    1    4    4    0    0 -0.55973722004E+01 -0.50487748295E+02  0.48987379182E+02  0.70569870501E+02  0.00000000000E+00 0.  1.
         21    1    1    2  503  502 -0.66815395831E+02 -0.59248921350E+02 -0.36684083668E+03  0.37755387862E+03  0.00000000000E+00 0.  1.
          1    1    1    2  501    0  0.10974747222E+03  0.54221819862E+02  0.24378752482E+03  0.27279455761E+03  0.00000000000E+00 0. -1.
<scales pt_clust_5="13000.00000" pt_clust_6="13000.00000" pt_clust_7="13000.00000" pt_clust_8="13000.00000" pt_clust_9="88.98115" pt_clust_10="91.34010"></scales>
<clustering>
<clus scale="   79.914">  5  6 -1 -1</clus>
<clus scale="   85.507">  1  5  2 -1</clus>
<clus scale="   88.981">  2  9  1 -1</clus>
<clus scale="   90.022">  7  8 -1 -1</clus>
<clus scale="   91.340">  2 10  1 -1</clus>
<clus scale="   88.981">  2  5  1 -1</clus>
</clustering>
</event>
<event>
10    4  0.3043429E-005  0.1531797E+03  0.7546771E-02  0.1223426E+00
          2   -1    0    0  502    0 -0.00000000000E+00  0.00000000000E+00  0.86277261475E+03  0.86277261475E+03  0.00000000000E+00 0. -1.
         21   -1    0    0  503  502  0.00000000000E+00 -0.00000000000E+00 -0.57314571070E+02  0.57314571070E+02  0.00000000000E+00 0.  1.
         24    2    1    2    0    0 -0.11029140274E+02 -0.17084189802E+02  0.29350209185E+03  0.30574306503E+03  0.83197550547E+02 0.  0.
         23    2    1    2    0    0  0.98191855727E+02 -0.81658273488E+02  0.25815213336E+03  0.30281287087E+03  0.93506131604E+02 0.  0.
        -13    1    3    3    0    0 -0.47397241248E+02 -0.86174996825E+01  0.15687848476E+03  0.16410855785E+03  0.00000000000E+00 0.  1.
         14    1    3    3    0    0  0.36368100974E+02 -0.84666901200E+01  0.13662360709E+03  0.14163450718E+03  0.00000000000E+00 0. -1.
        -11    1    4    4    0    0  0.80397216639E+02 -0.82251563338E+01  0.15672837789E+03  0.17633816965E+03  0.00000000000E+00 0. -1.
         11    1    4    4    0    0  0.17794639088E+02 -0.73433117155E+02  0.10142375547E+03  0.12647470122E+03  0.00000000000E+00 0.  1.
         21    1    1    2  503  501 -0.26380924121E+02 -0.64141769919E+01 -0.31358801927E+01  0.27329993936E+02  0.00000000000E+00 0.  1.
          1    1    1    2  501    0 -0.60781791333E+02  0.10515664028E+03  0.25693969867E+03  0.28420125599E+03  0.00000000000E+00 0. -1.
<scales pt_clust_5="13000.00000" pt_clust_6="13000.00000" pt_clust_7="13000.00000" pt_clust_8="13000.00000" pt_clust_9="27.14949" pt_clust_10="121.32858"></scales>
<clustering>
<clus scale="   27.149">  2  9  1 -1</clus>
<clus scale="   83.198">  5  6 -1 -1</clus>
<clus scale="   86.414">  1  5  2 -1</clus>
<clus scale="   93.506">  7  8 -1 -1</clus>
<clus scale="  121.329">  2 10  1 -1</clus>
<clus scale="   27.149">  2  5  1 -1</clus>
</clustering>
</event>
<event>
10    4  0.3043429E-005  0.1521570E+03  0.7546771E-02  0.1217436E+00
          2   -1    0    0  502    0 -0.00000000000E+00  0.00000000000E+00  0.14440931538E+04  0.14440931538E+04  0.00000000000E+00 0. -1.
         21   -1    0    0  503  502  0.00000000000E+00 -0.00000000000E+00 -0.45753958141E+02  0.45753958141E+02  0.00000000000E+00 0. -1.
         24    2    1    2    0    0  0.64398411126E+02  0.91152809893E+01  0.70395305291E+03  0.71121662532E+03  0.77774955637E+02 0.  0.
         23    2    1    2    0    0  0.66218917610E+01  0.10518938515E+03  0.55460392982E+03  0.57222844756E+03  0.93547961094E+02 0.  0.
        -13    1    3    3    0    0  0.46800007727E+02 -0.43253536267E+01  0.15867919356E+03  0.16549331066E+03  0.00000000000E+00 0.  1.
         14    1    3    3    0    0  0.17598403399E+02  0.13440634616E+02  0.54527385935E+03  0.54572331465E+03  0.00000000000E+00 0. -1.
        -13    1    4    4    0    0 -0.26638661458E+02 -0.31936967975E+01  0.85026994812E+02  0.89159451716E+02  0.00000000000E+00 0.  1.
         13    1    4    4    0    0  0.33260553219E+02  0.10838308195E+03  0.46957693501E+03  0.48306899584E+03  0.00000000000E+00 0. -1.
         21    1    1    2  503  501 -0.20647965918E+02 -0.51682814547E+01 -0.97283336643E+00  0.21307182698E+02  0.00000000000E+00 0. -1.
          1    1    1    2  501    0 -0.50372336969E+02 -0.10913638469E+03  0.14075504629E+03  0.18509485636E+03  0.00000000000E+00 0. -1.
<scales pt_clust_5="13000.00000" pt_clust_6="13000.00000" pt_clust_7="13000.00000" pt_clust_8="13000.00000" pt_clust_9="21.28496" pt_clust_10="120.00218"></scales>
<clustering>
<clus scale="   21.285">  2  9  1 -1</clus>
<clus scale="   77.775">  5  6 -1 -1</clus>
<clus scale="   93.548">  7  8 -1 -1</clus>
<clus scale="   99.976">  1  5  2 -1</clus>
<clus scale="  120.002">  2 10  1 -1</clus>
<clus scale="   21.285">  2  5  1 -1</clus>
</clustering>
</event>
<event>
10    4  0.3043429E-005  0.2004122E+03  0.7546771E-02  0.1174280E+00
         21   -1    0    0  501  502  0.00000000000E+00  0.00000000000E+00  0.19772429211E+03  0.19772429211E+03  0.00000000000E+00 0. -1.
          2   -1    0    0  503    0 -0.00000000000E+00 -0.00000000000E+00 -0.40581450837E+03  0.40581450837E+03  0.00000000000E+00 0. -1.
         23    2    1    2    0    0 -0.58049561320E+02  0.53356090279E+01 -0.99313819235E+02  0.14706209950E+03  0.91464780785E+02 0.  0.
         24    2    1    2    0    0 -0.11222465140E+03  0.11580795338E+03  0.18430151850E+01  0.18022410208E+03  0.80445483523E+02 0.  0.
        -11    1    4    4    0    0 -0.63257868383E+02  0.10726982489E+02 -0.25415221509E+01  0.64211256027E+02  0.00000000000E+00 0.  1.
         12    1    4    4    0    0 -0.48966783013E+02  0.10508097089E+03  0.43845373359E+01  0.11601284606E+03  0.00000000000E+00 0. -1.
        -13    1    3    3    0    0 -0.76979011922E+02 -0.17718650231E+01 -0.45180722315E+02  0.89276007141E+02  0.00000000000E+00 0. -1.
         13    1    3    3    0    0  0.18929450602E+02  0.71074740510E+01 -0.54133096920E+02  0.57786092355E+02  0.00000000000E+00 0.  1.
         21    1    1    2  503  502 -0.21979446449E+02  0.31695568001E+01 -0.20461783321E+02  0.30196468886E+02  0.00000000000E+00 0. -1.
          1    1    1    2  501    0  0.19225365916E+03 -0.12431311921E+03 -0.90157628896E+02  0.24605613001E+03  0.00000000000E+00 0. -1.
<scales pt_clust_5="13000.00000" pt_clust_6="13000.00000" pt_clust_7="13000.00000" pt_clust_8="13000.00000" pt_clust_9="22.20680" pt_clust_10="183.55820"></scales>
<clustering>
<clus scale="   22.207">  2  9  1 -1</clus>
<clus scale="   80.445">  5  6 -1 -1</clus>
<clus scale="   91.465">  7  8 -1 -1</clus>
<clus scale="  112.485">  2  7  1 -1</clus>
<clus scale="  183.558">  1 10  2 -1</clus>
<clus scale="  183.558">  1  5  2 -1</clus>
</clustering>
</event>
<event>
10    4  0.3043429E-005  0.1462568E+03  0.7546771E-02  0.1225604E+00
         21   -1    0    0  503  502  0.00000000000E+00  0.00000000000E+00  0.16604233599E+03  0.16604233599E+03  0.00000000000E+00 0. -1.
         -3   -1    0    0    0  501 -0.00000000000E+00 -0.00000000000E+00 -0.35497191233E+03  0.35497191233E+03  0.00000000000E+00 0.  1.
         24    2    1    2    0    0  0.49582661128E+02  0.19803234750E+02 -0.39217031884E+02  0.10265664401E+03  0.78420676988E+02 0.  0.
         23    2    1    2    0    0 -0.12402241408E+03  0.55184470144E+02 -0.11875906298E+03  0.20182318652E+03  0.90564886348E+02 0.  0.
        -13    1    3    3    0    0  0.82527872987E+01 -0.25825232804E+02 -0.29950816178E+02  0.40399288821E+02  0.00000000000E+00 0.  1.
         14    1    3    3    0    0  0.41329873830E+02  0.45628467553E+02 -0.92662157063E+01  0.62257355192E+02  0.00000000000E+00 0. -1.
        -11    1    4    4    0    0 -0.99546007969E+02  0.13862873541E+00 -0.93258527655E+02  0.13640593792E+03  0.00000000000E+00 0. -1.
         11    1    4    4    0    0 -0.24476406110E+02  0.55045841409E+02 -0.25500535328E+02  0.65417248601E+02  0.00000000000E+00 0.  1.
         21    1    1    2  503  501  0.11615627334E+03  0.11287356735E+02 -0.30814176038E+02  0.12070293162E+03  0.00000000000E+00 0.  1.
         -4    1    1    2    0  502 -0.41716520386E+02 -0.86275061629E+02 -0.13930543638E+00  0.95831486152E+02  0.00000000000E+00 0.  1.
<scales pt_clust_5="13000.00000" pt_clust_6="13000.00000" pt_clust_7="13000.00000" pt_clust_8="13000.00000" pt_clust_9="114.84359" pt_clust_10="89.38036"></scales>
<clustering>
<clus scale="   78.421">  5  6 -1 -1</clus>
<clus scale="   90.565">  7  8 -1 -1</clus>
<clus scale="   94.870">  2  5  1 -1</clus>
<clus scale="   89.380">  1 10  2 -1</clus>
<clus scale="  114.844">  1  9  2 -1</clus>
<clus scale="   89.380">  1  5  2 -1</clus>
</clustering>
</event>
<event>
10    4  0.3043429E-005  0.1767281E+03  0.7546771E-02  0.1194817E+00
          2   -1    0    0  503    0 -0.00000000000E+00  0.00000000000E+00  0.83728729493E+03  0.83728729493E+03  0.00000000000E+00 0. -1.
         21   -1    0    0  501  502  0.00000000000E+00 -0.00000000000E+00 -0.86310868275E+02  0.86310868275E+02  0.00000000000E+00 0. -1.
         23    2    1    2    0    0 -0.32139040383E+02  0.18283543993E+02  0.98852653989E+01  0.99241328574E+02  0.91563731507E+02 0.  0.
         24    2    1    2    0    0  0.16313123286E+03  0.11759553203E+02  0.35496938151E+03  0.40532528692E+03  0.10740223547E+03 0.  0.
        -11    1    4    4    0    0  0.64652495435E+02 -0.16361660955E+02  0.24971478611E+03  0.25846687122E+03  0.00000000000E+00 0.  1.
         12    1    4    4    0    0  0.98478737423E+02  0.28121214158E+02  0.10525459540E+03  0.14685841570E+03  0.00000000000E+00 0. -1.
        -13    1    3    3    0    0 -0.15441722379E+02 -0.14699935014E+02  0.44027817374E+02  0.48918131426E+02  0.00000000000E+00 0.  1.
         13    1    3    3    0    0 -0.16697318004E+02  0.32983479006E+02 -0.34142551975E+02  0.50323197149E+02  0.00000000000E+00 0. -1.
         21    1    1    2  503  502 -0.17197275753E+02  0.12203106315E+02  0.91275871641E+01  0.22977705379E+02  0.00000000000E+00 0.  1.
          1    1    1    2  501    0 -0.11379491672E+03 -0.42246203511E+02  0.37699419259E+03  0.39605384233E+03  0.00000000000E+00 0. -1.
<scales pt_clust_5="13000.00000" pt_clust_6="13000.00000" pt_clust_7="13000.00000" pt_clust_8="13000.00000" pt_clust_9="21.08701" pt_clust_10="140.34816"></scales>
<clustering>
<clus scale="   21.087">  2  9  1 -1</clus>
<clus scale="   91.564">  7  8 -1 -1</clus>
<clus scale="  103.756">  1  7  2 -1</clus>
<clus scale="  107.402">  5  6 -1 -1</clus>
<clus scale="  140.348">  2 10  1 -1</clus>
<clus scale="   21.087">  2  5  1 -1</clus>
</clustering>
</event>
<event>
10    4  0.3043429E-005  0.1080555E+03  0.7546771E-02  0.1275545E+00
          2   -1    0    0  502    0 -0.00000000000E+00  0.00000000000E+00  0.54027890425E+03  0.54027890425E+03  0.00000000000E+00 0. -1.
         21   -1    0    0  503  502  0.00000000000E+00 -0.00000000000E+00 -0.12014944808E+03  0.12014944808E+03  0.00000000000E+00 0.  1.
         24    2    1    2    0    0 -0.34273992211E+00  0.48474064141E+02  0.22965162069E+03  0.24819846913E+03  0.80701677978E+02 0.  0.
         23    2    1    2    0    0 -0.43322335363E+02  0.25150899891E+02  0.89747889244E+02  0.14567372531E+03  0.10323157519E+03 0.  0.
        -11    1    3    3    0    0  0.24995937259E+02  0.55394697089E+02  0.19773281979E+03  0.20686139651E+03  0.00000000000E+00 0.  1.
         12    1    3    3    0    0 -0.25338677181E+02 -0.69206329482E+01  0.31918800894E+02  0.41337072613E+02  0.00000000000E+00 0. -1.
        -13    1    4    4    0    0  0.20090600614E+02  0.24329358427E+02 -0.47093261402E+01  0.31901844260E+02  0.00000000000E+00 0.  1.
         13    1    4    4    0    0 -0.63412935977E+02  0.82154146380E+00  0.94457215384E+02  0.11377188105E+03  0.00000000000E+00 0. -1.
         21    1    1    2  503  501 -0.13749684491E+02 -0.18633400517E+02 -0.72417041688E+02  0.76029503255E+02  0.00000000000E+00 0.  1.
          1    1    1    2  501    0  0.57414759776E+02 -0.54991563515E+02  0.17314698793E+03  0.19052665464E+03  0.00000000000E+00 0. -1.
<scales pt_clust_5="13000.00000" pt_clust_6="13000.00000" pt_clust_7="13000.00000" pt_clust_8="13000.00000" pt_clust_9="23.15723" pt_clust_10="80.17952"></scales>
<clustering>
<clus scale="   23.157">  2  9  1 -1</clus>
<clus scale="   80.180">  2 10  1 -1</clus>
<clus scale="   80.702">  5  6 -1 -1</clus>
<clus scale="   86.787">  1  5  2 -1</clus>
<clus scale="  103.232">  7  8 -1 -1</clus>
<clus scale="   23.157">  2  5  1 -1</clus>
</clustering>
</event>
<event>
10    4  0.3043429E-005  0.2222603E+03  0.7546771E-02  0.1158604E+00
         21   -1    0    0  503  502  0.00000000000E+00  0.00000000000E+00  0.71353979041E+02  0.71353979041E+02  0.00000000000E+00 0. -1.
         -3   -1    0    0    0  501 -0.00000000000E+00 -0.00000000000E+00 -0.17728222155E+04  0.17728222155E+04  0.00000000000E+00 0.  1.
         24    2    1    2    0    0 -0.29508473203E+02 -0.84326453375E+02 -0.72243041852E+03  0.73231197819E+03  0.79958883634E+02 0.  0.
         23    2    1    2    0    0 -0.49794468803E+02  0.22431701631E+03 -0.34026565942E+03  0.42079710738E+03  0.92151362796E+02 0.  0.
        -11    1    3    3    0    0  0.14327505276E+02 -0.72236771350E+02 -0.40500979631E+03  0.41165077875E+03  0.00000000000E+00 0.  1.
         12    1    3    3    0    0 -0.43835978479E+02 -0.12089682025E+02 -0.31742062221E+03  0.32066119944E+03  0.00000000000E+00 0. -1.
        -11    1    4    4    0    0 -0.17468524547E+02  0.42945187906E+02 -0.14547922394E+03  0.15268805818E+03  0.00000000000E+00 0.  1.
         11    1    4    4    0    0 -0.32325944256E+02  0.18137182841E+03 -0.19478643548E+03  0.26810904919E+03  0.00000000000E+00 0. -1.
         21    1    1    2  503  501  0.42097564063E+02  0.11291875205E+02 -0.11977194666E+02  0.45201377609E+02  0.00000000000E+00 0. -1.
         -4    1    1    2    0  502  0.37205377943E+02 -0.15128243814E+03 -0.62679496387E+03  0.64586573138E+03  0.00000000000E+00 0.  1.
<scales pt_clust_5="13000.00000" pt_clust_6="13000.00000" pt_clust_7="13000.00000" pt_clust_8="13000.00000" pt_clust_9="43.58568" pt_clust_10="202.25682"></scales>
<clustering>
<clus scale="   43.586">  1  9  2 -1</clus>
<clus scale="   79.959">  5  6 -1 -1</clus>
<clus scale="   92.151">  7  8 -1 -1</clus>
<clus scale="  118.298">  2  5  1 -1</clus>
<clus scale="  202.257">  1 10  2 -1</clus>
<clus scale="   43.586">  1  5  2 -1</clus>
</clustering>
</event>
<event>
10    4  0.3043429E-005  0.1283787E+03  0.7546771E-02  0.1241370E+00
         21   -1    0    0  501  502  0.00000000000E+00  0.00000000000E+00  0.70626282031E+03  0.70626282031E+03  0.00000000000E+00 0. -1.
         -3   -1    0    0    0  501 -0.00000000000E+00 -0.00000000000E+00 -0.88119821554E+02  0.88119821554E+02  0.00000000000E+00 0.  1.
         24    2    1    2    0    0  0.55220860093E+01 -0.67900860606E+02  0.15749137904E+02  0.10441587122E+03  0.77547524229E+02 0.  0.
         23    2    1    2    0    0 -0.11780521166E+02 -0.87393949679E+02  0.42648784093E+03  0.44639233380E+03  0.97968127967E+02 0.  0.
        -13    1    3    3    0    0 -0.35965309209E+02 -0.28796856694E+02  0.43749813654E+01  0.46280696666E+02  0.00000000000E+00 0.  1.
         14    1    3    3    0    0  0.41487395219E+02 -0.39104003912E+02  0.11374156539E+02  0.58135174558E+02  0.00000000000E+00 0. -1.
        -13    1    4    4    0    0 -0.31915721327E+02 -0.83944958922E+02  0.41115753394E+03  0.42085138364E+03  0.00000000000E+00 0. -1.
         13    1    4    4    0    0  0.20135200161E+02 -0.34489907574E+01  0.15330306988E+02  0.25540950161E+02  0.00000000000E+00 0.  1.
         21    1    1    2  503  502  0.10737658346E+02  0.28756428610E+02  0.77041069281E+02  0.82931030677E+02  0.00000000000E+00 0.  1.
         -4    1    1    2    0  503 -0.44792231901E+01  0.12653838168E+03  0.98864950641E+02  0.16064340616E+03  0.00000000000E+00 0.  1.
<scales pt_clust_5="13000.00000" pt_clust_6="13000.00000" pt_clust_7="13000.00000" pt_clust_8="13000.00000" pt_clust_9="30.69576" pt_clust_10="82.96588"></scales>
<clustering>
<clus scale="   30.696">  1  9  2 -1</clus>
<clus scale="   77.548">  5  6 -1 -1</clus>
<clus scale="   97.968">  7  8 -1 -1</clus>
<clus scale="  101.489">  2  5  1 -1</clus>
<clus scale="   82.966">  1 10  2 -1</clus>
<clus scale="   30.696">  1  5  2 -1</clus>
</clustering>
</event>
<event>
10    4  0.3043429E-005  0.9462370E+02  0.7546771E-02  0.1295769E+00
         -1   -1    0    0    0  501 -0.00000000000E+00  0.00000000000E+00  0.36921212596E+03  0.36921212596E+03  0.00000000000E+00 0.  1.
         21   -1    0    0  503  502  0.00000000000E+00 -0.00000000000E+00 -0.18081151545E+03  0.18081151545E+03  0.00000000000E+00 0. -1.
         23    2    1    2    0    0  0.23059412384E+02 -0.20428868009E+02  0.13741278631E+03  0.15830736219E+03  0.72317853505E+02 0.  0.
         24    2    1    2    0    0 -0.27724295972E+02  0.91148184143E+02  0.16665164233E+03  0.20795206990E+03  0.79966651949E+02 0.  0.
        -13    1    4    4    0    0 -0.10965158362E+02  0.83775153101E+02  0.70403794559E+02  0.10997820358E+03  0.00000000000E+00 0.  1.
         14    1    4    4    0    0 -0.16759137610E+02  0.73730310423E+01  0.96247847773E+02  0.97973866317E+02  0.00000000000E+00 0. -1.
        -13    1    3    3    0    0  0.37490085489E+02 -0.38301290893E+02  0.11127812960E+03  0.12351241849E+03  0.00000000000E+00 0. -1.
         13    1    3    3    0    0 -0.14430673105E+02  0.17872422884E+02  0.26134656714E+02  0.34794943707E+02  0.00000000000E+00 0.  1.
         21    1    1    2  503  501 -0.11858454917E+02 -0.51516071392E+02 -0.13937620719E+03  0.14906460242E+03  0.00000000000E+00 0. -1.
         -2    1    1    2    0  502  0.16523338506E+02 -0.19203244741E+02  0.23712389057E+02  0.34699606896E+02  0.00000000000E+00 0.  1.
<scales pt_clust_5="13000.00000" pt_clust_6="13000.00000" pt_clust_7="13000.00000" pt_clust_8="13000.00000" pt_clust_9="67.33542" pt_clust_10="25.33349"></scales>
<clustering>
<clus scale="   25.333">  2 10  1 -1</clus>
<clus scale="   67.335">  2  9  1 -1</clus>
<clus scale="   72.318">  7  8 -1 -1</clus>
<clus scale="   79.967">  5  6 -1 -1</clus>
<clus scale="   88.254">  1  7  2 -1</clus>
<clus scale="   25.333">  2  5  1 -1</clus>
</clustering>
</event>
<event>
10    4  0.3043429E-005  0.1224950E+03  0.7546771E-02  0.1243278E+00
         21   -1    0    0  503  502  0.00000000000E+00  0.00000000000E+00  0.14386343922E+03  0.14386343922E+03  0.00000000000E+00 0. -1.
          4   -1    0    0  502    0 -0.00000000000E+00 -0.00000000000E+00 -0.29769005458E+03  0.29769005458E+03  0.00000000000E+00 0. -1.
         23    2    1    2    0    0  0.12448651720E+00 -0.81630337154E+02 -0.11165701705E+03  0.16633539113E+03  0.92393968656E+02 0.  0.
         24    2    1    2    0    0 -0.27226142488E+02  0.76818810596E+02 -0.53585876986E+02  0.12521990427E+03  0.78525064258E+02 0.  0.
        -13    1    4    4    0    0  0.24397250615E+02  0.15405557968E+02 -0.20353576067E+00  0.28854782631E+02  0.00000000000E+00 0.  1.
         14    1    4    4    0    0 -0.51623393102E+02  0.61413252628E+02 -0.53382341226E+02  0.96365121639E+02  0.00000000000E+00 0. -1.
        -11    1    3    3    0    0 -0.35956788523E+02 -0.44919928769E+02 -0.19455511897E+02  0.60738847410E+02  0.00000000000E+00 0.  1.
         11    1    3    3    0    0  0.36081275040E+02 -0.36710408385E+02 -0.92201505157E+02  0.10559654372E+03  0.00000000000E+00 0. -1.
         21    1    1    2  503  501 -0.23771045681E+02 -0.24030301781E+02  0.63339327221E+02  0.71794069318E+02  0.00000000000E+00 0. -1.
          3    1    1    2  501    0  0.50872701652E+02  0.28841828339E+02 -0.51923048546E+02  0.78204129083E+02  0.00000000000E+00 0. -1.
<scales pt_clust_5="13000.00000" pt_clust_6="13000.00000" pt_clust_7="13000.00000" pt_clust_8="13000.00000" pt_clust_9="33.80115" pt_clust_10="52.90072"></scales>
<clustering>
<clus scale="   33.801">  1  9  2 -1</clus>
<clus scale="   52.901">  1 10  2 -1</clus>
<clus scale="   78.525">  5  6 -1 -1</clus>
<clus scale="   92.394">  7  8 -1 -1</clus>
<clus scale="  112.404">  1  5  2 -1</clus>
<clus scale="   33.801">  1  5  2 -1</clus>
</clustering>
</event>
<event>
10    4  0.3043429E-005  0.2665809E+03  0.7546771E-02  0.1103253E+00
          2   -1    0    0  502    0 -0.00000000000E+00  0.00000000000E+00  0.22151587314E+04  0.22151587314E+04  0.00000000000E+00 0. -1.
         21   -1    0    0  503  502  0.00000000000E+00 -0.00000000000E+00 -0.34946395306E+02  0.34946395306E+02  0.00000000000E+00 0. -1.
         24    2    1    2    0    0  0.62000856332E+02 -0.45296682493E+02  0.63319733371E+03  0.64345118941E+03  0.84821424743E+02 0.  0.
         23    2    1    2    0    0  0.13642088032E+03  0.21203048726E+02  0.68655729636E+03  0.70566601031E+03  0.86852582341E+02 0.  0.
        -13    1    3    3    0    0  0.70657917889E+02 -0.62603582769E+02  0.54913319914E+03  0.55718849624E+03  0.00000000000E+00 0.  1.
         14    1    3    3    0    0 -0.86570615574E+01  0.17306900276E+02  0.84064134569E+02  0.86262693170E+02  0.00000000000E+00 0. -1.
        -11    1    4    4    0    0  0.26390533824E+02  0.43455090874E+02  0.21094534417E+03  0.21698558345E+03  0.00000000000E+00 0.  1.
         11    1    4    4    0    0  0.11003034649E+03 -0.22252042148E+02  0.47561195218E+03  0.48868042685E+03  0.00000000000E+00 0. -1.
         21    1    1    2  503  501 -0.28966959557E+02  0.12687218759E+02  0.91738914039E+01  0.32927352601E+02  0.00000000000E+00 0. -1.
          1    1    1    2  501    0 -0.16945477709E+03  0.11406415008E+02  0.85128381466E+03  0.86806057444E+03  0.00000000000E+00 0. -1.
<scales pt_clust_5="13000.00000" pt_clust_6="13000.00000" pt_clust_7="13000.00000" pt_clust_8="13000.00000" pt_clust_9="31.62357" pt_clust_10="180.69907"></scales>
<clustering>
<clus scale="   31.624">  2  9  1 -1</clus>
<clus scale="   84.821">  5  6 -1 -1</clus>
<clus scale="   86.853">  7  8 -1 -1</clus>
<clus scale="  108.043">  5  7 -1 -1</clus>
<clus scale="  180.699">  2 10  1 -1</clus>
<clus scale="   31.624">  2  5  1 -1</clus>
</clustering>
</event>
<event>
10    4  0.3043429E-005  0.1248842E+03  0.7546771E-02  0.1249164E+00
          2   -1    0    0  502    0 -0.00000000000E+00  0.00000000000E+00  0.60348916911E+03  0.60348916911E+03  0.00000000000E+00 0. -1.
         21   -1    0    0  503  502  0.00000000000E+00 -0.00000000000E+00 -0.71985725179E+02  0.71985725179E+02  0.00000000000E+00 0.  1.
         24    2    1    2    0    0 -0.25520139107E+02 -0.45675479609E+02  0.13193844104E+03  0.16139986181E+03  0.76841630845E+02 0.  0.
         23    2    1    2    0    0 -0.58354164621E+02 -0.18986138140E+02  0.35753104582E+02  0.11618416841E+03  0.91949956668E+02 0.  0.
        -11    1    3    3    0    0 -0.14989070242E+02 -0.45179323984E+02  0.24668776053E+02  0.53613357051E+02  0.00000000000E+00 0.  1.
         12    1    3    3    0    0 -0.10531068865E+02 -0.49615562482E+00  0.10726966499E+03  0.10778650476E+03  0.00000000000E+00 0. -1.
        -13    1    4    4    0    0 -0.81941058911E+02 -0.78831002174E+01  0.36626953561E+02  0.90100022928E+02  0.00000000000E+00 0.  1.
         13    1    4    4    0    0  0.23586894290E+02 -0.11103037923E+02 -0.87384897963E+00  0.26084145480E+02  0.00000000000E+00 0. -1.
         21    1    1    2  503  501 -0.23440990559E+02  0.28148967598E+01  0.15579451384E+02  0.28286445298E+02  0.00000000000E+00 0.  1.
          1    1    1    2  501    0  0.10731529429E+03  0.61846720989E+02  0.34823244693E+03  0.36960441877E+03  0.00000000000E+00 0. -1.
<scales pt_clust_5="13000.00000" pt_clust_6="13000.00000" pt_clust_7="13000.00000" pt_clust_8="13000.00000" pt_clust_9="23.60940" pt_clust_10="84.50603"></scales>
<clustering>
<clus scale="   23.609">  2  9  1 -1</clus>
<clus scale="   76.842">  5  6 -1 -1</clus>
<clus scale="   91.950">  7  8 -1 -1</clus>
<clus scale="   94.239">  1  5  2 -1</clus>
<clus scale="   84.506">  2 10  1 -1</clus>
<clus scale="   23.609">  2  5  1 -1</clus>
</clustering>
</event>
<event>
10    4  0.3043429E-005  0.2814521E+03  0.7546771E-02  0.1142926E+00
         -3   -1    0    0    0  501 -0.00000000000E+00  0.00000000000E+00  0.56736222924E+03  0.56736222924E+03  0.00000000000E+00 0.  1.
         21   -1    0    0  503  502  0.00000000000E+00 -0.00000000000E+00 -0.48017515413E+03  0.48017515413E+03  0.00000000000E+00 0.  1.
         24    2    1    2    0    0 -0.11298017052E+01  0.27044037426E+02  0.18887459355E+03  0.20693976329E+03  0.80111154835E+02 0.  0.
         23    2    1    2    0    0 -0.14785088314E+03  0.21230299162E+03  0.19249603982E+03  0.33491323967E+03  0.90441742923E+02 0.  0.
        -13    1    3    3    0    0 -0.37547639970E+02  0.24132741810E+02  0.74241975219E+02  0.86626124114E+02  0.00000000000E+00 0.  1.
         14    1    3    3    0    0  0.36417838264E+02  0.29112956162E+01  0.11463261833E+03  0.12031363917E+03  0.00000000000E+00 0. -1.
        -11    1    4    4    0    0 -0.80333401811E+02  0.12833878952E+03  0.16454116129E+03  0.22360253599E+03  0.00000000000E+00 0.  1.
         11    1    4    4    0    0 -0.67517481333E+02  0.83964202101E+02  0.27954878524E+02  0.11131070368E+03  0.00000000000E+00 0. -1.
         21    1    1    2  503  501  0.28933078271E+02 -0.10567922303E+02 -0.23965967615E+03  0.24163105010E+03  0.00000000000E+00 0.  1.
         -4    1    1    2    0  502  0.12004760658E+03 -0.22877910674E+03 -0.54523882107E+02  0.26405333031E+03  0.00000000000E+00 0.  1.
<scales pt_clust_5="13000.00000" pt_clust_6="13000.00000" pt_clust_7="13000.00000" pt_clust_8="13000.00000" pt_clust_9="30.80266" pt_clust_10="266.52504"></scales>
<clustering>
<clus scale="   30.803">  2  9  1 -1</clus>
<clus scale="   80.111">  5  6 -1 -1</clus>
<clus scale="   84.426">  1  5  2 -1</clus>
<clus scale="   90.442">  7  8 -1 -1</clus>
<clus scale="  266.525">  2 10  1 -1</clus>
<clus scale="   30.803">  2  5  1 -1</clus>
</clustering>
</event>
<event>
10    4  0.3043429E-005  0.1548395E+03  0.7546771E-02  0.1205552E+00
          2   -1    0    0  502    0 -0.00000000000E+00  0.00000000000E+00  0.37359953039E+03  0.37359953039E+03  0.00000000000E+00 0. -1.
         21   -1    0    0  503  502  0.00000000000E+00 -0.00000000000E+00 -0.39687653764E+03  0.39687653764E+03  0.00000000000E+00 0.  1.
         24    2    1    2    0    0  0.64000248039E+02  0.72191302856E+02 -0.81264999455E+02  0.14952695990E+03  0.80291317363E+02 0.  0.
         23    2    1    2    0    0 -0.14554370147E+03  0.66016904032E+02  0.25523986785E+03  0.31505095267E+03  0.92566257276E+02 0.  0.
        -11    1    3    3    0    0  0.46701325795E+02  0.48284860242E+02 -0.95503966314E+02  0.11676236183E+03  0.00000000000E+00 0.  1.
         12    1    3    3    0    0  0.17298922244E+02  0.23906442614E+02  0.14238966859E+02  0.32764598067E+02  0.00000000000E+00 0. -1.
        -13    1    4    4    0    0 -0.11581039405E+02 -0.21227860676E+02  0.25302011673E+02  0.34999061949E+02  0.00000000000E+00 0.  1.
         13    1    4    4    0    0 -0.13396266206E+03  0.87244764708E+02  0.22993785617E+03  0.28005189072E+03  0.00000000000E+00 0. -1.
         21    1    1    2  503  501  0.27209026738E+02 -0.45044588547E+02 -0.19072348882E+03  0.19785043664E+03  0.00000000000E+00 0.  1.
          1    1    1    2  501    0  0.54334426689E+02 -0.93163618341E+02 -0.65283868288E+01  0.10804771881E+03  0.00000000000E+00 0. -1.
<scales pt_clust_5="13000.00000" pt_clust_6="13000.00000" pt_clust_7="13000.00000" pt_clust_8="13000.00000" pt_clust_9="52.62458" pt_clust_10="124.12392"></scales>
<clustering>
<clus scale="   52.625">  2  9  1 -1</clus>
<clus scale="   80.291">  5  6 -1 -1</clus>
<clus scale="   92.566">  7  8 -1 -1</clus>
<clus scale="  122.197">  1  5  2 -1</clus>
<clus scale="  124.124">  2 10  1 -1</clus>
<clus scale="   52.625">  2  5  1 -1</clus>
</clustering>
</event>
<event>
10    4  0.3043429E-005  0.1835049E+03  0.7546771E-02  0.1188906E+00
         -1   -1    0    0    0  501 -0.00000000000E+00  0.00000000000E+00  0.40324316287E+03  0.40324316287E+03  0.00000000000E+00 0.  1.
         21   -1    0    0  501  502  0.00000000000E+00 -0.00000000000E+00 -0.29853230238E+03  0.29853230238E+03  0.00000000000E+00 0.  1.
         23    2    1    2    0    0 -0.26969075767E+02  0.44788497752E+02  0.84554922129E+02  0.13473459787E+03  0.90942489675E+02 0.  0.
         24    2    1    2    0    0  0.78659060070E+02  0.15033237267E+03  0.48667921886E+01  0.18941848149E+03  0.84074999023E+02 0.  0.
        -11    1    4    4    0    0  0.30134610767E+02  0.11695023977E+03 -0.25076005650E+02  0.12334609604E+03  0.00000000000E+00 0.  1.
         12    1    4    4    0    0  0.48524449303E+02  0.33382132898E+02  0.29942797839E+02  0.66072385453E+02  0.00000000000E+00 0. -1.
        -11    1    3    3    0    0 -0.31423533656E+02  0.70216490395E+02  0.50584879456E+02  0.92068583243E+02  0.00000000000E+00 0. -1.
         11    1    3    3    0    0  0.44544578888E+01 -0.25427992643E+02  0.33970042673E+02  0.42666014626E+02  0.00000000000E+00 0.  1.
         21    1    1    2  503  502 -0.34460725993E+02 -0.13094825953E+02 -0.13562479075E+03  0.14054572199E+03  0.00000000000E+00 0.  1.
         -2    1    1    2    0  503 -0.17229258309E+02 -0.18202604447E+03  0.15091393693E+03  0.23707666390E+03  0.00000000000E+00 0.  1.
<scales pt_clust_5="13000.00000" pt_clust_6="13000.00000" pt_clust_7="13000.00000" pt_clust_8="13000.00000" pt_clust_9="36.86484" pt_clust_10="163.11183"></scales>
<clustering>
<clus scale="   36.865">  2  9  1 -1</clus>
<clus scale="   84.075">  5  6 -1 -1</clus>
<clus scale="   90.942">  7  8 -1 -1</clus>
<clus scale="  105.567">  1  7  2 -1</clus>
<clus scale="  163.112">  2 10  1 -1</clus>
<clus scale="   36.865">  2  5  1 -1</clus>
</clustering>
</event>
<event>
10    4  0.3043429E-005  0.1094264E+03  0.7546771E-02  0.1265487E+00
          2   -1    0    0  503    0 -0.00000000000E+00  0.00000000000E+00  0.33117690746E+03  0.33117690746E+03  0.00000000000E+00 0. -1.
         21   -1    0    0  501  502  0.00000000000E+00 -0.00000000000E+00 -0.13223790749E+03  0.13223790749E+03  0.00000000000E+00 0. -1.
         24    2    1    2    0    0 -0.64321574795E+02  0.61861214245E+00  0.21620684512E+03  0.23957827209E+03  0.80713697203E+02 0.  0.
         23    2    1    2    0    0  0.51351794768E+02  0.26819134818E+02  0.39035088460E+02  0.11431591206E+03  0.90488213596E+02 0.  0.
        -13    1    3    3    0    0 -0.38354225781E+02 -0.36238490865E+02  0.15371884829E+03  0.16252310351E+03  0.00000000000E+00 0.  1.
         14    1    3    3    0    0 -0.25967349014E+02  0.36857103008E+02  0.62487996829E+02  0.77055168579E+02  0.00000000000E+00 0. -1.
        -13    1    4    4    0    0  0.14621127506E+02 -0.25849369547E+02  0.40338108505E+02  0.50091219523E+02  0.00000000000E+00 0.  1.
         13    1    4    4    0    0  0.36730667263E+02  0.52668504366E+02 -0.13030200454E+01  0.64224692533E+02  0.00000000000E+00 0. -1.
         21    1    1    2  503  502  0.25958841110E+02  0.16793313764E+02 -0.55364577053E+02  0.63412248117E+02  0.00000000000E+00 0. -1.
          1    1    1    2  501    0 -0.12989061082E+02 -0.44231060725E+02 -0.93835655620E+00  0.46108382683E+02  0.00000000000E+00 0. -1.
<scales pt_clust_5="13000.00000" pt_clust_6="13000.00000" pt_clust_7="13000.00000" pt_clust_8="13000.00000" pt_clust_9="30.91726" pt_clust_10="39.08092"></scales>
<clustering>
<clus scale="   30.917">  2  9  1 -1</clus>
<clus scale="   39.081">  2 10  1 -1</clus>
<clus scale="   80.714">  5  6 -1 -1</clus>
<clus scale="   90.488">  7  8 -1 -1</clus>
<clus scale="  101.492">  1  5  2 -1</clus>
<clus scale="   30.917">  2  5  1 -1</clus>
</clustering>
</event>
<event>
10    4  0.3043429E-005  0.1977079E+03  0.7546771E-02  0.1195265E+00
         21   -1    0    0  501  502  0.00000000000E+00  0.00000000000E+00  0.90933991545E+03  0.90933991545E+03  0.00000000000E+00 0.  1.
          2   -1    0    0  503    0 -0.00000000000E+00 -0.00000000000E+00 -0.22925907209E+03  0.22925907209E+03  0.00000000000E+00 0. -1.
         24    2    1    2    0    0 -0.99961386941E+00  0.23240960939E+02  0.13366441874E+03  0.15084600022E+03  0.65933280308E+02 0.  0.
         23    2    1    2    0    0  0.52377218536E+02  0.14207120305E+03 -0.15768058170E+03  0.23624133724E+03  0.89550007348E+02 0.  0.
        -13    1    3    3    0    0 -0.33457878730E+02  0.12119536748E+02  0.69883072881E+02  0.78421659607E+02  0.00000000000E+00 0.  1.
         14    1    3    3    0    0  0.32458264861E+02  0.11121424191E+02  0.63781345854E+02  0.72424340610E+02  0.00000000000E+00 0. -1.
        -13    1    4    4    0    0  0.42112597370E+02  0.31706754796E+02 -0.95675000020E+02  0.10923595922E+03  0.00000000000E+00 0. -1.
         13    1    4    4    0    0  0.10264621166E+02  0.11036444826E+03 -0.62005581675E+02  0.12700537802E+03  0.00000000000E+00 0.  1.
         21    1    1    2  503  502 -0.49177951117E+02  0.35764252367E+02  0.18965623878E+03  0.19916586437E+03  0.00000000000E+00 0.  1.
          1    1    1    2  501    0 -0.21996535489E+01 -0.20107641636E+03  0.51444076754E+03  0.55234578572E+03  0.00000000000E+00 0. -1.
<scales pt_clust_5="13000.00000" pt_clust_6="13000.00000" pt_clust_7="13000.00000" pt_clust_8="13000.00000" pt_clust_9="60.80750" pt_clust_10="176.26457"></scales>
<clustering>
<clus scale="   60.808">  1  9  2 -1</clus>
<clus scale="   65.933">  5  6 -1 -1</clus>
<clus scale="   73.383">  2  5  1 -1</clus>
<clus scale="   89.550">  7  8 -1 -1</clus>
<clus scale="  176.265">  1 10  2 -1</clus>
<clus scale="   60.808">  1  5  2 -1</clus>
</clustering>
</event>
<event>
10    4  0.3043429E-005  0.2820648E+03  0.7546771E-02  0.1094567E+00
         21   -1    0    0  501  502  0.00000000000E+00  0.00000000000E+00  0.33168208650E+03  0.33168208650E+03  0.00000000000E+00 0.  1.
         -3   -1    0    0    0  501 -0.00000000000E+00 -0.00000000000E+00 -0.59868978037E+03  0.59868978037E+03  0.00000000000E+00 0.  1.
         24    2    1    2    0    0 -0.33039576815E+02  0.13768033079E+03 -0.43270988484E+01  0.16326453199E+03  0.81173249910E+02 0.  0.
         23    2    1    2    0    0 -0.29774570683E+01  0.49353745075E+02 -0.15387442901E+02  0.10455764707E+03  0.90834303864E+02 0.  0.
        -13    1    3    3    0    0 -0.35459388820E+02  0.46922952679E+02  0.30220180477E+02  0.66124058040E+02  0.00000000000E+00 0.  1.
         14    1    3    3    0    0  0.24198120054E+01  0.90757378107E+02 -0.34547279325E+02  0.97140473952E+02  0.00000000000E+00 0. -1.
        -11    1    4    4    0    0  0.31046728663E+02 -0.11956489772E+02 -0.61554200817E+01  0.33834098255E+02  0.00000000000E+00 0. -1.
         11    1    4    4    0    0 -0.34024185732E+02  0.61310234847E+02 -0.92320228197E+01  0.70723548815E+02  0.00000000000E+00 0.  1.
         21    1    1    2  503  502  0.43659498964E+02  0.28902188518E+02  0.17798645362E+03  0.18552807341E+03  0.00000000000E+00 0.  1.
         -4    1    1    2    0  503 -0.76424650813E+01 -0.21593626438E+03 -0.42527960574E+03  0.47702161440E+03  0.00000000000E+00 0.  1.
<scales pt_clust_5="13000.00000" pt_clust_6="13000.00000" pt_clust_7="13000.00000" pt_clust_8="13000.00000" pt_clust_9="52.35922" pt_clust_10="210.94904"></scales>
<clustering>
<clus scale="   52.359">  1  9  2 -1</clus>
<clus scale="   81.173">  5  6 -1 -1</clus>
<clus scale="   90.834">  7  8 -1 -1</clus>
<clus scale="   92.442">  5  7 -1 -1</clus>
<clus scale="  210.949">  1 10  2 -1</clus>
<clus scale="   52.359">  1  5  2 -1</clus>
</clustering>
</event>
<event>
10    4  0.3043429E-005  0.9403600E+02  0.7546771E-02  0.1299549E+00
         21   -1    0    0  501  502  0.00000000000E+00  0.00000000000E+00  0.45438452738E+02  0.45438452738E+02  0.00000000000E+00 0.  1.
          2   -1    0    0  503    0 -0.00000000000E+00 -0.00000000000E+00 -0.11959718440E+04  0.11959718440E+04  0.00000000000E+00 0. -1.
         23    2    1    2    0    0 -0.87616297092E+00  0.72275978109E+01 -0.50360282088E+03  0.51191113078E+03  0.91565270614E+02 0.  0.
         24    2    1    2    0    0 -0.24214761472E+02 -0.56211392078E+02 -0.22131408091E+03  0.24351059601E+03  0.81064250375E+02 0.  0.
        -13    1    4    4    0    0  0.96282268728E+01 -0.39553807677E+02 -0.35833151195E+02  0.54233026644E+02  0.00000000000E+00 0.  1.
         14    1    4    4    0    0 -0.33842988345E+02 -0.16657584401E+02 -0.18548092971E+03  0.18927756936E+03  0.00000000000E+00 0. -1.
        -13    1    3    3    0    0 -0.45111746998E+02 -0.56057205662E+01 -0.27203309373E+03  0.27580518107E+03  0.00000000000E+00 0.  1.
         13    1    3    3    0    0  0.44235584027E+02  0.12833318377E+02 -0.23156972715E+03  0.23610594971E+03  0.00000000000E+00 0. -1.
         21    1    1    2  503  502  0.14636033822E+02 -0.29513848470E+02  0.16493824363E+02  0.36841918784E+02  0.00000000000E+00 0.  1.
          1    1    1    2  501    0  0.10454890621E+02  0.78497642737E+02 -0.44211031379E+03  0.44914665112E+03  0.00000000000E+00 0. -1.
<scales pt_clust_5="13000.00000" pt_clust_6="13000.00000" pt_clust_7="13000.00000" pt_clust_8="13000.00000" pt_clust_9="32.94360" pt_clust_10="74.14994"></scales>
<clustering>
<clus scale="   32.944">  1  9  2 -1</clus>
<clus scale="   74.150">  1 10  2 -1</clus>
<clus scale="   81.064">  5  6 -1 -1</clus>
<clus scale="   83.845">  1  5  2 -1</clus>
<clus scale="   91.565">  7  8 -1 -1</clus>
<clus scale="   32.944">  1  5  2 -1</clus>
</clustering>
</event>
<event>
10    4  0.3043429E-005  0.1487355E+03  0.7546771E-02  0.1217519E+00
         21   -1    0    0  501  502  0.00000000000E+00  0.00000000000E+00  0.19588790615E+03  0.19588790615E+03  0.00000000000E+00 0.  1.
          2   -1    0    0  503    0 -0.00000000000E+00 -0.00000000000E+00 -0.96709251869E+03  0.96709251869E+03  0.00000000000E+00 0. -1.
         24    2    1    2    0    0 -0.73753088714E+01 -0.73087043176E+02 -0.19531211633E+03  0.22437077168E+03  0.82457924643E+02 0.  0.
         23    2    1    2    0    0  0.69403861453E+02 -0.79004113662E+02 -0.47415758740E+03  0.49461940147E+03  0.93618313700E+02 0.  0.
        -11    1    3    3    0    0 -0.87717527899E+01 -0.62069164993E+02 -0.54334550584E+02  0.82956423965E+02  0.00000000000E+00 0.  1.
         12    1    3    3    0    0  0.13964439185E+01 -0.11017878183E+02 -0.14097756574E+03  0.14141434771E+03  0.00000000000E+00 0. -1.
        -11    1    4    4    0    0  0.44715625455E+02 -0.64400806612E+02 -0.45097245605E+03  0.45773694102E+03  0.00000000000E+00 0. -1.
         11    1    4    4    0    0  0.24688235998E+02 -0.14603307050E+02 -0.23185131348E+02  0.36882460454E+02  0.00000000000E+00 0.  1.
         21    1    1    2  503  502 -0.48577004679E+02  0.27191464740E+02  0.15144794167E+03  0.16135544668E+03  0.00000000000E+00 0.  1.
          1    1    1    2  501    0 -0.13451547903E+02  0.12489969210E+03 -0.25318285048E+03  0.28263480501E+03  0.00000000000E+00 0. -1.
<scales pt_clust_5="13000.00000" pt_clust_6="13000.00000" pt_clust_7="13000.00000" pt_clust_8="13000.00000" pt_clust_9="55.66957" pt_clust_10="115.57626"></scales>
<clustering>
<clus scale="   55.670">  1  9  2 -1</clus>
<clus scale="   82.458">  5  6 -1 -1</clus>
<clus scale="   93.618">  7  8 -1 -1</clus>
<clus scale="  106.846">  2  5  1 -1</clus>
<clus scale="  115.576">  1 10  2 -1</clus>
<clus scale="   55.670">  1  5  2 -1</clus>
</clustering>
</event>
<event>
10    4  0.3043429E-005  0.1203603E+03  0.7546771E-02  0.1251739E+00
          2   -1    0    0  502    0 -0.00000000000E+00  0.00000000000E+00  0.38859861195E+03  0.38859861195E+03  0.00000000000E+00 0. -1.
         21   -1    0    0  503  502  0.00000000000E+00 -0.00000000000E+00 -0.16458836185E+03  0.16458836185E+03  0.00000000000E+00 0.  1.
         23    2    1    2    0    0 -0.18696345763E+02 -0.35908634504E+02  0.27011220122E+03  0.28802687902E+03  0.91432480073E+02 0.  0.
         24    2    1    2    0    0  0.38287194453E+02 -0.69163857422E+02 -0.85008591924E+02  0.14369498751E+03  0.84689080180E+02 0.  0.
        -11    1    4    4    0    0  0.17760999329E+02 -0.86902235356E+02 -0.63825738693E+02  0.10927569047E+03  0.00000000000E+00 0.  1.
         12    1    4    4    0    0  0.20526195124E+02  0.17738377933E+02 -0.21182853231E+02  0.34419297044E+02  0.00000000000E+00 0. -1.
        -11    1    3    3    0    0  0.83772070136E+01  0.28195434100E+02  0.99886105603E+02  0.10412681784E+03  0.00000000000E+00 0.  1.
         11    1    3    3    0    0 -0.27073552776E+02 -0.64104068604E+02  0.17022609562E+03  0.18390006118E+03  0.00000000000E+00 0. -1.
         21    1    1    2  503  501  0.12362102549E+02  0.21654927887E+02  0.14576421100E+02  0.28883031927E+02  0.00000000000E+00 0.  1.
          1    1    1    2  501    0 -0.31952951239E+02  0.83417564039E+02  0.24330219699E+02  0.92582075337E+02  0.00000000000E+00 0. -1.
<scales pt_clust_5="13000.00000" pt_clust_6="13000.00000" pt_clust_7="13000.00000" pt_clust_8="13000.00000" pt_clust_9="22.51497" pt_clust_10="95.55301"></scales>
<clustering>
<clus scale="   22.515">  9 10 -1 -1</clus>
<clus scale="   84.689">  5  6 -1 -1</clus>
<clus scale="   91.432">  7  8 -1 -1</clus>
<clus scale="   99.994">  1  7  2 -1</clus>
<clus scale="   95.553">  2  9  1 -1</clus>
<clus scale="   95.553">  2  5  1 -1</clus>
</clustering>
</event>
<event>
10    4  0.3043429E-005  0.1367396E+03  0.7546771E-02  0.1219872E+00
         21   -1    0    0  503  502  0.00000000000E+00  0.00000000000E+00  0.13181084531E+03  0.13181084531E+03  0.00000000000E+00 0.  1.
         -3   -1    0    0    0  501 -0.00000000000E+00 -0.00000000000E+00 -0.10857680027E+04  0.10857680027E+04  0.00000000000E+00 0.  1.
         23    2    1    2    0    0  0.11065568278E+03 -0.77358142211E+01 -0.68440635106E+03  0.69945851726E+03  0.92334397912E+02 0.  0.
         24    2    1    2    0    0 -0.66608340670E+02  0.53689990039E+02 -0.15323854987E+03  0.19430517280E+03  0.83385615858E+02 0.  0.
        -11    1    4    4    0    0 -0.61460441373E+02  0.72986345164E+02 -0.14286977219E+03  0.17180268985E+03  0.00000000000E+00 0.  1.
         12    1    4    4    0    0 -0.51478992965E+01 -0.19296355124E+02 -0.10368777685E+02  0.22502482950E+02  0.00000000000E+00 0. -1.
        -11    1    3    3    0    0  0.84289064750E+02  0.34043759059E+02 -0.51635293463E+03  0.52429378889E+03  0.00000000000E+00 0.  1.
         11    1    3    3    0    0  0.26366618026E+02 -0.41779573281E+02 -0.16805341643E+03  0.17516472836E+03  0.00000000000E+00 0. -1.
         21    1    1    2  503  501  0.40570286378E+02  0.10855718807E+03 -0.61739843479E+01  0.11605485470E+03  0.00000000000E+00 0.  1.
         -4    1    1    2    0  502 -0.84617628485E+02 -0.15451136388E+03 -0.11013827207E+03  0.20776030322E+03  0.00000000000E+00 0.  1.
<scales pt_clust_5="13000.00000" pt_clust_6="13000.00000" pt_clust_7="13000.00000" pt_clust_8="13000.00000" pt_clust_9="115.89051" pt_clust_10="103.86530"></scales>
<clustering>
<clus scale="   83.386">  5  6 -1 -1</clus>
<clus scale="   92.334">  7  8 -1 -1</clus>
<clus scale="  115.891">  1  9  2 -1</clus>
<clus scale="  103.865">  1 10  2 -1</clus>
<clus scale="  130.863">  1  5  2 -1</clus>
<clus scale="  115.891">  1  5  2 -1</clus>
</clustering>
</event>
<event>
10    4  0.3043429E-005  0.2832443E+03  0.7546771E-02  0.1138171E+00
          2   -1    0    0  502    0 -0.00000000000E+00  0.00000000000E+00  0.17935910028E+04  0.17935910028E+04  0.00000000000E+00 0. -1.
         21   -1    0    0  503  502  0.00000000000E+00 -0.00000000000E+00 -0.93967910799E+02  0.93967910799E+02  0.00000000000E+00 0. -1.
         24    2    1    2    0    0 -0.38407308418E+02 -0.26377899321E+02  0.65759652515E+03  0.66409336531E+03  0.80099269932E+02 0.  0.
         23    2    1    2    0    0  0.80011623645E+02 -0.24947365159E+03  0.42492957076E+03  0.51164083841E+03  0.11212602134E+03 0.  0.
        -11    1    3    3    0    0 -0.46585979199E+02 -0.87330989293E+01  0.18108703153E+03  0.18718716159E+03  0.00000000000E+00 0.  1.
         12    1    3    3    0    0  0.81786707815E+01 -0.17644800392E+02  0.47650949362E+03  0.47690620372E+03  0.00000000000E+00 0. -1.
        -11    1    4    4    0    0  0.79279186311E+02 -0.93749117814E+02  0.24230820683E+03  0.27163827707E+03  0.00000000000E+00 0. -1.
         11    1    4    4    0    0  0.73243733342E+00 -0.15572453377E+03  0.18262136394E+03  0.24000256134E+03  0.00000000000E+00 0.  1.
         21    1    1    2  503  501 -0.18273250603E+02  0.89962670381E+01 -0.15009692077E+02  0.25300896515E+02  0.00000000000E+00 0. -1.
          1    1    1    2  501    0 -0.23331064624E+02  0.26685528387E+03  0.63210668821E+03  0.68652381341E+03  0.00000000000E+00 0. -1.
<scales pt_clust_5="13000.00000" pt_clust_6="13000.00000" pt_clust_7="13000.00000" pt_clust_8="13000.00000" pt_clust_9="20.36773" pt_clust_10="260.10608"></scales>
<clustering>
<clus scale="   20.368">  2  9  1 -1</clus>
<clus scale="   80.099">  5  6 -1 -1</clus>
<clus scale="   92.890">  1  5  2 -1</clus>
<clus scale="  112.126">  7  8 -1 -1</clus>
<clus scale="  260.106">  2 10  1 -1</clus>
<clus scale="   20.368">  2  5  1 -1</clus>
</clustering>
</event>
<event>
10    4  0.3043429E-005  0.9624466E+02  0.7546771E-02  0.1295004E+00
         21   -1    0    0  503  502  0.00000000000E+00  0.00000000000E+00  0.91617594666E+02  0.91617594666E+02  0.00000000000E+00 0.  1.
         -3   -1    0    0    0  501 -0.00000000000E+00 -0.00000000000E+00 -0.32193271061E+03  0.32193271061E+03  0.00000000000E+00 0.  1.
         24    2    1    2    0    0  0.41697412664E+02 -0.21241914086E+02 -0.12429932829E+03  0.15316783144E+03  0.76290028420E+02 0.  0.
         23    2    1    2    0    0  0.38232521313E+01  0.51173709724E+01  0.28491918047E+02  0.93267984886E+02  0.88579472047E+02 0.  0.
        -11    1    3    3    0    0  0.32962846206E+02  0.19499478709E+02 -0.25690258949E+02  0.46116898256E+02  0.00000000000E+00 0.  1.
         12    1    3    3    0    0  0.87345664577E+01 -0.40741392795E+02 -0.98609069343E+02  0.10705093318E+03  0.00000000000E+00 0. -1.
        -13    1    4    4    0    0  0.25780948019E+02  0.40479930366E+01 -0.24563320271E+02  0.35838529980E+02  0.00000000000E+00 0. -1.
         13    1    4    4    0    0 -0.21957695887E+02  0.10693779358E+01  0.53055238318E+02  0.57429454907E+02  0.00000000000E+00 0.  1.
         21    1    1    2  503  501 -0.37395186937E+02 -0.71126907725E+01 -0.88667590565E+01  0.39084649062E+02  0.00000000000E+00 0.  1.
         -4    1    1    2    0  502 -0.81254778576E+01  0.23237233886E+02 -0.12564094664E+03  0.12802983989E+03  0.00000000000E+00 0.  1.
<scales pt_clust_5="13000.00000" pt_clust_6="13000.00000" pt_clust_7="13000.00000" pt_clust_8="13000.00000" pt_clust_9="38.88726" pt_clust_10="24.61693"></scales>
<clustering>
<clus scale="   24.617">  1 10  2 -1</clus>
<clus scale="   38.887">  1  9  2 -1</clus>
<clus scale="   76.290">  5  6 -1 -1</clus>
<clus scale="   85.070">  2  5  1 -1</clus>
<clus scale="   88.579">  7  8 -1 -1</clus>
<clus scale="   24.617">  1  5  2 -1</clus>
</clustering>
</event>
<event>
10    4  0.3043429E-005  0.2911487E+03  0.7546771E-02  0.1132818E+00
          2   -1    0    0  503    0 -0.00000000000E+00  0.00000000000E+00  0.21075810507E+04  0.21075810507E+04  0.00000000000E+00 0. -1.
         21   -1    0    0  501  502  0.00000000000E+00 -0.00000000000E+00 -0.14242816041E+03  0.14242816041E+03  0.00000000000E+00 0. -1.
         23    2    1    2    0    0 -0.14812985275E+02  0.26543359976E+02  0.16214087344E+03  0.18829508683E+03  0.90782170024E+02 0.  0.
         24    2    1    2    0    0  0.25565851194E+03 -0.18544704651E+03  0.16305566525E+04  0.16628463373E+04  0.81185360808E+02 0.  0.
        -11    1    4    4    0    0  0.15827272326E+03 -0.10511864228E+03  0.77085691735E+03  0.79392730833E+03  0.00000000000E+00 0.  1.
         12    1    4    4    0    0  0.97385788681E+02 -0.80328404222E+02  0.85969973515E+03  0.86891902901E+03  0.00000000000E+00 0. -1.
        -13    1    3    3    0    0  0.18636004307E+02  0.36878301869E+02  0.28626703311E+02  0.50267265170E+02  0.00000000000E+00 0.  1.
         13    1    3    3    0    0 -0.33448989582E+02 -0.10334941893E+02  0.13351417012E+03  0.13802782166E+03  0.00000000000E+00 0. -1.
         21    1    1    2  503  502 -0.50574395293E+02  0.35952116208E+01 -0.47269129971E+02  0.69318580871E+02  0.00000000000E+00 0. -1.
          1    1    1    2  501    0 -0.19027113137E+03  0.15530847491E+03  0.21972449431E+03  0.32954920606E+03  0.00000000000E+00 0. -1.
<scales pt_clust_5="13000.00000" pt_clust_6="13000.00000" pt_clust_7="13000.00000" pt_clust_8="13000.00000" pt_clust_9="50.70202" pt_clust_10="279.60065"></scales>
<clustering>
<clus scale="   50.702">  2  9  1 -1</clus>
<clus scale="   81.185">  5  6 -1 -1</clus>
<clus scale="   90.782">  7  8 -1 -1</clus>
<clus scale="   97.417">  1  7  2 -1</clus>
<clus scale="  279.601">  2 10  1 -1</clus>
<clus scale="   50.702">  2  5  1 -1</clus>
</clustering>
</event>
<event>
10    4  0.3043429E-005  0.1891977E+03  0.7546771E-02  0.1189489E+00
         21   -1    0    0  501  502  0.00000000000E+00  0.00000000000E+00  0.67590841296E+02  0.67590841296E+02  0.00000000000E+00 0.  1.
          4   -1    0    0  503    0 -0.00000000000E+00 -0.00000000000E+00 -0.10093664535E+04  0.10093664535E+04  0.00000000000E+00 0. -1.
         24    2    1    2    0    0  0.51162407694E+02 -0.13610138623E+01 -0.37550173612E+03  0.38772000617E+03  0.81888979938E+02 0.  0.
         23    2    1    2    0    0 -0.17693828439E+03 -0.41546946659E+02 -0.31028595116E+03  0.37097952916E+03  0.91187358274E+02 0.  0.
        -13    1    3    3    0    0  0.67513345942E+02 -0.20915393868E+02 -0.25969484707E+03  0.26914107672E+03  0.00000000000E+00 0.  1.
         14    1    3    3    0    0 -0.16350938248E+02  0.19554380006E+02 -0.11580688905E+03  0.11857892946E+03  0.00000000000E+00 0. -1.
        -13    1    4    4    0    0 -0.54409222861E+02  0.28206847351E+02 -0.77212097829E+02  0.98578384147E+02  0.00000000000E+00 0. -1.
         13    1    4    4    0    0 -0.12252906153E+03 -0.69753794010E+02 -0.23307385333E+03  0.27240114501E+03  0.00000000000E+00 0.  1.
         21    1    1    2  503  502 -0.28892055425E+02  0.35841681920E+01 -0.32412902935E+02  0.43568261441E+02  0.00000000000E+00 0.  1.
          3    1    1    2  501    0  0.15466793212E+03  0.39323792330E+02 -0.22357502199E+03  0.27468949803E+03  0.00000000000E+00 0. -1.
<scales pt_clust_5="13000.00000" pt_clust_6="13000.00000" pt_clust_7="13000.00000" pt_clust_8="13000.00000" pt_clust_9="29.11352" pt_clust_10="165.77287"></scales>
<clustering>
<clus scale="   29.114">  1  9  2 -1</clus>
<clus scale="   81.889">  5  6 -1 -1</clus>
<clus scale="   91.187">  7  8 -1 -1</clus>
<clus scale="   95.086">  2  5  1 -1</clus>
<clus scale="  165.773">  1 10  2 -1</clus>
<clus scale="   29.114">  1  5  2 -1</clus>
</clustering>
</event>
<event>
10    4  0.3043429E-005  0.1816293E+03  0.7546771E-02  0.1188588E+00
         21   -1    0    0  503  502  0.00000000000E+00  0.00000000000E+00  0.85245490276E+03  0.85245490276E+03  0.00000000000E+00 0.  1.
          2   -1    0    0  502    0 -0.00000000000E+00 -0.00000000000E+00 -0.46650174731E+03  0.46650174731E+03  0.00000000000E+00 0. -1.
         23    2    1    2    0    0  0.65492123711E+01  0.58942908083E+02 -0.24415074363E+03  0.26808517922E+03  0.93503578028E+02 0.  0.
         24    2    1    2    0    0  0.14776117186E+03 -0.13677304630E+03  0.90404656517E+02  0.23209088315E+03  0.71784023427E+02 0.  0.
        -11    1    4    4    0    0  0.60896402474E+02 -0.44288547385E+02  0.71448348717E+02  0.10380131886E+03  0.00000000000E+00 0.  1.
         12    1    4    4    0    0  0.86864769385E+02 -0.92484498911E+02  0.18956307800E+02  0.12828956429E+03  0.00000000000E+00 0. -1.
        -11    1    3    3    0    0  0.15164182205E+02 -0.21256651855E+02 -0.33190973732E+02  0.42230775594E+02  0.00000000000E+00 0.  1.
         11    1    3    3    0    0 -0.86149698343E+01  0.80199559938E+02 -0.21095976990E+03  0.22585440362E+03  0.00000000000E+00 0. -1.
         21    1    1    2  503  501 -0.77610490497E+02 -0.29551385050E+02  0.64477166078E+03  0.65009781352E+03  0.00000000000E+00 0.  1.
          1    1    1    2  501    0 -0.76699893733E+02  0.10738152326E+03 -0.10507241821E+03  0.16868277418E+03  0.00000000000E+00 0. -1.
<scales pt_clust_5="13000.00000" pt_clust_6="13000.00000" pt_clust_7="13000.00000" pt_clust_8="13000.00000" pt_clust_9="83.04621" pt_clust_10="166.84212"></scales>
<clustering>
<clus scale="   71.784">  5  6 -1 -1</clus>
<clus scale="   83.046">  1  9  2 -1</clus>
<clus scale="   93.504">  7  8 -1 -1</clus>
<clus scale="  109.640">  2  7  1 -1</clus>
<clus scale="  166.842">  1 10  2 -1</clus>
<clus scale="   83.046">  1  5  2 -1</clus>
</clustering>
</event>
<event>
10    4  0.3043429E-005  0.1444510E+03  0.7546771E-02  0.1239207E+00
          2   -1    0    0  503    0 -0.00000000000E+00  0.00000000000E+00  0.85288047216E+03  0.85288047216E+03  0.00000000000E+00 0. -1.
         21   -1    0    0  501  502  0.00000000000E+00 -0.00000000000E+00 -0.17117028091E+03  0.17117028091E+03  0.00000000000E+00 0.  1.
         23    2    1    2    0    0 -0.22440797221E+02 -0.13351677107E+02  0.78392914341E+02  0.10945166662E+03  0.71779952946E+02 0.  0.
         24    2    1    2    0    0 -0.11482169089E+03  0.42053162944E+02  0.29335772892E+03  0.32745436216E+03  0.78835987764E+02 0.  0.
        -13    1    4    4    0    0 -0.10367157793E+03  0.97493772061E+01  0.16915524150E+03  0.19863620554E+03  0.00000000000E+00 0.  1.
         14    1    4    4    0    0 -0.11150112965E+02  0.32303785738E+02  0.12420248743E+03  0.12881815662E+03  0.00000000000E+00 0. -1.
        -13    1    3    3    0    0 -0.33293910100E+01 -0.38359217394E+02  0.20658480965E+02  0.43695391512E+02  0.00000000000E+00 0. -1.
         13    1    3    3    0    0 -0.19111406211E+02  0.25007540287E+02  0.57734433376E+02  0.65756275106E+02  0.00000000000E+00 0.  1.
         21    1    1    2  503  502  0.65172953011E+02 -0.45110684170E+02 -0.12387090698E+03  0.14705947513E+03  0.00000000000E+00 0.  1.
          1    1    1    2  501    0  0.72089535104E+02  0.16409198333E+02  0.43383045497E+03  0.44008524915E+03  0.00000000000E+00 0. -1.
<scales pt_clust_5="13000.00000" pt_clust_6="13000.00000" pt_clust_7="13000.00000" pt_clust_8="13000.00000" pt_clust_9="121.04125" pt_clust_10="73.93354"></scales>
<clustering>
<clus scale="   71.780">  7  8 -1 -1</clus>
<clus scale="   73.934">  2 10  1 -1</clus>
<clus scale="   74.441">  1  7  2 -1</clus>
<clus scale="   78.836">  5  6 -1 -1</clus>
<clus scale="  121.041">  2  9  1 -1</clus>
<clus scale="   73.934">  2  5  1 -1</clus>
</clustering>
</event>
<event>
10    4  0.3043429E-005  0.1149955E+03  0.7546771E-02  0.1256319E+00
          2   -1    0    0  502    0 -0.00000000000E+00  0.00000000000E+00  0.38438709603E+03  0.38438709603E+03  0.00000000000E+00 0. -1.
         21   -1    0    0  503  502  0.00000000000E+00 -0.00000000000E+00 -0.24354234730E+03  0.24354234730E+03  0.00000000000E+00 0. -1.
         24    2    1    2    0    0 -0.61545460252E+02  0.25032461056E+02  0.28343624342E+03  0.30189666782E+03  0.79943893900E+02 0.  0.
         23    2    1    2    0    0  0.28743925732E+02 -0.11557301048E+03 -0.59030208197E+01  0.15123863187E+03  0.93031952013E+02 0.  0.
        -13    1    3    3    0    0 -0.63740499597E+02  0.38849479355E+01  0.11023874554E+03  0.12739907820E+03  0.00000000000E+00 0.  1.
         14    1    3    3    0    0  0.21950393449E+01  0.21147513120E+02  0.17319749788E+03  0.17449758961E+03  0.00000000000E+00 0. -1.
        -13    1    4    4    0    0  0.62867320330E+02 -0.80855422324E+02 -0.27561962642E+01  0.10245728819E+03  0.00000000000E+00 0.  1.
         13    1    4    4    0    0 -0.34123394597E+02 -0.34717588160E+02 -0.31468245555E+01  0.48781343680E+02  0.00000000000E+00 0. -1.
         21    1    1    2  503  501  0.66415916992E+01  0.26044329945E+02 -0.81958919627E+02  0.86253593369E+02  0.00000000000E+00 0. -1.
          1    1    1    2  501    0  0.26159942821E+02  0.64496219483E+02 -0.54729554239E+02  0.88540550276E+02  0.00000000000E+00 0. -1.
<scales pt_clust_5="13000.00000" pt_clust_6="13000.00000" pt_clust_7="13000.00000" pt_clust_8="13000.00000" pt_clust_9="26.87783" pt_clust_10="81.58131"></scales>
<clustering>
<clus scale="   26.878">  2  9  1 -1</clus>
<clus scale="   79.944">  5  6 -1 -1</clus>
<clus scale="   81.581">  2 10  1 -1</clus>
<clus scale="   93.032">  7  8 -1 -1</clus>
<clus scale="  104.690">  1  5  2 -1</clus>
<clus scale="   26.878">  2  5  1 -1</clus>
</clustering>
</event>
<event>
10    4  0.3043429E-005  0.1767056E+03  0.7546771E-02  0.1172773E+00
         21   -1    0    0  501  502  0.00000000000E+00  0.00000000000E+00  0.33450828954E+02  0.33450828954E+02  0.00000000000E+00 0. -1.
          2   -1    0    0  503    0 -0.00000000000E+00 -0.00000000000E+00 -0.15653815626E+04  0.15653815626E+04  0.00000000000E+00 0. -1.
         24    2    1    2    0    0 -0.12507564263E+03  0.65269940524E+02 -0.59527765607E+03  0.61703072556E+03  0.80419816915E+02 0.  0.
         23    2    1    2    0    0  0.17220396612E+03 -0.24862535836E+02 -0.48192087309E+03  0.52093468673E+03  0.94089682111E+02 0.  0.
        -11    1    3    3    0    0 -0.10201606769E+03  0.23483285109E+02 -0.49534572691E+03  0.50628661044E+03  0.00000000000E+00 0.  1.
         12    1    3    3    0    0 -0.23059574936E+02  0.41786655415E+02 -0.99931929163E+02  0.11074411512E+03  0.00000000000E+00 0. -1.
        -13    1    4    4    0    0  0.16179598783E+03 -0.47031116961E+02 -0.45128195211E+03  0.48171077208E+03  0.00000000000E+00 0. -1.
         13    1    4    4    0    0  0.10407978289E+02  0.22168581124E+02 -0.30638920978E+02  0.39223914642E+02  0.00000000000E+00 0.  1.
         21    1    1    2  503  502 -0.17856598901E+01 -0.27575349840E+02 -0.15255170730E+03  0.15503422816E+03  0.00000000000E+00 0.  1.
          1    1    1    2  501    0 -0.45342663597E+02 -0.12832054848E+02 -0.30218049722E+03  0.30583275115E+03  0.00000000000E+00 0. -1.
<scales pt_clust_5="13000.00000" pt_clust_6="13000.00000" pt_clust_7="13000.00000" pt_clust_8="13000.00000" pt_clust_9="27.63311" pt_clust_10="49.43001"></scales>
<clustering>
<clus scale="   27.633">  2  9  1 -1</clus>
<clus scale="   49.430">  1 10  2 -1</clus>
<clus scale="   80.420">  5  6 -1 -1</clus>
<clus scale="   94.090">  7  8 -1 -1</clus>
<clus scale="  169.822">  2  5  1 -1</clus>
<clus scale="   49.430">  1  5  2 -1</clus>
</clustering>
</event>
<event>
10    4  0.3043429E-005  0.1669025E+03  0.7546771E-02  0.1182598E+00
         21   -1    0    0  501  502  0.00000000000E+00  0.00000000000E+00  0.10888133895E+03  0.10888133895E+03  0.00000000000E+00 0. -1.
         -1   -1    0    0    0  501 -0.00000000000E+00 -0.00000000000E+00 -0.73759154277E+03  0.73759154277E+03  0.00000000000E+00 0.  1.
         24    2    1    2    0    0 -0.93053866916E+02  0.10366979950E+03 -0.55396836859E+03  0.57695835857E+03  0.81200644412E+02 0.  0.
         23    2    1    2    0    0  0.75650421182E+02 -0.12084578615E+03 -0.59834853212E+02  0.17969286000E+03  0.91556671099E+02 0.  0.
        -13    1    3    3    0    0 -0.91186496101E+02  0.43838509458E+02 -0.36201381232E+03  0.37588667480E+03  0.00000000000E+00 0.  1.
         14    1    3    3    0    0 -0.18673708147E+01  0.59831290047E+02 -0.19195455627E+03  0.20107168377E+03  0.00000000000E+00 0. -1.
        -11    1    4    4    0    0 -0.88225877114E+01 -0.70338444613E+02 -0.21618716871E+02  0.74112777331E+02  0.00000000000E+00 0. -1.
         11    1    4    4    0    0  0.84473008893E+02 -0.50507341534E+02 -0.38216136341E+02  0.10558008267E+03  0.00000000000E+00 0.  1.
         21    1    1    2  503  502 -0.10927810791E+02  0.26578750915E+02  0.26288557130E+02  0.38947853405E+02  0.00000000000E+00 0. -1.
         -2    1    1    2    0  503  0.28331256525E+02 -0.94027642730E+01 -0.41195539146E+02  0.50873809743E+02  0.00000000000E+00 0.  1.
<scales pt_clust_5="13000.00000" pt_clust_6="13000.00000" pt_clust_7="13000.00000" pt_clust_8="13000.00000" pt_clust_9="28.73755" pt_clust_10="28.69480"></scales>
<clustering>
<clus scale="   28.738">  1  9  2 -1</clus>
<clus scale="   28.695">  1 10  2 -1</clus>
<clus scale="   81.201">  5  6 -1 -1</clus>
<clus scale="   91.557">  7  8 -1 -1</clus>
<clus scale="  161.454">  2  5  1 -1</clus>
<clus scale="   28.738">  1  5  2 -1</clus>
</clustering>
</event>
<event>
10    4  0.3043429E-005  0.1008762E+03  0.7546771E-02  0.1284023E+00
          2   -1    0    0  503    0 -0.00000000000E+00  0.00000000000E+00  0.57537447552E+03  0.57537447552E+03  0.00000000000E+00 0. -1.
         21   -1    0    0  501  502  0.00000000000E+00 -0.00000000000E+00 -0.99299627737E+02  0.99299627737E+02  0.00000000000E+00 0.  1.
         23    2    1    2    0    0  0.18263755142E+02 -0.56952400074E+02  0.12186594494E+03  0.16347532179E+03  0.91080907288E+02 0.  0.
         24    2    1    2    0    0 -0.23515846988E+02 -0.84454697680E+00 -0.54402261732E+01  0.83319010919E+02  0.79741790803E+02 0.  0.
        -13    1    4    4    0    0 -0.49010834862E+02  0.14370866375E+02  0.61574206204E+01  0.51444120781E+02  0.00000000000E+00 0.  1.
         14    1    4    4    0    0  0.25494987874E+02 -0.15215413352E+02 -0.11597646794E+02  0.31874890138E+02  0.00000000000E+00 0. -1.
        -13    1    3    3    0    0  0.47232121333E+02 -0.34532440289E+02  0.11064794732E+03  0.12516521467E+03  0.00000000000E+00 0.  1.
         13    1    3    3    0    0 -0.28968366191E+02 -0.22419959785E+02  0.11217997612E+02  0.38310107112E+02  0.00000000000E+00 0. -1.
         21    1    1    2  503  502  0.12201099690E+02 -0.16132020127E+02 -0.27240581160E+02  0.33928721888E+02  0.00000000000E+00 0. -1.
          1    1    1    2  501    0 -0.69490078436E+01  0.73928967178E+02  0.38688971018E+03  0.39395104866E+03  0.00000000000E+00 0. -1.
<scales pt_clust_5="13000.00000" pt_clust_6="13000.00000" pt_clust_7="13000.00000" pt_clust_8="13000.00000" pt_clust_9="20.22644" pt_clust_10="73.37299"></scales>
<clustering>
<clus scale="   20.226">  2  9  1 -1</clus>
<clus scale="   73.373">  2 10  1 -1</clus>
<clus scale="   79.742">  5  6 -1 -1</clus>
<clus scale="   90.769">  2  5  1 -1</clus>
<clus scale="   91.081">  7  8 -1 -1</clus>
<clus scale="   20.226">  2  5  1 -1</clus>
</clustering>
</event>
<event>
10    4  0.3043429E-005  0.4447494E+03  0.7546771E-02  0.1078188E+00
          2   -1    0    0  502    0 -0.00000000000E+00  0.00000000000E+00  0.32257428867E+03  0.32257428867E+03  0.00000000000E+00 0. -1.
         21   -1    0    0  503  502  0.00000000000E+00 -0.00000000000E+00 -0.10643045352E+04  0.10643045352E+04  0.00000000000E+00 0.  1.
         23    2    1    2    0    0  0.34248324998E+01 -0.64359215373E+02  0.11965520360E+03  0.16339629899E+03  0.90703609052E+02 0.  0.
         24    2    1    2    0    0 -0.34305219990E+03 -0.19621861149E+03 -0.45686180395E+03  0.60851953448E+03  0.73394554205E+02 0.  0.
        -13    1    4    4    0    0 -0.30580864260E+03 -0.15617527310E+03 -0.42030810704E+03  0.54274169423E+03  0.00000000000E+00 0.  1.
         14    1    4    4    0    0 -0.37243557306E+02 -0.40043338394E+02 -0.36553696910E+02  0.65777840253E+02  0.00000000000E+00 0. -1.
        -13    1    3    3    0    0 -0.21426430885E+02 -0.59195659268E+02  0.29105942848E+02  0.69356859255E+02  0.00000000000E+00 0.  1.
         13    1    3    3    0    0  0.24851263385E+02 -0.51635561048E+01  0.90549260753E+02  0.94039439738E+02  0.00000000000E+00 0. -1.
         21    1    1    2  503  501  0.98010465483E+02  0.54143777785E+02 -0.22159943393E+03  0.24828191464E+03  0.00000000000E+00 0.  1.
          1    1    1    2  501    0  0.24161690192E+03  0.20643404908E+03 -0.18292421229E+03  0.36668107581E+03  0.00000000000E+00 0. -1.
<scales pt_clust_5="13000.00000" pt_clust_6="13000.00000" pt_clust_7="13000.00000" pt_clust_8="13000.00000" pt_clust_9="105.00269" pt_clust_10="105.00269"></scales>
<clustering>
<clus scale="   73.395">  5  6 -1 -1</clus>
<clus scale="   90.704">  7  8 -1 -1</clus>
<clus scale="  105.003">  9 10 -1 -1</clus>
<clus scale="  111.270">  1  7  2 -1</clus>
<clus scale="  414.604">  1  5  2 -1</clus>
<clus scale="  444.749">  2  5  1 -1</clus>
</clustering>
</event>
<event>
10    4  0.3043429E-005  0.9683681E+02  0.7546771E-02  0.1292858E+00
         21   -1    0    0  501  502  0.00000000000E+00  0.00000000000E+00  0.81781747862E+02  0.81781747862E+02  0.00000000000E+00 0. -1.
          4   -1    0    0  503    0 -0.00000000000E+00 -0.00000000000E+00 -0.27201616459E+03  0.27201616459E+03  0.00000000000E+00 0. -1.
         23    2    1    2    0    0 -0.24222803050E+02 -0.14002522510E+02 -0.72443946518E+02  0.11945677613E+03  0.90768833593E+02 0.  0.
         24    2    1    2    0    0 -0.33437849404E+02  0.53253841426E+02 -0.84482060845E+02  0.13231979547E+03  0.80107729150E+02 0.  0.
        -11    1    4    4    0    0 -0.23167483176E+02 -0.18182446938E+02 -0.20629255626E+02  0.35956916457E+02  0.00000000000E+00 0.  1.
         12    1    4    4    0    0 -0.10270366228E+02  0.71436288364E+02 -0.63852805219E+02  0.96362879014E+02  0.00000000000E+00 0. -1.
        -13    1    3    3    0    0 -0.51768263322E+02  0.28099119643E+01 -0.69979686545E+02  0.87091935457E+02  0.00000000000E+00 0.  1.
         13    1    3    3    0    0  0.27545460272E+02 -0.16812434474E+02 -0.24642599734E+01  0.32364840673E+02  0.00000000000E+00 0. -1.
         21    1    1    2  503  502  0.11382712906E+02  0.16452756496E+02  0.42333095455E+01  0.20449456207E+02  0.00000000000E+00 0. -1.
          3    1    1    2  501    0  0.46277939548E+02 -0.55704075412E+02 -0.37541718914E+02  0.81571884649E+02  0.00000000000E+00 0. -1.
<scales pt_clust_5="13000.00000" pt_clust_6="13000.00000" pt_clust_7="13000.00000" pt_clust_8="13000.00000" pt_clust_9="20.00648" pt_clust_10="70.97685"></scales>
<clustering>
<clus scale="   20.006">  1  9  2 -1</clus>
<clus scale="   70.977">  1 10  2 -1</clus>
<clus scale="   80.108">  5  6 -1 -1</clus>
<clus scale="   86.923">  1  5  2 -1</clus>
<clus scale="   90.769">  7  8 -1 -1</clus>
<clus scale="   20.006">  1  5  2 -1</clus>
</clustering>
</event>
<event>
10    4  0.3043429E-005  0.1122192E+03  0.7546771E-02  0.1265877E+00
          2   -1    0    0  503    0 -0.00000000000E+00  0.00000000000E+00  0.55514076331E+03  0.55514076331E+03  0.00000000000E+00 0. -1.
         21   -1    0    0  501  502  0.00000000000E+00 -0.00000000000E+00 -0.81629508752E+02  0.81629508752E+02  0.00000000000E+00 0.  1.
         24    2    1    2    0    0  0.38064820102E+02  0.23795860283E+02  0.23827533670E+03  0.25526030805E+03  0.79796712282E+02 0.  0.
         23    2    1    2    0    0 -0.37194148907E+02 -0.54889609100E+02  0.82423119155E+02  0.14638517659E+03  0.10118683439E+03 0.  0.
        -13    1    3    3    0    0  0.10487883694E+02  0.47987438665E+02  0.90188127583E+02  0.10269707070E+03  0.00000000000E+00 0.  1.
         14    1    3    3    0    0  0.27576936409E+02 -0.24191578383E+02  0.14808720911E+03  0.15256323734E+03  0.00000000000E+00 0. -1.
        -11    1    4    4    0    0 -0.17601457997E+02 -0.25431987088E+02  0.10155833715E+03  0.10616352074E+03  0.00000000000E+00 0.  1.
         11    1    4    4    0    0 -0.19592690910E+02 -0.29457622012E+02 -0.19135217993E+02  0.40221655850E+02  0.00000000000E+00 0. -1.
         21    1    1    2  503  502  0.24421112078E+02  0.46810474900E+01 -0.35473240773E+02  0.43320361629E+02  0.00000000000E+00 0.  1.
          1    1    1    2  501    0 -0.25291783274E+02  0.26412701328E+02  0.18828603948E+03  0.19180442580E+03  0.00000000000E+00 0. -1.
<scales pt_clust_5="13000.00000" pt_clust_6="13000.00000" pt_clust_7="13000.00000" pt_clust_8="13000.00000" pt_clust_9="24.86570" pt_clust_10="36.01698"></scales>
<clustering>
<clus scale="   24.866">  2  9  1 -1</clus>
<clus scale="   36.017">  2 10  1 -1</clus>
<clus scale="   79.797">  5  6 -1 -1</clus>
<clus scale="   93.391">  1  5  2 -1</clus>
<clus scale="  101.187">  7  8 -1 -1</clus>
<clus scale="   24.866">  2  5  1 -1</clus>
</clustering>
</event>
<event>
10    4  0.3043429E-005  0.1160105E+03  0.7546771E-02  0.1254299E+00
          4   -1    0    0  503    0 -0.00000000000E+00  0.00000000000E+00  0.69825497295E+03  0.69825497295E+03  0.00000000000E+00 0. -1.
         21   -1    0    0  501  502  0.00000000000E+00 -0.00000000000E+00 -0.58682456552E+02  0.58682456552E+02  0.00000000000E+00 0.  1.
         24    2    1    2    0    0  0.57406199596E+02  0.47296482037E+02  0.52608371501E+03  0.53729124081E+03  0.79908530761E+02 0.  0.
         23    2    1    2    0    0 -0.57371556882E+02  0.25942060146E+01  0.62298935208E+02  0.12553898090E+03  0.92631813939E+02 0.  0.
        -11    1    3    3    0    0  0.68168295206E+02  0.11628378489E+02  0.39535390610E+03  0.40135625911E+03  0.00000000000E+00 0.  1.
         12    1    3    3    0    0 -0.10762095610E+02  0.35668103547E+02  0.13072980890E+03  0.13593498169E+03  0.00000000000E+00 0. -1.
        -11    1    4    4    0    0 -0.25283486645E+02  0.26863828957E+02 -0.13858308685E+02  0.39407774902E+02  0.00000000000E+00 0.  1.
         11    1    4    4    0    0 -0.32088070238E+02 -0.24269622942E+02  0.76157243894E+02  0.86131205999E+02  0.00000000000E+00 0. -1.
         21    1    1    2  503  502  0.20426010325E+02  0.43383890831E+01  0.15928628883E+02  0.26263372512E+02  0.00000000000E+00 0.  1.
          3    1    1    2  501    0 -0.20460653039E+02 -0.54229077134E+02  0.35261237299E+02  0.67843835280E+02  0.00000000000E+00 0. -1.
<scales pt_clust_5="13000.00000" pt_clust_6="13000.00000" pt_clust_7="13000.00000" pt_clust_8="13000.00000" pt_clust_9="20.88166" pt_clust_10="54.79182"></scales>
<clustering>
<clus scale="   20.882">  2  9  1 -1</clus>
<clus scale="   54.792">  2 10  1 -1</clus>
<clus scale="   79.909">  5  6 -1 -1</clus>
<clus scale="   92.632">  7  8 -1 -1</clus>
<clus scale="  106.128">  1  5  2 -1</clus>
<clus scale="   20.882">  2  5  1 -1</clus>
</clustering>
</event>
<event>
10    4  0.3043429E-005  0.2644824E+03  0.7546771E-02  0.1104480E+00
          4   -1    0    0  502    0 -0.00000000000E+00  0.00000000000E+00  0.65587799471E+03  0.65587799471E+03  0.00000000000E+00 0. -1.
         21   -1    0    0  503  502  0.00000000000E+00 -0.00000000000E+00 -0.16279721681E+03  0.16279721681E+03  0.00000000000E+00 0.  1.
         24    2    1    2    0    0 -0.88744720705E+02 -0.92707710103E+02  0.56396845571E+02  0.16107063054E+03  0.79327163488E+02 0.  0.
         23    2    1    2    0    0 -0.67204155996E+02 -0.10306201722E+01  0.93082803159E+02  0.14633197130E+03  0.90725833254E+02 0.  0.
        -11    1    3    3    0    0 -0.15850040535E+02 -0.19742781740E+02 -0.20373104853E+02  0.32497147831E+02  0.00000000000E+00 0.  1.
         12    1    3    3    0    0 -0.72894680171E+02 -0.72964928364E+02  0.76769950425E+02  0.12857348271E+03  0.00000000000E+00 0. -1.
        -13    1    4    4    0    0 -0.89144803259E+02  0.15116093021E+01  0.63709949488E+02  0.10958119626E+03  0.00000000000E+00 0.  1.
         13    1    4    4    0    0  0.21940647263E+02 -0.25422294744E+01  0.29372853670E+02  0.36750775036E+02  0.00000000000E+00 0. -1.
         21    1    1    2  503  501 -0.11604775134E+02  0.41985627825E+02 -0.58301423952E+02  0.72777192751E+02  0.00000000000E+00 0.  1.
          3    1    1    2  501    0  0.16755365184E+03  0.51752702450E+02  0.40190255312E+03  0.43849541692E+03  0.00000000000E+00 0. -1.
<scales pt_clust_5="13000.00000" pt_clust_6="13000.00000" pt_clust_7="13000.00000" pt_clust_8="13000.00000" pt_clust_9="43.55989" pt_clust_10="175.80018"></scales>
<clustering>
<clus scale="   43.560">  2  9  1 -1</clus>
<clus scale="   79.327">  5  6 -1 -1</clus>
<clus scale="   90.726">  7  8 -1 -1</clus>
<clus scale="  111.067">  5  7 -1 -1</clus>
<clus scale="  175.800">  2 10  1 -1</clus>
<clus scale="   43.560">  2  5  1 -1</clus>
</clustering>
</event>
<event>
10    4  0.3043429E-005  0.1269511E+03  0.7546771E-02  0.1235116E+00
          2   -1    0    0  503    0 -0.00000000000E+00  0.00000000000E+00  0.21175886396E+03  0.21175886396E+03  0.00000000000E+00 0. -1.
         21   -1    0    0  501  502  0.00000000000E+00 -0.00000000000E+00 -0.19728056003E+03  0.19728056003E+03  0.00000000000E+00 0. -1.
         23    2    1    2    0    0 -0.73114643736E+02 -0.41250756384E+02  0.71977250019E+02  0.14408025275E+03  0.92363513803E+02 0.  0.
         24    2    1    2    0    0  0.85396973622E+02  0.35498273367E+02  0.90732184244E+01  0.12353539515E+03  0.81399631730E+02 0.  0.
        -11    1    4    4    0    0  0.73185387021E+02  0.55053637312E+02 -0.11921735349E+02  0.92353297875E+02  0.00000000000E+00 0.  1.
         12    1    4    4    0    0  0.12211586600E+02 -0.19555363945E+02  0.20994953773E+02  0.31182097272E+02  0.00000000000E+00 0. -1.
        -11    1    3    3    0    0 -0.37868330115E+02 -0.27206433346E+02 -0.15168321486E+02  0.49033441831E+02  0.00000000000E+00 0. -1.
         11    1    3    3    0    0 -0.35246313621E+02 -0.14044323038E+02  0.87145571505E+02  0.95046810922E+02  0.00000000000E+00 0.  1.
         21    1    1    2  503  502  0.19992643533E+02 -0.30841640482E+02 -0.82319466861E+02  0.90152133682E+02  0.00000000000E+00 0. -1.
          1    1    1    2  501    0 -0.32274973419E+02  0.36594123499E+02  0.15747302346E+02  0.51271642406E+02  0.00000000000E+00 0. -1.
<scales pt_clust_5="13000.00000" pt_clust_6="13000.00000" pt_clust_7="13000.00000" pt_clust_8="13000.00000" pt_clust_9="36.75476" pt_clust_10="42.98702"></scales>
<clustering>
<clus scale="   36.755">  2  9  1 -1</clus>
<clus scale="   42.987">  2 10  1 -1</clus>
<clus scale="   81.400">  5  6 -1 -1</clus>
<clus scale="   92.364">  7  8 -1 -1</clus>
<clus scale="  119.212">  2  5  1 -1</clus>
<clus scale="   36.755">  2  5  1 -1</clus>
</clustering>
</event>
<event>
10    4  0.3043429E-005  0.1917085E+03  0.7546771E-02  0.1158070E+00
         21   -1    0    0  503  502  0.00000000000E+00  0.00000000000E+00  0.18519675105E+03  0.18519675105E+03  0.00000000000E+00 0. -1.
          2   -1    0    0  502    0 -0.00000000000E+00 -0.00000000000E+00 -0.73501397953E+03  0.73501397953E+03  0.00000000000E+00 0. -1.
         23    2    1    2    0    0 -0.87800220813E+01  0.18472646723E+03 -0.55134254382E+03  0.58874275916E+03  0.91861196146E+02 0.  0.
         24    2    1    2    0    0 -0.91256528704E+02 -0.11558435125E+03 -0.68969776300E+02  0.18158616166E+03  0.80803513398E+02 0.  0.
        -11    1    4    4    0    0 -0.13134679143E+01 -0.35956881881E+02  0.10584908232E+02  0.37505504061E+02  0.00000000000E+00 0.  1.
         12    1    4    4    0    0 -0.89943060790E+02 -0.79627469370E+02 -0.79554684532E+02  0.14408065760E+03  0.00000000000E+00 0. -1.
        -11    1    3    3    0    0 -0.36614774700E+02  0.26331872302E+02 -0.10348271788E+03  0.11288348916E+03  0.00000000000E+00 0.  1.
         11    1    3    3    0    0  0.27834752618E+02  0.15839459493E+03 -0.44785982594E+03  0.47585927000E+03  0.00000000000E+00 0. -1.
         21    1    1    2  503  501  0.28696322879E+02 -0.18538184008E+02  0.49137250298E+02  0.59846575340E+02  0.00000000000E+00 0.  1.
          1    1    1    2  501    0  0.71340227906E+02 -0.50603931970E+02  0.21357841347E+02  0.90035234412E+02  0.00000000000E+00 0. -1.
<scales pt_clust_5="13000.00000" pt_clust_6="13000.00000" pt_clust_7="13000.00000" pt_clust_8="13000.00000" pt_clust_9="32.51708" pt_clust_10="132.26866"></scales>
<clustering>
<clus scale="   32.517">  9 10 -1 -1</clus>
<clus scale="   80.804">  5  6 -1 -1</clus>
<clus scale="   91.861">  7  8 -1 -1</clus>
<clus scale="  132.269">  1  9  2 -1</clus>
<clus scale="  186.662">  1  5  2 -1</clus>
<clus scale="  132.269">  1  5  2 -1</clus>
</clustering>
</event>
<event>
10    4  0.3043429E-005  0.1427722E+03  0.7546771E-02  0.1228338E+00
          2   -1    0    0  502    0 -0.00000000000E+00  0.00000000000E+00  0.65054407679E+02  0.65054407679E+02  0.00000000000E+00 0. -1.
         21   -1    0    0  503  502  0.00000000000E+00 -0.00000000000E+00 -0.69760084829E+03  0.69760084829E+03  0.00000000000E+00 0. -1.
         24    2    1    2    0    0 -0.50882438464E+02  0.62415080395E+01 -0.48771245638E+02  0.10800136443E+03  0.81594615950E+02 0.  0.
         23    2    1    2    0    0  0.74103358896E+02 -0.10835404215E+03 -0.20953256088E+03  0.26372627739E+03  0.91737391878E+02 0.  0.
        -11    1    3    3    0    0  0.11679106758E+02  0.22016666923E+02  0.32344861534E+01  0.25131594811E+02  0.00000000000E+00 0.  1.
         12    1    3    3    0    0 -0.62561545222E+02 -0.15775158884E+02 -0.52005731791E+02  0.82869769624E+02  0.00000000000E+00 0. -1.
        -11    1    4    4    0    0  0.54451898464E+02 -0.11781521231E+03 -0.14024308557E+03  0.19108520756E+03  0.00000000000E+00 0. -1.
         11    1    4    4    0    0  0.19651460432E+02  0.94611701589E+01 -0.69289475307E+02  0.72641069831E+02  0.00000000000E+00 0.  1.
         21    1    1    2  503  501 -0.89868354637E+01  0.66835350043E+02 -0.30023846127E+03  0.30771880159E+03  0.00000000000E+00 0. -1.
          1    1    1    2  501    0 -0.14234084968E+02  0.35277184070E+02 -0.74004172820E+02  0.83208812548E+02  0.00000000000E+00 0. -1.
<scales pt_clust_5="13000.00000" pt_clust_6="13000.00000" pt_clust_7="13000.00000" pt_clust_8="13000.00000" pt_clust_9="31.87074" pt_clust_10="117.34057"></scales>
<clustering>
<clus scale="   31.871">  9 10 -1 -1</clus>
<clus scale="   81.595">  5  6 -1 -1</clus>
<clus scale="   91.737">  7  8 -1 -1</clus>
<clus scale="   96.362">  1  5  2 -1</clus>
<clus scale="  117.341">  2  9  1 -1</clus>
<clus scale="  117.341">  2  5  1 -1</clus>
</clustering>
</event>
<event>
10    4  0.3043429E-005  0.1568656E+03  0.7546771E-02  0.1193411E+00
          2   -1    0    0  502    0 -0.00000000000E+00  0.00000000000E+00  0.98397044728E+03  0.98397044728E+03  0.00000000000E+00 0. -1.
         21   -1    0    0  503  502  0.00000000000E+00 -0.00000000000E+00 -0.75731222520E+02  0.75731222520E+02  0.00000000000E+00 0.  1.
         24    2    1    2    0    0  0.68890187726E+01 -0.11072417876E+03  0.33496812501E+03  0.36256589362E+03  0.83325146905E+02 0.  0.
         23    2    1    2    0    0 -0.52933286699E+02  0.16653749504E+03  0.24806975666E+03  0.31656099319E+03  0.90197495240E+02 0.  0.
        -13    1    3    3    0    0 -0.31305484440E+02 -0.66060202887E+02  0.23998628594E+03  0.25087327718E+03  0.00000000000E+00 0.  1.
         14    1    3    3    0    0  0.38194503212E+02 -0.44663975874E+02  0.94981839064E+02  0.11169261645E+03  0.00000000000E+00 0. -1.
        -13    1    4    4    0    0 -0.77778159547E+02  0.14040035053E+03  0.19884930115E+03  0.25554401792E+03  0.00000000000E+00 0.  1.
         13    1    4    4    0    0  0.24844872848E+02  0.26137144518E+02  0.49220455509E+02  0.61016975269E+02  0.00000000000E+00 0. -1.
         21    1    1    2  503  501 -0.36863793956E+02  0.35137120973E+02  0.26274087633E+02  0.57305185246E+02  0.00000000000E+00 0.  1.
          1    1    1    2  501    0  0.82908061882E+02 -0.90950437256E+02  0.29892725546E+03  0.32326959774E+03  0.00000000000E+00 0. -1.
<scales pt_clust_5="13000.00000" pt_clust_6="13000.00000" pt_clust_7="13000.00000" pt_clust_8="13000.00000" pt_clust_9="50.92697" pt_clust_10="112.80203"></scales>
<clustering>
<clus scale="   50.927">  2  9  1 -1</clus>
<clus scale="   83.325">  5  6 -1 -1</clus>
<clus scale="   90.197">  7  8 -1 -1</clus>
<clus scale="  112.802">  2 10  1 -1</clus>
<clus scale="  153.017">  1  5  2 -1</clus>
<clus scale="   50.927">  2  5  1 -1</clus>
</clustering>
</event>
<event>
10    4  0.3043429E-005  0.2041554E+03  0.7546771E-02  0.1169304E+00
         21   -1    0    0  503  502  0.00000000000E+00  0.00000000000E+00  0.85009846513E+03  0.85009846513E+03  0.00000000000E+00 0. -1.
          2   -1    0    0  502    0 -0.00000000000E+00 -0.00000000000E+00 -0.34337079147E+03  0.34337079147E+03  0.00000000000E+00 0. -1.
         23    2    1    2    0    0  0.60135911759E+02 -0.51176163599E+02 -0.19931851342E+03  0.23270010732E+03  0.90477304063E+02 0.  0.
         24    2    1    2    0    0  0.96517290042E+02 -0.89199005636E+02 -0.49144149482E+02  0.16126274790E+03  0.79488845442E+02 0.  0.
        -13    1    4    4    0    0  0.38419760671E+02  0.81837950314E+01 -0.50923918815E+01  0.39610414870E+02  0.00000000000E+00 0.  1.
         14    1    4    4    0    0  0.58097529371E+02 -0.97382800667E+02 -0.44051757601E+02  0.12165233303E+03  0.00000000000E+00 0. -1.
        -13    1    3    3    0    0  0.19696147787E+02  0.25334652438E+02 -0.71134700539E+02  0.78037993776E+02  0.00000000000E+00 0.  1.
         13    1    3    3    0    0  0.40439763972E+02 -0.76510816038E+02 -0.12818381288E+03  0.15466211355E+03  0.00000000000E+00 0. -1.
         21    1    1    2  503  501 -0.84730179517E+02 -0.17000073347E+02  0.19722818960E+03  0.21533036151E+03  0.00000000000E+00 0.  1.
          1    1    1    2  501    0 -0.71923022285E+02  0.15737524258E+03  0.55796214696E+03  0.58417603986E+03  0.00000000000E+00 0. -1.
<scales pt_clust_5="13000.00000" pt_clust_6="13000.00000" pt_clust_7="13000.00000" pt_clust_8="13000.00000" pt_clust_9="86.41878" pt_clust_10="188.04510"></scales>
<clustering>
<clus scale="   79.489">  5  6 -1 -1</clus>
<clus scale="   86.419">  1  9  2 -1</clus>
<clus scale="   90.477">  7  8 -1 -1</clus>
<clus scale="  119.195">  2  7  1 -1</clus>
<clus scale="  188.045">  1 10  2 -1</clus>
<clus scale="   86.419">  1  5  2 -1</clus>
</clustering>
</event>
<event>
10    4  0.3043429E-005  0.1563610E+03  0.7546771E-02  0.1193614E+00
         21   -1    0    0  501  502  0.00000000000E+00  0.00000000000E+00  0.50731807894E+03  0.50731807894E+03  0.00000000000E+00 0. -1.
          2   -1    0    0  503    0 -0.00000000000E+00 -0.00000000000E+00 -0.79168883803E+02  0.79168883803E+02  0.00000000000E+00 0. -1.
         23    2    1    2    0    0  0.12627644827E+03 -0.34567925755E+02  0.10041882891E+03  0.18761825732E+03  0.89308378102E+02 0.  0.
         24    2    1    2    0    0 -0.11842922468E+03  0.32040096971E+02  0.29884669438E+03  0.33398803302E+03  0.84773877986E+02 0.  0.
        -11    1    4    4    0    0 -0.33607758769E+02  0.44044750270E+02  0.17375849813E+03  0.18237718374E+03  0.00000000000E+00 0.  1.
         12    1    4    4    0    0 -0.84821465907E+02 -0.12004653300E+02  0.12508819625E+03  0.15161084928E+03  0.00000000000E+00 0. -1.
        -11    1    3    3    0    0  0.69975632237E+02  0.23050763947E+02  0.26529976970E+02  0.78305596885E+02  0.00000000000E+00 0.  1.
         11    1    3    3    0    0  0.56300816036E+02 -0.57618689702E+02  0.73888851944E+02  0.10931266043E+03  0.00000000000E+00 0. -1.
         21    1    1    2  503  502 -0.23968850345E+00  0.25572274688E+02  0.31384583201E+02  0.40484450669E+02  0.00000000000E+00 0. -1.
          1    1    1    2  501    0 -0.76075350933E+01 -0.23044445904E+02 -0.25009113589E+01  0.24396221733E+02  0.00000000000E+00 0. -1.
<scales pt_clust_5="13000.00000" pt_clust_6="13000.00000" pt_clust_7="13000.00000" pt_clust_8="13000.00000" pt_clust_9="23.91705" pt_clust_10="24.26771"></scales>
<clustering>
<clus scale="   24.268">  1 10  2 -1</clus>
<clus scale="   23.917">  1  9  2 -1</clus>
<clus scale="   84.774">  5  6 -1 -1</clus>
<clus scale="   89.308">  7  8 -1 -1</clus>
<clus scale="  153.816">  1  5  2 -1</clus>
<clus scale="   24.268">  1  5  2 -1</clus>
</clustering>
</event>
<event>
10    4  0.3043429E-005  0.2038006E+03  0.7546771E-02  0.1147445E+00
         21   -1    0    0  501  502  0.00000000000E+00  0.00000000000E+00  0.16724236572E+03  0.16724236572E+03  0.00000000000E+00 0.  1.
          2   -1    0    0  503    0 -0.00000000000E+00 -0.00000000000E+00 -0.74747169174E+03  0.74747169174E+03  0.00000000000E+00 0. -1.
         23    2    1    2    0    0  0.15928721265E+03  0.92400801875E+02 -0.56621256720E+03  0.60226402235E+03  0.90636400331E+02 0.  0.
         24    2    1    2    0    0 -0.14972885532E+03 -0.85190010374E+02  0.36292330654E+02  0.19369055980E+03  0.80764049615E+02 0.  0.
        -11    1    4    4    0    0 -0.97747073540E+02 -0.65523905079E+02  0.61368729042E+02  0.13271772085E+03  0.00000000000E+00 0.  1.
         12    1    4    4    0    0 -0.51981781777E+02 -0.19666105295E+02 -0.25076398388E+02  0.60972838956E+02  0.00000000000E+00 0. -1.
        -13    1    3    3    0    0  0.11736762787E+03  0.44945682657E+02 -0.25044465145E+03  0.28021027445E+03  0.00000000000E+00 0.  1.
         13    1    3    3    0    0  0.41919584778E+02  0.47455119218E+02 -0.31576791574E+03  0.32205374791E+03  0.00000000000E+00 0. -1.
         21    1    1    2  503  502  0.69426644613E+01 -0.28074064227E+02  0.25414346542E+02  0.38499904964E+02  0.00000000000E+00 0.  1.
          1    1    1    2  501    0 -0.16501021797E+02  0.20863272727E+02 -0.75723436017E+02  0.80259570342E+02  0.00000000000E+00 0. -1.
<scales pt_clust_5="13000.00000" pt_clust_6="13000.00000" pt_clust_7="13000.00000" pt_clust_8="13000.00000" pt_clust_9="24.32288" pt_clust_10="26.60001"></scales>
<clustering>
<clus scale="   26.600">  1 10  2 -1</clus>
<clus scale="   24.323">  1  9  2 -1</clus>
<clus scale="   80.764">  5  6 -1 -1</clus>
<clus scale="   90.636">  7  8 -1 -1</clus>
<clus scale="  199.606">  1  5  2 -1</clus>
<clus scale="   26.600">  1  5  2 -1</clus>
</clustering>
</event>
<event>
10    4  0.3043429E-005  0.9280695E+02  0.7546771E-02  0.1302666E+00
         -3   -1    0    0    0  501 -0.00000000000E+00  0.00000000000E+00  0.72539301802E+03  0.72539301802E+03  0.00000000000E+00 0.  1.
         21   -1    0    0  503  502  0.00000000000E+00 -0.00000000000E+00 -0.19621419725E+03  0.19621419725E+03  0.00000000000E+00 0. -1.
         24    2    1    2    0    0  0.12938639202E+02  0.14098263708E+01  0.40832132492E+03  0.41575401467E+03  0.77173184045E+02 0.  0.
         23    2    1    2    0    0 -0.77930582790E+02 -0.11234364118E+02  0.28475599139E+03  0.30833621477E+03  0.88237520572E+02 0.  0.
        -11    1    3    3    0    0 -0.97998134847E+01 -0.34387851156E+02  0.19714806764E+03  0.20036447096E+03  0.00000000000E+00 0.  1.
         12    1    3    3    0    0  0.22738452686E+02  0.35797677527E+02  0.21117325729E+03  0.21538954371E+03  0.00000000000E+00 0. -1.
        -13    1    4    4    0    0 -0.85810911241E+02 -0.33299599290E+02  0.25012557197E+03  0.26652425322E+03  0.00000000000E+00 0.  1.
         13    1    4    4    0    0  0.78803284515E+01  0.22065235172E+02  0.34630419418E+02  0.41811961552E+02  0.00000000000E+00 0. -1.
         21    1    1    2  503  501  0.55018221250E+02 -0.83930614549E+01 -0.16744083006E+03  0.17644795187E+03  0.00000000000E+00 0. -1.
         -4    1    1    2    0  502  0.99737223379E+01  0.18217599202E+02  0.35423345067E+01  0.21069033954E+02  0.00000000000E+00 0.  1.
<scales pt_clust_5="13000.00000" pt_clust_6="13000.00000" pt_clust_7="13000.00000" pt_clust_8="13000.00000" pt_clust_9="64.70372" pt_clust_10="20.76911"></scales>
<clustering>
<clus scale="   20.769">  2 10  1 -1</clus>
<clus scale="   64.704">  2  9  1 -1</clus>
<clus scale="   77.173">  5  6 -1 -1</clus>
<clus scale="   82.359">  1  5  2 -1</clus>
<clus scale="   88.238">  7  8 -1 -1</clus>
<clus scale="   20.769">  2  5  1 -1</clus>
</clustering>
</event>
<event>
10    4  0.3043429E-005  0.1413729E+03  0.7546771E-02  0.1212305E+00
          2   -1    0    0  502    0 -0.00000000000E+00  0.00000000000E+00  0.15698782905E+04  0.15698782905E+04  0.00000000000E+00 0. -1.
         21   -1    0    0  503  502  0.00000000000E+00 -0.00000000000E+00 -0.79671808147E+02  0.79671808147E+02  0.00000000000E+00 0.  1.
         24    2    1    2    0    0 -0.11274367323E+03  0.21617422169E+02  0.14246446523E+04  0.14319195505E+04  0.87193836149E+02 0.  0.
         23    2    1    2    0    0  0.44147548822E+02  0.63121484498E+01  0.34496009403E+02  0.10705450883E+03  0.91004636760E+02 0.  0.
        -11    1    3    3    0    0 -0.58264780112E+02 -0.12234639895E+02  0.32514422541E+03  0.33054990294E+03  0.00000000000E+00 0.  1.
         12    1    3    3    0    0 -0.54478893119E+02  0.33852062064E+02  0.10995004269E+04  0.11013696476E+04  0.00000000000E+00 0. -1.
        -11    1    4    4    0    0  0.26097323420E+02  0.48701563177E+02  0.17783893872E+02  0.58044633058E+02  0.00000000000E+00 0. -1.
         11    1    4    4    0    0  0.18050225401E+02 -0.42389414727E+02  0.16712115531E+02  0.49009875775E+02  0.00000000000E+00 0.  1.
         21    1    1    2  503  501  0.20411803978E+02 -0.74492649748E+01 -0.25498027653E+02  0.33500488123E+02  0.00000000000E+00 0.  1.
          1    1    1    2  501    0  0.48184320432E+02 -0.20480305644E+02  0.56563848368E+02  0.77075551227E+02  0.00000000000E+00 0. -1.
<scales pt_clust_5="13000.00000" pt_clust_6="13000.00000" pt_clust_7="13000.00000" pt_clust_8="13000.00000" pt_clust_9="21.72863" pt_clust_10="56.79225"></scales>
<clustering>
<clus scale="   21.729">  2  9  1 -1</clus>
<clus scale="   56.792">  2 10  1 -1</clus>
<clus scale="   87.194">  5  6 -1 -1</clus>
<clus scale="   91.005">  7  8 -1 -1</clus>
<clus scale="  138.950">  1  5  2 -1</clus>
<clus scale="   21.729">  2  5  1 -1</clus>
</clustering>
</event>
<event>
10    4  0.3043429E-005  0.1282033E+03  0.7546771E-02  0.1258235E+00
          2   -1    0    0  503    0 -0.00000000000E+00  0.00000000000E+00  0.11818266429E+04  0.11818266429E+04  0.00000000000E+00 0. -1.
         21   -1    0    0  501  502  0.00000000000E+00 -0.00000000000E+00 -0.40677482706E+02  0.40677482706E+02  0.00000000000E+00 0.  1.
         23    2    1    2    0    0 -0.31017681959E+02  0.96083444414E+02  0.57127926339E+03  0.58699621560E+03  0.89501036142E+02 0.  0.
         24    2    1    2    0    0 -0.11730620954E+02  0.38226338334E+02  0.71459679044E+02  0.10911356800E+03  0.72113969399E+02 0.  0.
        -13    1    4    4    0    0 -0.79939323063E+01  0.53507237848E+02  0.24130588045E+02  0.59238608485E+02  0.00000000000E+00 0.  1.
         14    1    4    4    0    0 -0.37366886473E+01 -0.15280899514E+02  0.47329090999E+02  0.49874959516E+02  0.00000000000E+00 0. -1.
        -11    1    3    3    0    0 -0.58530632738E+02  0.88872746763E+02  0.44308835363E+03  0.45568792963E+03  0.00000000000E+00 0.  1.
         11    1    3    3    0    0  0.27512950779E+02  0.72106976510E+01  0.12819090976E+03  0.13130828597E+03  0.00000000000E+00 0. -1.
         21    1    1    2  503  502  0.18648253650E+02 -0.76398305767E+02  0.12448590840E+03  0.14724537303E+03  0.00000000000E+00 0. -1.
          1    1    1    2  501    0  0.24100049263E+02 -0.57911476982E+02  0.37392430934E+03  0.37914896895E+03  0.00000000000E+00 0. -1.
<scales pt_clust_5="13000.00000" pt_clust_6="13000.00000" pt_clust_7="13000.00000" pt_clust_8="13000.00000" pt_clust_9="91.79131" pt_clust_10="62.72604"></scales>
<clustering>
<clus scale="   62.726">  2 10  1 -1</clus>
<clus scale="   72.114">  5  6 -1 -1</clus>
<clus scale="   72.748">  2  5  1 -1</clus>
<clus scale="   89.501">  7  8 -1 -1</clus>
<clus scale="   91.791">  2  9  1 -1</clus>
<clus scale="   62.726">  2  5  1 -1</clus>
</clustering>
</event>
<event>
10    4  0.3043429E-005  0.1945491E+03  0.7546771E-02  0.1190998E+00
         21   -1    0    0  503  502  0.00000000000E+00  0.00000000000E+00  0.97425236475E+02  0.97425236475E+02  0.00000000000E+00 0.  1.
          2   -1    0    0  502    0 -0.00000000000E+00 -0.00000000000E+00 -0.12763649832E+04  0.12763649832E+04  0.00000000000E+00 0. -1.
         24    2    1    2    0    0 -0.89848167510E+01 -0.49538786417E+00 -0.18305628025E+03  0.20179836212E+03  0.84451198185E+02 0.  0.
         23    2    1    2    0    0  0.10613274135E+02 -0.17421659963E+03 -0.69958488564E+03  0.72687465330E+03  0.91998283720E+02 0.  0.
        -11    1    3    3    0    0 -0.22837146028E+02  0.36660169486E+02 -0.73051676341E+02  0.84864896640E+02  0.00000000000E+00 0.  1.
         12    1    3    3    0    0  0.13852329277E+02 -0.37155557351E+02 -0.11000460391E+03  0.11693346548E+03  0.00000000000E+00 0. -1.
        -11    1    4    4    0    0 -0.43975416869E+01 -0.11635464344E+03 -0.59609876005E+03  0.60736436606E+03  0.00000000000E+00 0.  1.
         11    1    4    4    0    0  0.15010815822E+02 -0.57861956183E+02 -0.10348612559E+03  0.11951028724E+03  0.00000000000E+00 0. -1.
         21    1    1    2  503  501  0.19623448706E+02  0.78879251627E+01  0.53207012901E+02  0.57256312528E+02  0.00000000000E+00 0.  1.
          1    1    1    2  501    0 -0.21251906090E+02  0.16682406233E+03 -0.34950559372E+03  0.38786089172E+03  0.00000000000E+00 0. -1.
<scales pt_clust_5="13000.00000" pt_clust_6="13000.00000" pt_clust_7="13000.00000" pt_clust_8="13000.00000" pt_clust_9="21.14945" pt_clust_10="171.42245"></scales>
<clustering>
<clus scale="   21.149">  1  9  2 -1</clus>
<clus scale="   84.451">  5  6 -1 -1</clus>
<clus scale="   84.587">  2  5  1 -1</clus>
<clus scale="   91.998">  7  8 -1 -1</clus>
<clus scale="  171.422">  1 10  2 -1</clus>
<clus scale="   21.149">  1  5  2 -1</clus>
</clustering>
</event>
<event>
10    4  0.3043429E-005  0.1415288E+03  0.7546771E-02  0.1213556E+00
          2   -1    0    0  503    0 -0.00000000000E+00  0.00000000000E+00  0.10061749620E+04  0.10061749620E+04  0.00000000000E+00 0. -1.
         21   -1    0    0  501  502  0.00000000000E+00 -0.00000000000E+00 -0.12133263834E+03  0.12133263834E+03  0.00000000000E+00 0. -1.
         24    2    1    2    0    0 -0.10610307086E+03  0.18252270072E+02  0.26882014447E+03  0.30047101225E+03  0.80172015838E+02 0.  0.
         23    2    1    2    0    0  0.10877564975E+03  0.53373485650E+02  0.30182075277E+03  0.33770893433E+03  0.90943315162E+02 0.  0.
        -11    1    3    3    0    0 -0.16488166607E+02 -0.28545982717E+02  0.59778159853E+02  0.68265373087E+02  0.00000000000E+00 0.  1.
         12    1    3    3    0    0 -0.89614904254E+02  0.46798252789E+02  0.20904198461E+03  0.23220563916E+03  0.00000000000E+00 0. -1.
        -13    1    4    4    0    0  0.34896327777E+02 -0.90940033005E+01  0.17235262884E+03  0.17608487514E+03  0.00000000000E+00 0.  1.
         13    1    4    4    0    0  0.73879321978E+02  0.62467488951E+02  0.12946812393E+03  0.16162405918E+03  0.00000000000E+00 0. -1.
         21    1    1    2  503  502  0.76153248789E+02 -0.72321049539E+02 -0.50266905990E+02  0.11643201169E+03  0.00000000000E+00 0. -1.
          1    1    1    2  501    0 -0.78825827683E+02  0.69529381733E+00  0.36446833241E+03  0.37289564207E+03  0.00000000000E+00 0. -1.
<scales pt_clust_5="13000.00000" pt_clust_6="13000.00000" pt_clust_7="13000.00000" pt_clust_8="13000.00000" pt_clust_9="74.57371" pt_clust_10="78.82893"></scales>
<clustering>
<clus scale="   78.829">  2 10  1 -1</clus>
<clus scale="   74.574">  2  9  1 -1</clus>
<clus scale="   80.172">  5  6 -1 -1</clus>
<clus scale="   90.943">  7  8 -1 -1</clus>
<clus scale="  134.860">  1  5  2 -1</clus>
<clus scale="   78.829">  2  5  1 -1</clus>
</clustering>
</event>
<event>
10    4  0.3043429E-005  0.1493410E+03  0.7546771E-02  0.1204055E+00
         21   -1    0    0  501  502  0.00000000000E+00  0.00000000000E+00  0.10233461876E+03  0.10233461876E+03  0.00000000000E+00 0. -1.
          2   -1    0    0  503    0 -0.00000000000E+00 -0.00000000000E+00 -0.56024156895E+03  0.56024156895E+03  0.00000000000E+00 0. -1.
         23    2    1    2    0    0  0.27072797198E+02 -0.78995985334E+02 -0.13432053186E+03  0.18319733103E+03  0.92444333357E+02 0.  0.
         24    2    1    2    0    0 -0.12502791594E+03  0.12409982680E+03 -0.21336891289E+03  0.28738054221E+03  0.77643649305E+02 0.  0.
        -13    1    4    4    0    0  0.75655673121E+01  0.21472730217E+02 -0.41105450048E+02  0.46989083577E+02  0.00000000000E+00 0.  1.
         14    1    4    4    0    0 -0.13259348325E+03  0.10262709658E+03 -0.17226346284E+03  0.24039145863E+03  0.00000000000E+00 0. -1.
        -13    1    3    3    0    0  0.15154939793E+02 -0.58354298872E+02 -0.15830535102E+02  0.62333796921E+02  0.00000000000E+00 0. -1.
         13    1    3    3    0    0  0.11917857406E+02 -0.20641686462E+02 -0.11848999676E+03  0.12086353411E+03  0.00000000000E+00 0.  1.
         21    1    1    2  503  502  0.45532982377E+02 -0.32765250066E+01  0.16571302485E+02  0.48565380327E+02  0.00000000000E+00 0. -1.
          1    1    1    2  501    0  0.52422136363E+02 -0.41827316458E+02 -0.12678880793E+03  0.14343293415E+03  0.00000000000E+00 0. -1.
<scales pt_clust_5="13000.00000" pt_clust_6="13000.00000" pt_clust_7="13000.00000" pt_clust_8="13000.00000" pt_clust_9="45.65072" pt_clust_10="71.61989"></scales>
<clustering>
<clus scale="   45.651">  1  9  2 -1</clus>
<clus scale="   71.620">  1 10  2 -1</clus>
<clus scale="   77.644">  5  6 -1 -1</clus>
<clus scale="   92.444">  7  8 -1 -1</clus>
<clus scale="  140.660">  1  5  2 -1</clus>
<clus scale="   45.651">  1  5  2 -1</clus>
</clustering>
</event>
<event>
10    4  0.3043429E-005  0.1846417E+03  0.7546771E-02  0.1193062E+00
          2   -1    0    0  503    0 -0.00000000000E+00  0.00000000000E+00  0.18858819290E+04  0.18858819290E+04  0.00000000000E+00 0. -1.
         21   -1    0    0  501  502  0.00000000000E+00 -0.00000000000E+00 -0.39910103121E+02  0.39910103121E+02  0.00000000000E+00 0.  1.
         24    2    1    2    0    0  0.37893495326E+02 -0.40910514987E+02  0.51321286982E+03  0.52178644259E+03  0.75921371779E+02 0.  0.
         23    2    1    2    0    0  0.12401724934E+03 -0.55287919621E+02  0.26622750433E+03  0.31238912132E+03  0.90955191516E+02 0.  0.
        -13    1    3    3    0    0  0.31811160843E+02 -0.62230642311E+02  0.33597732715E+03  0.34316958949E+03  0.00000000000E+00 0.  1.
         14    1    3    3    0    0  0.60823344840E+01  0.21320127323E+02  0.17723554267E+03  0.17861685309E+03  0.00000000000E+00 0. -1.
        -11    1    4    4    0    0  0.38635572380E+02 -0.11360229165E+02  0.14218555508E+02  0.42707488577E+02  0.00000000000E+00 0.  1.
         11    1    4    4    0    0  0.85381676958E+02 -0.43927690455E+02  0.25200894883E+03  0.26968163274E+03  0.00000000000E+00 0. -1.
         21    1    1    2  503  502  0.23838928997E+02  0.16066657824E+02  0.95345561437E+02  0.99585180198E+02  0.00000000000E+00 0.  1.
          1    1    1    2  501    0 -0.18574967366E+03  0.80131776784E+02  0.97118589030E+03  0.99203128803E+03  0.00000000000E+00 0. -1.
<scales pt_clust_5="13000.00000" pt_clust_6="13000.00000" pt_clust_7="13000.00000" pt_clust_8="13000.00000" pt_clust_9="28.74773" pt_clust_10="160.68522"></scales>
<clustering>
<clus scale="   28.748">  2  9  1 -1</clus>
<clus scale="   75.921">  5  6 -1 -1</clus>
<clus scale="   90.955">  7  8 -1 -1</clus>
<clus scale="   94.552">  1  5  2 -1</clus>
<clus scale="  160.685">  2 10  1 -1</clus>
<clus scale="   28.748">  2  5  1 -1</clus>
</clustering>
</event>
<event>
10    4  0.3043429E-005  0.1872053E+03  0.7546771E-02  0.1191070E+00
         21   -1    0    0  501  502  0.00000000000E+00  0.00000000000E+00  0.24099834148E+03  0.24099834148E+03  0.00000000000E+00 0. -1.
          2   -1    0    0  503    0 -0.00000000000E+00 -0.00000000000E+00 -0.41175079718E+03  0.41175079718E+03  0.00000000000E+00 0. -1.
         24    2    1    2    0    0  0.51156151603E+02 -0.10818396994E+02 -0.11007909149E+03  0.14625866952E+03  0.80871518262E+02 0.  0.
         23    2    1    2    0    0 -0.17452913963E+03 -0.13448506931E+02 -0.48377924670E+02  0.20412458821E+03  0.93194103873E+02 0.  0.
        -11    1    3    3    0    0  0.45438925517E+02  0.30073146515E+02 -0.70088901136E+02  0.88778061231E+02  0.00000000000E+00 0.  1.
         12    1    3    3    0    0  0.57172260855E+01 -0.40891543509E+02 -0.39990190354E+02  0.57480608288E+02  0.00000000000E+00 0. -1.
        -11    1    4    4    0    0 -0.17130880870E+03  0.10686896795E+02 -0.31527422071E+02  0.17451331194E+03  0.00000000000E+00 0. -1.
         11    1    4    4    0    0 -0.32203309280E+01 -0.24135403726E+02 -0.16850502599E+02  0.29611276266E+02  0.00000000000E+00 0.  1.
         21    1    1    2  503  502 -0.18243093019E+02  0.11667728033E+02  0.11166117868E+03  0.11374165967E+03  0.00000000000E+00 0. -1.
          1    1    1    2  501    0  0.14161608105E+03  0.12599175893E+02 -0.12395661822E+03  0.18862422126E+03  0.00000000000E+00 0. -1.
<scales pt_clust_5="13000.00000" pt_clust_6="13000.00000" pt_clust_7="13000.00000" pt_clust_8="13000.00000" pt_clust_9="21.65517" pt_clust_10="162.35986"></scales>
<clustering>
<clus scale="   21.655">  1  9  2 -1</clus>
<clus scale="   80.872">  5  6 -1 -1</clus>
<clus scale="   93.194">  7  8 -1 -1</clus>
<clus scale="   94.788">  2  5  1 -1</clus>
<clus scale="  162.360">  1 10  2 -1</clus>
<clus scale="   21.655">  1  5  2 -1</clus>
</clustering>
</event>
<event>
10    4  0.3043429E-005  0.1509251E+03  0.7546771E-02  0.1214411E+00
         -1   -1    0    0    0  501 -0.00000000000E+00  0.00000000000E+00  0.78086282639E+03  0.78086282639E+03  0.00000000000E+00 0.  1.
         21   -1    0    0  503  502  0.00000000000E+00 -0.00000000000E+00 -0.10590483886E+03  0.10590483886E+03  0.00000000000E+00 0.  1.
         23    2    1    2    0    0  0.45590480877E+02  0.37815264191E+02  0.85813585981E+02  0.13878250869E+03  0.91586718619E+02 0.  0.
         24    2    1    2    0    0 -0.13020481586E+02  0.99687004349E+02  0.57236560880E+03  0.58682423282E+03  0.81567507674E+02 0.  0.
        -11    1    4    4    0    0 -0.40783077376E+02  0.87877997006E+02  0.38259618773E+03  0.39467156551E+03  0.00000000000E+00 0.  1.
         12    1    4    4    0    0  0.27762595790E+02  0.11809007344E+02  0.18976942107E+03  0.19215266731E+03  0.00000000000E+00 0. -1.
        -11    1    3    3    0    0  0.34111362833E+02  0.68310356947E+02  0.63251369356E+02  0.99149511677E+02  0.00000000000E+00 0.  1.
         11    1    3    3    0    0  0.11479118044E+02 -0.30495092756E+02  0.22562216626E+02  0.39632997015E+02  0.00000000000E+00 0. -1.
         21    1    1    2  503  501  0.18375650380E+02 -0.25042948266E+02 -0.13770003858E+02  0.33976856697E+02  0.00000000000E+00 0.  1.
         -2    1    1    2    0  502 -0.50945649671E+02 -0.11245932027E+03  0.30548796603E+02  0.12718406705E+03  0.00000000000E+00 0.  1.
<scales pt_clust_5="13000.00000" pt_clust_6="13000.00000" pt_clust_7="13000.00000" pt_clust_8="13000.00000" pt_clust_9="31.06145" pt_clust_10="126.98481"></scales>
<clustering>
<clus scale="   31.061">  2  9  1 -1</clus>
<clus scale="   81.568">  5  6 -1 -1</clus>
<clus scale="   91.587">  7  8 -1 -1</clus>
<clus scale="  109.209">  1  7  2 -1</clus>
<clus scale="  126.985">  2 10  1 -1</clus>
<clus scale="   31.061">  2  5  1 -1</clus>
</clustering>
</event>
<event>
10    4  0.3043429E-005  0.3839648E+03  0.7546771E-02  0.1097051E+00
         21   -1    0    0  501  502  0.00000000000E+00  0.00000000000E+00  0.56374480686E+03  0.56374480686E+03  0.00000000000E+00 0.  1.
         -1   -1    0    0    0  501 -0.00000000000E+00 -0.00000000000E+00 -0.41834655078E+03  0.41834655078E+03  0.00000000000E+00 0.  1.
         24    2    1    2    0    0  0.14138795468E+02 -0.59498710022E+02  0.45693330699E+02  0.11148375291E+03  0.81244966990E+02 0.  0.
         23    2    1    2    0    0 -0.15936308033E+03  0.38728153506E+03 -0.50048754721E+02  0.43396520579E+03  0.10216331636E+03 0.  0.
        -13    1    3    3    0    0 -0.74767522300E+01 -0.63863695115E+02  0.57684300709E+02  0.86382590410E+02  0.00000000000E+00 0.  1.
         14    1    3    3    0    0  0.21615547698E+02  0.43649850933E+01 -0.11990970009E+02  0.25101162501E+02  0.00000000000E+00 0. -1.
        -11    1    4    4    0    0 -0.28330830460E+02  0.20213466673E+03 -0.18267961752E+02  0.20492627425E+03  0.00000000000E+00 0. -1.
         11    1    4    4    0    0 -0.13103224987E+03  0.18514686833E+03 -0.31780792969E+02  0.22903893154E+03  0.00000000000E+00 0.  1.
         21    1    1    2  503  502 -0.20079889319E+02 -0.34928165449E+02  0.85157383391E+02  0.94206998905E+02  0.00000000000E+00 0.  1.
         -2    1    1    2    0  503  0.16530417418E+03 -0.29285465959E+03  0.64596296717E+02  0.34243540004E+03  0.00000000000E+00 0.  1.
<scales pt_clust_5="13000.00000" pt_clust_6="13000.00000" pt_clust_7="13000.00000" pt_clust_8="13000.00000" pt_clust_9="40.28869" pt_clust_10="370.12383"></scales>
<clustering>
<clus scale="   40.289">  1  9  2 -1</clus>
<clus scale="   81.245">  5  6 -1 -1</clus>
<clus scale="  102.163">  7  8 -1 -1</clus>
<clus scale="  104.787">  2  5  1 -1</clus>
<clus scale="  370.124">  1 10  2 -1</clus>
<clus scale="   40.289">  1  5  2 -1</clus>
</clustering>
</event>
<event>
10    4  0.3043429E-005  0.1637639E+03  0.7546771E-02  0.1186440E+00
          2   -1    0    0  502    0 -0.00000000000E+00  0.00000000000E+00  0.48214429787E+03  0.48214429787E+03  0.00000000000E+00 0. -1.
         21   -1    0    0  503  502  0.00000000000E+00 -0.00000000000E+00 -0.22400923873E+03  0.22400923873E+03  0.00000000000E+00 0. -1.
         24    2    1    2    0    0 -0.13345092266E+03 -0.21122797490E+02  0.38200595427E+03  0.41304476208E+03  0.80138037478E+02 0.  0.
         23    2    1    2    0    0  0.13685621278E+03 -0.20960592962E+02 -0.10188026543E+03  0.19539209958E+03  0.92895181056E+02 0.  0.
        -11    1    3    3    0    0 -0.99411942932E+02 -0.32768251703E+02  0.34850898976E+03  0.36388873116E+03  0.00000000000E+00 0.  1.
         12    1    3    3    0    0 -0.34038979733E+02  0.11645454214E+02  0.33496964510E+02  0.49156030927E+02  0.00000000000E+00 0. -1.
        -11    1    4    4    0    0  0.73464980378E+02 -0.16387862869E+02 -0.10789075934E+03  0.13155258014E+03  0.00000000000E+00 0. -1.
         11    1    4    4    0    0  0.63391232400E+02 -0.45727300931E+01  0.60104939110E+01  0.63839519443E+02  0.00000000000E+00 0.  1.
         21    1    1    2  503  501 -0.37470791222E+02 -0.38827050152E+01 -0.12697281972E+02  0.39753698728E+02  0.00000000000E+00 0. -1.
          1    1    1    2  501    0  0.34065501109E+02  0.45966095467E+02 -0.92933477269E+01  0.57962976203E+02  0.00000000000E+00 0. -1.
<scales pt_clust_5="13000.00000" pt_clust_6="13000.00000" pt_clust_7="13000.00000" pt_clust_8="13000.00000" pt_clust_9="37.67142" pt_clust_10="53.10005"></scales>
<clustering>
<clus scale="   37.671">  2  9  1 -1</clus>
<clus scale="   53.100">  2 10  1 -1</clus>
<clus scale="   80.138">  5  6 -1 -1</clus>
<clus scale="   92.895">  7  8 -1 -1</clus>
<clus scale="  156.880">  1  5  2 -1</clus>
<clus scale="   37.671">  2  5  1 -1</clus>
</clustering>
</event>
<event>
10    4  0.3043429E-005  0.8329506E+02  0.7546771E-02  0.1320897E+00
         21   -1    0    0  501  502  0.00000000000E+00  0.00000000000E+00  0.44878261595E+03  0.44878261595E+03  0.00000000000E+00 0. -1.
         -3   -1    0    0    0  501 -0.00000000000E+00 -0.00000000000E+00 -0.47664932199E+03  0.47664932199E+03  0.00000000000E+00 0.  1.
         23    2    1    2    0    0  0.16877480394E+02  0.21862598228E+02 -0.38921676273E+03  0.39805607152E+03  0.78715469485E+02 0.  0.
         24    2    1    2    0    0  0.46490088466E+02 -0.13656521634E+02 -0.41626189413E+02  0.10250304083E+03  0.80164236570E+02 0.  0.
        -11    1    4    4    0    0  0.46549588872E+02 -0.36213805683E+02 -0.46123424383E+01  0.59157228205E+02  0.00000000000E+00 0.  1.
         12    1    4    4    0    0 -0.59500405556E-01  0.22557284048E+02 -0.37013846975E+02  0.43345812621E+02  0.00000000000E+00 0. -1.
        -11    1    3    3    0    0 -0.20411744302E+02 -0.19046510988E+02 -0.11950339164E+03  0.12272110454E+03  0.00000000000E+00 0. -1.
         11    1    3    3    0    0  0.37289224696E+02  0.40909109216E+02 -0.26971337109E+03  0.27533496697E+03  0.00000000000E+00 0.  1.
         21    1    1    2  503  502 -0.11030053381E+02  0.37134984221E+02  0.28845092161E+03  0.29104055269E+03  0.00000000000E+00 0. -1.
         -4    1    1    2    0  503 -0.52337515479E+02 -0.45341060814E+02  0.11452532449E+03  0.13383227291E+03  0.00000000000E+00 0.  1.
<scales pt_clust_5="13000.00000" pt_clust_6="13000.00000" pt_clust_7="13000.00000" pt_clust_8="13000.00000" pt_clust_9="38.73847" pt_clust_10="63.10366"></scales>
<clustering>
<clus scale="   38.738">  1  9  2 -1</clus>
<clus scale="   63.104">  1 10  2 -1</clus>
<clus scale="   78.715">  7  8 -1 -1</clus>
<clus scale="   80.164">  5  6 -1 -1</clus>
<clus scale="   81.902">  2  7  1 -1</clus>
<clus scale="   38.738">  1  5  2 -1</clus>
</clustering>
</event>
<event>
10    4  0.3043429E-005  0.1055643E+03  0.7546771E-02  0.1273531E+00
         21   -1    0    0  501  502  0.00000000000E+00  0.00000000000E+00  0.60571031706E+02  0.60571031706E+02  0.00000000000E+00 0.  1.
          2   -1    0    0  503    0 -0.00000000000E+00 -0.00000000000E+00 -0.54392900589E+03  0.54392900589E+03  0.00000000000E+00 0. -1.
         23    2    1    2    0    0  0.47458787034E+02 -0.55437388201E+02 -0.17880944740E+03  0.21376670217E+03  0.91639205589E+02 0.  0.
         24    2    1    2    0    0 -0.25459964486E+02  0.13883911068E+02 -0.67221979136E+02  0.10942466919E+03  0.81326446932E+02 0.  0.
        -13    1    4    4    0    0 -0.51997637604E+02  0.16492425722E+02 -0.26245520866E+02  0.60535789316E+02  0.00000000000E+00 0.  1.
         14    1    4    4    0    0  0.26537673118E+02 -0.26085146543E+01 -0.40976458270E+02  0.48888879876E+02  0.00000000000E+00 0. -1.
        -11    1    3    3    0    0  0.13342577987E+02  0.17085913354E+02 -0.96412889276E+02  0.98820028542E+02  0.00000000000E+00 0. -1.
         11    1    3    3    0    0  0.34116209048E+02 -0.72523301555E+02 -0.82396558126E+02  0.11494667363E+03  0.00000000000E+00 0.  1.
         21    1    1    2  503  502 -0.36069712250E+02 -0.19095576203E+02 -0.53970158510E+01  0.41167863103E+02  0.00000000000E+00 0.  1.
          1    1    1    2  501    0  0.14070889702E+02  0.60649053336E+02 -0.23192953179E+03  0.24014080312E+03  0.00000000000E+00 0. -1.
<scales pt_clust_5="13000.00000" pt_clust_6="13000.00000" pt_clust_7="13000.00000" pt_clust_8="13000.00000" pt_clust_9="40.81256" pt_clust_10="59.76030"></scales>
<clustering>
<clus scale="   40.813">  1  9  2 -1</clus>
<clus scale="   59.760">  1 10  2 -1</clus>
<clus scale="   81.326">  5  6 -1 -1</clus>
<clus scale="   91.639">  7  8 -1 -1</clus>
<clus scale="   96.747">  1  5  2 -1</clus>
<clus scale="   40.813">  1  5  2 -1</clus>
</clustering>
</event>
<event>
10    4  0.3043429E-005  0.1705629E+03  0.7546771E-02  0.1201006E+00
          2   -1    0    0  502    0 -0.00000000000E+00  0.00000000000E+00  0.44402340253E+03  0.44402340253E+03  0.00000000000E+00 0. -1.
         21   -1    0    0  503  502  0.00000000000E+00 -0.00000000000E+00 -0.25201518204E+03  0.25201518204E+03  0.00000000000E+00 0.  1.
         24    2    1    2    0    0  0.43583465609E+02  0.60553018018E+01 -0.76334366237E+02  0.12028121400E+03  0.81880704802E+02 0.  0.
         23    2    1    2    0    0  0.31405449402E+02 -0.15204996751E+03 -0.50315363422E+02  0.18754814517E+03  0.92396840255E+02 0.  0.
        -13    1    3    3    0    0 -0.19505442244E+02  0.17298171663E+02 -0.36401817815E+02  0.44774784871E+02  0.00000000000E+00 0.  1.
         14    1    3    3    0    0  0.63088907853E+02 -0.11242869861E+02 -0.39932548423E+02  0.75506429132E+02  0.00000000000E+00 0. -1.
        -11    1    4    4    0    0  0.64062062278E+02 -0.11083659502E+03 -0.38050125663E+02  0.13355340012E+03  0.00000000000E+00 0.  1.
         11    1    4    4    0    0 -0.32656612876E+02 -0.41213372487E+02 -0.12265237758E+02  0.53994745055E+02  0.00000000000E+00 0. -1.
         21    1    1    2  503  501  0.28518058484E+02  0.32609351688E+02  0.11500646278E+02  0.44820914115E+02  0.00000000000E+00 0.  1.
          1    1    1    2  501    0 -0.10350697350E+03  0.11338531402E+03  0.30715730388E+03  0.34338831128E+03  0.00000000000E+00 0. -1.
<scales pt_clust_5="13000.00000" pt_clust_6="13000.00000" pt_clust_7="13000.00000" pt_clust_8="13000.00000" pt_clust_9="43.32031" pt_clust_10="143.36855"></scales>
<clustering>
<clus scale="   43.320">  2  9  1 -1</clus>
<clus scale="   81.881">  5  6 -1 -1</clus>
<clus scale="   92.397">  7  8 -1 -1</clus>
<clus scale="  100.853">  1  5  2 -1</clus>
<clus scale="  143.369">  2 10  1 -1</clus>
<clus scale="   43.320">  2  5  1 -1</clus>
</clustering>
</event>
<event>
10    4  0.3043429E-005  0.2144172E+03  0.7546771E-02  0.1168515E+00
         21   -1    0    0  501  502  0.00000000000E+00  0.00000000000E+00  0.25488452971E+03  0.25488452971E+03  0.00000000000E+00 0. -1.
          2   -1    0    0  503    0 -0.00000000000E+00 -0.00000000000E+00 -0.51687699286E+03  0.51687699286E+03  0.00000000000E+00 0. -1.
         24    2    1    2    0    0  0.27537233792E+02 -0.65057107503E+02 -0.19289079531E+03  0.22041176947E+03  0.79898452564E+02 0.  0.
         23    2    1    2    0    0 -0.22116259830E+03 -0.34608375290E+02 -0.14443859080E+03  0.28128566660E+03  0.90268960302E+02 0.  0.
        -11    1    3    3    0    0  0.98556785557E+01  0.17423333128E+02 -0.57582804229E+02  0.60962991068E+02  0.00000000000E+00 0.  1.
         12    1    3    3    0    0  0.17681555236E+02 -0.82480440631E+02 -0.13530799108E+03  0.15944877840E+03  0.00000000000E+00 0. -1.
        -11    1    4    4    0    0 -0.55411155094E+02  0.30518936750E+02 -0.39539495218E+02  0.74600089084E+02  0.00000000000E+00 0.  1.
         11    1    4    4    0    0 -0.16575144321E+03 -0.65127312040E+02 -0.10489909558E+03  0.20668557751E+03  0.00000000000E+00 0. -1.
         21    1    1    2  503  502  0.34058091282E+02  0.53058371761E+02  0.82310860951E+02  0.10368327843E+03  0.00000000000E+00 0. -1.
          1    1    1    2  501    0  0.15956727323E+03  0.46607111033E+02 -0.69739379921E+01  0.16638080807E+03  0.00000000000E+00 0. -1.
<scales pt_clust_5="13000.00000" pt_clust_6="13000.00000" pt_clust_7="13000.00000" pt_clust_8="13000.00000" pt_clust_9="63.04875" pt_clust_10="194.48969"></scales>
<clustering>
<clus scale="   63.049">  1  9  2 -1</clus>
<clus scale="   79.898">  5  6 -1 -1</clus>
<clus scale="   90.269">  7  8 -1 -1</clus>
<clus scale="  104.766">  2  5  1 -1</clus>
<clus scale="  194.490">  1 10  2 -1</clus>
<clus scale="   63.049">  1  5  2 -1</clus>
</clustering>
</event>
<event>
10    4  0.3043429E-005  0.1073422E+03  0.7546771E-02  0.1267738E+00
         21   -1    0    0  503  502  0.00000000000E+00  0.00000000000E+00  0.43827048941E+03  0.43827048941E+03  0.00000000000E+00 0. -1.
         -3   -1    0    0    0  501 -0.00000000000E+00 -0.00000000000E+00 -0.37899616408E+03  0.37899616408E+03  0.00000000000E+00 0.  1.
         23    2    1    2    0    0 -0.54625784525E+02 -0.17498591458E+02 -0.12519330933E+03  0.16475121249E+03  0.90440147492E+02 0.  0.
         24    2    1    2    0    0  0.61116076915E+02  0.23593021466E+02  0.31898657353E+03  0.33659027990E+03  0.85139749304E+02 0.  0.
        -11    1    4    4    0    0  0.29691170319E+02  0.35463106624E+02  0.61652162008E+02  0.77072606071E+02  0.00000000000E+00 0.  1.
         12    1    4    4    0    0  0.31424906596E+02 -0.11870085158E+02  0.25733441152E+03  0.25951767383E+03  0.00000000000E+00 0. -1.
        -11    1    3    3    0    0 -0.30726071776E+01 -0.46940719607E+02 -0.46184633773E+02  0.65923383324E+02  0.00000000000E+00 0. -1.
         11    1    3    3    0    0 -0.51553177348E+02  0.29442128150E+02 -0.79008675561E+02  0.98827829170E+02  0.00000000000E+00 0.  1.
         21    1    1    2  503  501 -0.40522257126E+02  0.32250252926E+02  0.80035647741E+02  0.95330147623E+02  0.00000000000E+00 0. -1.
         -4    1    1    2    0  502  0.34031964736E+02 -0.38344682934E+02 -0.21455458661E+03  0.22059501347E+03  0.00000000000E+00 0.  1.
<scales pt_clust_5="13000.00000" pt_clust_6="13000.00000" pt_clust_7="13000.00000" pt_clust_8="13000.00000" pt_clust_9="41.65247" pt_clust_10="51.26882"></scales>
<clustering>
<clus scale="   51.269">  1 10  2 -1</clus>
<clus scale="   41.652">  1  9  2 -1</clus>
<clus scale="   85.140">  5  6 -1 -1</clus>
<clus scale="   90.440">  7  8 -1 -1</clus>
<clus scale="  102.916">  1  5  2 -1</clus>
<clus scale="   51.269">  1  5  2 -1</clus>
</clustering>
</event>
<event>
10    4  0.3043429E-005  0.1900864E+03  0.7546771E-02  0.1159084E+00
          2   -1    0    0  503    0 -0.00000000000E+00  0.00000000000E+00  0.18232737445E+04  0.18232737445E+04  0.00000000000E+00 0. -1.
         21   -1    0    0  501  502  0.00000000000E+00 -0.00000000000E+00 -0.20357341186E+03  0.20357341186E+03  0.00000000000E+00 0. -1.
         24    2    1    2    0    0 -0.16613685547E+03  0.56477737683E+02  0.14121351623E+04  0.14254131278E+04  0.82979989985E+02 0.  0.
         23    2    1    2    0    0  0.13462675781E+03  0.35352470579E+02  0.12467155727E+03  0.20727837629E+03  0.89706003088E+02 0.  0.
        -11    1    3    3    0    0 -0.51983333747E+02  0.53328261838E+02  0.40167556886E+03  0.40852103143E+03  0.00000000000E+00 0.  1.
         12    1    3    3    0    0 -0.11415352172E+03  0.31494758448E+01  0.10104595934E+04  0.10168920964E+04  0.00000000000E+00 0. -1.
        -11    1    4    4    0    0  0.38316429492E+02 -0.43518708872E+01  0.89288119033E+02  0.97259733445E+02  0.00000000000E+00 0.  1.
         11    1    4    4    0    0  0.96310328316E+02  0.39704341466E+02  0.35383438241E+02  0.11001864284E+03  0.00000000000E+00 0. -1.
         21    1    1    2  503  502 -0.25093912606E+02  0.28942014944E+02 -0.13409108209E+03  0.13945523646E+03  0.00000000000E+00 0. -1.
          1    1    1    2  501    0  0.56604010269E+02 -0.12077222320E+03  0.21698469521E+03  0.25470041584E+03  0.00000000000E+00 0. -1.
<scales pt_clust_5="13000.00000" pt_clust_6="13000.00000" pt_clust_7="13000.00000" pt_clust_8="13000.00000" pt_clust_9="38.30594" pt_clust_10="123.00974"></scales>
<clustering>
<clus scale="   38.306">  2  9  1 -1</clus>
<clus scale="   82.980">  5  6 -1 -1</clus>
<clus scale="   89.706">  7  8 -1 -1</clus>
<clus scale="  123.010">  2 10  1 -1</clus>
<clus scale="  187.006">  1  5  2 -1</clus>
<clus scale="   38.306">  2  5  1 -1</clus>
</clustering>
</event>
<event>
10    4  0.3043429E-005  0.1165780E+03  0.7546771E-02  0.1255034E+00
          2   -1    0    0  503    0 -0.00000000000E+00  0.00000000000E+00  0.53427322487E+03  0.53427322487E+03  0.00000000000E+00 0. -1.
         21   -1    0    0  501  502  0.00000000000E+00 -0.00000000000E+00 -0.18788433617E+03  0.18788433617E+03  0.00000000000E+00 0. -1.
         23    2    1    2    0    0 -0.74159542624E+01 -0.61774687830E+02  0.37177882309E+03  0.38899271801E+03  0.96045473242E+02 0.  0.
         24    2    1    2    0    0  0.21176108930E+01  0.98531713281E+02 -0.15883409567E+02  0.12737254579E+03  0.79110681475E+02 0.  0.
        -13    1    4    4    0    0 -0.34824361521E+02  0.22846045238E+02  0.97742966069E-01  0.41649579734E+02  0.00000000000E+00 0.  1.
         14    1    4    4    0    0  0.36941972414E+02  0.75685668044E+02 -0.15981152533E+02  0.85722966055E+02  0.00000000000E+00 0. -1.
        -13    1    3    3    0    0 -0.18326997600E+02 -0.85839411198E+02  0.27470454011E+03  0.28838666355E+03  0.00000000000E+00 0. -1.
         13    1    3    3    0    0  0.10911043338E+02  0.24064723369E+02  0.97074282984E+02  0.10060605446E+03  0.00000000000E+00 0.  1.
         21    1    1    2  503  502 -0.14874659199E+02 -0.19751125373E+02 -0.10440568134E+03  0.10729356335E+03  0.00000000000E+00 0. -1.
          1    1    1    2  501    0  0.20173002568E+02 -0.17005900079E+02  0.94899156510E+02  0.98498733883E+02  0.00000000000E+00 0. -1.
<scales pt_clust_5="13000.00000" pt_clust_6="13000.00000" pt_clust_7="13000.00000" pt_clust_8="13000.00000" pt_clust_9="24.72574" pt_clust_10="26.42002"></scales>
<clustering>
<clus scale="   24.726">  2  9  1 -1</clus>
<clus scale="   26.420">  2 10  1 -1</clus>
<clus scale="   79.111">  5  6 -1 -1</clus>
<clus scale="   96.045">  7  8 -1 -1</clus>
<clus scale="  103.074">  2  5  1 -1</clus>
<clus scale="   24.726">  2  5  1 -1</clus>
</clustering>
</event>
<event>
10    4  0.3043429E-005  0.1250302E+03  0.7546771E-02  0.1238659E+00
         21   -1    0    0  501  502  0.00000000000E+00  0.00000000000E+00  0.93080840796E+02  0.93080840796E+02  0.00000000000E+00 0.  1.
          2   -1    0    0  503    0 -0.00000000000E+00 -0.00000000000E+00 -0.84179740908E+03  0.84179740908E+03  0.00000000000E+00 0. -1.
         24    2    1    2    0    0  0.84521978988E+02 -0.41901801762E+02 -0.63612300613E+03  0.64733945350E+03  0.74136112741E+02 0.  0.
         23    2    1    2    0    0 -0.60384130975E+02 -0.49140952428E+02  0.51828767197E+01  0.11722291165E+03  0.87482983057E+02 0.  0.
        -13    1    3    3    0    0  0.31540527277E+02 -0.22677837927E+01 -0.63822383777E+02  0.71226711108E+02  0.00000000000E+00 0.  1.
         14    1    3    3    0    0  0.52981451710E+02 -0.39634017970E+02 -0.57230062235E+03  0.57611274239E+03  0.00000000000E+00 0. -1.
        -13    1    4    4    0    0 -0.21437392770E+02  0.22629040071E+02 -0.12652954312E+02  0.33641232381E+02  0.00000000000E+00 0. -1.
         13    1    4    4    0    0 -0.38946738205E+02 -0.71769992499E+02  0.17835831032E+02  0.83581679265E+02  0.00000000000E+00 0.  1.
         21    1    1    2  503  502 -0.46659199719E+02  0.76152361713E+02 -0.11102089355E+03  0.14248474275E+03  0.00000000000E+00 0.  1.
          1    1    1    2  501    0  0.22521351706E+02  0.14890392478E+02 -0.67555453244E+01  0.27831141971E+02  0.00000000000E+00 0. -1.
<scales pt_clust_5="13000.00000" pt_clust_6="13000.00000" pt_clust_7="13000.00000" pt_clust_8="13000.00000" pt_clust_9="89.63494" pt_clust_10="26.99880"></scales>
<clustering>
<clus scale="   26.999">  1 10  2 -1</clus>
<clus scale="   74.136">  5  6 -1 -1</clus>
<clus scale="   87.483">  7  8 -1 -1</clus>
<clus scale="   89.635">  1  9  2 -1</clus>
<clus scale="  116.084">  2  5  1 -1</clus>
<clus scale="   26.999">  1  5  2 -1</clus>
</clustering>
</event>
<event>
10    4  0.3043429E-005  0.3607527E+03  0.7546771E-02  0.1087929E+00
          2   -1    0    0  503    0 -0.00000000000E+00  0.00000000000E+00  0.22692536108E+04  0.22692536108E+04  0.00000000000E+00 0. -1.
         21   -1    0    0  501  502  0.00000000000E+00 -0.00000000000E+00 -0.34968935229E+03  0.34968935229E+03  0.00000000000E+00 0. -1.
         24    2    1    2    0    0  0.56135339226E+02 -0.12695210318E+03  0.86860626623E+03  0.88333133855E+03  0.80804672638E+02 0.  0.
         23    2    1    2    0    0 -0.40404979113E+03  0.41421245426E+02  0.64883273211E+03  0.77148059633E+03  0.96054375032E+02 0.  0.
        -11    1    3    3    0    0 -0.30524894396E+01 -0.91643182855E+02  0.49367286111E+03  0.50211620612E+03  0.00000000000E+00 0.  1.
         12    1    3    3    0    0  0.59187828666E+02 -0.35308920329E+02  0.37493340512E+03  0.38121513243E+03  0.00000000000E+00 0. -1.
        -13    1    4    4    0    0 -0.72027757493E+02 -0.16717989842E+02  0.17505185647E+03  0.19002800185E+03  0.00000000000E+00 0.  1.
         13    1    4    4    0    0 -0.33202203364E+03  0.58139235268E+02  0.47378087565E+03  0.58145259448E+03  0.00000000000E+00 0. -1.
         21    1    1    2  503  502  0.21452035415E+03 -0.64298128458E+02 -0.21789819009E+03  0.31246256242E+03  0.00000000000E+00 0. -1.
          1    1    1    2  501    0  0.13339409776E+03  0.14982898622E+03  0.62002345028E+03  0.65166846581E+03  0.00000000000E+00 0. -1.
<scales pt_clust_5="13000.00000" pt_clust_6="13000.00000" pt_clust_7="13000.00000" pt_clust_8="13000.00000" pt_clust_9="347.72986" pt_clust_10="183.65505"></scales>
<clustering>
<clus scale="   80.805">  5  6 -1 -1</clus>
<clus scale="   96.054">  7  8 -1 -1</clus>
<clus scale="  160.616">  1  5  2 -1</clus>
<clus scale="  183.655">  2 10  1 -1</clus>
<clus scale="  347.730">  2  9  1 -1</clus>
<clus scale="  183.655">  2  5  1 -1</clus>
</clustering>
</event>
<event>
10    4  0.3043429E-005  0.2530230E+03  0.7546771E-02  0.1112175E+00
         21   -1    0    0  501  502  0.00000000000E+00  0.00000000000E+00  0.26152524139E+03  0.26152524139E+03  0.00000000000E+00 0. -1.
          4   -1    0    0  503    0 -0.00000000000E+00 -0.00000000000E+00 -0.61089760812E+03  0.61089760812E+03  0.00000000000E+00 0. -1.
         23    2    1    2    0    0  0.12353824613E+03  0.18512899231E+03 -0.25170720697E+03  0.34903030184E+03  0.94504981431E+02 0.  0.
         24    2    1    2    0    0 -0.24634125134E+03 -0.15925720878E+03  0.24210492133E+02  0.30515983155E+03  0.80557459000E+02 0.  0.
        -13    1    4    4    0    0 -0.53724444280E+02 -0.68552269837E+02 -0.15827860045E+02  0.88522600316E+02  0.00000000000E+00 0.  1.
         14    1    4    4    0    0 -0.19261680706E+03 -0.90704938940E+02  0.40038352178E+02  0.21663723123E+03  0.00000000000E+00 0. -1.
        -13    1    3    3    0    0  0.54652670440E+02  0.15671428706E+03 -0.18999138781E+03  0.25227566192E+03  0.00000000000E+00 0. -1.
         13    1    3    3    0    0  0.68885575689E+02  0.28414705249E+02 -0.61715819157E+02  0.96754639922E+02  0.00000000000E+00 0.  1.
         21    1    1    2  503  502  0.64308579399E+01  0.26737219334E+02  0.14755204499E+02  0.31208186287E+02  0.00000000000E+00 0. -1.
          3    1    1    2  501    0  0.11637214727E+03 -0.52609002868E+02 -0.13663085640E+03  0.18702452984E+03  0.00000000000E+00 0. -1.
<scales pt_clust_5="13000.00000" pt_clust_6="13000.00000" pt_clust_7="13000.00000" pt_clust_8="13000.00000" pt_clust_9="27.49972" pt_clust_10="127.19898"></scales>
<clustering>
<clus scale="   27.500">  1  9  2 -1</clus>
<clus scale="   80.557">  5  6 -1 -1</clus>
<clus scale="   94.505">  7  8 -1 -1</clus>
<clus scale="  127.199">  1 10  2 -1</clus>
<clus scale="  248.151">  1  5  2 -1</clus>
<clus scale="   27.500">  1  5  2 -1</clus>
</clustering>
</event>
<event>
10    4  0.3043429E-005  0.3658143E+03  0.7546771E-02  0.1085739E+00
          2   -1    0    0  503    0 -0.00000000000E+00  0.00000000000E+00  0.12331848215E+04  0.12331848215E+04  0.00000000000E+00 0. -1.
         21   -1    0    0  501  502  0.00000000000E+00 -0.00000000000E+00 -0.45633661382E+03  0.45633661382E+03  0.00000000000E+00 0. -1.
         24    2    1    2    0    0 -0.15414168532E+02 -0.13967813581E+03  0.66899824348E+03  0.68884166244E+03  0.84832823354E+02 0.  0.
         23    2    1    2    0    0 -0.22231011567E+03 -0.16474674965E+03  0.38751950541E+03  0.48475739775E+03  0.90857517862E+02 0.  0.
        -11    1    3    3    0    0 -0.26787226755E+02 -0.54367091872E+01  0.77003013070E+02  0.81710325822E+02  0.00000000000E+00 0.  1.
         12    1    3    3    0    0  0.11373058223E+02 -0.13424142662E+03  0.59199523041E+03  0.60713133662E+03  0.00000000000E+00 0. -1.
        -13    1    4    4    0    0 -0.88150903792E+02 -0.13885837882E+02  0.12506087561E+03  0.15363469967E+03  0.00000000000E+00 0. -1.
         13    1    4    4    0    0 -0.13415921187E+03 -0.15086091177E+03  0.26245862980E+03  0.33112269808E+03  0.00000000000E+00 0.  1.
         21    1    1    2  503  502 -0.18697556645E+01  0.35172586900E+02 -0.11387601121E+03  0.11919879523E+03  0.00000000000E+00 0. -1.
          1    1    1    2  501    0  0.23959403986E+03  0.26925229856E+03 -0.16579353004E+03  0.39672357987E+03  0.00000000000E+00 0. -1.
<scales pt_clust_5="13000.00000" pt_clust_6="13000.00000" pt_clust_7="13000.00000" pt_clust_8="13000.00000" pt_clust_9="35.22225" pt_clust_10="354.35158"></scales>
<clustering>
<clus scale="   35.222">  2  9  1 -1</clus>
<clus scale="   84.833">  5  6 -1 -1</clus>
<clus scale="   90.858">  7  8 -1 -1</clus>
<clus scale="  163.279">  1  5  2 -1</clus>
<clus scale="  354.352">  2 10  1 -1</clus>
<clus scale="   35.222">  2  5  1 -1</clus>
</clustering>
</event>
<event>
10    4  0.3043429E-005  0.1024790E+03  0.7546771E-02  0.1281905E+00
         -1   -1    0    0    0  501 -0.00000000000E+00  0.00000000000E+00  0.20631070394E+03  0.20631070394E+03  0.00000000000E+00 0.  1.
         21   -1    0    0  503  502  0.00000000000E+00 -0.00000000000E+00 -0.36448303006E+03  0.36448303006E+03  0.00000000000E+00 0.  1.
         24    2    1    2    0    0  0.31487823006E+02  0.29856106488E+02  0.13160178093E+03  0.16027975095E+03  0.80546258316E+02 0.  0.
         23    2    1    2    0    0  0.98583154578E+01 -0.46562871048E+02 -0.29160175435E+01  0.10555458469E+03  0.94169951931E+02 0.  0.
        -13    1    3    3    0    0  0.31280091621E+02  0.23306949860E+02  0.14240150020E+03  0.14764770673E+03  0.00000000000E+00 0.  1.
         14    1    3    3    0    0  0.20773138452E+00  0.65491566275E+01 -0.10799719270E+02  0.12632044220E+02  0.00000000000E+00 0. -1.
        -11    1    4    4    0    0  0.27937740191E+02  0.20231608862E+02  0.82361878600E+01  0.35463644971E+02  0.00000000000E+00 0.  1.
         11    1    4    4    0    0 -0.18079424734E+02 -0.66794479911E+02 -0.11152205404E+02  0.70090939719E+02  0.00000000000E+00 0. -1.
         21    1    1    2  503  501  0.12303406191E+02  0.26002379083E+02 -0.20264902870E+03  0.20468054708E+03  0.00000000000E+00 0.  1.
         -2    1    1    2    0  502 -0.53649544654E+02 -0.92956145226E+01 -0.84209060804E+02  0.10027885127E+03  0.00000000000E+00 0.  1.
<scales pt_clust_5="13000.00000" pt_clust_6="13000.00000" pt_clust_7="13000.00000" pt_clust_8="13000.00000" pt_clust_9="28.76626" pt_clust_10="46.93003"></scales>
<clustering>
<clus scale="   28.766">  2  9  1 -1</clus>
<clus scale="   46.930">  2 10  1 -1</clus>
<clus scale="   80.546">  5  6 -1 -1</clus>
<clus scale="   90.120">  1  5  2 -1</clus>
<clus scale="   94.170">  7  8 -1 -1</clus>
<clus scale="   28.766">  2  5  1 -1</clus>
</clustering>
</event>
<event>
10    4  0.3043429E-005  0.9265916E+02  0.7546771E-02  0.1303594E+00
         21   -1    0    0  501  502  0.00000000000E+00  0.00000000000E+00  0.22478414884E+03  0.22478414884E+03  0.00000000000E+00 0.  1.
          2   -1    0    0  503    0 -0.00000000000E+00 -0.00000000000E+00 -0.82864828069E+02  0.82864828069E+02  0.00000000000E+00 0. -1.
         23    2    1    2    0    0  0.16208122723E+01 -0.84456490457E+01  0.89952153690E+01  0.92637598081E+02  0.91797901166E+02 0.  0.
         24    2    1    2    0    0  0.36353191111E+02  0.79108420574E+01  0.10681022207E+03  0.13875347620E+03  0.80373924216E+02 0.  0.
        -11    1    4    4    0    0  0.54408486859E+02  0.13022772145E+02  0.10613403734E+03  0.11997628899E+03  0.00000000000E+00 0.  1.
         12    1    4    4    0    0 -0.18055295748E+02 -0.51119300875E+01  0.67618472116E+00  0.18777187211E+02  0.00000000000E+00 0. -1.
        -13    1    3    3    0    0 -0.28439251691E+01 -0.50161534978E+02  0.53107912722E+01  0.50521995266E+02  0.00000000000E+00 0.  1.
         13    1    3    3    0    0  0.44647374414E+01  0.41715885932E+02  0.36844240968E+01  0.42115602815E+02  0.00000000000E+00 0. -1.
         21    1    1    2  503  502 -0.73484452078E+01 -0.19249776176E+02  0.33239541244E+02  0.39107807812E+02  0.00000000000E+00 0.  1.
          1    1    1    2  501    0 -0.30625558175E+02  0.19784583164E+02 -0.71256579039E+01  0.37150094819E+02  0.00000000000E+00 0. -1.
<scales pt_clust_5="13000.00000" pt_clust_6="13000.00000" pt_clust_7="13000.00000" pt_clust_8="13000.00000" pt_clust_9="20.60470" pt_clust_10="36.15583"></scales>
<clustering>
<clus scale="   20.605">  1  9  2 -1</clus>
<clus scale="   36.156">  1 10  2 -1</clus>
<clus scale="   80.374">  5  6 -1 -1</clus>
<clus scale="   81.356">  1  5  2 -1</clus>
<clus scale="   91.798">  7  8 -1 -1</clus>
<clus scale="   20.605">  1  5  2 -1</clus>
</clustering>
</event>
<event>
10    4  0.3043429E-005  0.1370867E+03  0.7546771E-02  0.1250236E+00
         21   -1    0    0  503  502  0.00000000000E+00  0.00000000000E+00  0.10437365533E+04  0.10437365533E+04  0.00000000000E+00 0. -1.
         -3   -1    0    0    0  501 -0.00000000000E+00 -0.00000000000E+00 -0.80468685759E+02  0.80468685759E+02  0.00000000000E+00 0.  1.
         23    2    1    2    0    0  0.54642925187E+02  0.85135401382E+02  0.15917753233E+03  0.20930003280E+03  0.90747623055E+02 0.  0.
         24    2    1    2    0    0 -0.17594462021E+02 -0.90472201939E+01  0.19524373397E+03  0.20747194776E+03  0.67328123149E+02 0.  0.
        -11    1    4    4    0    0  0.11461807144E+02 -0.31270508113E+02  0.83685808044E+02  0.90069596250E+02  0.00000000000E+00 0.  1.
         12    1    4    4    0    0 -0.29056269165E+02  0.22223287919E+02  0.11155792593E+03  0.11740235151E+03  0.00000000000E+00 0. -1.
        -11    1    3    3    0    0  0.49964335979E+02  0.27140368843E+01  0.83294735139E+02  0.97168995918E+02  0.00000000000E+00 0. -1.
         11    1    3    3    0    0  0.46785892086E+01  0.82421364497E+02  0.75882797190E+02  0.11213103688E+03  0.00000000000E+00 0.  1.
         21    1    1    2  503  501 -0.35821852174E+02 -0.10489844506E+03  0.64877752291E+03  0.65817867111E+03  0.00000000000E+00 0. -1.
         -4    1    1    2    0  502 -0.12266109921E+01  0.28810263877E+02 -0.39930921636E+02  0.49254587419E+02  0.00000000000E+00 0.  1.
<scales pt_clust_5="13000.00000" pt_clust_6="13000.00000" pt_clust_7="13000.00000" pt_clust_8="13000.00000" pt_clust_9="102.75029" pt_clust_10="28.83638"></scales>
<clustering>
<clus scale="   28.836">  1 10  2 -1</clus>
<clus scale="   67.328">  5  6 -1 -1</clus>
<clus scale="   69.736">  1  5  2 -1</clus>
<clus scale="   90.748">  7  8 -1 -1</clus>
<clus scale="  102.750">  1  9  2 -1</clus>
<clus scale="   28.836">  1  5  2 -1</clus>
</clustering>
</event>
<event>
10    4  0.3043429E-005  0.1055693E+03  0.7546771E-02  0.1274165E+00
          2   -1    0    0  503    0 -0.00000000000E+00  0.00000000000E+00  0.45391897812E+03  0.45391897812E+03  0.00000000000E+00 0. -1.
         21   -1    0    0  501  502  0.00000000000E+00 -0.00000000000E+00 -0.55552604068E+02  0.55552604068E+02  0.00000000000E+00 0.  1.
         23    2    1    2    0    0  0.54411985116E+02 -0.22062706446E+00  0.15777998169E+03  0.19127544287E+03  0.93440139242E+02 0.  0.
         24    2    1    2    0    0 -0.16282287412E+02  0.70288510633E+02  0.13240563169E+03  0.17162479729E+03  0.81964822530E+02 0.  0.
        -11    1    4    4    0    0 -0.28656697694E+02  0.12109074330E+02  0.56663624718E+01  0.31621885894E+02  0.00000000000E+00 0.  1.
         12    1    4    4    0    0  0.12374410281E+02  0.58179436302E+02  0.12673926922E+03  0.14000291140E+03  0.00000000000E+00 0. -1.
        -13    1    3    3    0    0 -0.16230377844E+02 -0.21496023661E+02  0.78432897507E+02  0.82929027545E+02  0.00000000000E+00 0. -1.
         13    1    3    3    0    0  0.70642362961E+02  0.21275396597E+02  0.79347084187E+02  0.10834641533E+03  0.00000000000E+00 0.  1.
         21    1    1    2  503  502 -0.22952812566E+02  0.11877756712E+00  0.10258577860E+02  0.25141283430E+02  0.00000000000E+00 0.  1.
          1    1    1    2  501    0 -0.15176885138E+02 -0.70186661135E+02  0.97922182806E+02  0.12143005859E+03  0.00000000000E+00 0. -1.
<scales pt_clust_5="13000.00000" pt_clust_6="13000.00000" pt_clust_7="13000.00000" pt_clust_8="13000.00000" pt_clust_9="22.95312" pt_clust_10="73.17167"></scales>
<clustering>
<clus scale="   22.953">  2  9  1 -1</clus>
<clus scale="   73.172">  2 10  1 -1</clus>
<clus scale="   81.965">  5  6 -1 -1</clus>
<clus scale="   93.440">  7  8 -1 -1</clus>
<clus scale="   95.562">  2  5  1 -1</clus>
<clus scale="   22.953">  2  5  1 -1</clus>
</clustering>
</event>
<event>
10    4  0.3043429E-005  0.9634123E+02  0.7546771E-02  0.1293859E+00
         -3   -1    0    0    0  501 -0.00000000000E+00  0.00000000000E+00  0.19979571282E+03  0.19979571282E+03  0.00000000000E+00 0.  1.
         21   -1    0    0  503  502  0.00000000000E+00 -0.00000000000E+00 -0.18622623048E+03  0.18622623048E+03  0.00000000000E+00 0. -1.
         23    2    1    2    0    0 -0.19545746811E+02  0.33488863870E+02  0.11801865623E+03  0.15367160574E+03  0.90460040740E+02 0.  0.
         24    2    1    2    0    0  0.56530225194E+02  0.36883319184E+02 -0.28815253509E+02  0.10860203089E+03  0.80050213511E+02 0.  0.
        -11    1    4    4    0    0  0.25990329446E+02 -0.11093078867E+02  0.19206141991E+02  0.34167667665E+02  0.00000000000E+00 0.  1.
         12    1    4    4    0    0  0.30539895748E+02  0.47976398051E+02 -0.48021395501E+02  0.74434363221E+02  0.00000000000E+00 0. -1.
        -11    1    3    3    0    0 -0.44155706618E+02  0.23227613421E+02  0.11676616605E+03  0.12697868319E+03  0.00000000000E+00 0. -1.
         11    1    3    3    0    0  0.24609959807E+02  0.10261250449E+02  0.12524901837E+01  0.26692922547E+02  0.00000000000E+00 0.  1.
         21    1    1    2  503  501 -0.50094583470E+02 -0.53172838299E+02 -0.70494284744E+02  0.10151976264E+03  0.00000000000E+00 0.  1.
         -4    1    1    2    0  502  0.13110105087E+02 -0.17199344755E+02 -0.51396356401E+01  0.22228544035E+02  0.00000000000E+00 0.  1.
<scales pt_clust_5="13000.00000" pt_clust_6="13000.00000" pt_clust_7="13000.00000" pt_clust_8="13000.00000" pt_clust_9="75.56474" pt_clust_10="21.62620"></scales>
<clustering>
<clus scale="   21.626">  2 10  1 -1</clus>
<clus scale="   75.565">  2  9  1 -1</clus>
<clus scale="   80.050">  5  6 -1 -1</clus>
<clus scale="   86.641">  2  5  1 -1</clus>
<clus scale="   90.460">  7  8 -1 -1</clus>
<clus scale="   21.626">  2  5  1 -1</clus>
</clustering>
</event>
<event>
10    4  0.3043429E-005  0.1516142E+03  0.7546771E-02  0.1221494E+00
         -3   -1    0    0    0  501 -0.00000000000E+00  0.00000000000E+00  0.28831480971E+03  0.28831480971E+03  0.00000000000E+00 0.  1.
         21   -1    0    0  503  502  0.00000000000E+00 -0.00000000000E+00 -0.84110387265E+03  0.84110387265E+03  0.00000000000E+00 0.  1.
         24    2    1    2    0    0  0.26408432416E+02 -0.41618155904E+02  0.21997984275E+03  0.23874998407E+03  0.78619002008E+02 0.  0.
         23    2    1    2    0    0 -0.36232118374E+02 -0.46009937944E+02 -0.15048790619E+03  0.18519544285E+03  0.90670068664E+02 0.  0.
        -13    1    3    3    0    0  0.12502496031E+02 -0.63131371693E+02  0.12798383414E+03  0.14325412490E+03  0.00000000000E+00 0.  1.
         14    1    3    3    0    0  0.13905936385E+02  0.21513215789E+02  0.91996008607E+02  0.95495859177E+02  0.00000000000E+00 0. -1.
        -11    1    4    4    0    0 -0.52444573979E+01  0.25920713161E+02 -0.59682581326E+02  0.65279385857E+02  0.00000000000E+00 0.  1.
         11    1    4    4    0    0 -0.30987660976E+02 -0.71930651105E+02 -0.90805324864E+02  0.11991605699E+03  0.00000000000E+00 0. -1.
         21    1    1    2  503  501  0.96411001466E+02  0.18005879061E+03 -0.35139632059E+03  0.40644264467E+03  0.00000000000E+00 0.  1.
         -4    1    1    2    0  502 -0.86587315509E+02 -0.92430696761E+02 -0.27088467890E+03  0.29903061077E+03  0.00000000000E+00 0.  1.
<scales pt_clust_5="13000.00000" pt_clust_6="13000.00000" pt_clust_7="13000.00000" pt_clust_8="13000.00000" pt_clust_9="151.61417" pt_clust_10="13000.00000"></scales>
<clustering>
<clus scale="   78.619">  5  6 -1 -1</clus>
<clus scale="   90.670">  7  8 -1 -1</clus>
<clus scale="   92.792">  1  5  2 -1</clus>
<clus scale="  111.469">  1  7  2 -1</clus>
<clus scale="  151.614">  1  9  2 -1</clus>
<clus scale="  151.614">  2  5  1 -1</clus>
</clustering>
</event>
<event>
10    4  0.3043429E-005  0.1938730E+03  0.7546771E-02  0.1156296E+00
         -1   -1    0    0    0  501 -0.00000000000E+00  0.00000000000E+00  0.64369491410E+03  0.64369491410E+03  0.00000000000E+00 0.  1.
         21   -1    0    0  501  502  0.00000000000E+00 -0.00000000000E+00 -0.18191059821E+03  0.18191059821E+03  0.00000000000E+00 0.  1.
         23    2    1    2    0    0 -0.14945151493E+03 -0.15047252115E+03  0.21899727112E+03  0.31883994887E+03  0.93388293173E+02 0.  0.
         24    2    1    2    0    0  0.49062305732E+02  0.90138469238E+02 -0.32247432776E+02  0.13453151568E+03  0.80788478814E+02 0.  0.
        -11    1    4    4    0    0  0.56075089890E+02  0.79762248228E+02 -0.52486799596E+02  0.11073073684E+03  0.00000000000E+00 0.  1.
         12    1    4    4    0    0 -0.70127841577E+01  0.10376221010E+02  0.20239366820E+02  0.23800778839E+02  0.00000000000E+00 0. -1.
        -13    1    3    3    0    0 -0.59800736632E+02 -0.11690360947E+03  0.94438078783E+02  0.16174403461E+03  0.00000000000E+00 0.  1.
         13    1    3    3    0    0 -0.89650778299E+02 -0.33568911678E+02  0.12455919233E+03  0.15709591426E+03  0.00000000000E+00 0. -1.
         21    1    1    2  503  502 -0.20299843150E+02  0.97020023311E+01 -0.31625805438E+02  0.38812421346E+02  0.00000000000E+00 0.  1.
         -2    1    1    2    0  503  0.12068905235E+03  0.50632049577E+02  0.30666028299E+03  0.33342162642E+03  0.00000000000E+00 0.  1.
<scales pt_clust_5="13000.00000" pt_clust_6="13000.00000" pt_clust_7="13000.00000" pt_clust_8="13000.00000" pt_clust_9="22.49917" pt_clust_10="129.52352"></scales>
<clustering>
<clus scale="   22.499">  2  9  1 -1</clus>
<clus scale="   80.788">  5  6 -1 -1</clus>
<clus scale="   93.388">  7  8 -1 -1</clus>
<clus scale="  129.524">  2 10  1 -1</clus>
<clus scale="  188.128">  2  5  1 -1</clus>
<clus scale="   22.499">  2  5  1 -1</clus>
</clustering>
</event>
<event>
10    4  0.3043429E-005  0.1601686E+03  0.7546771E-02  0.1190592E+00
         21   -1    0    0  501  502  0.00000000000E+00  0.00000000000E+00  0.20877486953E+03  0.20877486953E+03  0.00000000000E+00 0.  1.
          2   -1    0    0  503    0 -0.00000000000E+00 -0.00000000000E+00 -0.41233086020E+03  0.41233086020E+03  0.00000000000E+00 0. -1.
         24    2    1    2    0    0 -0.76438576427E+02 -0.12755832265E+03 -0.19865325320E+03  0.26012972961E+03  0.78040884028E+02 0.  0.
         23    2    1    2    0    0  0.50332138914E+01  0.11693154807E+03 -0.87938501722E+02  0.17257610861E+03  0.91383877143E+02 0.  0.
        -13    1    3    3    0    0 -0.62006955109E+02 -0.13719041470E+03 -0.17639902466E+03  0.23191094900E+03  0.00000000000E+00 0.  1.
         14    1    3    3    0    0 -0.14431621318E+02  0.96320920526E+01 -0.22254228539E+02  0.28218780609E+02  0.00000000000E+00 0. -1.
        -11    1    4    4    0    0 -0.36325895791E+01  0.93037453390E+02 -0.13704643763E+02  0.94111533305E+02  0.00000000000E+00 0.  1.
         11    1    4    4    0    0  0.86658034705E+01  0.23894094681E+02 -0.74233857959E+02  0.78464575306E+02  0.00000000000E+00 0. -1.
         21    1    1    2  503  502  0.92266763587E+02  0.21800857323E+02  0.11473737864E+03  0.14883917193E+03  0.00000000000E+00 0.  1.
          1    1    1    2  501    0 -0.20861401052E+02 -0.11174082743E+02 -0.31701614386E+02  0.39560719580E+02  0.00000000000E+00 0. -1.
<scales pt_clust_5="13000.00000" pt_clust_6="13000.00000" pt_clust_7="13000.00000" pt_clust_8="13000.00000" pt_clust_9="80.18802" pt_clust_10="23.66556"></scales>
<clustering>
<clus scale="   23.666">  1 10  2 -1</clus>
<clus scale="   78.041">  5  6 -1 -1</clus>
<clus scale="   80.188">  1  9  2 -1</clus>
<clus scale="   91.384">  7  8 -1 -1</clus>
<clus scale="  152.949">  2  5  1 -1</clus>
<clus scale="   23.666">  1  5  2 -1</clus>
</clustering>
</event>
<event>
10    4  0.3043429E-005  0.9454871E+02  0.7546771E-02  0.1298606E+00
         21   -1    0    0  501  502  0.00000000000E+00  0.00000000000E+00  0.11821491029E+03  0.11821491029E+03  0.00000000000E+00 0.  1.
          2   -1    0    0  503    0 -0.00000000000E+00 -0.00000000000E+00 -0.18355046161E+03  0.18355046161E+03  0.00000000000E+00 0. -1.
         24    2    1    2    0    0 -0.26548589516E+02  0.10324586846E+02 -0.97083970718E+02  0.12959413207E+03  0.80980966881E+02 0.  0.
         23    2    1    2    0    0  0.51676878124E+01  0.14287413515E+02  0.13548429363E+02  0.94161226647E+02  0.91934441224E+02 0.  0.
        -11    1    3    3    0    0 -0.49055166396E+02  0.28136071390E+02 -0.71365566233E+02  0.91055433156E+02  0.00000000000E+00 0.  1.
         12    1    3    3    0    0  0.22506576880E+02 -0.17811484544E+02 -0.25718404485E+02  0.38538698911E+02  0.00000000000E+00 0. -1.
        -13    1    4    4    0    0  0.41503721480E+02 -0.15947788108E+02 -0.16933398906E+01  0.44494474289E+02  0.00000000000E+00 0. -1.
         13    1    4    4    0    0 -0.36336033667E+02  0.30235201623E+02  0.15241769254E+02  0.49666752359E+02  0.00000000000E+00 0.  1.
         21    1    1    2  503  502 -0.12215458107E+02 -0.17749007675E+02  0.34002005627E+02  0.40253957282E+02  0.00000000000E+00 0. -1.
          1    1    1    2  501    0  0.33596359810E+02 -0.68629926859E+01 -0.15802015591E+02  0.37756055910E+02  0.00000000000E+00 0. -1.
<scales pt_clust_5="13000.00000" pt_clust_6="13000.00000" pt_clust_7="13000.00000" pt_clust_8="13000.00000" pt_clust_9="21.54634" pt_clust_10="33.25946"></scales>
<clustering>
<clus scale="   21.546">  1  9  2 -1</clus>
<clus scale="   33.259">  1 10  2 -1</clus>
<clus scale="   80.981">  5  6 -1 -1</clus>
<clus scale="   83.937">  2  5  1 -1</clus>
<clus scale="   91.934">  7  8 -1 -1</clus>
<clus scale="   21.546">  1  5  2 -1</clus>
</clustering>
</event>
<event>
10    4  0.3043429E-005  0.1310610E+03  0.7546771E-02  0.1228594E+00
         21   -1    0    0  501  502  0.00000000000E+00  0.00000000000E+00  0.92152749181E+02  0.92152749181E+02  0.00000000000E+00 0. -1.
          2   -1    0    0  503    0 -0.00000000000E+00 -0.00000000000E+00 -0.68474530378E+03  0.68474530378E+03  0.00000000000E+00 0. -1.
         23    2    1    2    0    0  0.93652106623E+02  0.43953733036E+02 -0.16638354733E+03  0.21584696932E+03  0.90574729466E+02 0.  0.
         24    2    1    2    0    0 -0.95626339181E+02  0.35685906666E+02 -0.14642765959E+03  0.19555005257E+03  0.79880428681E+02 0.  0.
        -11    1    4    4    0    0 -0.36708791154E+02  0.81824855498E+01 -0.25898399961E+01  0.37698749170E+02  0.00000000000E+00 0.  1.
         12    1    4    4    0    0 -0.58917548027E+02  0.27503421116E+02 -0.14383781960E+03  0.15785130340E+03  0.00000000000E+00 0. -1.
        -13    1    3    3    0    0  0.87554709551E+01  0.35774254129E+02 -0.10356828748E+03  0.10992199826E+03  0.00000000000E+00 0.  1.
         13    1    3    3    0    0  0.84896635668E+02  0.81794789070E+01 -0.62815259851E+02  0.10592497105E+03  0.00000000000E+00 0. -1.
         21    1    1    2  503  502 -0.28916179307E+02  0.10804278020E+02  0.28946819268E+02  0.42317799978E+02  0.00000000000E+00 0. -1.
          1    1    1    2  501    0  0.30890411866E+02 -0.90443917721E+02 -0.30872816694E+03  0.32318323109E+03  0.00000000000E+00 0. -1.
<scales pt_clust_5="13000.00000" pt_clust_6="13000.00000" pt_clust_7="13000.00000" pt_clust_8="13000.00000" pt_clust_9="30.86872" pt_clust_10="93.12117"></scales>
<clustering>
<clus scale="   30.869">  1  9  2 -1</clus>
<clus scale="   79.880">  5  6 -1 -1</clus>
<clus scale="   90.575">  7  8 -1 -1</clus>
<clus scale="   93.121">  1 10  2 -1</clus>
<clus scale="  123.912">  1  5  2 -1</clus>
<clus scale="   30.869">  1  5  2 -1</clus>
</clustering>
</event>
<event>
10    4  0.3043429E-005  0.1328390E+03  0.7546771E-02  0.1227430E+00
         -3   -1    0    0    0  501 -0.00000000000E+00  0.00000000000E+00  0.45123173401E+03  0.45123173401E+03  0.00000000000E+00 0.  1.
         21   -1    0    0  503  502  0.00000000000E+00 -0.00000000000E+00 -0.10635106771E+03  0.10635106771E+03  0.00000000000E+00 0. -1.
         24    2    1    2    0    0  0.73819737999E+02  0.42523721802E+02  0.20816810412E+03  0.23958285598E+03  0.82512815197E+02 0.  0.
         23    2    1    2    0    0 -0.84919183712E+02 -0.60735017756E+02  0.54289629518E+02  0.15310313965E+03  0.97944868947E+02 0.  0.
        -13    1    3    3    0    0  0.78815815061E+02  0.59429250351E+02  0.15689534148E+03  0.18536428102E+03  0.00000000000E+00 0.  1.
         14    1    3    3    0    0 -0.49960770620E+01 -0.16905528549E+02  0.51272762636E+02  0.54218574953E+02  0.00000000000E+00 0. -1.
        -13    1    4    4    0    0 -0.18897442569E+01 -0.58160436279E+02  0.34712275954E+02  0.67758022281E+02  0.00000000000E+00 0.  1.
         13    1    4    4    0    0 -0.83029439455E+02 -0.25745814775E+01  0.19577353564E+02  0.85345117368E+02  0.00000000000E+00 0. -1.
         21    1    1    2  503  501 -0.42839060308E+00  0.38761926317E+02 -0.30635797444E+02  0.49408729344E+02  0.00000000000E+00 0. -1.
         -4    1    1    2    0  502  0.11527836316E+02 -0.20550630363E+02  0.11305873010E+03  0.11548807675E+03  0.00000000000E+00 0.  1.
<scales pt_clust_5="13000.00000" pt_clust_6="13000.00000" pt_clust_7="13000.00000" pt_clust_8="13000.00000" pt_clust_9="31.19131" pt_clust_10="23.56311"></scales>
<clustering>
<clus scale="   23.563">  2 10  1 -1</clus>
<clus scale="   31.191">  2  9  1 -1</clus>
<clus scale="   82.513">  5  6 -1 -1</clus>
<clus scale="   97.945">  7  8 -1 -1</clus>
<clus scale="  121.907">  1  5  2 -1</clus>
<clus scale="   23.563">  2  5  1 -1</clus>
</clustering>
</event>
<event>
10    4  0.3043429E-005  0.3034061E+03  0.7546771E-02  0.1083682E+00
          2   -1    0    0  502    0 -0.00000000000E+00  0.00000000000E+00  0.11911688447E+04  0.11911688447E+04  0.00000000000E+00 0. -1.
         21   -1    0    0  503  502  0.00000000000E+00 -0.00000000000E+00 -0.16379892656E+03  0.16379892656E+03  0.00000000000E+00 0. -1.
         24    2    1    2    0    0  0.20878559729E+01 -0.29922303510E+03  0.73811949777E+03  0.80047792538E+03  0.80035817954E+02 0.  0.
         23    2    1    2    0    0  0.44844903342E+02  0.27415314846E+03  0.24655410988E+03  0.38080478115E+03  0.83978200051E+02 0.  0.
        -13    1    3    3    0    0  0.38920698602E+02 -0.20298635656E+03  0.49689252388E+03  0.53816397316E+03  0.00000000000E+00 0.  1.
         14    1    3    3    0    0 -0.36832842629E+02 -0.96236678547E+02  0.24122697389E+03  0.26231395222E+03  0.00000000000E+00 0. -1.
        -11    1    4    4    0    0  0.13714324459E+02  0.79871084295E+02  0.12674317008E+03  0.15043704319E+03  0.00000000000E+00 0.  1.
         11    1    4    4    0    0  0.31130578883E+02  0.19428206417E+03  0.11981093980E+03  0.23036773796E+03  0.00000000000E+00 0. -1.
         21    1    1    2  503  501  0.21899128748E+01 -0.35101251603E+02 -0.44623042066E+02  0.56816454181E+02  0.00000000000E+00 0. -1.
          1    1    1    2  501    0 -0.49122672190E+02  0.60171138245E+02  0.87319352594E+02  0.11686861058E+03  0.00000000000E+00 0. -1.
<scales pt_clust_5="13000.00000" pt_clust_6="13000.00000" pt_clust_7="13000.00000" pt_clust_8="13000.00000" pt_clust_9="35.16950" pt_clust_10="73.99114"></scales>
<clustering>
<clus scale="   35.169">  2  9  1 -1</clus>
<clus scale="   73.991">  2 10  1 -1</clus>
<clus scale="   80.036">  5  6 -1 -1</clus>
<clus scale="   83.978">  7  8 -1 -1</clus>
<clus scale="  302.339">  1  5  2 -1</clus>
<clus scale="   35.169">  2  5  1 -1</clus>
</clustering>
</event>
<event>
10    4  0.3043429E-005  0.2958176E+03  0.7546771E-02  0.1120695E+00
          2   -1    0    0  502    0 -0.00000000000E+00  0.00000000000E+00  0.12190309262E+04  0.12190309262E+04  0.00000000000E+00 0. -1.
         21   -1    0    0  503  502  0.00000000000E+00 -0.00000000000E+00 -0.17142471810E+03  0.17142471810E+03  0.00000000000E+00 0.  1.
         24    2    1    2    0    0  0.30039441524E+02  0.10532132126E+03  0.17232641852E+03  0.21908223092E+03  0.79408315852E+02 0.  0.
         23    2    1    2    0    0 -0.18804010732E+03  0.23106306385E+03  0.41959322991E+03  0.52288372443E+03  0.92734509491E+02 0.  0.
        -13    1    3    3    0    0  0.45998433653E+02  0.88581036249E+02  0.92895597750E+02  0.13635266027E+03  0.00000000000E+00 0.  1.
         14    1    3    3    0    0 -0.15958992129E+02  0.16740285013E+02  0.79430820766E+02  0.82729570649E+02  0.00000000000E+00 0. -1.
        -11    1    4    4    0    0 -0.31979830954E+02  0.18035242651E+02  0.10999262182E+03  0.11595842540E+03  0.00000000000E+00 0. -1.
         11    1    4    4    0    0 -0.15606027637E+03  0.21302782120E+03  0.30960060808E+03  0.40692529903E+03  0.00000000000E+00 0.  1.
         21    1    1    2  503  501  0.31941374516E+02 -0.76422524775E+02 -0.25989715888E+02  0.86810823236E+02  0.00000000000E+00 0.  1.
          1    1    1    2  501    0  0.12605929128E+03 -0.25996186033E+03  0.48167627556E+03  0.56167886571E+03  0.00000000000E+00 0. -1.
<scales pt_clust_5="13000.00000" pt_clust_6="13000.00000" pt_clust_7="13000.00000" pt_clust_8="13000.00000" pt_clust_9="82.82906" pt_clust_10="280.90650"></scales>
<clustering>
<clus scale="   79.408">  5  6 -1 -1</clus>
<clus scale="   82.829">  2  9  1 -1</clus>
<clus scale="   92.735">  7  8 -1 -1</clus>
<clus scale="  125.309">  1  5  2 -1</clus>
<clus scale="  280.906">  2 10  1 -1</clus>
<clus scale="   82.829">  2  5  1 -1</clus>
</clustering>
</event>
<event>
10    4  0.3043429E-005  0.2118387E+03  0.7546771E-02  0.1141239E+00
          2   -1    0    0  503    0 -0.00000000000E+00  0.00000000000E+00  0.31922582216E+03  0.31922582216E+03  0.00000000000E+00 0. -1.
         21   -1    0    0  501  502  0.00000000000E+00 -0.00000000000E+00 -0.46096266242E+03  0.46096266242E+03  0.00000000000E+00 0. -1.
         23    2    1    2    0    0  0.19214963028E+03  0.35053968715E+01  0.11794233063E+03  0.24425924664E+03  0.93906432107E+02 0.  0.
         24    2    1    2    0    0 -0.18710913234E+03  0.19235959595E+01  0.56620152901E+02  0.21137536332E+03  0.80375213092E+02 0.  0.
        -11    1    4    4    0    0 -0.92861778223E+02  0.12201093293E+02  0.68207392225E+02  0.11586382044E+03  0.00000000000E+00 0.  1.
         12    1    4    4    0    0 -0.94247354113E+02 -0.10277497334E+02 -0.11587239325E+02  0.95511542883E+02  0.00000000000E+00 0. -1.
        -11    1    3    3    0    0  0.16320413698E+03  0.31903476968E+02  0.67330819577E+02  0.17940697154E+03  0.00000000000E+00 0. -1.
         11    1    3    3    0    0  0.28945493300E+02 -0.28398080097E+02  0.50611511048E+02  0.64852275104E+02  0.00000000000E+00 0.  1.
         21    1    1    2  503  502 -0.51263548398E+01  0.28484369106E+02 -0.23026445391E+03  0.23207618907E+03  0.00000000000E+00 0. -1.
          1    1    1    2  501    0  0.85856892059E-01 -0.33913361937E+02 -0.86034869872E+02  0.92477685542E+02  0.00000000000E+00 0. -1.
<scales pt_clust_5="13000.00000" pt_clust_6="13000.00000" pt_clust_7="13000.00000" pt_clust_8="13000.00000" pt_clust_9="28.94199" pt_clust_10="22.92872"></scales>
<clustering>
<clus scale="   28.942">  2  9  1 -1</clus>
<clus scale="   22.929">  2 10  1 -1</clus>
<clus scale="   80.375">  5  6 -1 -1</clus>
<clus scale="   93.906">  7  8 -1 -1</clus>
<clus scale="  206.197">  2  5  1 -1</clus>
<clus scale="   28.942">  2  5  1 -1</clus>
</clustering>
</event>
<event>
10    4  0.3043429E-005  0.1395146E+03  0.7546771E-02  0.1231450E+00
         21   -1    0    0  501  502  0.00000000000E+00  0.00000000000E+00  0.25030636621E+03  0.25030636621E+03  0.00000000000E+00 0. -1.
          2   -1    0    0  503    0 -0.00000000000E+00 -0.00000000000E+00 -0.43049113297E+03  0.43049113297E+03  0.00000000000E+00 0. -1.
         23    2    1    2    0    0 -0.35833045772E+02  0.94051230185E+00  0.62043481238E+02  0.11501195732E+03  0.89963687280E+02 0.  0.
         24    2    1    2    0    0 -0.67028953318E+02  0.81621925657E+01 -0.15612641843E+03  0.18882912368E+03  0.81984617139E+02 0.  0.
        -11    1    4    4    0    0 -0.70938328082E+02 -0.18823298105E+02 -0.13732843206E+03  0.15571018334E+03  0.00000000000E+00 0.  1.
         12    1    4    4    0    0  0.39093747642E+01  0.26985490670E+02 -0.18797986365E+02  0.33118940338E+02  0.00000000000E+00 0. -1.
        -13    1    3    3    0    0 -0.15359599054E+02 -0.28877230421E+02  0.70630945949E+02  0.77836638196E+02  0.00000000000E+00 0. -1.
         13    1    3    3    0    0 -0.20473446718E+02  0.29817742723E+02 -0.85874647116E+01  0.37175319121E+02  0.00000000000E+00 0.  1.
         21    1    1    2  503  502 -0.77423487040E+02  0.98038295362E+02  0.41298741277E+02  0.13157313455E+03  0.00000000000E+00 0. -1.
          1    1    1    2  501    0  0.18028548613E+03 -0.10714100023E+03 -0.12740057084E+03  0.24538328364E+03  0.00000000000E+00 0. -1.
<scales pt_clust_5="13000.00000" pt_clust_6="13000.00000" pt_clust_7="13000.00000" pt_clust_8="13000.00000" pt_clust_9="13000.00000" pt_clust_10="139.51459"></scales>
<clustering>
<clus scale="   81.985">  5  6 -1 -1</clus>
<clus scale="   89.964">  7  8 -1 -1</clus>
<clus scale="   96.842">  2  7  1 -1</clus>
<clus scale="  116.501">  2  5  1 -1</clus>
<clus scale="  139.515">  2 10  1 -1</clus>
<clus scale="  139.515">  1  5  2 -1</clus>
</clustering>
</event>
<event>
10    4  0.3043429E-005  0.9068570E+02  0.7546771E-02  0.1306688E+00
         -1   -1    0    0    0  501 -0.00000000000E+00  0.00000000000E+00  0.17869587092E+03  0.17869587092E+03  0.00000000000E+00 0.  1.
         21   -1    0    0  503  502  0.00000000000E+00 -0.00000000000E+00 -0.26019438952E+03  0.26019438952E+03  0.00000000000E+00 0.  1.
         24    2    1    2    0    0  0.25198309514E+02 -0.15239719131E+02  0.84601789810E+02  0.12120748296E+03  0.81649171740E+02 0.  0.
         23    2    1    2    0    0  0.65830561940E+02 -0.20190062927E+02 -0.36368348781E+01  0.11366363491E+03  0.90359801939E+02 0.  0.
        -11    1    3    3    0    0  0.54848623142E+02 -0.37885360853E+01  0.51981741115E+02  0.75662579097E+02  0.00000000000E+00 0.  1.
         12    1    3    3    0    0 -0.29650313628E+02 -0.11451183046E+02  0.32620048695E+02  0.45544903867E+02  0.00000000000E+00 0. -1.
        -13    1    4    4    0    0  0.68649803268E+01 -0.46576219048E+02  0.87529030555E+01  0.47886171779E+02  0.00000000000E+00 0.  1.
         13    1    4    4    0    0  0.58965581613E+02  0.26386156121E+02 -0.12389737934E+02  0.65777463131E+02  0.00000000000E+00 0. -1.
         21    1    1    2  503  501 -0.28972871743E+02  0.12807498491E+01 -0.11537403392E+03  0.11896316792E+03  0.00000000000E+00 0.  1.
         -2    1    1    2    0  502 -0.62055999711E+02  0.34149032209E+02 -0.47089439617E+02  0.85055974655E+02  0.00000000000E+00 0.  1.
<scales pt_clust_5="13000.00000" pt_clust_6="13000.00000" pt_clust_7="13000.00000" pt_clust_8="13000.00000" pt_clust_9="29.00117" pt_clust_10="83.05523"></scales>
<clustering>
<clus scale="   29.001">  2  9  1 -1</clus>
<clus scale="   81.649">  5  6 -1 -1</clus>
<clus scale="   83.055">  2 10  1 -1</clus>
<clus scale="   82.010">  1  5  2 -1</clus>
<clus scale="   90.360">  7  8 -1 -1</clus>
<clus scale="   29.001">  2  5  1 -1</clus>
</clustering>
</event>
<event>
10    4  0.3043429E-005  0.1489991E+03  0.7546771E-02  0.1229364E+00
         21   -1    0    0  501  502  0.00000000000E+00  0.00000000000E+00  0.22236850780E+03  0.22236850780E+03  0.00000000000E+00 0. -1.
          2   -1    0    0  503    0 -0.00000000000E+00 -0.00000000000E+00 -0.52419218211E+03  0.52419218211E+03  0.00000000000E+00 0. -1.
         24    2    1    2    0    0 -0.16917713758E+02 -0.43739843344E+01 -0.29445667934E+03  0.30602436857E+03  0.81491333114E+02 0.  0.
         23    2    1    2    0    0  0.93406342760E+00  0.10319233426E+03 -0.10474126907E+03  0.17375074642E+03  0.92569207124E+02 0.  0.
        -11    1    3    3    0    0 -0.42717663425E+02  0.20544509941E+02 -0.17395602922E+03  0.18029857392E+03  0.00000000000E+00 0.  1.
         12    1    3    3    0    0  0.25799949667E+02 -0.24918494275E+02 -0.12050065012E+03  0.12572579465E+03  0.00000000000E+00 0. -1.
        -13    1    4    4    0    0  0.29217011426E+02  0.93449061074E+02 -0.46749789237E+02  0.10849840352E+03  0.00000000000E+00 0.  1.
         13    1    4    4    0    0 -0.28282947998E+02  0.97432731905E+01 -0.57991479838E+02  0.65252342899E+02  0.00000000000E+00 0. -1.
         21    1    1    2  503  502  0.23975083664E+02  0.46468193784E+02  0.10892129573E+03  0.12082196130E+03  0.00000000000E+00 0. -1.
          1    1    1    2  501    0 -0.79914333339E+01 -0.14528654371E+03 -0.11547021624E+02  0.14596361361E+03  0.00000000000E+00 0. -1.
<scales pt_clust_5="13000.00000" pt_clust_6="13000.00000" pt_clust_7="13000.00000" pt_clust_8="13000.00000" pt_clust_9="52.28860" pt_clust_10="116.75472"></scales>
<clustering>
<clus scale="   52.289">  1  9  2 -1</clus>
<clus scale="   81.491">  5  6 -1 -1</clus>
<clus scale="   82.997">  2  5  1 -1</clus>
<clus scale="   92.569">  7  8 -1 -1</clus>
<clus scale="  116.755">  1 10  2 -1</clus>
<clus scale="   52.289">  1  5  2 -1</clus>
</clustering>
</event>
<event>
10    4  0.3043429E-005  0.3050152E+03  0.7546771E-02  0.1113078E+00
          2   -1    0    0  502    0 -0.00000000000E+00  0.00000000000E+00  0.60420198174E+03  0.60420198174E+03  0.00000000000E+00 0. -1.
         21   -1    0    0  503  502  0.00000000000E+00 -0.00000000000E+00 -0.30525446838E+03  0.30525446838E+03  0.00000000000E+00 0. -1.
         23    2    1    2    0    0  0.60466311264E+02  0.10157871562E+03 -0.31783162400E+02  0.15137160499E+03  0.89043714646E+02 0.  0.
         24    2    1    2    0    0 -0.91904589101E+02  0.24880451129E+03  0.19214777047E+03  0.33730901644E+03  0.80662683674E+02 0.  0.
        -11    1    4    4    0    0  0.62839316711E+01  0.44647689773E+02  0.59963617246E+02  0.75023592240E+02  0.00000000000E+00 0.  1.
         12    1    4    4    0    0 -0.98188520773E+02  0.20415682151E+03  0.13218415323E+03  0.26228542420E+03  0.00000000000E+00 0. -1.
        -11    1    3    3    0    0  0.29014369379E+02  0.77410993933E+02  0.21048534603E+02  0.85307305789E+02  0.00000000000E+00 0.  1.
         11    1    3    3    0    0  0.31451941885E+02  0.24167721692E+02 -0.52831697003E+02  0.66064299197E+02  0.00000000000E+00 0. -1.
         21    1    1    2  503  501 -0.22974650893E+02 -0.27132107908E+02 -0.34969351978E+02  0.49868240804E+02  0.00000000000E+00 0.  1.
          1    1    1    2  501    0  0.54412928730E+02 -0.32325111900E+03  0.17355225726E+03  0.37090758789E+03  0.00000000000E+00 0. -1.
<scales pt_clust_5="13000.00000" pt_clust_6="13000.00000" pt_clust_7="13000.00000" pt_clust_8="13000.00000" pt_clust_9="35.55258" pt_clust_10="294.15621"></scales>
<clustering>
<clus scale="   35.553">  2  9  1 -1</clus>
<clus scale="   80.663">  5  6 -1 -1</clus>
<clus scale="   89.044">  7  8 -1 -1</clus>
<clus scale="  138.449">  1  7  2 -1</clus>
<clus scale="  294.156">  2 10  1 -1</clus>
<clus scale="   35.553">  2  5  1 -1</clus>
</clustering>
</event>
<event>
10    4  0.3043429E-005  0.4034851E+03  0.7546771E-02  0.1084873E+00
         21   -1    0    0  501  502  0.00000000000E+00  0.00000000000E+00  0.24441017925E+03  0.24441017925E+03  0.00000000000E+00 0.  1.
          2   -1    0    0  503    0 -0.00000000000E+00 -0.00000000000E+00 -0.21208053737E+04  0.21208053737E+04  0.00000000000E+00 0. -1.
         24    2    1    2    0    0  0.26666059073E+02 -0.88700363653E+02 -0.45530607087E+03  0.47167880790E+03  0.81230821930E+02 0.  0.
         23    2    1    2    0    0 -0.23871541699E+03 -0.26977408871E+03 -0.54052581064E+03  0.65505855081E+03  0.84678472921E+02 0.  0.
        -13    1    3    3    0    0 -0.35198548522E+01 -0.89834142406E+02 -0.38108638392E+03  0.39154743586E+03  0.00000000000E+00 0.  1.
         14    1    3    3    0    0  0.30185913925E+02  0.11337787527E+01 -0.74219686949E+02  0.80131372037E+02  0.00000000000E+00 0. -1.
        -13    1    4    4    0    0 -0.16833670556E+02 -0.46128586411E+02 -0.38616984812E+02  0.62469916477E+02  0.00000000000E+00 0. -1.
         13    1    4    4    0    0 -0.22188174644E+03 -0.22364550230E+03 -0.50190882583E+03  0.59258863434E+03  0.00000000000E+00 0.  1.
         21    1    1    2  503  502 -0.70337261545E+01 -0.27189611077E+02  0.13098305353E+03  0.13396010065E+03  0.00000000000E+00 0.  1.
          1    1    1    2  501    0  0.21908308407E+03  0.38566406344E+03 -0.10115463664E+04  0.11045180936E+04  0.00000000000E+00 0. -1.
<scales pt_clust_5="13000.00000" pt_clust_6="13000.00000" pt_clust_7="13000.00000" pt_clust_8="13000.00000" pt_clust_9="28.08466" pt_clust_10="394.49956"></scales>
<clustering>
<clus scale="   28.085">  1  9  2 -1</clus>
<clus scale="   81.231">  5  6 -1 -1</clus>
<clus scale="   84.678">  7  8 -1 -1</clus>
<clus scale="  124.526">  2  5  1 -1</clus>
<clus scale="  394.500">  1 10  2 -1</clus>
<clus scale="   28.085">  1  5  2 -1</clus>
</clustering>
</event>
<event>
10    4  0.3043429E-005  0.2570665E+03  0.7546771E-02  0.1147420E+00
          2   -1    0    0  503    0 -0.00000000000E+00  0.00000000000E+00  0.21696183220E+04  0.21696183220E+04  0.00000000000E+00 0. -1.
         21   -1    0    0  501  502  0.00000000000E+00 -0.00000000000E+00 -0.11678639835E+03  0.11678639835E+03  0.00000000000E+00 0. -1.
         24    2    1    2    0    0  0.19279926975E+02 -0.55225918368E+02  0.84357810495E+03  0.84935785602E+03  0.79769234567E+02 0.  0.
         23    2    1    2    0    0  0.15957665667E+03  0.21572968753E+03  0.10879259994E+04  0.11241859728E+04  0.90593123066E+02 0.  0.
        -13    1    3    3    0    0  0.10038063878E+02 -0.48947735025E+02  0.21692869493E+03  0.22260885466E+03  0.00000000000E+00 0.  1.
         14    1    3    3    0    0  0.92418630971E+01 -0.62781833432E+01  0.62664941003E+03  0.62674900136E+03  0.00000000000E+00 0. -1.
        -13    1    4    4    0    0  0.15279690322E+03  0.14560455002E+03  0.86579751545E+03  0.89115257749E+03  0.00000000000E+00 0. -1.
         13    1    4    4    0    0  0.67797534454E+01  0.70125137508E+02  0.22212848394E+03  0.23303339534E+03  0.00000000000E+00 0.  1.
         21    1    1    2  503  502  0.50205624676E+01 -0.28480334454E+02 -0.29135831123E+02  0.41051579182E+02  0.00000000000E+00 0. -1.
          1    1    1    2  501    0 -0.18387714611E+03 -0.13202343470E+03  0.15046365047E+03  0.27180931236E+03  0.00000000000E+00 0. -1.
<scales pt_clust_5="13000.00000" pt_clust_6="13000.00000" pt_clust_7="13000.00000" pt_clust_8="13000.00000" pt_clust_9="28.91947" pt_clust_10="240.57444"></scales>
<clustering>
<clus scale="   28.919">  2  9  1 -1</clus>
<clus scale="   79.769">  5  6 -1 -1</clus>
<clus scale="   90.593">  7  8 -1 -1</clus>
<clus scale="   99.518">  1  5  2 -1</clus>
<clus scale="  240.574">  2 10  1 -1</clus>
<clus scale="   28.919">  2  5  1 -1</clus>
</clustering>
</event>
<event>
10    4  0.3043429E-005  0.2886612E+03  0.7546771E-02  0.1129156E+00
         21   -1    0    0  503  502  0.00000000000E+00  0.00000000000E+00  0.52444232803E+03  0.52444232803E+03  0.00000000000E+00 0. -1.
         -1   -1    0    0    0  501 -0.00000000000E+00 -0.00000000000E+00 -0.46932220513E+03  0.46932220513E+03  0.00000000000E+00 0.  1.
         24    2    1    2    0    0 -0.59140809018E+02  0.21244539877E+02 -0.22037755640E+03  0.24255313914E+03  0.79478249691E+02 0.  0.
         23    2    1    2    0    0 -0.89543324280E+02 -0.25930759179E+03  0.32012182894E+03  0.43061052288E+03  0.87686960045E+02 0.  0.
        -13    1    3    3    0    0 -0.67434565224E+02  0.38199476810E+02 -0.14032057596E+03  0.16030123098E+03  0.00000000000E+00 0.  1.
         14    1    3    3    0    0  0.82937562059E+01 -0.16954936932E+02 -0.80056980440E+02  0.82251908157E+02  0.00000000000E+00 0. -1.
        -11    1    4    4    0    0  0.12327005393E+02 -0.58336980063E+02  0.94586683971E+02  0.11181144436E+03  0.00000000000E+00 0.  1.
         11    1    4    4    0    0 -0.10187032967E+03 -0.20097061173E+03  0.22553514497E+03  0.31879907852E+03  0.00000000000E+00 0. -1.
         21    1    1    2  503  501 -0.22012655668E+02  0.77947350267E+01 -0.23589227983E+02  0.33192869423E+02  0.00000000000E+00 0.  1.
         -2    1    1    2    0  502  0.17069678897E+03  0.23026831689E+03 -0.21034921666E+02  0.28740800172E+03  0.00000000000E+00 0.  1.
<scales pt_clust_5="13000.00000" pt_clust_6="13000.00000" pt_clust_7="13000.00000" pt_clust_8="13000.00000" pt_clust_9="23.35198" pt_clust_10="275.02065"></scales>
<clustering>
<clus scale="   23.352">  2  9  1 -1</clus>
<clus scale="   79.478">  5  6 -1 -1</clus>
<clus scale="   87.687">  7  8 -1 -1</clus>
<clus scale="  109.347">  2  5  1 -1</clus>
<clus scale="  275.021">  1 10  2 -1</clus>
<clus scale="  275.021">  1  5  2 -1</clus>
</clustering>
</event>
<event>
10    4  0.3043429E-005  0.1600612E+03  0.7546771E-02  0.1215151E+00
          2   -1    0    0  503    0 -0.00000000000E+00  0.00000000000E+00  0.28359073295E+03  0.28359073295E+03  0.00000000000E+00 0. -1.
         21   -1    0    0  501  502  0.00000000000E+00 -0.00000000000E+00 -0.26143596626E+03  0.26143596626E+03  0.00000000000E+00 0. -1.
         24    2    1    2    0    0 -0.14580708120E+02 -0.45807303013E+02  0.73928380109E+02  0.11927426863E+03  0.80312139264E+02 0.  0.
         23    2    1    2    0    0 -0.37062610449E+02 -0.12281292074E+03  0.55954954600E+02  0.16399020868E+03  0.85470351615E+02 0.  0.
        -11    1    3    3    0    0  0.21029601929E+02 -0.33015930080E+02  0.71307914682E+02  0.81345648271E+02  0.00000000000E+00 0.  1.
         12    1    3    3    0    0 -0.35610310049E+02 -0.12791372933E+02  0.26204654265E+01  0.37928620359E+02  0.00000000000E+00 0. -1.
        -13    1    4    4    0    0  0.43728299001E+01 -0.11096157727E+03  0.39777098434E+02  0.11795681766E+03  0.00000000000E+00 0. -1.
         13    1    4    4    0    0 -0.41435440349E+02 -0.11851343466E+02  0.16177856165E+02  0.46033391022E+02  0.00000000000E+00 0.  1.
         21    1    1    2  503  502  0.22248873553E+02  0.98996114739E+02 -0.14541239026E+03  0.17731329998E+03  0.00000000000E+00 0. -1.
          1    1    1    2  501    0  0.29394445016E+02  0.69624109012E+02  0.37683822255E+02  0.84448921919E+02  0.00000000000E+00 0. -1.
<scales pt_clust_5="13000.00000" pt_clust_6="13000.00000" pt_clust_7="13000.00000" pt_clust_8="13000.00000" pt_clust_9="135.33076" pt_clust_10="75.57483"></scales>
<clustering>
<clus scale="   75.575">  2 10  1 -1</clus>
<clus scale="   80.312">  5  6 -1 -1</clus>
<clus scale="   85.470">  7  8 -1 -1</clus>
<clus scale="   90.131">  1  5  2 -1</clus>
<clus scale="  135.331">  2  9  1 -1</clus>
<clus scale="   75.575">  2  5  1 -1</clus>
</clustering>
</event>
<event>
10    4  0.3043429E-005  0.1166113E+03  0.7546771E-02  0.1253565E+00
         21   -1    0    0  503  502  0.00000000000E+00  0.00000000000E+00  0.17582960833E+03  0.17582960833E+03  0.00000000000E+00 0. -1.
          2   -1    0    0  502    0 -0.00000000000E+00 -0.00000000000E+00 -0.35324554302E+03  0.35324554302E+03  0.00000000000E+00 0. -1.
         23    2    1    2    0    0 -0.22520636861E+02 -0.10151966210E+03 -0.20330171430E+03  0.24650986260E+03  0.92855287639E+02 0.  0.
         24    2    1    2    0    0  0.17011098731E+02  0.66029145518E+01 -0.40505124548E+01  0.81336068684E+02  0.79159165340E+02 0.  0.
        -13    1    4    4    0    0  0.23692010224E+02 -0.16379845864E+02  0.28773494940E+02  0.40712709442E+02  0.00000000000E+00 0.  1.
         14    1    4    4    0    0 -0.66809114932E+01  0.22982760416E+02 -0.32824007395E+02  0.40623359243E+02  0.00000000000E+00 0. -1.
        -13    1    3    3    0    0  0.11191033040E+02 -0.96828319040E+02 -0.18170974513E+03  0.20620231343E+03  0.00000000000E+00 0. -1.
         13    1    3    3    0    0 -0.33711669902E+02 -0.46913430608E+01 -0.21591969173E+02  0.40307549169E+02  0.00000000000E+00 0.  1.
         21    1    1    2  503  501  0.70284614390E+01  0.26514120431E+02  0.99765443432E+02  0.10346758698E+03  0.00000000000E+00 0. -1.
          1    1    1    2  501    0 -0.15189233091E+01  0.68402627119E+02 -0.69829151364E+02  0.97761633093E+02  0.00000000000E+00 0. -1.
<scales pt_clust_5="13000.00000" pt_clust_6="13000.00000" pt_clust_7="13000.00000" pt_clust_8="13000.00000" pt_clust_9="27.42987" pt_clust_10="73.39265"></scales>
<clustering>
<clus scale="   27.430">  1  9  2 -1</clus>
<clus scale="   73.393">  1 10  2 -1</clus>
<clus scale="   79.159">  5  6 -1 -1</clus>
<clus scale="   92.855">  7  8 -1 -1</clus>
<clus scale="  106.029">  1  5  2 -1</clus>
<clus scale="   27.430">  1  5  2 -1</clus>
</clustering>
</event>
<event>
10    4  0.3043429E-005  0.2518097E+03  0.7546771E-02  0.1143452E+00
         21   -1    0    0  503  502  0.00000000000E+00  0.00000000000E+00  0.23722759354E+03  0.23722759354E+03  0.00000000000E+00 0. -1.
          2   -1    0    0  502    0 -0.00000000000E+00 -0.00000000000E+00 -0.12787843678E+04  0.12787843678E+04  0.00000000000E+00 0. -1.
         24    2    1    2    0    0  0.85351090006E+02 -0.71130206826E+01 -0.53589405775E+03  0.54850214586E+03  0.79603764110E+02 0.  0.
         23    2    1    2    0    0  0.89266465941E+02 -0.17646551508E+03 -0.57282458115E+03  0.61305072191E+03  0.92707102773E+02 0.  0.
        -13    1    3    3    0    0  0.91269354701E+02  0.12611326066E+02 -0.36839984054E+03  0.37974673556E+03  0.00000000000E+00 0.  1.
         14    1    3    3    0    0 -0.59182646958E+01 -0.19724346749E+02 -0.16749421720E+03  0.16875541031E+03  0.00000000000E+00 0. -1.
        -11    1    4    4    0    0  0.42523503220E+01 -0.85595122118E+02 -0.15530347917E+03  0.17738032037E+03  0.00000000000E+00 0.  1.
         11    1    4    4    0    0  0.85014115619E+02 -0.90870392964E+02 -0.41752110199E+03  0.43567040154E+03  0.00000000000E+00 0. -1.
         21    1    1    2  503  501 -0.11710754011E+02  0.21845357305E+02  0.11696472668E+03  0.11956215406E+03  0.00000000000E+00 0. -1.
          1    1    1    2  501    0 -0.16290680193E+03  0.16173317846E+03 -0.49802862061E+02  0.23489693953E+03  0.00000000000E+00 0. -1.
<scales pt_clust_5="13000.00000" pt_clust_6="13000.00000" pt_clust_7="13000.00000" pt_clust_8="13000.00000" pt_clust_9="24.78631" pt_clust_10="234.12286"></scales>
<clustering>
<clus scale="   24.786">  1  9  2 -1</clus>
<clus scale="   79.604">  5  6 -1 -1</clus>
<clus scale="   92.707">  7  8 -1 -1</clus>
<clus scale="  116.411">  2  5  1 -1</clus>
<clus scale="  234.123">  1 10  2 -1</clus>
<clus scale="   24.786">  1  5  2 -1</clus>
</clustering>
</event>
<event>
10    4  0.3043429E-005  0.2303561E+03  0.7546771E-02  0.1147060E+00
         -3   -1    0    0    0  501 -0.00000000000E+00  0.00000000000E+00  0.25610956583E+03  0.25610956583E+03  0.00000000000E+00 0.  1.
         21   -1    0    0  503  502  0.00000000000E+00 -0.00000000000E+00 -0.57621916737E+03  0.57621916737E+03  0.00000000000E+00 0. -1.
         23    2    1    2    0    0 -0.88440847389E+02 -0.12854892137E+02 -0.26341581002E+03  0.29896549563E+03  0.10956937014E+03 0.  0.
         24    2    1    2    0    0 -0.15688490195E+03 -0.49439870976E+02  0.94727255593E+02  0.20597042383E+03  0.79958672077E+02 0.  0.
        -13    1    4    4    0    0 -0.29894145543E+02 -0.40740008525E+02  0.61694501561E+01  0.50906486301E+02  0.00000000000E+00 0.  1.
         14    1    4    4    0    0 -0.12699075640E+03 -0.86998624515E+01  0.88557805436E+02  0.15506393753E+03  0.00000000000E+00 0. -1.
        -13    1    3    3    0    0 -0.94863361008E+02  0.27822967781E+02 -0.16607984252E+03  0.19327619846E+03  0.00000000000E+00 0.  1.
         13    1    3    3    0    0  0.64225136195E+01 -0.40677859918E+02 -0.97335967499E+02  0.10568929718E+03  0.00000000000E+00 0. -1.
         21    1    1    2  503  501  0.38419849116E+01  0.20739113084E+02 -0.63748616695E+02  0.67147284310E+02  0.00000000000E+00 0. -1.
         -4    1    1    2    0  502  0.24148376442E+03  0.41555650029E+02 -0.87672430420E+02  0.26024552942E+03  0.00000000000E+00 0.  1.
<scales pt_clust_5="13000.00000" pt_clust_6="13000.00000" pt_clust_7="13000.00000" pt_clust_8="13000.00000" pt_clust_9="21.09198" pt_clust_10="216.03368"></scales>
<clustering>
<clus scale="   21.092">  2  9  1 -1</clus>
<clus scale="   79.959">  5  6 -1 -1</clus>
<clus scale="  109.569">  7  8 -1 -1</clus>
<clus scale="  139.498">  1  7  2 -1</clus>
<clus scale="  216.034">  2 10  1 -1</clus>
<clus scale="   21.092">  2  5  1 -1</clus>
</clustering>
</event>
<event>
10    4  0.3043429E-005  0.1723413E+03  0.7546771E-02  0.1206511E+00
          2   -1    0    0  503    0 -0.00000000000E+00  0.00000000000E+00  0.14547921930E+04  0.14547921930E+04  0.00000000000E+00 0. -1.
         21   -1    0    0  501  502  0.00000000000E+00 -0.00000000000E+00 -0.52468717778E+02  0.52468717778E+02  0.00000000000E+00 0. -1.
         24    2    1    2    0    0  0.10388219582E+02 -0.32013780737E+02  0.61479092874E+03  0.62089317600E+03  0.80047814947E+02 0.  0.
         23    2    1    2    0    0  0.96862341496E+02 -0.90507894703E+02  0.53229270780E+03  0.55576979071E+03  0.89277888012E+02 0.  0.
        -11    1    3    3    0    0 -0.61920580627E+01  0.24489135282E+02  0.12135252627E+03  0.12395360004E+03  0.00000000000E+00 0.  1.
         12    1    3    3    0    0  0.16580277645E+02 -0.56502916019E+02  0.49343840247E+03  0.49693957596E+03  0.00000000000E+00 0. -1.
        -11    1    4    4    0    0  0.68054748488E+00 -0.57079079094E+02  0.16351712979E+03  0.17319450381E+03  0.00000000000E+00 0.  1.
         11    1    4    4    0    0  0.96181794011E+02 -0.33428815609E+02  0.36877557801E+03  0.38257528690E+03  0.00000000000E+00 0. -1.
         21    1    1    2  503  502 -0.22426463613E+02 -0.57878966466E+01 -0.90021069751E+01  0.24849224289E+02  0.00000000000E+00 0. -1.
          1    1    1    2  501    0 -0.84824097465E+02  0.12830957209E+03  0.26424194565E+03  0.30574871977E+03  0.00000000000E+00 0. -1.
<scales pt_clust_5="13000.00000" pt_clust_6="13000.00000" pt_clust_7="13000.00000" pt_clust_8="13000.00000" pt_clust_9="23.16130" pt_clust_10="147.41427"></scales>
<clustering>
<clus scale="   23.161">  2  9  1 -1</clus>
<clus scale="   80.048">  5  6 -1 -1</clus>
<clus scale="   86.811">  1  5  2 -1</clus>
<clus scale="   89.278">  7  8 -1 -1</clus>
<clus scale="  147.414">  2 10  1 -1</clus>
<clus scale="   23.161">  2  5  1 -1</clus>
</clustering>
</event>
<event>
10    4  0.3043429E-005  0.3020355E+03  0.7546771E-02  0.1084959E+00
          2   -1    0    0  502    0 -0.00000000000E+00  0.00000000000E+00  0.12325533151E+04  0.12325533151E+04  0.00000000000E+00 0. -1.
         21   -1    0    0  503  502  0.00000000000E+00 -0.00000000000E+00 -0.16202899039E+03  0.16202899039E+03  0.00000000000E+00 0. -1.
         24    2    1    2    0    0 -0.45617830527E+02  0.29101848592E+03  0.92105676582E+03  0.97300605679E+03  0.10780758356E+03 0.  0.
         23    2    1    2    0    0  0.77314704343E+02 -0.23473737383E+03  0.14204042247E+03  0.29896807475E+03  0.90151150420E+02 0.  0.
        -11    1    3    3    0    0  0.17897266540E+02  0.21183851830E+02  0.35336829098E+02  0.44919474826E+02  0.00000000000E+00 0.  1.
         12    1    3    3    0    0 -0.63515097068E+02  0.26983463409E+03  0.88571993672E+03  0.92808658196E+03  0.00000000000E+00 0. -1.
        -13    1    4    4    0    0  0.69555990836E+02 -0.20250567598E+03  0.15397537572E+03  0.26373282123E+03  0.00000000000E+00 0. -1.
         13    1    4    4    0    0  0.77587135075E+01 -0.32231697855E+02 -0.11934953246E+02  0.35235253524E+02  0.00000000000E+00 0.  1.
         21    1    1    2  503  501  0.27515627718E+02  0.14698255793E+01 -0.21535232710E+02  0.34971937376E+02  0.00000000000E+00 0.  1.
          1    1    1    2  501    0 -0.59212501534E+02 -0.57750937661E+02  0.28962369155E+02  0.87636236602E+02  0.00000000000E+00 0. -1.
<scales pt_clust_5="13000.00000" pt_clust_6="13000.00000" pt_clust_7="13000.00000" pt_clust_8="13000.00000" pt_clust_9="27.55486" pt_clust_10="78.26863"></scales>
<clustering>
<clus scale="   27.555">  2  9  1 -1</clus>
<clus scale="   78.269">  2 10  1 -1</clus>
<clus scale="   90.151">  7  8 -1 -1</clus>
<clus scale="  107.808">  5  6 -1 -1</clus>
<clus scale="  296.193">  2  7  1 -1</clus>
<clus scale="   27.555">  2  5  1 -1</clus>
</clustering>
</event>
<event>
10    4  0.3043429E-005  0.1039217E+03  0.7546771E-02  0.1272880E+00
         -3   -1    0    0    0  501 -0.00000000000E+00  0.00000000000E+00  0.13076251186E+03  0.13076251186E+03  0.00000000000E+00 0.  1.
         21   -1    0    0  503  502  0.00000000000E+00 -0.00000000000E+00 -0.27473019505E+03  0.27473019505E+03  0.00000000000E+00 0.  1.
         24    2    1    2    0    0  0.66076593455E+01  0.46049822582E+02  0.50065731495E+02  0.11742941648E+03  0.95492633553E+02 0.  0.
         23    2    1    2    0    0 -0.29751425842E+02 -0.52531678315E+01 -0.16963799702E+03  0.19635015629E+03  0.94146644800E+02 0.  0.
        -11    1    3    3    0    0 -0.39615146690E+02  0.10539667481E+02  0.62646730949E+00  0.40998010917E+02  0.00000000000E+00 0.  1.
         12    1    3    3    0    0  0.46222806036E+02  0.35510155101E+02  0.49439264186E+02  0.76431405563E+02  0.00000000000E+00 0. -1.
        -11    1    4    4    0    0 -0.30748908407E+02 -0.42607737908E+02 -0.56297847156E+02  0.77008845546E+02  0.00000000000E+00 0. -1.
         11    1    4    4    0    0  0.99748256487E+00  0.37354570076E+02 -0.11334014987E+03  0.11934131074E+03  0.00000000000E+00 0.  1.
         21    1    1    2  503  501 -0.24144159413E+02 -0.61017247603E+01 -0.21649962789E+02  0.32998369165E+02  0.00000000000E+00 0.  1.
         -4    1    1    2    0  502  0.47287925910E+02 -0.34694929990E+02 -0.27454548768E+01  0.58714764978E+02  0.00000000000E+00 0.  1.
<scales pt_clust_5="13000.00000" pt_clust_6="13000.00000" pt_clust_7="13000.00000" pt_clust_8="13000.00000" pt_clust_9="24.90324" pt_clust_10="56.73113"></scales>
<clustering>
<clus scale="   24.903">  2  9  1 -1</clus>
<clus scale="   56.731">  2 10  1 -1</clus>
<clus scale="   94.147">  7  8 -1 -1</clus>
<clus scale="   95.493">  5  6 -1 -1</clus>
<clus scale="  102.686">  2  7  1 -1</clus>
<clus scale="   24.903">  2  5  1 -1</clus>
</clustering>
</event>
<event>
10    4  0.3043429E-005  0.1325987E+03  0.7546771E-02  0.1239653E+00
         21   -1    0    0  503  502  0.00000000000E+00  0.00000000000E+00  0.12561555146E+03  0.12561555146E+03  0.00000000000E+00 0. -1.
          2   -1    0    0  502    0 -0.00000000000E+00 -0.00000000000E+00 -0.63450156816E+03  0.63450156816E+03  0.00000000000E+00 0. -1.
         23    2    1    2    0    0 -0.73173856167E+01  0.32888480835E+02 -0.28779153128E+03  0.30318220318E+03  0.89220437940E+02 0.  0.
         24    2    1    2    0    0  0.19447656839E+02 -0.96345137015E+01 -0.80980202483E+02  0.12655890603E+03  0.94806794544E+02 0.  0.
        -13    1    4    4    0    0  0.38736833582E+02 -0.43521664109E+02 -0.48029990218E+02  0.75508658332E+02  0.00000000000E+00 0.  1.
         14    1    4    4    0    0 -0.19289176743E+02  0.33887150408E+02 -0.32950212264E+02  0.51050247702E+02  0.00000000000E+00 0. -1.
        -13    1    3    3    0    0 -0.40334300180E+02  0.42764992458E+02 -0.14902508283E+03  0.16020042341E+03  0.00000000000E+00 0. -1.
         13    1    3    3    0    0  0.33016914563E+02 -0.98765116227E+01 -0.13876644845E+03  0.14298177977E+03  0.00000000000E+00 0.  1.
         21    1    1    2  503  501 -0.13388522206E+03 -0.29325923350E+02  0.94961083072E+01  0.13738791264E+03  0.00000000000E+00 0. -1.
          1    1    1    2  501    0  0.12175495084E+03  0.60719562162E+01 -0.14961039125E+03  0.19298809776E+03  0.00000000000E+00 0. -1.
<scales pt_clust_5="13000.00000" pt_clust_6="13000.00000" pt_clust_7="13000.00000" pt_clust_8="13000.00000" pt_clust_9="13000.00000" pt_clust_10="132.59872"></scales>
<clustering>
<clus scale="   89.220">  7  8 -1 -1</clus>
<clus scale="   94.807">  5  6 -1 -1</clus>
<clus scale="   95.370">  2  7  1 -1</clus>
<clus scale="   96.357">  2  5  1 -1</clus>
<clus scale="  132.599">  2 10  1 -1</clus>
<clus scale="  132.599">  1  5  2 -1</clus>
</clustering>
</event>
<event>
10    4  0.3043429E-005  0.1388062E+03  0.7546771E-02  0.1217362E+00
         21   -1    0    0  503  502  0.00000000000E+00  0.00000000000E+00  0.98380154341E+02  0.98380154341E+02  0.00000000000E+00 0. -1.
          2   -1    0    0  502    0 -0.00000000000E+00 -0.00000000000E+00 -0.82901926699E+03  0.82901926699E+03  0.00000000000E+00 0. -1.
         23    2    1    2    0    0 -0.16282027193E+02  0.12449192252E+03 -0.55220172736E+03  0.57344622518E+03  0.90280021567E+02 0.  0.
         24    2    1    2    0    0  0.38156928479E+01 -0.69663037973E+02 -0.12842022559E+03  0.16624788786E+03  0.79240819694E+02 0.  0.
        -13    1    4    4    0    0 -0.43682711737E+01 -0.66998026060E+02 -0.13794125242E+03  0.15341318851E+03  0.00000000000E+00 0.  1.
         14    1    4    4    0    0  0.81839640216E+01 -0.26650119125E+01  0.95210268288E+01  0.12834699353E+02  0.00000000000E+00 0. -1.
        -11    1    3    3    0    0 -0.38153794591E+02  0.98914997740E+02 -0.50155753532E+03  0.51264007847E+03  0.00000000000E+00 0. -1.
         11    1    3    3    0    0  0.21871767399E+02  0.25576924781E+02 -0.50644192040E+02  0.60806146711E+02  0.00000000000E+00 0.  1.
         21    1    1    2  503  501  0.13991381821E+02 -0.17042205244E+02  0.63940966741E+02  0.67636105392E+02  0.00000000000E+00 0. -1.
          1    1    1    2  501    0 -0.15250474759E+01 -0.37786679304E+02 -0.11395812645E+03  0.12006920290E+03  0.00000000000E+00 0. -1.
<scales pt_clust_5="13000.00000" pt_clust_6="13000.00000" pt_clust_7="13000.00000" pt_clust_8="13000.00000" pt_clust_9="22.04984" pt_clust_10="39.38502"></scales>
<clustering>
<clus scale="   22.050">  1  9  2 -1</clus>
<clus scale="   39.385">  1 10  2 -1</clus>
<clus scale="   79.241">  5  6 -1 -1</clus>
<clus scale="   90.280">  7  8 -1 -1</clus>
<clus scale="  131.893">  1  5  2 -1</clus>
<clus scale="   22.050">  1  5  2 -1</clus>
</clustering>
</event>
<event>
10    4  0.3043429E-005  0.1875599E+03  0.7546771E-02  0.1192603E+00
         21   -1    0    0  503  502  0.00000000000E+00  0.00000000000E+00  0.19067936894E+03  0.19067936894E+03  0.00000000000E+00 0.  1.
          2   -1    0    0  502    0 -0.00000000000E+00 -0.00000000000E+00 -0.14908203923E+04  0.14908203923E+04  0.00000000000E+00 0. -1.
         23    2    1    2    0    0 -0.68724913245E+01  0.27193100507E+02 -0.16945576283E+03  0.19309437730E+03  0.88224073468E+02 0.  0.
         24    2    1    2    0    0  0.40637582804E+02  0.15431919175E+03 -0.10417443776E+04  0.10568511392E+04  0.78975668790E+02 0.  0.
        -11    1    4    4    0    0  0.26175537468E+02  0.15618884220E+02 -0.91867490857E+02  0.96792273361E+02  0.00000000000E+00 0.  1.
         12    1    4    4    0    0  0.14462045336E+02  0.13870030753E+03 -0.94987688670E+03  0.96005886588E+03  0.00000000000E+00 0. -1.
        -11    1    3    3    0    0  0.39616067293E+01 -0.27117733293E+02 -0.10302041714E+03  0.10660334017E+03  0.00000000000E+00 0.  1.
         11    1    3    3    0    0 -0.10834098054E+02  0.54310833800E+02 -0.66435345682E+02  0.86491037135E+02  0.00000000000E+00 0. -1.
         21    1    1    2  503  501 -0.53267835935E+01 -0.22458575134E+02  0.14522831926E+03  0.14705110314E+03  0.00000000000E+00 0.  1.
          1    1    1    2  501    0 -0.28438307886E+02 -0.15905371712E+03 -0.23416920227E+03  0.28450314159E+03  0.00000000000E+00 0. -1.
<scales pt_clust_5="13000.00000" pt_clust_6="13000.00000" pt_clust_7="13000.00000" pt_clust_8="13000.00000" pt_clust_9="23.08164" pt_clust_10="170.12218"></scales>
<clustering>
<clus scale="   23.082">  1  9  2 -1</clus>
<clus scale="   78.976">  5  6 -1 -1</clus>
<clus scale="   88.224">  7  8 -1 -1</clus>
<clus scale="   91.121">  2  7  1 -1</clus>
<clus scale="  170.122">  1 10  2 -1</clus>
<clus scale="   23.082">  1  5  2 -1</clus>
</clustering>
</event>
<event>
10    4  0.3043429E-005  0.3905796E+03  0.7546771E-02  0.1100337E+00
          2   -1    0    0  503    0 -0.00000000000E+00  0.00000000000E+00  0.60926327463E+03  0.60926327463E+03  0.00000000000E+00 0. -1.
         21   -1    0    0  501  502  0.00000000000E+00 -0.00000000000E+00 -0.81622646589E+03  0.81622646589E+03  0.00000000000E+00 0. -1.
         24    2    1    2    0    0  0.37757443289E+02  0.21498078717E+02  0.10998136497E+03  0.14292275259E+03  0.80269674568E+02 0.  0.
         23    2    1    2    0    0  0.32065065419E+03 -0.16606557264E+03  0.33349829660E+03  0.49951240582E+03  0.88864578381E+02 0.  0.
        -13    1    3    3    0    0  0.11203207388E+02  0.22516095913E+02 -0.43683950241E+01  0.25525855638E+02  0.00000000000E+00 0.  1.
         14    1    3    3    0    0  0.26554235901E+02 -0.10180171962E+01  0.11434976000E+03  0.11739689696E+03  0.00000000000E+00 0. -1.
        -13    1    4    4    0    0  0.13496842067E+03 -0.47579777137E+02  0.18488513540E+03  0.23380081921E+03  0.00000000000E+00 0. -1.
         13    1    4    4    0    0  0.18568223351E+03 -0.11848579551E+03  0.14861316119E+03  0.26571158661E+03  0.00000000000E+00 0.  1.
         21    1    1    2  503  502 -0.44250470070E+01  0.27264385700E+02 -0.18306223751E+03  0.18513430415E+03  0.00000000000E+00 0. -1.
          1    1    1    2  501    0 -0.35398305047E+03  0.11730310823E+03 -0.46738061532E+03  0.59792027796E+03  0.00000000000E+00 0. -1.
<scales pt_clust_5="13000.00000" pt_clust_6="13000.00000" pt_clust_7="13000.00000" pt_clust_8="13000.00000" pt_clust_9="27.62115" pt_clust_10="380.33601"></scales>
<clustering>
<clus scale="   27.621">  2  9  1 -1</clus>
<clus scale="   80.270">  5  6 -1 -1</clus>
<clus scale="   88.865">  7  8 -1 -1</clus>
<clus scale="   91.397">  1  5  2 -1</clus>
<clus scale="  380.336">  2 10  1 -1</clus>
<clus scale="   27.621">  2  5  1 -1</clus>
</clustering>
</event>
<event>
10    4  0.3043429E-005  0.1451715E+03  0.7546771E-02  0.1208899E+00
         21   -1    0    0  503  502  0.00000000000E+00  0.00000000000E+00  0.48771112794E+03  0.48771112794E+03  0.00000000000E+00 0.  1.
         -3   -1    0    0    0  501 -0.00000000000E+00 -0.00000000000E+00 -0.18910717398E+03  0.18910717398E+03  0.00000000000E+00 0.  1.
         23    2    1    2    0    0  0.12129005236E+03  0.79863788302E+01 -0.10782904099E+03  0.18664820158E+03  0.91844379388E+02 0.  0.
         24    2    1    2    0    0 -0.48611975514E+02 -0.58588653756E+02  0.23925966748E+03  0.26352491532E+03  0.80027732689E+02 0.  0.
        -13    1    4    4    0    0 -0.67642222936E+02 -0.34150124072E+02  0.13558535220E+03  0.15532253227E+03  0.00000000000E+00 0.  1.
         14    1    4    4    0    0  0.19030247422E+02 -0.24438529684E+02  0.10367431528E+03  0.10820238305E+03  0.00000000000E+00 0. -1.
        -13    1    3    3    0    0  0.13909080219E+02  0.16394141415E+02  0.12727365487E+02  0.24984319432E+02  0.00000000000E+00 0. -1.
         13    1    3    3    0    0  0.10738097214E+03 -0.84077625848E+01 -0.12055640648E+03  0.16166388215E+03  0.00000000000E+00 0.  1.
         21    1    1    2  503  501  0.18502318177E+02 -0.27373632125E+02  0.37763928426E+02  0.50177343531E+02  0.00000000000E+00 0.  1.
         -4    1    1    2    0  502 -0.91180395022E+02  0.77975907051E+02  0.12940939905E+03  0.17646784149E+03  0.00000000000E+00 0.  1.
<scales pt_clust_5="13000.00000" pt_clust_6="13000.00000" pt_clust_7="13000.00000" pt_clust_8="13000.00000" pt_clust_9="33.04015" pt_clust_10="109.03917"></scales>
<clustering>
<clus scale="   33.040">  1  9  2 -1</clus>
<clus scale="   80.028">  5  6 -1 -1</clus>
<clus scale="   91.844">  7  8 -1 -1</clus>
<clus scale="  109.039">  1 10  2 -1</clus>
<clus scale="  137.999">  1  5  2 -1</clus>
<clus scale="   33.040">  1  5  2 -1</clus>
</clustering>
</event>
<event>
10    4  0.3043429E-005  0.2387678E+03  0.7546771E-02  0.1154310E+00
         21   -1    0    0  503  502  0.00000000000E+00  0.00000000000E+00  0.53599927265E+03  0.53599927265E+03  0.00000000000E+00 0.  1.
         -1   -1    0    0    0  501 -0.00000000000E+00 -0.00000000000E+00 -0.39879508772E+03  0.39879508772E+03  0.00000000000E+00 0.  1.
         23    2    1    2    0    0  0.10393641741E+02 -0.52358757143E+02  0.79531109431E+01  0.10363243876E+03  0.88470125762E+02 0.  0.
         24    2    1    2    0    0 -0.11665476443E+03  0.23014597874E+03 -0.19107735669E+03  0.33066439031E+03  0.79075136319E+02 0.  0.
        -11    1    4    4    0    0 -0.11333850924E+03  0.17420521582E+03 -0.11941829120E+03  0.23969522976E+03  0.00000000000E+00 0.  1.
         12    1    4    4    0    0 -0.33162551909E+01  0.55940762925E+02 -0.71659065489E+02  0.90969160554E+02  0.00000000000E+00 0. -1.
        -11    1    3    3    0    0  0.28284774718E+02 -0.10989764468E+02  0.38621220973E+02  0.49116210291E+02  0.00000000000E+00 0. -1.
         11    1    3    3    0    0 -0.17891132977E+02 -0.41368992675E+02 -0.30668110030E+02  0.54516228473E+02  0.00000000000E+00 0.  1.
         21    1    1    2  503  501 -0.69588799663E+02 -0.25846488790E+02  0.24530194433E+03  0.25628828673E+03  0.00000000000E+00 0.  1.
         -2    1    1    2    0  502  0.17584992235E+03 -0.15194073281E+03  0.75026486337E+02  0.24420924456E+03  0.00000000000E+00 0.  1.
<scales pt_clust_5="13000.00000" pt_clust_6="13000.00000" pt_clust_7="13000.00000" pt_clust_8="13000.00000" pt_clust_9="74.23370" pt_clust_10="225.29351"></scales>
<clustering>
<clus scale="   74.234">  1  9  2 -1</clus>
<clus scale="   79.075">  5  6 -1 -1</clus>
<clus scale="   88.470">  7  8 -1 -1</clus>
<clus scale="  105.517">  2  7  1 -1</clus>
<clus scale="  225.294">  1 10  2 -1</clus>
<clus scale="   74.234">  1  5  2 -1</clus>
</clustering>
</event>
<event>
10    4  0.3043429E-005  0.2102025E+03  0.7546771E-02  0.1145516E+00
         -1   -1    0    0    0  501 -0.00000000000E+00  0.00000000000E+00  0.61862216107E+03  0.61862216107E+03  0.00000000000E+00 0.  1.
         21   -1    0    0  503  502  0.00000000000E+00 -0.00000000000E+00 -0.15361435670E+03  0.15361435670E+03  0.00000000000E+00 0.  1.
         23    2    1    2    0    0  0.16889242849E+03 -0.77374068683E+02  0.23304056497E+03  0.32140040167E+03  0.12032836060E+03 0.  0.
         24    2    1    2    0    0 -0.12345682867E+03  0.71432973222E+02 -0.31765469068E+02  0.16711817821E+03  0.81087497531E+02 0.  0.
        -11    1    4    4    0    0 -0.56767446673E+02  0.76688814951E+02 -0.30640458193E+02  0.10021254921E+03  0.00000000000E+00 0.  1.
         12    1    4    4    0    0 -0.66689381993E+02 -0.52558417290E+01 -0.11250108751E+01  0.66905629003E+02  0.00000000000E+00 0. -1.
        -13    1    3    3    0    0  0.72088226558E+02  0.28085829694E+02  0.95196185085E+02  0.12266963721E+03  0.00000000000E+00 0. -1.
         13    1    3    3    0    0  0.96804201931E+02 -0.10545989838E+03  0.13784437989E+03  0.19873076446E+03  0.00000000000E+00 0.  1.
         21    1    1    2  503  501  0.26410443348E+01  0.19989697776E+02  0.58197651817E+01  0.20986490872E+02  0.00000000000E+00 0.  1.
         -2    1    1    2    0  502 -0.48076644158E+02 -0.14048602315E+02  0.25791294328E+03  0.26273144702E+03  0.00000000000E+00 0.  1.
<scales pt_clust_5="13000.00000" pt_clust_6="13000.00000" pt_clust_7="13000.00000" pt_clust_8="13000.00000" pt_clust_9="20.16341" pt_clust_10="49.95382"></scales>
<clustering>
<clus scale="   20.163">  2  9  1 -1</clus>
<clus scale="   49.954">  2 10  1 -1</clus>
<clus scale="   81.087">  5  6 -1 -1</clus>
<clus scale="  120.328">  7  8 -1 -1</clus>
<clus scale="  190.477">  2  5  1 -1</clus>
<clus scale="   20.163">  2  5  1 -1</clus>
</clustering>
</event>
<event>
10    4  0.3043429E-005  0.1010889E+03  0.7546771E-02  0.1284015E+00
          2   -1    0    0  502    0 -0.00000000000E+00  0.00000000000E+00  0.32710513297E+03  0.32710513297E+03  0.00000000000E+00 0. -1.
         21   -1    0    0  503  502  0.00000000000E+00 -0.00000000000E+00 -0.99973781582E+02  0.99973781582E+02  0.00000000000E+00 0. -1.
         24    2    1    2    0    0 -0.17452807209E+01  0.62776106540E+01  0.55931861238E+02  0.97945225336E+02  0.80140125182E+02 0.  0.
         23    2    1    2    0    0 -0.13053861436E+01  0.99160356410E+02  0.15484108570E+03  0.20570256089E+03  0.92213347296E+02 0.  0.
        -13    1    3    3    0    0  0.30456297305E+02  0.12212656993E+02 -0.36812019312E+00  0.32815705826E+02  0.00000000000E+00 0.  1.
         14    1    3    3    0    0 -0.32201578026E+02 -0.59350463391E+01  0.56299981431E+02  0.65129519510E+02  0.00000000000E+00 0. -1.
        -13    1    4    4    0    0 -0.27848811563E+02  0.89545310969E+02  0.72133792318E+02  0.11830977566E+03  0.00000000000E+00 0. -1.
         13    1    4    4    0    0  0.26543425420E+02  0.96150454406E+01  0.82707293386E+02  0.87392785235E+02  0.00000000000E+00 0.  1.
         21    1    1    2  503  501 -0.26372593951E+02 -0.43836213391E+02 -0.62011277948E+01  0.51532332590E+02  0.00000000000E+00 0. -1.
          1    1    1    2  501    0  0.29423260816E+02 -0.61601753673E+02  0.22559532235E+02  0.71898795729E+02  0.00000000000E+00 0. -1.
<scales pt_clust_5="13000.00000" pt_clust_6="13000.00000" pt_clust_7="13000.00000" pt_clust_8="13000.00000" pt_clust_9="51.15787" pt_clust_10="79.44066"></scales>
<clustering>
<clus scale="   51.158">  2  9  1 -1</clus>
<clus scale="   79.441">  2 10  1 -1</clus>
<clus scale="   80.140">  5  6 -1 -1</clus>
<clus scale="   90.211">  1  5  2 -1</clus>
<clus scale="   92.213">  7  8 -1 -1</clus>
<clus scale="   51.158">  2  5  1 -1</clus>
</clustering>
</event>
<event>
10    4  0.3043429E-005  0.2183096E+03  0.7546771E-02  0.1135768E+00
         21   -1    0    0  503  502  0.00000000000E+00  0.00000000000E+00  0.20701979336E+03  0.20701979336E+03  0.00000000000E+00 0. -1.
          2   -1    0    0  502    0 -0.00000000000E+00 -0.00000000000E+00 -0.10800488691E+04  0.10800488691E+04  0.00000000000E+00 0. -1.
         24    2    1    2    0    0 -0.73108057549E+02  0.16926542453E+03 -0.33105233850E+03  0.38799873749E+03  0.83377439707E+02 0.  0.
         23    2    1    2    0    0  0.47367247042E+02 -0.23413803864E+03 -0.13774136779E+03  0.29051691105E+03  0.91450062743E+02 0.  0.
        -11    1    3    3    0    0 -0.82702588586E+01  0.28179118185E+02 -0.13369677950E+03  0.13688421652E+03  0.00000000000E+00 0.  1.
         12    1    3    3    0    0 -0.64837798691E+02  0.14108630634E+03 -0.19735555900E+03  0.25111452097E+03  0.00000000000E+00 0. -1.
        -11    1    4    4    0    0  0.69403239581E+02 -0.21209884877E+03 -0.11004366062E+03  0.24882190128E+03  0.00000000000E+00 0.  1.
         11    1    4    4    0    0 -0.22035992540E+02 -0.22039189865E+02 -0.27697707164E+02  0.41695009765E+02  0.00000000000E+00 0. -1.
         21    1    1    2  503  501 -0.33330942604E+01 -0.60290584266E+02  0.84135431582E+02  0.10356077885E+03  0.00000000000E+00 0. -1.
          1    1    1    2  501    0  0.29073904768E+02  0.12516319838E+03 -0.48837080103E+03  0.50499223505E+03  0.00000000000E+00 0. -1.
<scales pt_clust_5="13000.00000" pt_clust_6="13000.00000" pt_clust_7="13000.00000" pt_clust_8="13000.00000" pt_clust_9="60.38265" pt_clust_10="124.13003"></scales>
<clustering>
<clus scale="   60.383">  1  9  2 -1</clus>
<clus scale="   83.377">  5  6 -1 -1</clus>
<clus scale="   91.450">  7  8 -1 -1</clus>
<clus scale="  124.130">  1 10  2 -1</clus>
<clus scale="  215.053">  2  5  1 -1</clus>
<clus scale="   60.383">  1  5  2 -1</clus>
</clustering>
</event>
<event>
10    4  0.3043429E-005  0.1030340E+03  0.7546771E-02  0.1279165E+00
         21   -1    0    0  503  502  0.00000000000E+00  0.00000000000E+00  0.55684560937E+03  0.55684560937E+03  0.00000000000E+00 0. -1.
          2   -1    0    0  502    0 -0.00000000000E+00 -0.00000000000E+00 -0.22393501783E+03  0.22393501783E+03  0.00000000000E+00 0. -1.
         24    2    1    2    0    0  0.40777359783E+02  0.73189400655E+01  0.33756748583E+02  0.97205506848E+02  0.81197490923E+02 0.  0.
         23    2    1    2    0    0 -0.58156321590E+02 -0.26858047917E+02  0.21230835877E+03  0.24012741982E+03  0.92102258753E+02 0.  0.
        -11    1    3    3    0    0  0.62325850836E+01  0.39737666454E+02  0.29011382143E+02  0.49594228958E+02  0.00000000000E+00 0.  1.
         12    1    3    3    0    0  0.34544774700E+02 -0.32418726389E+02  0.47453664394E+01  0.47611277890E+02  0.00000000000E+00 0. -1.
        -11    1    4    4    0    0 -0.59166180649E+02  0.22141668062E+02  0.11840432951E+03  0.13420311339E+03  0.00000000000E+00 0.  1.
         11    1    4    4    0    0  0.10098590583E+01 -0.48999715979E+02  0.93904029262E+02  0.10592430643E+03  0.00000000000E+00 0. -1.
         21    1    1    2  503  501 -0.16648254912E+02 -0.46291213943E+02  0.25499300110E+03  0.25969495853E+03  0.00000000000E+00 0. -1.
          1    1    1    2  501    0  0.34027216719E+02  0.65830321795E+02 -0.16814751691E+03  0.18375274199E+03  0.00000000000E+00 0. -1.
<scales pt_clust_5="13000.00000" pt_clust_6="13000.00000" pt_clust_7="13000.00000" pt_clust_8="13000.00000" pt_clust_9="49.19391" pt_clust_10="72.83429"></scales>
<clustering>
<clus scale="   49.194">  1  9  2 -1</clus>
<clus scale="   72.834">  1 10  2 -1</clus>
<clus scale="   81.197">  5  6 -1 -1</clus>
<clus scale="   92.102">  7  8 -1 -1</clus>
<clus scale="   93.414">  2  5  1 -1</clus>
<clus scale="   49.194">  1  5  2 -1</clus>
</clustering>
</event>
<event>
10    4  0.3043429E-005  0.1589203E+03  0.7546771E-02  0.1203237E+00
         21   -1    0    0  503  502  0.00000000000E+00  0.00000000000E+00  0.44869017070E+03  0.44869017070E+03  0.00000000000E+00 0.  1.
         -3   -1    0    0    0  501 -0.00000000000E+00 -0.00000000000E+00 -0.43576753793E+03  0.43576753793E+03  0.00000000000E+00 0.  1.
         23    2    1    2    0    0 -0.50342643540E+02  0.31385728080E+02  0.85294814544E+02  0.13815335795E+03  0.91058768053E+02 0.  0.
         24    2    1    2    0    0 -0.73526950060E+02 -0.61166940761E+02 -0.35087544368E+03  0.37232398703E+03  0.79774477834E+02 0.  0.
        -13    1    4    4    0    0 -0.31300661747E+01 -0.48482509119E+02 -0.19263893847E+03  0.19867086253E+03  0.00000000000E+00 0.  1.
         14    1    4    4    0    0 -0.70396883885E+02 -0.12684431642E+02 -0.15823650521E+03  0.17365312450E+03  0.00000000000E+00 0. -1.
        -11    1    3    3    0    0 -0.51627664213E+02  0.58545023735E+02  0.77197955044E+02  0.10978369542E+03  0.00000000000E+00 0.  1.
         11    1    3    3    0    0  0.12850206725E+01 -0.27159295655E+02  0.80968594996E+01  0.28369662535E+02  0.00000000000E+00 0. -1.
         21    1    1    2  503  501 -0.54565087234E+02  0.27256245867E+02  0.29816990875E+02  0.67891859810E+02  0.00000000000E+00 0.  1.
         -4    1    1    2    0  502  0.17843468083E+03  0.25249668138E+01  0.24868627103E+03  0.30608850383E+03  0.00000000000E+00 0.  1.
<scales pt_clust_5="13000.00000" pt_clust_6="13000.00000" pt_clust_7="13000.00000" pt_clust_8="13000.00000" pt_clust_9="60.99387" pt_clust_10="137.44709"></scales>
<clustering>
<clus scale="   60.994">  1  9  2 -1</clus>
<clus scale="   79.774">  5  6 -1 -1</clus>
<clus scale="   91.059">  7  8 -1 -1</clus>
<clus scale="  118.806">  2  7  1 -1</clus>
<clus scale="  137.447">  1 10  2 -1</clus>
<clus scale="   60.994">  1  5  2 -1</clus>
</clustering>
</event>
<event>
10    4  0.3043429E-005  0.1834550E+03  0.7546771E-02  0.1195224E+00
         21   -1    0    0  501  502  0.00000000000E+00  0.00000000000E+00  0.35969138788E+03  0.35969138788E+03  0.00000000000E+00 0. -1.
          2   -1    0    0  503    0 -0.00000000000E+00 -0.00000000000E+00 -0.49527076168E+03  0.49527076168E+03  0.00000000000E+00 0. -1.
         24    2    1    2    0    0  0.21581821026E+02 -0.15008146290E+02  0.16309082821E+02  0.85617371946E+02  0.79833130608E+02 0.  0.
         23    2    1    2    0    0 -0.15053108969E+03 -0.12030157576E+03 -0.37820146044E+03  0.43395886073E+03  0.90287706973E+02 0.  0.
        -13    1    3    3    0    0 -0.19367245689E+01 -0.25324688213E+02 -0.25857861781E+02  0.36245272120E+02  0.00000000000E+00 0.  1.
         14    1    3    3    0    0  0.23518545594E+02  0.10316541923E+02  0.42166944602E+02  0.49372099826E+02  0.00000000000E+00 0. -1.
        -11    1    4    4    0    0 -0.69125200969E+02 -0.10593830746E+03 -0.18827601894E+03  0.22682389139E+03  0.00000000000E+00 0. -1.
         11    1    4    4    0    0 -0.81405888718E+02 -0.14363268304E+02 -0.18992544150E+03  0.20713496934E+03  0.00000000000E+00 0.  1.
         21    1    1    2  503  502  0.74778810286E+02  0.21119347640E+02  0.18783143577E+03  0.20326963761E+03  0.00000000000E+00 0. -1.
          1    1    1    2  501    0  0.54170458376E+02  0.11419037441E+03  0.38481568058E+02  0.13211627927E+03  0.00000000000E+00 0. -1.
<scales pt_clust_5="13000.00000" pt_clust_6="13000.00000" pt_clust_7="13000.00000" pt_clust_8="13000.00000" pt_clust_9="77.70391" pt_clust_10="159.69929"></scales>
<clustering>
<clus scale="   77.704">  1  9  2 -1</clus>
<clus scale="   79.833">  5  6 -1 -1</clus>
<clus scale="   90.288">  7  8 -1 -1</clus>
<clus scale="   91.933">  2  5  1 -1</clus>
<clus scale="  159.699">  1 10  2 -1</clus>
<clus scale="   77.704">  1  5  2 -1</clus>
</clustering>
</event>
<event>
10    4  0.3043429E-005  0.1427959E+03  0.7546771E-02  0.1211206E+00
          2   -1    0    0  503    0 -0.00000000000E+00  0.00000000000E+00  0.37907993620E+03  0.37907993620E+03  0.00000000000E+00 0. -1.
         21   -1    0    0  501  502  0.00000000000E+00 -0.00000000000E+00 -0.17334615714E+03  0.17334615714E+03  0.00000000000E+00 0.  1.
         24    2    1    2    0    0  0.74383183914E+02  0.10863887872E+03  0.15849516654E+03  0.22234335577E+03  0.83549901389E+02 0.  0.
         23    2    1    2    0    0 -0.50108897274E+01 -0.60106052651E+02 -0.46259708247E+02  0.11873023728E+03  0.91208892420E+02 0.  0.
        -13    1    3    3    0    0  0.85326299854E+02  0.11505103776E+03  0.14638712853E+03  0.20480847184E+03  0.00000000000E+00 0.  1.
         14    1    3    3    0    0 -0.10943115941E+02 -0.64121590485E+01  0.12108038009E+02  0.17534883934E+02  0.00000000000E+00 0. -1.
        -13    1    4    4    0    0 -0.37309392328E+02  0.20140955075E+01 -0.27050703081E+02  0.46127951112E+02  0.00000000000E+00 0. -1.
         13    1    4    4    0    0  0.32298502601E+02 -0.62120148158E+02 -0.19209005166E+02  0.72602286169E+02  0.00000000000E+00 0.  1.
         21    1    1    2  503  502  0.32825950485E+01  0.23248437091E+02 -0.38110657111E+02  0.44762567429E+02  0.00000000000E+00 0. -1.
          1    1    1    2  501    0 -0.72654889235E+02 -0.71781263156E+02  0.13160897788E+03  0.16658993286E+03  0.00000000000E+00 0. -1.
<scales pt_clust_5="13000.00000" pt_clust_6="13000.00000" pt_clust_7="13000.00000" pt_clust_8="13000.00000" pt_clust_9="23.47904" pt_clust_10="99.67542"></scales>
<clustering>
<clus scale="   23.479">  2  9  1 -1</clus>
<clus scale="   83.550">  5  6 -1 -1</clus>
<clus scale="   91.209">  7  8 -1 -1</clus>
<clus scale="   99.675">  2 10  1 -1</clus>
<clus scale="  138.030">  1  5  2 -1</clus>
<clus scale="   23.479">  2  5  1 -1</clus>
</clustering>
</event>
<event>
10    4  0.3043429E-005  0.1784572E+03  0.7546771E-02  0.1203169E+00
         21   -1    0    0  501  502  0.00000000000E+00  0.00000000000E+00  0.14538573405E+03  0.14538573405E+03  0.00000000000E+00 0. -1.
          2   -1    0    0  503    0 -0.00000000000E+00 -0.00000000000E+00 -0.60482286798E+03  0.60482286798E+03  0.00000000000E+00 0. -1.
         24    2    1    2    0    0  0.31105746449E+02 -0.57772531650E+01 -0.34515389691E+02  0.90838088961E+02  0.77841519540E+02 0.  0.
         23    2    1    2    0    0  0.17656976494E+03 -0.11104782268E+02 -0.18256910993E+03  0.26871771316E+03  0.87049017152E+02 0.  0.
        -11    1    3    3    0    0  0.12338468211E+02  0.26237815865E+02 -0.43852724860E+02  0.52571116184E+02  0.00000000000E+00 0.  1.
         12    1    3    3    0    0  0.18767278238E+02 -0.32015069030E+02  0.93373351692E+01  0.38266972777E+02  0.00000000000E+00 0. -1.
        -11    1    4    4    0    0  0.11374900491E+03 -0.48686403357E+02 -0.12105384997E+03  0.17309892138E+03  0.00000000000E+00 0. -1.
         11    1    4    4    0    0  0.62820760026E+02  0.37581621090E+02 -0.61515259958E+02  0.95618791781E+02  0.00000000000E+00 0.  1.
         21    1    1    2  503  502 -0.12008757621E+03 -0.35301683822E+02  0.27412625205E+01  0.12519883930E+03  0.00000000000E+00 0. -1.
          1    1    1    2  501    0 -0.87587935175E+02  0.52183719255E+02 -0.24509389683E+03  0.26545396061E+03  0.00000000000E+00 0. -1.
<scales pt_clust_5="13000.00000" pt_clust_6="13000.00000" pt_clust_7="13000.00000" pt_clust_8="13000.00000" pt_clust_9="155.78652" pt_clust_10="88.13120"></scales>
<clustering>
<clus scale="   77.842">  5  6 -1 -1</clus>
<clus scale="   84.025">  2  5  1 -1</clus>
<clus scale="   87.049">  7  8 -1 -1</clus>
<clus scale="   88.131">  1 10  2 -1</clus>
<clus scale="  155.787">  1  9  2 -1</clus>
<clus scale="   88.131">  1  5  2 -1</clus>
</clustering>
</event>
<event>
10    4  0.3043429E-005  0.9587494E+02  0.7546771E-02  0.1296663E+00
         21   -1    0    0  501  502  0.00000000000E+00  0.00000000000E+00  0.93835157299E+02  0.93835157299E+02  0.00000000000E+00 0.  1.
         -3   -1    0    0    0  501 -0.00000000000E+00 -0.00000000000E+00 -0.18535321118E+03  0.18535321118E+03  0.00000000000E+00 0.  1.
         23    2    1    2    0    0  0.12973169940E+01 -0.19709491463E+01 -0.44727284716E+02  0.10354724057E+03  0.93359163233E+02 0.  0.
         24    2    1    2    0    0 -0.27327135336E+01 -0.48638444748E+02 -0.32953193401E+02  0.99733549212E+02  0.80546271499E+02 0.  0.
        -13    1    4    4    0    0  0.30849471354E+02  0.38734588705E+01 -0.16810629967E+02  0.35345308689E+02  0.00000000000E+00 0.  1.
         14    1    4    4    0    0 -0.33582184887E+02 -0.52511903619E+02 -0.16142563434E+02  0.64388240523E+02  0.00000000000E+00 0. -1.
        -13    1    3    3    0    0  0.80865738329E+01  0.20083381400E+02  0.23244414069E+02  0.31765353299E+02  0.00000000000E+00 0. -1.
         13    1    3    3    0    0 -0.67892568389E+01 -0.22054330547E+02 -0.67971698786E+02  0.71781887270E+02  0.00000000000E+00 0.  1.
         21    1    1    2  503  502 -0.23602708659E+02  0.13965826763E+02  0.46746400170E+01  0.27820575704E+02  0.00000000000E+00 0.  1.
         -4    1    1    2    0  503  0.25038105198E+02  0.36643567131E+02 -0.18512215784E+02  0.48087002997E+02  0.00000000000E+00 0.  1.
<scales pt_clust_5="13000.00000" pt_clust_6="13000.00000" pt_clust_7="13000.00000" pt_clust_8="13000.00000" pt_clust_9="27.42503" pt_clust_10="44.34848"></scales>
<clustering>
<clus scale="   27.425">  1  9  2 -1</clus>
<clus scale="   44.348">  1 10  2 -1</clus>
<clus scale="   80.546">  5  6 -1 -1</clus>
<clus scale="   83.449">  1  5  2 -1</clus>
<clus scale="   93.359">  7  8 -1 -1</clus>
<clus scale="   27.425">  1  5  2 -1</clus>
</clustering>
</event>
<event>
10    4  0.3043429E-005  0.1380314E+03  0.7546771E-02  0.1226217E+00
          2   -1    0    0  503    0 -0.00000000000E+00  0.00000000000E+00  0.28678795535E+03  0.28678795535E+03  0.00000000000E+00 0. -1.
         21   -1    0    0  501  502  0.00000000000E+00 -0.00000000000E+00 -0.31284859062E+03  0.31284859062E+03  0.00000000000E+00 0. -1.
         23    2    1    2    0    0  0.69908648222E+02 -0.60685226830E+01  0.18395041818E+03  0.21494778819E+03  0.86259777613E+02 0.  0.
         24    2    1    2    0    0  0.82582886323E+02 -0.11688148012E+02 -0.10030772572E+03  0.15449462414E+03  0.82767162151E+02 0.  0.
        -13    1    4    4    0    0  0.85429094026E+02 -0.19704611651E+01 -0.41819132133E+02  0.95135969200E+02  0.00000000000E+00 0.  1.
         14    1    4    4    0    0 -0.28462077027E+01 -0.97176868465E+01 -0.58488593590E+02  0.59358654938E+02  0.00000000000E+00 0. -1.
        -11    1    3    3    0    0  0.58775397958E+02 -0.42821467515E+02  0.12408890667E+03  0.14382726530E+03  0.00000000000E+00 0.  1.
         11    1    3    3    0    0  0.11133250263E+02  0.36752944832E+02  0.59861511509E+02  0.71120522885E+02  0.00000000000E+00 0. -1.
         21    1    1    2  503  502  0.74770964935E+01  0.18642893638E+02 -0.59084600994E+02  0.62405564895E+02  0.00000000000E+00 0. -1.
          1    1    1    2  501    0 -0.15996863104E+03 -0.88622294354E+00 -0.50618726730E+02  0.16778856875E+03  0.00000000000E+00 0. -1.
<scales pt_clust_5="13000.00000" pt_clust_6="13000.00000" pt_clust_7="13000.00000" pt_clust_8="13000.00000" pt_clust_9="20.08642" pt_clust_10="110.46390"></scales>
<clustering>
<clus scale="   20.086">  2  9  1 -1</clus>
<clus scale="   82.767">  5  6 -1 -1</clus>
<clus scale="   86.260">  7  8 -1 -1</clus>
<clus scale="  111.430">  1  7  2 -1</clus>
<clus scale="  110.464">  2 10  1 -1</clus>
<clus scale="   20.086">  2  5  1 -1</clus>
</clustering>
</event>
<event>
10    4  0.3043429E-005  0.2349775E+03  0.7546771E-02  0.1123822E+00
         21   -1    0    0  501  502  0.00000000000E+00  0.00000000000E+00  0.17820204414E+03  0.17820204414E+03  0.00000000000E+00 0. -1.
          2   -1    0    0  503    0 -0.00000000000E+00 -0.00000000000E+00 -0.89444648078E+03  0.89444648078E+03  0.00000000000E+00 0. -1.
         24    2    1    2    0    0 -0.11642252444E+03 -0.12714087133E+03 -0.26661806249E+03  0.32851143323E+03  0.84353809380E+02 0.  0.
         23    2    1    2    0    0  0.14235406829E+03  0.24354049344E+03 -0.43571673896E+03  0.52750594254E+03  0.94004202577E+02 0.  0.
        -13    1    3    3    0    0 -0.49918660154E+02 -0.10192297811E+03 -0.11782867917E+03  0.16359634389E+03  0.00000000000E+00 0.  1.
         14    1    3    3    0    0 -0.66503864287E+02 -0.25217893220E+02 -0.14878938332E+03  0.16491508934E+03  0.00000000000E+00 0. -1.
        -13    1    4    4    0    0  0.25305761175E+02  0.28113044731E+02 -0.13128283111E+03  0.13662322854E+03  0.00000000000E+00 0.  1.
         13    1    4    4    0    0  0.11704830711E+03  0.21542744871E+03 -0.30443390785E+03  0.39088271400E+03  0.00000000000E+00 0. -1.
         21    1    1    2  503  502 -0.20314290140E+02 -0.40492675746E+02  0.82305496402E+02  0.93949571106E+02  0.00000000000E+00 0. -1.
          1    1    1    2  501    0 -0.56172537048E+01 -0.75906946358E+02 -0.96215131592E+02  0.12268157805E+03  0.00000000000E+00 0. -1.
<scales pt_clust_5="13000.00000" pt_clust_6="13000.00000" pt_clust_7="13000.00000" pt_clust_8="13000.00000" pt_clust_9="45.30262" pt_clust_10="82.30660"></scales>
<clustering>
<clus scale="   45.303">  1  9  2 -1</clus>
<clus scale="   82.307">  1 10  2 -1</clus>
<clus scale="   84.354">  5  6 -1 -1</clus>
<clus scale="   94.004">  7  8 -1 -1</clus>
<clus scale="  231.286">  2  5  1 -1</clus>
<clus scale="   45.303">  1  5  2 -1</clus>
</clustering>
</event>
<event>
10    4  0.3043429E-005  0.1777757E+03  0.7546771E-02  0.1170885E+00
          2   -1    0    0  502    0 -0.00000000000E+00  0.00000000000E+00  0.45856560064E+03  0.45856560064E+03  0.00000000000E+00 0. -1.
         21   -1    0    0  503  502  0.00000000000E+00 -0.00000000000E+00 -0.15421561432E+03  0.15421561432E+03  0.00000000000E+00 0. -1.
         24    2    1    2    0    0  0.13016917862E+03  0.94412023005E+02  0.27068604809E+03  0.32570938792E+03  0.83414768460E+02 0.  0.
         23    2    1    2    0    0 -0.92094747311E+02 -0.10643197622E+03  0.88990967303E+02  0.18967550622E+03  0.90819586852E+02 0.  0.
        -13    1    3    3    0    0  0.36385083686E+02  0.34516424679E+02  0.25087549646E+02  0.56077116854E+02  0.00000000000E+00 0.  1.
         14    1    3    3    0    0  0.93784094933E+02  0.59895598326E+02  0.24559849844E+03  0.26963227106E+03  0.00000000000E+00 0. -1.
        -13    1    4    4    0    0 -0.51792889483E+02 -0.48731177478E+02 -0.60953049091E+01  0.71374952199E+02  0.00000000000E+00 0. -1.
         13    1    4    4    0    0 -0.40301857828E+02 -0.57700798742E+02  0.95086272212E+02  0.11830055403E+03  0.00000000000E+00 0.  1.
         21    1    1    2  503  501 -0.10262006921E+02  0.29824775504E+02 -0.56105874844E+02  0.64363772512E+02  0.00000000000E+00 0. -1.
          1    1    1    2  501    0 -0.27812424387E+02 -0.17804822289E+02  0.77884577453E+00  0.33032548309E+02  0.00000000000E+00 0. -1.
<scales pt_clust_5="13000.00000" pt_clust_6="13000.00000" pt_clust_7="13000.00000" pt_clust_8="13000.00000" pt_clust_9="31.54086" pt_clust_10="32.17985"></scales>
<clustering>
<clus scale="   31.541">  2  9  1 -1</clus>
<clus scale="   32.180">  2 10  1 -1</clus>
<clus scale="   83.415">  5  6 -1 -1</clus>
<clus scale="   90.820">  7  8 -1 -1</clus>
<clus scale="  174.109">  1  5  2 -1</clus>
<clus scale="   31.541">  2  5  1 -1</clus>
</clustering>
</event>
<event>
10    4  0.3043429E-005  0.1549148E+03  0.7546771E-02  0.1218694E+00
         21   -1    0    0  501  502  0.00000000000E+00  0.00000000000E+00  0.25265694511E+03  0.25265694511E+03  0.00000000000E+00 0.  1.
          2   -1    0    0  503    0 -0.00000000000E+00 -0.00000000000E+00 -0.32936889943E+03  0.32936889943E+03  0.00000000000E+00 0. -1.
         24    2    1    2    0    0  0.29511874402E+02  0.25118707109E+01 -0.10664810148E+02  0.92108258499E+02  0.86561728743E+02 0.  0.
         23    2    1    2    0    0  0.14113275113E+02  0.12642290934E+03 -0.10494064766E+03  0.18702043963E+03  0.88216601415E+02 0.  0.
        -13    1    3    3    0    0 -0.21589628007E+02  0.30484461415E+01 -0.30327414727E+02  0.37351802438E+02  0.00000000000E+00 0.  1.
         14    1    3    3    0    0  0.51101502409E+02 -0.53657543067E+00  0.19662604578E+02  0.54756456061E+02  0.00000000000E+00 0. -1.
        -13    1    4    4    0    0  0.49830963369E+02  0.84164592169E+02 -0.79856595218E+02  0.12626907494E+03  0.00000000000E+00 0.  1.
         13    1    4    4    0    0 -0.35717688257E+02  0.42258317172E+02 -0.25084052445E+02  0.60751364690E+02  0.00000000000E+00 0. -1.
         21    1    1    2  503  502 -0.58230675222E+02 -0.10664514937E+03  0.14748069083E+03  0.19108781643E+03  0.00000000000E+00 0.  1.
          1    1    1    2  501    0  0.14605525707E+02 -0.22289630679E+02 -0.10858718733E+03  0.11180932998E+03  0.00000000000E+00 0. -1.
<scales pt_clust_5="13000.00000" pt_clust_6="13000.00000" pt_clust_7="13000.00000" pt_clust_8="13000.00000" pt_clust_9="127.34367" pt_clust_10="26.64863"></scales>
<clustering>
<clus scale="   26.649">  1 10  2 -1</clus>
<clus scale="   86.562">  5  6 -1 -1</clus>
<clus scale="   88.217">  7  8 -1 -1</clus>
<clus scale="   92.253">  2  5  1 -1</clus>
<clus scale="  127.344">  1  9  2 -1</clus>
<clus scale="   26.649">  1  5  2 -1</clus>
</clustering>
</event>
<event>
10    4  0.3043429E-005  0.1737729E+03  0.7546771E-02  0.1195330E+00
          2   -1    0    0  503    0 -0.00000000000E+00  0.00000000000E+00  0.81784847670E+03  0.81784847670E+03  0.00000000000E+00 0. -1.
         21   -1    0    0  501  502  0.00000000000E+00 -0.00000000000E+00 -0.12541948625E+03  0.12541948625E+03  0.00000000000E+00 0. -1.
         24    2    1    2    0    0 -0.69356861651E+02  0.26652079395E+02  0.42474247333E+03  0.43837626260E+03  0.79037151806E+02 0.  0.
         23    2    1    2    0    0 -0.10975119204E+03 -0.10088585201E+03  0.11466945200E+03  0.20781580489E+03  0.88402750239E+02 0.  0.
        -11    1    3    3    0    0 -0.54731806232E+02  0.57691955260E+01  0.11399616264E+03  0.12658585754E+03  0.00000000000E+00 0.  1.
         12    1    3    3    0    0 -0.14625055418E+02  0.20882883869E+02  0.31074631068E+03  0.31179040506E+03  0.00000000000E+00 0. -1.
        -11    1    4    4    0    0 -0.49342854821E+02  0.42505938251E+00  0.10501233268E+02  0.50449716525E+02  0.00000000000E+00 0.  1.
         11    1    4    4    0    0 -0.60408337215E+02 -0.10131091139E+03  0.10416821873E+03  0.15736608836E+03  0.00000000000E+00 0. -1.
         21    1    1    2  503  502  0.17762962430E+02  0.16574209489E+02 -0.35060320131E+02  0.42655050137E+02  0.00000000000E+00 0. -1.
          1    1    1    2  501    0  0.16134509126E+03  0.57659563128E+02  0.18807738525E+03  0.25442084532E+03  0.00000000000E+00 0. -1.
<scales pt_clust_5="13000.00000" pt_clust_6="13000.00000" pt_clust_7="13000.00000" pt_clust_8="13000.00000" pt_clust_9="24.29459" pt_clust_10="149.60608"></scales>
<clustering>
<clus scale="   24.295">  2  9  1 -1</clus>
<clus scale="   79.037">  5  6 -1 -1</clus>
<clus scale="   88.403">  7  8 -1 -1</clus>
<clus scale="  107.920">  1  5  2 -1</clus>
<clus scale="  149.606">  2 10  1 -1</clus>
<clus scale="   24.295">  2  5  1 -1</clus>
</clustering>
</event>
<event>
10    4  0.3043429E-005  0.2536354E+03  0.7546771E-02  0.1111575E+00
         21   -1    0    0  501  502  0.00000000000E+00  0.00000000000E+00  0.20451959644E+03  0.20451959644E+03  0.00000000000E+00 0. -1.
          2   -1    0    0  503    0 -0.00000000000E+00 -0.00000000000E+00 -0.85467570616E+03  0.85467570616E+03  0.00000000000E+00 0. -1.
         24    2    1    2    0    0 -0.10768918512E+03 -0.19405242019E+03 -0.13144639603E+03  0.27007782979E+03  0.80066077377E+02 0.  0.
         23    2    1    2    0    0  0.20107671999E+03  0.18205022592E+03 -0.53685530454E+02  0.29090741721E+03  0.90392793553E+02 0.  0.
        -11    1    3    3    0    0 -0.99516676802E+02 -0.10184023653E+03 -0.67599159562E+02  0.15762185480E+03  0.00000000000E+00 0.  1.
         12    1    3    3    0    0 -0.81725083145E+01 -0.92212183657E+02 -0.63847236467E+02  0.11245597499E+03  0.00000000000E+00 0. -1.
        -11    1    4    4    0    0  0.66072431950E+02  0.29776888784E+02 -0.48753696996E+02  0.87345018977E+02  0.00000000000E+00 0.  1.
         11    1    4    4    0    0  0.13500428805E+03  0.15227333713E+03 -0.49318334586E+01  0.20356239823E+03  0.00000000000E+00 0. -1.
         21    1    1    2  503  502  0.95257477762E+01 -0.21027865160E+02 -0.24939773890E+01  0.23219192645E+02  0.00000000000E+00 0.  1.
          1    1    1    2  501    0 -0.10291328265E+03  0.33030059430E+02 -0.46253020584E+03  0.47499086295E+03  0.00000000000E+00 0. -1.
<scales pt_clust_5="13000.00000" pt_clust_6="13000.00000" pt_clust_7="13000.00000" pt_clust_8="13000.00000" pt_clust_9="23.08486" pt_clust_10="107.58809"></scales>
<clustering>
<clus scale="   23.085">  1  9  2 -1</clus>
<clus scale="   80.066">  5  6 -1 -1</clus>
<clus scale="   90.393">  7  8 -1 -1</clus>
<clus scale="  107.588">  1 10  2 -1</clus>
<clus scale="  250.141">  2  5  1 -1</clus>
<clus scale="   23.085">  1  5  2 -1</clus>
</clustering>
</event>
<event>
10    4  0.3043429E-005  0.2293790E+03  0.7546771E-02  0.1127853E+00
          2   -1    0    0  503    0 -0.00000000000E+00  0.00000000000E+00  0.68951884032E+03  0.68951884032E+03  0.00000000000E+00 0. -1.
         21   -1    0    0  501  502  0.00000000000E+00 -0.00000000000E+00 -0.43169346549E+03  0.43169346549E+03  0.00000000000E+00 0. -1.
         24    2    1    2    0    0  0.22836271125E+03  0.12066103172E+03  0.35576667769E+03  0.44673499900E+03  0.79332325775E+02 0.  0.
         23    2    1    2    0    0 -0.17534938387E+03  0.86574069225E+02  0.10203168275E+03  0.23858073347E+03  0.90927587729E+02 0.  0.
        -13    1    3    3    0    0  0.55454050716E+02 -0.20234984086E+01  0.10147262391E+03  0.11565439762E+03  0.00000000000E+00 0.  1.
         14    1    3    3    0    0  0.17290866053E+03  0.12268453013E+03  0.25429405378E+03  0.33108060138E+03  0.00000000000E+00 0. -1.
        -13    1    4    4    0    0 -0.26224104080E+02 -0.11999035173E+02  0.40107498890E+02  0.49399311201E+02  0.00000000000E+00 0.  1.
         13    1    4    4    0    0 -0.14912527979E+03  0.98573104398E+02  0.61924183856E+02  0.18918142227E+03  0.00000000000E+00 0. -1.
         21    1    1    2  503  502 -0.52644112243E+02 -0.58250193700E+02 -0.26274658601E+03  0.27422665093E+03  0.00000000000E+00 0. -1.
          1    1    1    2  501    0 -0.36921512841E+00 -0.14898490725E+03  0.62773600396E+02  0.16166992241E+03  0.00000000000E+00 0. -1.
<scales pt_clust_5="13000.00000" pt_clust_6="13000.00000" pt_clust_7="13000.00000" pt_clust_8="13000.00000" pt_clust_9="78.51425" pt_clust_10="167.43067"></scales>
<clustering>
<clus scale="   78.514">  2  9  1 -1</clus>
<clus scale="   79.332">  5  6 -1 -1</clus>
<clus scale="   90.928">  7  8 -1 -1</clus>
<clus scale="  167.431">  2 10  1 -1</clus>
<clus scale="  225.035">  1  5  2 -1</clus>
<clus scale="   78.514">  2  5  1 -1</clus>
</clustering>
</event>
<event>
10    4  0.3043429E-005  0.3470484E+03  0.7546771E-02  0.1064248E+00
          2   -1    0    0  502    0 -0.00000000000E+00  0.00000000000E+00  0.14546095904E+04  0.14546095904E+04  0.00000000000E+00 0. -1.
         21   -1    0    0  503  502  0.00000000000E+00 -0.00000000000E+00 -0.17959265800E+03  0.17959265800E+03  0.00000000000E+00 0.  1.
         24    2    1    2    0    0 -0.17121755139E+03 -0.31907285169E+03  0.80073813519E+03  0.88254763822E+03  0.81153176135E+02 0.  0.
         23    2    1    2    0    0  0.28222466423E+03  0.15096340657E+03  0.32824486518E+03  0.46852243675E+03  0.96580903884E+02 0.  0.
        -13    1    3    3    0    0 -0.35920127320E+02 -0.16298032662E+02  0.87779516324E+02  0.96234738538E+02  0.00000000000E+00 0.  1.
         14    1    3    3    0    0 -0.13529742407E+03 -0.30277481903E+03  0.71295861886E+03  0.78631289968E+03  0.00000000000E+00 0. -1.
        -11    1    4    4    0    0  0.26258838165E+03  0.10226139038E+03  0.27545872333E+03  0.39406542401E+03  0.00000000000E+00 0.  1.
         11    1    4    4    0    0  0.19636282581E+02  0.48702016192E+02  0.52786141847E+02  0.74457012737E+02  0.00000000000E+00 0. -1.
         21    1    1    2  503  501 -0.30916834653E+02  0.15690809048E+02 -0.23192357101E+02  0.41712559037E+02  0.00000000000E+00 0.  1.
          1    1    1    2  501    0 -0.80090278190E+02  0.15241863607E+03  0.16922628917E+03  0.24141961443E+03  0.00000000000E+00 0. -1.
<scales pt_clust_5="13000.00000" pt_clust_6="13000.00000" pt_clust_7="13000.00000" pt_clust_8="13000.00000" pt_clust_9="34.67062" pt_clust_10="179.18299"></scales>
<clustering>
<clus scale="   34.671">  2  9  1 -1</clus>
<clus scale="   81.153">  5  6 -1 -1</clus>
<clus scale="   96.581">  7  8 -1 -1</clus>
<clus scale="  179.183">  2 10  1 -1</clus>
<clus scale="  343.075">  1  5  2 -1</clus>
<clus scale="   34.671">  2  5  1 -1</clus>
</clustering>
</event>
<event>
10    4  0.3043429E-005  0.1207853E+03  0.7546771E-02  0.1245765E+00
          2   -1    0    0  502    0 -0.00000000000E+00  0.00000000000E+00  0.46059309645E+03  0.46059309645E+03  0.00000000000E+00 0. -1.
         21   -1    0    0  503  502  0.00000000000E+00 -0.00000000000E+00 -0.10612930686E+03  0.10612930686E+03  0.00000000000E+00 0.  1.
         24    2    1    2    0    0  0.10189836447E+03  0.28098649465E+02  0.31633974613E+03  0.34303419113E+03  0.80179863584E+02 0.  0.
         23    2    1    2    0    0 -0.23693794276E+02 -0.10133708213E+02  0.69483242754E+02  0.11863901714E+03  0.92645601270E+02 0.  0.
        -11    1    3    3    0    0 -0.34550002150E+01  0.26563584860E+02  0.77071745976E+02  0.81594209935E+02  0.00000000000E+00 0.  1.
         12    1    3    3    0    0  0.10535336468E+03  0.15350646052E+01  0.23926800015E+03  0.26143998120E+03  0.00000000000E+00 0. -1.
        -13    1    4    4    0    0 -0.34800652995E+01  0.27097798196E+02 -0.95713077923E+01  0.28948427495E+02  0.00000000000E+00 0.  1.
         13    1    4    4    0    0 -0.20213728976E+02 -0.37231506409E+02  0.79054550546E+02  0.89690589644E+02  0.00000000000E+00 0. -1.
         21    1    1    2  503  501 -0.17229313953E+02 -0.21654723388E+02 -0.34082064412E+02  0.43901747333E+02  0.00000000000E+00 0.  1.
          1    1    1    2  501    0 -0.60975256236E+02  0.36897821358E+01  0.27228651204E+01  0.61147447696E+02  0.00000000000E+00 0. -1.
<scales pt_clust_5="13000.00000" pt_clust_6="13000.00000" pt_clust_7="13000.00000" pt_clust_8="13000.00000" pt_clust_9="27.67266" pt_clust_10="68.71148"></scales>
<clustering>
<clus scale="   27.673">  2  9  1 -1</clus>
<clus scale="   68.711">  2 10  1 -1</clus>
<clus scale="   80.180">  5  6 -1 -1</clus>
<clus scale="   92.646">  7  8 -1 -1</clus>
<clus scale="  111.511">  1  5  2 -1</clus>
<clus scale="   27.673">  2  5  1 -1</clus>
</clustering>
</event>
<event>
10    4  0.3043429E-005  0.2036895E+03  0.7546771E-02  0.1166185E+00
         21   -1    0    0  503  502  0.00000000000E+00  0.00000000000E+00  0.18001154015E+03  0.18001154015E+03  0.00000000000E+00 0. -1.
          2   -1    0    0  502    0 -0.00000000000E+00 -0.00000000000E+00 -0.52024603681E+03  0.52024603681E+03  0.00000000000E+00 0. -1.
         24    2    1    2    0    0  0.14237574510E+02 -0.96104232919E+02 -0.15767121954E+03  0.20233707343E+03  0.81494451975E+02 0.  0.
         23    2    1    2    0    0  0.16034663830E+03  0.81227782486E+02 -0.15245830515E+03  0.25296128031E+03  0.91852476657E+02 0.  0.
        -13    1    3    3    0    0 -0.18173515608E+02 -0.23540949231E+02 -0.49135090410E+01  0.30142918428E+02  0.00000000000E+00 0.  1.
         14    1    3    3    0    0  0.32411090119E+02 -0.72563283689E+02 -0.15275771050E+03  0.17219415501E+03  0.00000000000E+00 0. -1.
        -13    1    4    4    0    0 -0.98676186526E+01  0.17523152211E+02 -0.15403919999E+02  0.25332025435E+02  0.00000000000E+00 0.  1.
         13    1    4    4    0    0  0.17021425695E+03  0.63704630274E+02 -0.13705438515E+03  0.22762925488E+03  0.00000000000E+00 0. -1.
         21    1    1    2  503  501  0.29989141594E+02 -0.16121184389E+02 -0.15861756860E+02  0.37561103955E+02  0.00000000000E+00 0.  1.
          1    1    1    2  501    0 -0.20457335440E+03  0.30997634822E+02 -0.14243215112E+02  0.20739811926E+03  0.00000000000E+00 0. -1.
<scales pt_clust_5="13000.00000" pt_clust_6="13000.00000" pt_clust_7="13000.00000" pt_clust_8="13000.00000" pt_clust_9="34.04763" pt_clust_10="181.80360"></scales>
<clustering>
<clus scale="   34.048">  1  9  2 -1</clus>
<clus scale="   81.494">  5  6 -1 -1</clus>
<clus scale="   91.852">  7  8 -1 -1</clus>
<clus scale="  128.927">  2  5  1 -1</clus>
<clus scale="  181.804">  1 10  2 -1</clus>
<clus scale="   34.048">  1  5  2 -1</clus>
</clustering>
</event>
<event>
10    4  0.3043429E-005  0.2731632E+03  0.7546771E-02  0.1099483E+00
          2   -1    0    0  503    0 -0.00000000000E+00  0.00000000000E+00  0.61600056472E+03  0.61600056472E+03  0.00000000000E+00 0. -1.
         21   -1    0    0  501  502  0.00000000000E+00 -0.00000000000E+00 -0.14425232619E+03  0.14425232619E+03  0.00000000000E+00 0. -1.
         24    2    1    2    0    0 -0.10628859277E+03  0.74658923223E+02  0.24684021875E+03  0.28826637042E+03  0.72774906057E+02 0.  0.
         23    2    1    2    0    0 -0.10162544777E+03 -0.19973993006E+02  0.14836122526E+03  0.20197203543E+03  0.89749417288E+02 0.  0.
        -11    1    3    3    0    0 -0.12912948238E+02  0.17352572968E+02  0.41937888059E+01  0.22032791139E+02  0.00000000000E+00 0.  1.
         12    1    3    3    0    0 -0.93375644534E+02  0.57306350255E+02  0.24264642994E+03  0.26623357928E+03  0.00000000000E+00 0. -1.
        -11    1    4    4    0    0 -0.95000464647E+01  0.19861176541E+02  0.73591875389E+02  0.76814590670E+02  0.00000000000E+00 0.  1.
         11    1    4    4    0    0 -0.92125401306E+02 -0.39835169547E+02  0.74769349872E+02  0.12515744476E+03  0.00000000000E+00 0. -1.
         21    1    1    2  503  502  0.46719252815E+02  0.40990226837E+02  0.51858673572E+02  0.80945718258E+02  0.00000000000E+00 0. -1.
          1    1    1    2  501    0  0.16119478773E+03 -0.95675157054E+02  0.24688120945E+02  0.18906876681E+03  0.00000000000E+00 0. -1.
<scales pt_clust_5="13000.00000" pt_clust_6="13000.00000" pt_clust_7="13000.00000" pt_clust_8="13000.00000" pt_clust_9="62.15213" pt_clust_10="191.53928"></scales>
<clustering>
<clus scale="   62.152">  1  9  2 -1</clus>
<clus scale="   72.775">  5  6 -1 -1</clus>
<clus scale="   89.749">  7  8 -1 -1</clus>
<clus scale="  120.358">  5  7 -1 -1</clus>
<clus scale="  191.539">  2 10  1 -1</clus>
<clus scale="  191.539">  2  5  1 -1</clus>
</clustering>
</event>
<event>
10    4  0.3043429E-005  0.1546198E+03  0.7546771E-02  0.1204518E+00
         -1   -1    0    0    0  501 -0.00000000000E+00  0.00000000000E+00  0.30180285116E+03  0.30180285116E+03  0.00000000000E+00 0.  1.
         21   -1    0    0  501  502  0.00000000000E+00 -0.00000000000E+00 -0.25271498784E+03  0.25271498784E+03  0.00000000000E+00 0.  1.
         24    2    1    2    0    0 -0.90780971103E+02  0.15563815234E+02  0.12776287330E+03  0.17574488005E+03  0.77971110108E+02 0.  0.
         23    2    1    2    0    0 -0.38115859312E+01 -0.10426919267E+03 -0.18376866196E+02  0.14427690087E+03  0.97936316996E+02 0.  0.
        -11    1    3    3    0    0 -0.33326381896E+02  0.38818945018E+02  0.88946660589E+02  0.10261124038E+03  0.00000000000E+00 0.  1.
         12    1    3    3    0    0 -0.57454589207E+02 -0.23255129784E+02  0.38816212710E+02  0.73133639670E+02  0.00000000000E+00 0. -1.
        -13    1    4    4    0    0 -0.47221221797E+02 -0.27063287140E+02 -0.96449829283E+01  0.55274686742E+02  0.00000000000E+00 0.  1.
         13    1    4    4    0    0  0.43409635865E+02 -0.77205905528E+02 -0.87318832679E+01  0.89002214129E+02  0.00000000000E+00 0. -1.
         21    1    1    2  503  502 -0.55784441468E+02  0.12824223131E+02 -0.61502936652E+01  0.57569008337E+02  0.00000000000E+00 0.  1.
         -2    1    1    2    0  503  0.15037699850E+03  0.75881154303E+02 -0.54147850114E+02  0.17692704974E+03  0.00000000000E+00 0.  1.
<scales pt_clust_5="13000.00000" pt_clust_6="13000.00000" pt_clust_7="13000.00000" pt_clust_8="13000.00000" pt_clust_9="57.23954" pt_clust_10="119.64847"></scales>
<clustering>
<clus scale="   57.240">  2  9  1 -1</clus>
<clus scale="   77.971">  5  6 -1 -1</clus>
<clus scale="   97.936">  7  8 -1 -1</clus>
<clus scale="  125.480">  1  5  2 -1</clus>
<clus scale="  119.648">  2 10  1 -1</clus>
<clus scale="   57.240">  2  5  1 -1</clus>
</clustering>
</event>
<event>
10    4  0.3043429E-005  0.1689897E+03  0.7546771E-02  0.1188011E+00
          2   -1    0    0  502    0 -0.00000000000E+00  0.00000000000E+00  0.12485677797E+04  0.12485677797E+04  0.00000000000E+00 0. -1.
         21   -1    0    0  503  502  0.00000000000E+00 -0.00000000000E+00 -0.59099650919E+02  0.59099650919E+02  0.00000000000E+00 0. -1.
         23    2    1    2    0    0  0.71317601790E+02  0.79708736104E+02  0.55122616331E+03  0.56888859640E+03  0.91346970734E+02 0.  0.
         24    2    1    2    0    0 -0.11735548126E+03  0.88581464707E+02  0.38797972509E+03  0.42226179297E+03  0.78471458803E+02 0.  0.
        -11    1    4    4    0    0 -0.85340095987E+02  0.49451439948E+02  0.33418965648E+03  0.34844096113E+03  0.00000000000E+00 0.  1.
         12    1    4    4    0    0 -0.32015385269E+02  0.39130024759E+02  0.53790068610E+02  0.73820831834E+02  0.00000000000E+00 0. -1.
        -11    1    3    3    0    0  0.89055864928E+02  0.53227545444E+02  0.47623056993E+03  0.48740093805E+03  0.00000000000E+00 0. -1.
         11    1    3    3    0    0 -0.17738263138E+02  0.26481190660E+02  0.74995593379E+02  0.81487658355E+02  0.00000000000E+00 0.  1.
         21    1    1    2  503  501 -0.99506496566E+01 -0.18742122708E+02  0.19741611365E+01  0.21311497000E+02  0.00000000000E+00 0. -1.
          1    1    1    2  501    0  0.55988529122E+02 -0.14954807810E+03  0.24828807919E+03  0.29520554420E+03  0.00000000000E+00 0. -1.
<scales pt_clust_5="13000.00000" pt_clust_6="13000.00000" pt_clust_7="13000.00000" pt_clust_8="13000.00000" pt_clust_9="21.21986" pt_clust_10="149.66545"></scales>
<clustering>
<clus scale="   21.220">  2  9  1 -1</clus>
<clus scale="   78.471">  5  6 -1 -1</clus>
<clus scale="   91.347">  7  8 -1 -1</clus>
<clus scale="  137.880">  1  7  2 -1</clus>
<clus scale="  149.665">  2 10  1 -1</clus>
<clus scale="   21.220">  2  5  1 -1</clus>
</clustering>
</event>
<event>
10    4  0.3043429E-005  0.8572504E+03  0.7546771E-02  0.9480657E-01
         21   -1    0    0  501  502  0.00000000000E+00  0.00000000000E+00  0.11053800495E+04  0.11053800495E+04  0.00000000000E+00 0. -1.
          2   -1    0    0  503    0 -0.00000000000E+00 -0.00000000000E+00 -0.93271892013E+03  0.93271892013E+03  0.00000000000E+00 0. -1.
         24    2    1    2    0    0  0.37760564007E+03 -0.43373840956E+03 -0.25896684370E+03  0.63535320008E+03  0.76777831328E+02 0.  0.
         23    2    1    2    0    0  0.24121032688E+03 -0.93651771043E+02  0.99662824415E+01  0.27439636568E+03  0.90779748287E+02 0.  0.
        -13    1    3    3    0    0  0.16751764788E+03 -0.19978953998E+03 -0.15912275809E+03  0.30544733552E+03  0.00000000000E+00 0.  1.
         14    1    3    3    0    0  0.21008799219E+03 -0.23394886958E+03 -0.99844085604E+02  0.32990586456E+03  0.00000000000E+00 0. -1.
        -13    1    4    4    0    0  0.17700727028E+03 -0.99056206208E+02  0.33923632446E+02  0.20565631174E+03  0.00000000000E+00 0.  1.
         13    1    4    4    0    0  0.64203056595E+02  0.54044351652E+01 -0.23957350005E+02  0.68740053934E+02  0.00000000000E+00 0. -1.
         21    1    1    2  503  502 -0.51481371233E+02  0.71014067108E+01  0.35155852791E+03  0.35537889654E+03  0.00000000000E+00 0.  1.
          1    1    1    2  501    0 -0.56733459572E+03  0.52028877389E+03  0.70103162679E+02  0.77297050730E+03  0.00000000000E+00 0. -1.
<scales pt_clust_5="13000.00000" pt_clust_6="13000.00000" pt_clust_7="13000.00000" pt_clust_8="13000.00000" pt_clust_9="51.96885" pt_clust_10="793.91989"></scales>
<clustering>
<clus scale="   51.969">  1  9  2 -1</clus>
<clus scale="   76.778">  5  6 -1 -1</clus>
<clus scale="   90.780">  7  8 -1 -1</clus>
<clus scale="  196.692">  5  7 -1 -1</clus>
<clus scale="  793.920">  1 10  2 -1</clus>
<clus scale="   51.969">  1  5  2 -1</clus>
</clustering>
</event>
<event>
10    4  0.3043429E-005  0.2136951E+03  0.7546771E-02  0.1139504E+00
          2   -1    0    0  503    0 -0.00000000000E+00  0.00000000000E+00  0.74238631619E+03  0.74238631619E+03  0.00000000000E+00 0. -1.
         21   -1    0    0  501  502  0.00000000000E+00 -0.00000000000E+00 -0.20671235293E+03  0.20671235293E+03  0.00000000000E+00 0.  1.
         24    2    1    2    0    0 -0.70651045075E+01  0.16977349609E+03  0.22450951737E+03  0.29285137579E+03  0.80526078007E+02 0.  0.
         23    2    1    2    0    0  0.21127762671E+01 -0.22075111397E+03  0.31736818368E+03  0.39716396046E+03  0.91000710616E+02 0.  0.
        -13    1    3    3    0    0  0.11948123729E+02  0.15111694214E+03  0.14807719236E+03  0.21191022335E+03  0.00000000000E+00 0.  1.
         14    1    3    3    0    0 -0.19013228236E+02  0.18656553951E+02  0.76432325006E+02  0.80941152445E+02  0.00000000000E+00 0. -1.
        -11    1    4    4    0    0 -0.25800541747E+02 -0.43830407145E+02  0.31514270328E+02  0.59832447545E+02  0.00000000000E+00 0.  1.
         11    1    4    4    0    0  0.27913318014E+02 -0.17692070683E+03  0.28585391335E+03  0.33733151292E+03  0.00000000000E+00 0. -1.
         21    1    1    2  503  502  0.97257846501E+02  0.87774671625E+02 -0.62196826703E+02  0.14502388402E+03  0.00000000000E+00 0.  1.
          1    1    1    2  501    0 -0.92305518261E+02 -0.36797053737E+02  0.55993088908E+02  0.11405944884E+03  0.00000000000E+00 0. -1.
<scales pt_clust_5="13000.00000" pt_clust_6="13000.00000" pt_clust_7="13000.00000" pt_clust_8="13000.00000" pt_clust_9="79.27336" pt_clust_10="99.36967"></scales>
<clustering>
<clus scale="   80.526">  5  6 -1 -1</clus>
<clus scale="   91.001">  7  8 -1 -1</clus>
<clus scale="   99.370">  2 10  1 -1</clus>
<clus scale="   79.273">  2  9  1 -1</clus>
<clus scale="  209.449">  1  5  2 -1</clus>
<clus scale="   99.370">  2  5  1 -1</clus>
</clustering>
</event>
<event>
10    4  0.3043429E-005  0.2356190E+03  0.7546771E-02  0.1123454E+00
          2   -1    0    0  503    0 -0.00000000000E+00  0.00000000000E+00  0.30836597628E+03  0.30836597628E+03  0.00000000000E+00 0. -1.
         21   -1    0    0  501  502  0.00000000000E+00 -0.00000000000E+00 -0.52288982831E+03  0.52288982831E+03  0.00000000000E+00 0.  1.
         23    2    1    2    0    0  0.37202122081E+02  0.21578076664E+03  0.72688587490E+02  0.24826703927E+03  0.91692719974E+02 0.  0.
         24    2    1    2    0    0 -0.65760464951E+02 -0.20444811973E+03 -0.90489307124E+02  0.24657512078E+03  0.80545037541E+02 0.  0.
        -13    1    4    4    0    0 -0.24858248939E+02 -0.16015586521E+03 -0.91810640732E+02  0.18627138120E+03  0.00000000000E+00 0.  1.
         14    1    4    4    0    0 -0.40902216012E+02 -0.44292254516E+02  0.13213336082E+01  0.60303739580E+02  0.00000000000E+00 0. -1.
        -11    1    3    3    0    0  0.54240258121E+02  0.19469634542E+03  0.84028906207E+02  0.21888245612E+03  0.00000000000E+00 0. -1.
         11    1    3    3    0    0 -0.17038136040E+02  0.21084421224E+02 -0.11340318717E+02  0.29384583146E+02  0.00000000000E+00 0.  1.
         21    1    1    2  503  502  0.59693372797E+02 -0.72177036957E+02 -0.23855276799E+03  0.25628157666E+03  0.00000000000E+00 0.  1.
          1    1    1    2  501    0 -0.31135029926E+02  0.60844390045E+02  0.41829635591E+02  0.80132067877E+02  0.00000000000E+00 0. -1.
<scales pt_clust_5="13000.00000" pt_clust_6="13000.00000" pt_clust_7="13000.00000" pt_clust_8="13000.00000" pt_clust_9="61.31978" pt_clust_10="68.34789"></scales>
<clustering>
<clus scale="   68.348">  2 10  1 -1</clus>
<clus scale="   61.320">  2  9  1 -1</clus>
<clus scale="   80.545">  5  6 -1 -1</clus>
<clus scale="   91.693">  7  8 -1 -1</clus>
<clus scale="  231.509">  2  5  1 -1</clus>
<clus scale="   68.348">  2  5  1 -1</clus>
</clustering>
</event>
<event>
10    4  0.3043429E-005  0.1960627E+03  0.7546771E-02  0.1175371E+00
         21   -1    0    0  501  502  0.00000000000E+00  0.00000000000E+00  0.12289654387E+03  0.12289654387E+03  0.00000000000E+00 0. -1.
          2   -1    0    0  503    0 -0.00000000000E+00 -0.00000000000E+00 -0.22094600654E+04  0.22094600654E+04  0.00000000000E+00 0. -1.
         24    2    1    2    0    0  0.84242945635E+01  0.88807055569E+02 -0.63284702885E+03  0.64420136776E+03  0.80884970472E+02 0.  0.
         23    2    1    2    0    0 -0.19128360574E+03 -0.31422621575E+02 -0.87101839717E+03  0.89694433880E+03  0.90880689517E+02 0.  0.
        -13    1    3    3    0    0  0.49730495987E+01  0.50783517517E+02 -0.12630918080E+03  0.13622667150E+03  0.00000000000E+00 0.  1.
         14    1    3    3    0    0  0.34512449648E+01  0.38023538052E+02 -0.50653784805E+03  0.50797469626E+03  0.00000000000E+00 0. -1.
        -13    1    4    4    0    0 -0.61902731255E+02 -0.54303239445E+02 -0.31062118948E+03  0.32135076366E+03  0.00000000000E+00 0.  1.
         13    1    4    4    0    0 -0.12938087449E+03  0.22880617870E+02 -0.56039720769E+03  0.57559357514E+03  0.00000000000E+00 0. -1.
         21    1    1    2  503  502  0.23492922820E+02 -0.25007089943E+02  0.91476700726E+02  0.97699840050E+02  0.00000000000E+00 0. -1.
          1    1    1    2  501    0  0.15936638836E+03 -0.32377344051E+02 -0.67417479625E+03  0.69351106267E+03  0.00000000000E+00 0. -1.
<scales pt_clust_5="13000.00000" pt_clust_6="13000.00000" pt_clust_7="13000.00000" pt_clust_8="13000.00000" pt_clust_9="34.31140" pt_clust_10="173.72764"></scales>
<clustering>
<clus scale="   34.311">  1  9  2 -1</clus>
<clus scale="   80.885">  5  6 -1 -1</clus>
<clus scale="   90.881">  7  8 -1 -1</clus>
<clus scale="  117.201">  2  5  1 -1</clus>
<clus scale="  173.728">  1 10  2 -1</clus>
<clus scale="   34.311">  1  5  2 -1</clus>
</clustering>
</event>
<event>
10    4  0.3043429E-005  0.1286926E+03  0.7546771E-02  0.1232073E+00
         -1   -1    0    0    0  501 -0.00000000000E+00  0.00000000000E+00  0.69876369244E+02  0.69876369244E+02  0.00000000000E+00 0.  1.
         21   -1    0    0  503  502  0.00000000000E+00 -0.00000000000E+00 -0.99459007234E+03  0.99459007234E+03  0.00000000000E+00 0. -1.
         24    2    1    2    0    0  0.43427115941E+02  0.61778408475E+02 -0.78910446847E+02  0.13801380659E+03  0.84371002332E+02 0.  0.
         23    2    1    2    0    0 -0.23042026273E+02 -0.12664342928E+03 -0.27258166621E+03  0.31577222187E+03  0.94031049100E+02 0.  0.
        -11    1    3    3    0    0  0.11259708426E+02  0.75690576472E+02 -0.42744121001E+02  0.87652177843E+02  0.00000000000E+00 0.  1.
         12    1    3    3    0    0  0.32167407515E+02 -0.13912167997E+02 -0.36166325846E+02  0.50361628744E+02  0.00000000000E+00 0. -1.
        -13    1    4    4    0    0 -0.81415588356E+01 -0.37196786522E+02 -0.12093083252E+02  0.39951577821E+02  0.00000000000E+00 0.  1.
         13    1    4    4    0    0 -0.14900467437E+02 -0.89446642754E+02 -0.26048858296E+03  0.27582064405E+03  0.00000000000E+00 0. -1.
         21    1    1    2  503  501 -0.61794487619E+02  0.93161602579E+02 -0.53775702589E+03  0.54925427790E+03  0.00000000000E+00 0. -1.
         -2    1    1    2    0  502  0.41409397951E+02 -0.28296581778E+02 -0.35464564139E+02  0.61426135223E+02  0.00000000000E+00 0.  1.
<scales pt_clust_5="13000.00000" pt_clust_6="13000.00000" pt_clust_7="13000.00000" pt_clust_8="13000.00000" pt_clust_9="85.78583" pt_clust_10="50.15414"></scales>
<clustering>
<clus scale="   50.154">  2 10  1 -1</clus>
<clus scale="   84.371">  5  6 -1 -1</clus>
<clus scale="   85.786">  2  9  1 -1</clus>
<clus scale="   94.031">  7  8 -1 -1</clus>
<clus scale="  121.813">  1  5  2 -1</clus>
<clus scale="   50.154">  2  5  1 -1</clus>
</clustering>
</event>
<event>
10    4  0.3043429E-005  0.1844259E+03  0.7546771E-02  0.1186542E+00
         -1   -1    0    0    0  501 -0.00000000000E+00  0.00000000000E+00  0.11677654841E+03  0.11677654841E+03  0.00000000000E+00 0.  1.
         21   -1    0    0  501  502  0.00000000000E+00 -0.00000000000E+00 -0.70139574983E+03  0.70139574983E+03  0.00000000000E+00 0.  1.
         24    2    1    2    0    0  0.70239490794E+01  0.73434588278E+02 -0.53934644495E+02  0.12214431530E+03  0.81045131056E+02 0.  0.
         23    2    1    2    0    0  0.98896886221E+01  0.14343414577E+03 -0.39831081300E+03  0.43348289736E+03  0.92653971494E+02 0.  0.
        -11    1    3    3    0    0  0.40959461520E+02  0.25514419065E+02 -0.37657449120E+02  0.61210673436E+02  0.00000000000E+00 0.  1.
         12    1    3    3    0    0 -0.33935512440E+02  0.47920169213E+02 -0.16277195375E+02  0.60933641868E+02  0.00000000000E+00 0. -1.
        -13    1    4    4    0    0 -0.25372992906E+02  0.13132554312E+03 -0.31293904596E+03  0.34032489408E+03  0.00000000000E+00 0.  1.
         13    1    4    4    0    0  0.35262681528E+02  0.12108602650E+02 -0.85371767042E+02  0.93158003277E+02  0.00000000000E+00 0. -1.
         21    1    1    2  503  502  0.63481792592E+01 -0.26221340038E+02 -0.42869590169E+02  0.50652342636E+02  0.00000000000E+00 0. -1.
         -2    1    1    2    0  503 -0.23261816961E+02 -0.19064739401E+03 -0.89504153757E+02  0.21189274294E+03  0.00000000000E+00 0.  1.
<scales pt_clust_5="13000.00000" pt_clust_6="13000.00000" pt_clust_7="13000.00000" pt_clust_8="13000.00000" pt_clust_9="23.96625" pt_clust_10="171.80567"></scales>
<clustering>
<clus scale="   23.966">  9 10 -1 -1</clus>
<clus scale="   81.045">  5  6 -1 -1</clus>
<clus scale="   92.654">  7  8 -1 -1</clus>
<clus scale="  109.591">  1  5  2 -1</clus>
<clus scale="  171.806">  2  9  1 -1</clus>
<clus scale="  171.806">  2  5  1 -1</clus>
</clustering>
</event>
