<event>
 9    2  0.7820252E-005  0.1250221E+03  0.7546771E-02  0.1237027E+00
         -1   -1    0    0    0  501 -0.00000000000E+00  0.00000000000E+00  0.25866499642E+03  0.25866499642E+03  0.00000000000E+00 0.  1.
         21   -1    0    0  501  502  0.00000000000E+00 -0.00000000000E+00 -0.21045275200E+03  0.21045275200E+03  0.00000000000E+00 0.  1.
         24    2    1    2    0    0 -0.15714545372E+01 -0.80737168559E+02  0.90639088095E+02  0.14637120330E+03  0.81780957498E+02 0.  0.
         23    2    1    2    0    0 -0.97716231126E+02  0.81262650699E+02  0.72195735832E+02  0.17110006019E+03  0.88943387049E+02 0.  0.
        -11    1    3    3    0    0  0.17864711134E+02 -0.33332148518E+02  0.87169051859E+02  0.95019069827E+02  0.00000000000E+00 0.  1.
         12    1    3    3    0    0 -0.19436165672E+02 -0.47405020041E+02  0.34700362364E+01  0.51352133476E+02  0.00000000000E+00 0. -1.
        -11    1    4    4    0    0 -0.25418347200E+02  0.88965468309E+01  0.62855427428E+02  0.68381617976E+02  0.00000000000E+00 0. -1.
         11    1    4    4    0    0 -0.72297883926E+02  0.72366103868E+02  0.93403084043E+01  0.10271844221E+03  0.00000000000E+00 0.  1.
         -2    1    1    2    0  502  0.99287685663E+02 -0.52548213987E+00 -0.11462257951E+03  0.15164648492E+03  0.00000000000E+00 0.  1.
<scales pt_clust_5="13000.00000" pt_clust_6="13000.00000" pt_clust_7="13000.00000" pt_clust_8="13000.00000" pt_clust_9="99.28908"></scales>
<clustering>
<clus scale="   81.781">  5  6 -1 -1</clus>
<clus scale="   88.943">  7  8 -1 -1</clus>
<clus scale="   99.289">  2  9  1 -1</clus>
<clus scale="  120.032">  1  5  2 -1</clus>
<clus scale="   99.289">  2  5  1 -1</clus>
</clustering>
</event>
<event>
 9    2  0.7820252E-005  0.1719960E+03  0.7546771E-02  0.1177103E+00
         21   -1    0    0  501  502  0.00000000000E+00  0.00000000000E+00  0.19863583739E+03  0.19863583739E+03  0.00000000000E+00 0. -1.
          2   -1    0    0  502    0 -0.00000000000E+00 -0.00000000000E+00 -0.64463767325E+03  0.64463767325E+03  0.00000000000E+00 0. -1.
         24    2    1    2    0    0 -0.43709261125E+02  0.13928997746E+03 -0.57530519325E+03  0.59910799662E+03  0.81499257149E+02 0.  0.
         23    2    1    2    0    0  0.10868801753E+02 -0.14468151791E+03  0.12095862184E+03  0.20985517896E+03  0.91418463466E+02 0.  0.
        -11    1    3    3    0    0 -0.33887238280E+01  0.79022427864E+02 -0.17171669197E+03  0.18905726607E+03  0.00000000000E+00 0.  1.
         12    1    3    3    0    0 -0.40320537297E+02  0.60267549595E+02 -0.40358850128E+03  0.41005073055E+03  0.00000000000E+00 0. -1.
        -13    1    4    4    0    0 -0.23986455194E+02 -0.12268954250E+03  0.11163130900E+03  0.16759959135E+03  0.00000000000E+00 0. -1.
         13    1    4    4    0    0  0.34855256947E+02 -0.21991975413E+02  0.93273128356E+01  0.42255587609E+02  0.00000000000E+00 0.  1.
          1    1    1    2  501    0  0.32840459372E+02  0.53915404528E+01  0.83447355427E+01  0.34310335054E+02  0.00000000000E+00 0. -1.
<scales pt_clust_5="13000.00000" pt_clust_6="13000.00000" pt_clust_7="13000.00000" pt_clust_8="13000.00000" pt_clust_9="33.28009"></scales>
<clustering>
<clus scale="   33.280">  1  9  2 -1</clus>
<clus scale="   81.499">  5  6 -1 -1</clus>
<clus scale="   91.418">  7  8 -1 -1</clus>
<clus scale="  166.935">  2  5  1 -1</clus>
<clus scale="   33.280">  1  5  2 -1</clus>
</clustering>
</event>
<event>
 9    2  0.7820252E-005  0.9459972E+02  0.7546771E-02  0.1296787E+00
         21   -1    0    0  501  502  0.00000000000E+00  0.00000000000E+00  0.96011161504E+03  0.96011161504E+03  0.00000000000E+00 0. -1.
          2   -1    0    0  502    0 -0.00000000000E+00 -0.00000000000E+00 -0.19141391939E+02  0.19141391939E+02  0.00000000000E+00 0. -1.
         23    2    1    2    0    0 -0.29475269746E+02  0.19592165523E+02  0.18761334206E+03  0.20949804778E+03  0.86243964592E+02 0.  0.
         24    2    1    2    0    0  0.44436375324E+01 -0.65405161835E+02  0.57612060174E+03  0.58498994102E+03  0.77464199704E+02 0.  0.
        -11    1    4    4    0    0 -0.19888596583E+02  0.99896784137E+01  0.12648905895E+03  0.12843220773E+03  0.00000000000E+00 0.  1.
         12    1    4    4    0    0  0.24332234115E+02 -0.75394840249E+02  0.44963154280E+03  0.45655773329E+03  0.00000000000E+00 0. -1.
        -13    1    3    3    0    0 -0.29761193676E+02 -0.29488500187E+02  0.10953710825E+03  0.11727607759E+03  0.00000000000E+00 0.  1.
         13    1    3    3    0    0  0.28592393024E+00  0.49080665710E+02  0.78076233812E+02  0.92221970188E+02  0.00000000000E+00 0. -1.
          1    1    1    2  501    0  0.25031632213E+02  0.45812996312E+02  0.17723627929E+03  0.18476501817E+03  0.00000000000E+00 0. -1.
<scales pt_clust_5="13000.00000" pt_clust_6="13000.00000" pt_clust_7="13000.00000" pt_clust_8="13000.00000" pt_clust_9="52.20552"></scales>
<clustering>
<clus scale="   52.206">  1  9  2 -1</clus>
<clus scale="   77.464">  5  6 -1 -1</clus>
<clus scale="   86.244">  7  8 -1 -1</clus>
<clus scale="   86.671">  1  5  2 -1</clus>
<clus scale="   52.206">  1  5  2 -1</clus>
</clustering>
</event>
<event>
 9    2  0.7820252E-005  0.1016768E+03  0.7546771E-02  0.1281668E+00
          4   -1    0    0  502    0 -0.00000000000E+00  0.00000000000E+00  0.15111718332E+03  0.15111718332E+03  0.00000000000E+00 0. -1.
         21   -1    0    0  501  502  0.00000000000E+00 -0.00000000000E+00 -0.90847881257E+02  0.90847881257E+02  0.00000000000E+00 0. -1.
         24    2    1    2    0    0  0.47074676304E+02 -0.16976190112E+01  0.65443144354E+02  0.11386067420E+03  0.80389930511E+02 0.  0.
         23    2    1    2    0    0 -0.41008988193E+02  0.25989452207E+02 -0.67384028481E+01  0.10301786845E+03  0.90609527141E+02 0.  0.
        -11    1    3    3    0    0 -0.11646125863E+02  0.19632902529E+02  0.40699740255E+02  0.46664247194E+02  0.00000000000E+00 0.  1.
         12    1    3    3    0    0  0.58720802168E+02 -0.21330521540E+02  0.24743404100E+02  0.67196427010E+02  0.00000000000E+00 0. -1.
        -11    1    4    4    0    0 -0.52567972579E+02 -0.15270060346E+02 -0.19818125365E+02  0.58217905982E+02  0.00000000000E+00 0.  1.
         11    1    4    4    0    0  0.11558984385E+02  0.41259512552E+02  0.13079722517E+02  0.44799962469E+02  0.00000000000E+00 0. -1.
          3    1    1    2  501    0 -0.60656881110E+01 -0.24291833196E+02  0.15645605521E+01  0.25086521919E+02  0.00000000000E+00 0. -1.
<scales pt_clust_5="13000.00000" pt_clust_6="13000.00000" pt_clust_7="13000.00000" pt_clust_8="13000.00000" pt_clust_9="25.03769"></scales>
<clustering>
<clus scale="   25.038">  2  9  1 -1</clus>
<clus scale="   80.390">  5  6 -1 -1</clus>
<clus scale="   90.610">  7  8 -1 -1</clus>
<clus scale="   92.686">  1  5  2 -1</clus>
<clus scale="   25.038">  2  5  1 -1</clus>
</clustering>
</event>
<event>
 9    2  0.7820252E-005  0.1103430E+03  0.7546771E-02  0.1265973E+00
         21   -1    0    0  501  502  0.00000000000E+00  0.00000000000E+00  0.79182417958E+02  0.79182417958E+02  0.00000000000E+00 0. -1.
          2   -1    0    0  502    0 -0.00000000000E+00 -0.00000000000E+00 -0.71286957979E+03  0.71286957979E+03  0.00000000000E+00 0. -1.
         24    2    1    2    0    0  0.58673564525E+02 -0.34810070431E+02 -0.51087770298E+03  0.52148146600E+03  0.79325681869E+02 0.  0.
         23    2    1    2    0    0  0.28045028399E+02  0.61427417118E+02 -0.13629956579E+03  0.17886131471E+03  0.94095414740E+02 0.  0.
        -13    1    3    3    0    0  0.37977576987E+01 -0.33930718998E+02 -0.78089923455E+02  0.85227652792E+02  0.00000000000E+00 0.  1.
         14    1    3    3    0    0  0.54875806826E+02 -0.87935143245E+00 -0.43278777953E+03  0.43625381321E+03  0.00000000000E+00 0. -1.
        -13    1    4    4    0    0  0.55433654606E+02  0.47865060570E+02 -0.53780040243E+02  0.90863891700E+02  0.00000000000E+00 0. -1.
         13    1    4    4    0    0 -0.27388626207E+02  0.13562356548E+02 -0.82519525547E+02  0.87997423014E+02  0.00000000000E+00 0.  1.
          1    1    1    2  501    0 -0.86718592924E+02 -0.26617346687E+02  0.13490106938E+02  0.91709217032E+02  0.00000000000E+00 0. -1.
<scales pt_clust_5="13000.00000" pt_clust_6="13000.00000" pt_clust_7="13000.00000" pt_clust_8="13000.00000" pt_clust_9="90.71162"></scales>
<clustering>
<clus scale="   79.326">  5  6 -1 -1</clus>
<clus scale="   90.712">  1  9  2 -1</clus>
<clus scale="   94.095">  7  8 -1 -1</clus>
<clus scale="   98.052">  2  5  1 -1</clus>
<clus scale="   90.712">  1  5  2 -1</clus>
</clustering>
</event>
<event>
 9    2  0.7820252E-005  0.1360080E+03  0.7546771E-02  0.1221214E+00
         21   -1    0    0  501  502  0.00000000000E+00  0.00000000000E+00  0.50268659691E+02  0.50268659691E+02  0.00000000000E+00 0.  1.
          2   -1    0    0  502    0 -0.00000000000E+00 -0.00000000000E+00 -0.90883568124E+03  0.90883568124E+03  0.00000000000E+00 0. -1.
         24    2    1    2    0    0 -0.95216565385E+02 -0.40651576756E+02 -0.76198917927E+03  0.77311423727E+03  0.79745655295E+02 0.  0.
         23    2    1    2    0    0  0.88499265714E+02  0.18038275107E+02 -0.56767486511E+02  0.13971540266E+03  0.90223870532E+02 0.  0.
        -13    1    3    3    0    0  0.11041285645E+02 -0.19165320466E+02 -0.11552143275E+03  0.11761981518E+03  0.00000000000E+00 0.  1.
         14    1    3    3    0    0 -0.10625785103E+03 -0.21486256290E+02 -0.64646774651E+03  0.65549442209E+03  0.00000000000E+00 0. -1.
        -13    1    4    4    0    0  0.29657681291E+02 -0.30152217262E+02  0.38346062944E+01  0.42466910305E+02  0.00000000000E+00 0.  1.
         13    1    4    4    0    0  0.58841584423E+02  0.48190492369E+02 -0.60602092805E+02  0.97248492351E+02  0.00000000000E+00 0. -1.
          1    1    1    2  501    0  0.67172996705E+01  0.22613301648E+02 -0.39810355773E+02  0.46274701005E+02  0.00000000000E+00 0. -1.
<scales pt_clust_5="13000.00000" pt_clust_6="13000.00000" pt_clust_7="13000.00000" pt_clust_8="13000.00000" pt_clust_9="23.58990"></scales>
<clustering>
<clus scale="   23.590">  1  9  2 -1</clus>
<clus scale="   79.746">  5  6 -1 -1</clus>
<clus scale="   90.224">  7  8 -1 -1</clus>
<clus scale="  129.295">  2  5  1 -1</clus>
<clus scale="   23.590">  1  5  2 -1</clus>
</clustering>
</event>
<event>
 9    2  0.7820252E-005  0.1275015E+03  0.7546771E-02  0.1243066E+00
         21   -1    0    0  501  502  0.00000000000E+00  0.00000000000E+00  0.19937144503E+03  0.19937144503E+03  0.00000000000E+00 0.  1.
         -1   -1    0    0    0  501 -0.00000000000E+00 -0.00000000000E+00 -0.17812403706E+03  0.17812403706E+03  0.00000000000E+00 0.  1.
         23    2    1    2    0    0  0.16675122006E+02  0.15029903923E+02  0.92229066860E+02  0.13611461860E+03  0.97555271089E+02 0.  0.
         24    2    1    2    0    0  0.92724388062E+01  0.91412211232E+02 -0.50680959273E+02  0.12995681673E+03  0.76668403522E+02 0.  0.
        -13    1    4    4    0    0  0.19977361229E+02  0.10230355306E+03 -0.41908993560E+02  0.11234534112E+03  0.00000000000E+00 0.  1.
         14    1    4    4    0    0 -0.10704922423E+02 -0.10891341825E+02 -0.87719657125E+01  0.17611475614E+02  0.00000000000E+00 0. -1.
        -13    1    3    3    0    0  0.46846181583E+02  0.19084403539E+00  0.91139228300E+02  0.10247419229E+03  0.00000000000E+00 0.  1.
         13    1    3    3    0    0 -0.30171059577E+02  0.14839059887E+02  0.10898385597E+01  0.33640426311E+02  0.00000000000E+00 0. -1.
         -2    1    1    2    0  502 -0.25947560813E+02 -0.10644211515E+03 -0.20300699609E+02  0.11142404676E+03  0.00000000000E+00 0.  1.
<scales pt_clust_5="13000.00000" pt_clust_6="13000.00000" pt_clust_7="13000.00000" pt_clust_8="13000.00000" pt_clust_9="101.87540"></scales>
<clustering>
<clus scale="   76.668">  5  6 -1 -1</clus>
<clus scale="   97.555">  7  8 -1 -1</clus>
<clus scale="  100.105">  2  7  1 -1</clus>
<clus scale="  101.875">  1  9  2 -1</clus>
<clus scale="  101.875">  1  5  2 -1</clus>
</clustering>
</event>
<event>
 9    2  0.7820252E-005  0.2654009E+03  0.7546771E-02  0.1107092E+00
         21   -1    0    0  501  502  0.00000000000E+00  0.00000000000E+00  0.52715226704E+03  0.52715226704E+03  0.00000000000E+00 0. -1.
          2   -1    0    0  502    0 -0.00000000000E+00 -0.00000000000E+00 -0.11035758941E+04  0.11035758941E+04  0.00000000000E+00 0. -1.
         23    2    1    2    0    0 -0.14501737568E+03  0.17402338141E+03  0.13394332820E+02  0.24513283291E+03  0.92717426038E+02 0.  0.
         24    2    1    2    0    0  0.10523732453E+03 -0.41729809881E+03 -0.89321824656E+03  0.99467746666E+03  0.79572790258E+02 0.  0.
        -13    1    4    4    0    0  0.24857158796E+02 -0.16998472167E+03 -0.43690577369E+03  0.46946707982E+03  0.00000000000E+00 0.  1.
         14    1    4    4    0    0  0.80380165731E+02 -0.24731337713E+03 -0.45631247287E+03  0.52521038684E+03  0.00000000000E+00 0. -1.
        -11    1    3    3    0    0 -0.45817772544E+02  0.12329040507E+03 -0.76171999098E+01  0.13174905692E+03  0.00000000000E+00 0.  1.
         11    1    3    3    0    0 -0.99199603135E+02  0.50732976338E+02  0.21011532730E+02  0.11338377599E+03  0.00000000000E+00 0. -1.
          1    1    1    2  501    0  0.39780051152E+02  0.24327471740E+03  0.30340028664E+03  0.39091786161E+03  0.00000000000E+00 0. -1.
<scales pt_clust_5="13000.00000" pt_clust_6="13000.00000" pt_clust_7="13000.00000" pt_clust_8="13000.00000" pt_clust_9="253.19127"></scales>
<clustering>
<clus scale="   79.573">  5  6 -1 -1</clus>
<clus scale="   92.717">  7  8 -1 -1</clus>
<clus scale="  244.767">  2  7  1 -1</clus>
<clus scale="  253.191">  1  9  2 -1</clus>
<clus scale="  253.191">  1  5  2 -1</clus>
</clustering>
</event>
<event>
 9    2  0.7820252E-005  0.1132164E+03  0.7546771E-02  0.1258917E+00
          2   -1    0    0  502    0 -0.00000000000E+00  0.00000000000E+00  0.20130710005E+03  0.20130710005E+03  0.00000000000E+00 0. -1.
         21   -1    0    0  501  502  0.00000000000E+00 -0.00000000000E+00 -0.16319431842E+03  0.16319431842E+03  0.00000000000E+00 0. -1.
         24    2    1    2    0    0  0.48297567437E+02 -0.47091326817E+02  0.12054079334E+03  0.15872776568E+03  0.78193175265E+02 0.  0.
         23    2    1    2    0    0 -0.90930753183E+02  0.13826885767E+02 -0.80447107880E+02  0.15166232731E+03  0.89833956360E+02 0.  0.
        -13    1    3    3    0    0  0.22605533077E+02  0.35353888005E+01 -0.26999351359E+01  0.23039070064E+02  0.00000000000E+00 0.  1.
         14    1    3    3    0    0  0.25692034360E+02 -0.50626715617E+02  0.12324072847E+03  0.13568869562E+03  0.00000000000E+00 0. -1.
        -11    1    4    4    0    0 -0.23358465796E+02 -0.33652231572E+02 -0.78603828698E+01  0.41711823659E+02  0.00000000000E+00 0. -1.
         11    1    4    4    0    0 -0.67572287387E+02  0.47479117339E+02 -0.72586725010E+02  0.10995050365E+03  0.00000000000E+00 0.  1.
          1    1    1    2  501    0  0.42633185746E+02  0.33264441050E+02 -0.19809038316E+01  0.54111325480E+02  0.00000000000E+00 0. -1.
<scales pt_clust_5="13000.00000" pt_clust_6="13000.00000" pt_clust_7="13000.00000" pt_clust_8="13000.00000" pt_clust_9="54.07505"></scales>
<clustering>
<clus scale="   54.075">  2  9  1 -1</clus>
<clus scale="   78.193">  5  6 -1 -1</clus>
<clus scale="   89.834">  7  8 -1 -1</clus>
<clus scale="  104.221">  1  5  2 -1</clus>
<clus scale="   54.075">  2  5  1 -1</clus>
</clustering>
</event>
<event>
 9    2  0.7820252E-005  0.9211812E+02  0.7546771E-02  0.1304052E+00
         21   -1    0    0  501  502  0.00000000000E+00  0.00000000000E+00  0.80169579043E+02  0.80169579043E+02  0.00000000000E+00 0.  1.
         -1   -1    0    0    0  501 -0.00000000000E+00 -0.00000000000E+00 -0.21352131908E+03  0.21352131908E+03  0.00000000000E+00 0.  1.
         24    2    1    2    0    0 -0.24718361430E+02  0.17641593492E+02 -0.47766282528E+02  0.97298002023E+02  0.79139498599E+02 0.  0.
         23    2    1    2    0    0 -0.46550006218E+02 -0.26584665565E+02 -0.42524081270E+02  0.11264660729E+03  0.89483591369E+02 0.  0.
        -13    1    3    3    0    0 -0.10976837637E+02  0.39605631078E+02 -0.56580060332E+02  0.69931396417E+02  0.00000000000E+00 0.  1.
         14    1    3    3    0    0 -0.13741523792E+02 -0.21964037586E+02  0.88137778043E+01  0.27366605606E+02  0.00000000000E+00 0. -1.
        -13    1    4    4    0    0 -0.30241987977E+02 -0.55337472244E+01 -0.68725526504E+02  0.75288765353E+02  0.00000000000E+00 0. -1.
         13    1    4    4    0    0 -0.16308018241E+02 -0.21050918340E+02  0.26201445234E+02  0.37357841938E+02  0.00000000000E+00 0.  1.
         -2    1    1    2    0  502  0.71268367648E+02  0.89430720723E+01 -0.43061376234E+02  0.83746288804E+02  0.00000000000E+00 0.  1.
<scales pt_clust_5="13000.00000" pt_clust_6="13000.00000" pt_clust_7="13000.00000" pt_clust_8="13000.00000" pt_clust_9="71.82732"></scales>
<clustering>
<clus scale="   71.827">  1  9  2 -1</clus>
<clus scale="   79.139">  5  6 -1 -1</clus>
<clus scale="   82.107">  2  5  1 -1</clus>
<clus scale="   89.484">  7  8 -1 -1</clus>
<clus scale="   71.827">  1  5  2 -1</clus>
</clustering>
</event>
<event>
 9    2  0.7820252E-005  0.9762217E+02  0.7546771E-02  0.1290416E+00
          4   -1    0    0  502    0 -0.00000000000E+00  0.00000000000E+00  0.35245822731E+03  0.35245822731E+03  0.00000000000E+00 0. -1.
         21   -1    0    0  501  502  0.00000000000E+00 -0.00000000000E+00 -0.70946514424E+02  0.70946514424E+02  0.00000000000E+00 0. -1.
         24    2    1    2    0    0  0.33587962777E+02 -0.22349993762E+02  0.24368560377E+03  0.25986742146E+03  0.80751035812E+02 0.  0.
         23    2    1    2    0    0  0.13216184234E+02  0.42532501610E+02  0.11572134901E+01  0.10074743489E+03  0.90360529408E+02 0.  0.
        -11    1    3    3    0    0 -0.20615093326E+02  0.77431508638E+01  0.29024450706E+02  0.36432913648E+02  0.00000000000E+00 0.  1.
         12    1    3    3    0    0  0.54203056103E+02 -0.30093144626E+02  0.21466115307E+03  0.22343450781E+03  0.00000000000E+00 0. -1.
        -11    1    4    4    0    0 -0.19231556350E+02  0.47526797869E+02  0.27930517201E+02  0.58384613268E+02  0.00000000000E+00 0.  1.
         11    1    4    4    0    0  0.32447740585E+02 -0.49942962592E+01 -0.26773303711E+02  0.42362821622E+02  0.00000000000E+00 0. -1.
          3    1    1    2  501    0 -0.46804147012E+02 -0.20182507848E+02  0.36668895624E+02  0.62789885386E+02  0.00000000000E+00 0. -1.
<scales pt_clust_5="13000.00000" pt_clust_6="13000.00000" pt_clust_7="13000.00000" pt_clust_8="13000.00000" pt_clust_9="50.97021"></scales>
<clustering>
<clus scale="   50.970">  2  9  1 -1</clus>
<clus scale="   80.751">  5  6 -1 -1</clus>
<clus scale="   88.802">  1  5  2 -1</clus>
<clus scale="   90.361">  7  8 -1 -1</clus>
<clus scale="   50.970">  2  5  1 -1</clus>
</clustering>
</event>
<event>
 9    2  0.7820252E-005  0.1084001E+03  0.7546771E-02  0.1269594E+00
         21   -1    0    0  501  502  0.00000000000E+00  0.00000000000E+00  0.11917343739E+03  0.11917343739E+03  0.00000000000E+00 0. -1.
          2   -1    0    0  502    0 -0.00000000000E+00 -0.00000000000E+00 -0.80380142835E+03  0.80380142835E+03  0.00000000000E+00 0. -1.
         24    2    1    2    0    0  0.28686841961E+02 -0.47626426642E+02 -0.69461106617E+03  0.70150612362E+03  0.80839945602E+02 0.  0.
         23    2    1    2    0    0 -0.10321320658E+02  0.29945825441E+02 -0.79935606133E+02  0.12800610100E+03  0.94829207754E+02 0.  0.
        -11    1    3    3    0    0  0.46499571926E+02 -0.81495952674E+01 -0.22482292881E+03  0.22972587014E+03  0.00000000000E+00 0.  1.
         12    1    3    3    0    0 -0.17812729966E+02 -0.39476831375E+02 -0.46978813737E+03  0.47178025348E+03  0.00000000000E+00 0. -1.
        -13    1    4    4    0    0  0.12422131744E+02 -0.28556260526E+02 -0.48927350602E+02  0.57997025866E+02  0.00000000000E+00 0. -1.
         13    1    4    4    0    0 -0.22743452402E+02  0.58502085968E+02 -0.31008255530E+02  0.70009075131E+02  0.00000000000E+00 0.  1.
          1    1    1    2  501    0 -0.18365521303E+02  0.17680601201E+02  0.89918681345E+02  0.93462641126E+02  0.00000000000E+00 0. -1.
<scales pt_clust_5="13000.00000" pt_clust_6="13000.00000" pt_clust_7="13000.00000" pt_clust_8="13000.00000" pt_clust_9="25.49306"></scales>
<clustering>
<clus scale="   25.493">  1  9  2 -1</clus>
<clus scale="   80.840">  5  6 -1 -1</clus>
<clus scale="   94.829">  7  8 -1 -1</clus>
<clus scale="   96.401">  2  5  1 -1</clus>
<clus scale="   25.493">  1  5  2 -1</clus>
</clustering>
</event>
<event>
 9    2  0.7820252E-005  0.1817844E+03  0.7546771E-02  0.1188652E+00
         -3   -1    0    0    0  501 -0.00000000000E+00  0.00000000000E+00  0.44398612516E+03  0.44398612516E+03  0.00000000000E+00 0.  1.
         21   -1    0    0  501  502  0.00000000000E+00 -0.00000000000E+00 -0.16153398624E+03  0.16153398624E+03  0.00000000000E+00 0.  1.
         23    2    1    2    0    0  0.41457804244E+02 -0.40279573529E+02 -0.44730783434E+02  0.11801029867E+03  0.92652004996E+02 0.  0.
         24    2    1    2    0    0  0.13810196900E+03  0.41452610590E+02  0.23437203394E+03  0.28537879286E+03  0.75632878779E+02 0.  0.
        -13    1    4    4    0    0  0.11716859366E+03  0.88751367191E+00  0.16811125830E+03  0.20491623213E+03  0.00000000000E+00 0.  1.
         14    1    4    4    0    0  0.20933375340E+02  0.40565096918E+02  0.66260775638E+02  0.80462560730E+02  0.00000000000E+00 0. -1.
        -13    1    3    3    0    0  0.41922792105E+01 -0.54213104799E+02 -0.54560135622E+02  0.77028853918E+02  0.00000000000E+00 0.  1.
         13    1    3    3    0    0  0.37265525034E+02  0.13933531270E+02  0.98293521880E+01  0.40981444754E+02  0.00000000000E+00 0. -1.
         -4    1    1    2    0  502 -0.17955977325E+03 -0.11730370614E+01  0.92810888421E+02  0.20213101987E+03  0.00000000000E+00 0.  1.
<scales pt_clust_5="13000.00000" pt_clust_6="13000.00000" pt_clust_7="13000.00000" pt_clust_8="13000.00000" pt_clust_9="165.30342"></scales>
<clustering>
<clus scale="   75.633">  5  6 -1 -1</clus>
<clus scale="   92.652">  7  8 -1 -1</clus>
<clus scale="  109.204">  1  7  2 -1</clus>
<clus scale="  165.303">  2  9  1 -1</clus>
<clus scale="  165.303">  2  5  1 -1</clus>
</clustering>
</event>
<event>
 9    2  0.7820252E-005  0.1233462E+03  0.7546771E-02  0.1240511E+00
         -3   -1    0    0    0  501 -0.00000000000E+00  0.00000000000E+00  0.83701352422E+03  0.83701352422E+03  0.00000000000E+00 0.  1.
         21   -1    0    0  501  502  0.00000000000E+00 -0.00000000000E+00 -0.24482034632E+02  0.24482034632E+02  0.00000000000E+00 0. -1.
         24    2    1    2    0    0  0.44216288509E+01  0.91473022128E+02  0.44490296006E+03  0.46160133922E+03  0.82160135838E+02 0.  0.
         23    2    1    2    0    0 -0.18501793164E+02 -0.70671813308E+02  0.35025108590E+03  0.36935053187E+03  0.91690624760E+02 0.  0.
        -13    1    3    3    0    0 -0.26538407264E+02  0.81884140266E+02  0.37182663030E+03  0.38165998282E+03  0.00000000000E+00 0.  1.
         14    1    3    3    0    0  0.30960036115E+02  0.95888818622E+01  0.73076329755E+02  0.79941356394E+02  0.00000000000E+00 0. -1.
        -13    1    4    4    0    0  0.24082089753E+02 -0.73474456742E+01  0.25813642757E+02  0.36059342163E+02  0.00000000000E+00 0. -1.
         13    1    4    4    0    0 -0.42583882917E+02 -0.63324367634E+02  0.32443744314E+03  0.33329118970E+03  0.00000000000E+00 0.  1.
         -4    1    1    2    0  502  0.14080164313E+02 -0.20801208820E+02  0.17377443633E+02  0.30543687772E+02  0.00000000000E+00 0.  1.
<scales pt_clust_5="13000.00000" pt_clust_6="13000.00000" pt_clust_7="13000.00000" pt_clust_8="13000.00000" pt_clust_9="25.11855"></scales>
<clustering>
<clus scale="   25.119">  2  9  1 -1</clus>
<clus scale="   82.160">  5  6 -1 -1</clus>
<clus scale="   91.691">  7  8 -1 -1</clus>
<clus scale="  116.436">  1  5  2 -1</clus>
<clus scale="   25.119">  2  5  1 -1</clus>
</clustering>
</event>
<event>
 9    2  0.7820252E-005  0.9001067E+02  0.7546771E-02  0.1308160E+00
         21   -1    0    0  501  502  0.00000000000E+00  0.00000000000E+00  0.29879436175E+03  0.29879436175E+03  0.00000000000E+00 0.  1.
         -3   -1    0    0    0  501 -0.00000000000E+00 -0.00000000000E+00 -0.14616136501E+03  0.14616136501E+03  0.00000000000E+00 0.  1.
         23    2    1    2    0    0 -0.30577789464E+02 -0.13086318082E+01 -0.59974666239E+02  0.11195797822E+03  0.89447831563E+02 0.  0.
         24    2    1    2    0    0 -0.36494666437E+02 -0.25274415504E+02 -0.15561227699E+02  0.93693725546E+02  0.81029041966E+02 0.  0.
        -13    1    4    4    0    0 -0.31520138586E+02  0.23271621291E+02  0.72167563927E+01  0.39839290491E+02  0.00000000000E+00 0.  1.
         14    1    4    4    0    0 -0.49745278507E+01 -0.48546036795E+02 -0.22777984091E+02  0.53854435055E+02  0.00000000000E+00 0. -1.
        -11    1    3    3    0    0  0.15035937869E+01  0.28621012854E+02  0.91492644073E+01  0.30085415241E+02  0.00000000000E+00 0.  1.
         11    1    3    3    0    0 -0.32081383251E+02 -0.29929644662E+02 -0.69123930646E+02  0.81872562980E+02  0.00000000000E+00 0. -1.
         -4    1    1    2    0  502  0.67072455901E+02  0.26583047312E+02  0.22816889068E+03  0.23930402299E+03  0.00000000000E+00 0.  1.
<scales pt_clust_5="13000.00000" pt_clust_6="13000.00000" pt_clust_7="13000.00000" pt_clust_8="13000.00000" pt_clust_9="72.14827"></scales>
<clustering>
<clus scale="   72.148">  1  9  2 -1</clus>
<clus scale="   81.029">  5  6 -1 -1</clus>
<clus scale="   81.650">  1  5  2 -1</clus>
<clus scale="   89.448">  7  8 -1 -1</clus>
<clus scale="   72.148">  1  5  2 -1</clus>
</clustering>
</event>
<event>
 9    2  0.7820252E-005  0.1052330E+03  0.7546771E-02  0.1273383E+00
          2   -1    0    0  502    0 -0.00000000000E+00  0.00000000000E+00  0.24724438017E+03  0.24724438017E+03  0.00000000000E+00 0. -1.
         21   -1    0    0  501  502  0.00000000000E+00 -0.00000000000E+00 -0.96130087647E+02  0.96130087647E+02  0.00000000000E+00 0. -1.
         24    2    1    2    0    0  0.25721524960E+02 -0.55432426315E+02  0.17897070015E+03  0.20593031113E+03  0.81501109153E+02 0.  0.
         23    2    1    2    0    0 -0.25951781843E+02  0.16912326780E+02 -0.13141938200E+02  0.96208653814E+02  0.90132528818E+02 0.  0.
        -11    1    3    3    0    0  0.16553152440E+02  0.12867411244E+02  0.95657276888E+01  0.23045178976E+02  0.00000000000E+00 0.  1.
         12    1    3    3    0    0  0.91683725197E+01 -0.68299837559E+02  0.16940497247E+03  0.18288513215E+03  0.00000000000E+00 0. -1.
        -11    1    4    4    0    0 -0.57858456009E+02 -0.20252632080E+01 -0.11779868688E+02  0.59080182202E+02  0.00000000000E+00 0. -1.
         11    1    4    4    0    0  0.31906674166E+02  0.18937589988E+02 -0.13620695119E+01  0.37128471612E+02  0.00000000000E+00 0.  1.
          1    1    1    2  501    0  0.23025688278E+00  0.38520099535E+02 -0.14714469436E+02  0.41235502873E+02  0.00000000000E+00 0. -1.
<scales pt_clust_5="13000.00000" pt_clust_6="13000.00000" pt_clust_7="13000.00000" pt_clust_8="13000.00000" pt_clust_9="38.52079"></scales>
<clustering>
<clus scale="   38.521">  2  9  1 -1</clus>
<clus scale="   81.501">  5  6 -1 -1</clus>
<clus scale="   90.133">  7  8 -1 -1</clus>
<clus scale="   97.942">  1  5  2 -1</clus>
<clus scale="   38.521">  2  5  1 -1</clus>
</clustering>
</event>
<event>
 9    2  0.7820252E-005  0.1757852E+03  0.7546771E-02  0.1173311E+00
         -1   -1    0    0    0  501 -0.00000000000E+00  0.00000000000E+00  0.97165448664E+03  0.97165448664E+03  0.00000000000E+00 0.  1.
         21   -1    0    0  501  502  0.00000000000E+00 -0.00000000000E+00 -0.13581930620E+03  0.13581930620E+03  0.00000000000E+00 0.  1.
         24    2    1    2    0    0 -0.15723766775E+03  0.12748753845E+02  0.75046783735E+03  0.77107306926E+03  0.80408260528E+02 0.  0.
         23    2    1    2    0    0  0.99296062459E+02  0.11937333795E+03  0.34179289380E+02  0.18332004679E+03  0.91259596200E+02 0.  0.
        -13    1    3    3    0    0 -0.13359326120E+03  0.37621749175E+02  0.65711855689E+03  0.67161548021E+03  0.00000000000E+00 0.  1.
         14    1    3    3    0    0 -0.23644406543E+02 -0.24872995329E+02  0.93349280462E+02  0.99457589053E+02  0.00000000000E+00 0. -1.
        -11    1    4    4    0    0  0.43216471290E+02 -0.44401446012E+01  0.12283926293E+01  0.43461330206E+02  0.00000000000E+00 0. -1.
         11    1    4    4    0    0  0.56079591169E+02  0.12381348255E+03  0.32950896751E+02  0.13985871658E+03  0.00000000000E+00 0.  1.
         -2    1    1    2    0  502  0.57941605288E+02 -0.13212209180E+03  0.51188053711E+02  0.15308067679E+03  0.00000000000E+00 0.  1.
<scales pt_clust_5="13000.00000" pt_clust_6="13000.00000" pt_clust_7="13000.00000" pt_clust_8="13000.00000" pt_clust_9="144.26877"></scales>
<clustering>
<clus scale="   80.408">  5  6 -1 -1</clus>
<clus scale="   91.260">  7  8 -1 -1</clus>
<clus scale="  144.269">  2  9  1 -1</clus>
<clus scale="  170.404">  1  5  2 -1</clus>
<clus scale="  144.269">  2  5  1 -1</clus>
</clustering>
</event>
<event>
 9    2  0.7820252E-005  0.2238981E+03  0.7546771E-02  0.1131899E+00
         21   -1    0    0  501  502  0.00000000000E+00  0.00000000000E+00  0.12453020708E+03  0.12453020708E+03  0.00000000000E+00 0. -1.
          2   -1    0    0  502    0 -0.00000000000E+00 -0.00000000000E+00 -0.52110824900E+03  0.52110824900E+03  0.00000000000E+00 0. -1.
         24    2    1    2    0    0 -0.17305165554E+03 -0.60612013912E+02 -0.14911413039E+03  0.24930046432E+03  0.79341073309E+02 0.  0.
         23    2    1    2    0    0  0.22071288282E+03  0.72910685893E+02 -0.16238182311E+03  0.29804347672E+03  0.91825447332E+02 0.  0.
        -11    1    3    3    0    0 -0.17936104770E+03 -0.58746165176E+02 -0.13023870821E+03  0.22931118261E+03  0.00000000000E+00 0.  1.
         12    1    3    3    0    0  0.63093921584E+01 -0.18658487361E+01 -0.18875422176E+02  0.19989281709E+02  0.00000000000E+00 0. -1.
        -11    1    4    4    0    0  0.52496932836E+02  0.14754920433E+02 -0.91390140354E+02  0.10642271087E+03  0.00000000000E+00 0.  1.
         11    1    4    4    0    0  0.16821594998E+03  0.58155765461E+02 -0.70991682756E+02  0.19162076585E+03  0.00000000000E+00 0. -1.
          1    1    1    2  501    0 -0.47661227279E+02 -0.12298671981E+02 -0.85082088420E+02  0.98294515046E+02  0.00000000000E+00 0. -1.
<scales pt_clust_5="13000.00000" pt_clust_6="13000.00000" pt_clust_7="13000.00000" pt_clust_8="13000.00000" pt_clust_9="49.22248"></scales>
<clustering>
<clus scale="   49.222">  1  9  2 -1</clus>
<clus scale="   79.341">  5  6 -1 -1</clus>
<clus scale="   91.825">  7  8 -1 -1</clus>
<clus scale="  219.074">  2  5  1 -1</clus>
<clus scale="   49.222">  1  5  2 -1</clus>
</clustering>
</event>
<event>
 9    2  0.7820252E-005  0.1425611E+03  0.7546771E-02  0.1225519E+00
         21   -1    0    0  501  502  0.00000000000E+00  0.00000000000E+00  0.46369951525E+02  0.46369951525E+02  0.00000000000E+00 0. -1.
          2   -1    0    0  502    0 -0.00000000000E+00 -0.00000000000E+00 -0.12961099799E+04  0.12961099799E+04  0.00000000000E+00 0. -1.
         23    2    1    2    0    0  0.54114298446E+01 -0.45084418854E+02 -0.64862926672E+02  0.12140236925E+03  0.92029601798E+02 0.  0.
         24    2    1    2    0    0  0.65500732785E+02  0.12842542533E+03 -0.91470396836E+03  0.92958522926E+03  0.81620541845E+02 0.  0.
        -11    1    4    4    0    0  0.25233337152E+02  0.10459918166E+03 -0.45700956232E+03  0.46950553795E+03  0.00000000000E+00 0.  1.
         12    1    4    4    0    0  0.40267395632E+02  0.23826243674E+02 -0.45769440604E+03  0.46007969131E+03  0.00000000000E+00 0. -1.
        -13    1    3    3    0    0  0.28732398827E+02  0.41629595448E+01  0.82831926644E+01  0.30190930016E+02  0.00000000000E+00 0. -1.
         13    1    3    3    0    0 -0.23320968982E+02 -0.49247378399E+02 -0.73146119336E+02  0.91211439235E+02  0.00000000000E+00 0.  1.
          1    1    1    2  501    0 -0.70912162629E+02 -0.83341006477E+02 -0.27017313336E+03  0.29149233293E+03  0.00000000000E+00 0. -1.
<scales pt_clust_5="13000.00000" pt_clust_6="13000.00000" pt_clust_7="13000.00000" pt_clust_8="13000.00000" pt_clust_9="116.88357"></scales>
<clustering>
<clus scale="   81.621">  5  6 -1 -1</clus>
<clus scale="   92.030">  7  8 -1 -1</clus>
<clus scale="  102.622">  2  7  1 -1</clus>
<clus scale="  116.884">  1  9  2 -1</clus>
<clus scale="  116.884">  1  5  2 -1</clus>
</clustering>
</event>
<event>
 9    2  0.7820252E-005  0.2810503E+03  0.7546771E-02  0.1095558E+00
          2   -1    0    0  502    0 -0.00000000000E+00  0.00000000000E+00  0.22455526678E+04  0.22455526678E+04  0.00000000000E+00 0. -1.
         21   -1    0    0  501  502  0.00000000000E+00 -0.00000000000E+00 -0.54958404856E+02  0.54958404856E+02  0.00000000000E+00 0.  1.
         24    2    1    2    0    0  0.23299308511E+01 -0.29697069345E+03  0.10384906987E+04  0.10831584117E+04  0.81069057415E+02 0.  0.
         23    2    1    2    0    0 -0.88444222177E+02  0.22088810918E+03  0.57589362087E+03  0.62979659591E+03  0.91522415014E+02 0.  0.
        -13    1    3    3    0    0  0.99438291328E+01 -0.20642469057E+03  0.83683616682E+03  0.86197726345E+03  0.00000000000E+00 0.  1.
         14    1    3    3    0    0 -0.76138982817E+01 -0.90546002877E+02  0.20165453190E+03  0.22118114820E+03  0.00000000000E+00 0. -1.
        -13    1    4    4    0    0  0.11128012582E+02  0.82636337884E+02  0.21850181411E+03  0.23387098959E+03  0.00000000000E+00 0.  1.
         13    1    4    4    0    0 -0.99572234759E+02  0.13825177130E+03  0.35739180676E+03  0.39592560632E+03  0.00000000000E+00 0. -1.
          1    1    1    2  501    0  0.86114291326E+02  0.76082584265E+02  0.57620994337E+03  0.58755606510E+03  0.00000000000E+00 0. -1.
<scales pt_clust_5="13000.00000" pt_clust_6="13000.00000" pt_clust_7="13000.00000" pt_clust_8="13000.00000" pt_clust_9="114.90972"></scales>
<clustering>
<clus scale="   81.069">  5  6 -1 -1</clus>
<clus scale="   91.522">  7  8 -1 -1</clus>
<clus scale="  114.910">  2  9  1 -1</clus>
<clus scale="  277.822">  1  5  2 -1</clus>
<clus scale="  114.910">  2  5  1 -1</clus>
</clustering>
</event>
<event>
 9    2  0.7820252E-005  0.2113764E+03  0.7546771E-02  0.1141328E+00
          2   -1    0    0  502    0 -0.00000000000E+00  0.00000000000E+00  0.14872793792E+04  0.14872793792E+04  0.00000000000E+00 0. -1.
         21   -1    0    0  501  502  0.00000000000E+00 -0.00000000000E+00 -0.66459064414E+02  0.66459064414E+02  0.00000000000E+00 0.  1.
         23    2    1    2    0    0 -0.10634611987E+03 -0.19234584523E+03  0.92063966798E+03  0.95084504578E+03  0.90677899324E+02 0.  0.
         24    2    1    2    0    0  0.90764673402E+02  0.72633642295E+02  0.73024375899E+02  0.15900571747E+03  0.80227095071E+02 0.  0.
        -13    1    4    4    0    0  0.66691999091E+02  0.87775232432E+02  0.69578335980E+02  0.13035896214E+03  0.00000000000E+00 0.  1.
         14    1    4    4    0    0  0.24072674311E+02 -0.15141590137E+02  0.34460399191E+01  0.28646755340E+02  0.00000000000E+00 0. -1.
        -11    1    3    3    0    0 -0.11647170399E+03 -0.17205723276E+03  0.88109039778E+03  0.90525666982E+03  0.00000000000E+00 0. -1.
         11    1    3    3    0    0  0.10125584119E+02 -0.20288612468E+02  0.39549270200E+02  0.45588375963E+02  0.00000000000E+00 0.  1.
          1    1    1    2  501    0  0.15581446471E+02  0.11971220294E+03  0.42715627095E+03  0.44388768040E+03  0.00000000000E+00 0. -1.
<scales pt_clust_5="13000.00000" pt_clust_6="13000.00000" pt_clust_7="13000.00000" pt_clust_8="13000.00000" pt_clust_9="120.72203"></scales>
<clustering>
<clus scale="   80.227">  5  6 -1 -1</clus>
<clus scale="   90.678">  7  8 -1 -1</clus>
<clus scale="  120.722">  2  9  1 -1</clus>
<clus scale="  207.108">  2  5  1 -1</clus>
<clus scale="  120.722">  2  5  1 -1</clus>
</clustering>
</event>
<event>
 9    2  0.7820252E-005  0.1711881E+03  0.7546771E-02  0.1197741E+00
         21   -1    0    0  501  502  0.00000000000E+00  0.00000000000E+00  0.36909790554E+03  0.36909790554E+03  0.00000000000E+00 0.  1.
         -3   -1    0    0    0  501 -0.00000000000E+00 -0.00000000000E+00 -0.15295147775E+03  0.15295147775E+03  0.00000000000E+00 0.  1.
         23    2    1    2    0    0  0.45476330677E+02  0.32531947710E+02 -0.47267548224E+01  0.10719528078E+03  0.91334887844E+02 0.  0.
         24    2    1    2    0    0 -0.11178370744E+02  0.14039410144E+03  0.16229150598E+03  0.22908117292E+03  0.79398936920E+02 0.  0.
        -11    1    4    4    0    0 -0.39466058539E+02  0.10723833860E+03  0.13805724253E+03  0.17921337354E+03  0.00000000000E+00 0.  1.
         12    1    4    4    0    0  0.28287687795E+02  0.33155762839E+02  0.24234263456E+02  0.49867799385E+02  0.00000000000E+00 0. -1.
        -11    1    3    3    0    0 -0.16038051805E+02  0.34098325160E+02 -0.21542062692E+02  0.43404784868E+02  0.00000000000E+00 0.  1.
         11    1    3    3    0    0  0.61514382481E+02 -0.15663774498E+01  0.16815307870E+02  0.63790495915E+02  0.00000000000E+00 0. -1.
         -4    1    1    2    0  502 -0.34297959933E+02 -0.17292604915E+03  0.58581676625E+02  0.18577292958E+03  0.00000000000E+00 0.  1.
<scales pt_clust_5="13000.00000" pt_clust_6="13000.00000" pt_clust_7="13000.00000" pt_clust_8="13000.00000" pt_clust_9="151.66144"></scales>
<clustering>
<clus scale="   79.399">  5  6 -1 -1</clus>
<clus scale="   91.335">  7  8 -1 -1</clus>
<clus scale="  107.091">  2  7  1 -1</clus>
<clus scale="  151.661">  1  9  2 -1</clus>
<clus scale="  151.661">  1  5  2 -1</clus>
</clustering>
</event>
<event>
 9    2  0.7820252E-005  0.1408401E+03  0.7546771E-02  0.1212814E+00
          2   -1    0    0  502    0 -0.00000000000E+00  0.00000000000E+00  0.64773338979E+03  0.64773338979E+03  0.00000000000E+00 0. -1.
         21   -1    0    0  501  502  0.00000000000E+00 -0.00000000000E+00 -0.79518624525E+02  0.79518624525E+02  0.00000000000E+00 0.  1.
         23    2    1    2    0    0  0.11219023297E+03 -0.25139832634E+02  0.49538957458E+03  0.51535240089E+03  0.83418265063E+02 0.  0.
         24    2    1    2    0    0 -0.11015183458E+03  0.22484779131E+01  0.10519259725E+03  0.17220303680E+03  0.80311400513E+02 0.  0.
        -11    1    4    4    0    0 -0.85777132693E+02 -0.33394769769E+02  0.81531556611E+02  0.12296471797E+03  0.00000000000E+00 0.  1.
         12    1    4    4    0    0 -0.24374701889E+02  0.35643247682E+02  0.23661040639E+02  0.49238318834E+02  0.00000000000E+00 0. -1.
        -11    1    3    3    0    0  0.32295870043E+02 -0.12724713841E+02  0.40531829196E+02  0.53364508263E+02  0.00000000000E+00 0.  1.
         11    1    3    3    0    0  0.79894362931E+02 -0.12415118793E+02  0.45485774538E+03  0.46198789263E+03  0.00000000000E+00 0. -1.
          1    1    1    2  501    0 -0.20383983920E+01  0.22891354721E+02 -0.32367406555E+02  0.39696576629E+02  0.00000000000E+00 0. -1.
<scales pt_clust_5="13000.00000" pt_clust_6="13000.00000" pt_clust_7="13000.00000" pt_clust_8="13000.00000" pt_clust_9="22.98193"></scales>
<clustering>
<clus scale="   22.982">  2  9  1 -1</clus>
<clus scale="   80.311">  5  6 -1 -1</clus>
<clus scale="   83.418">  7  8 -1 -1</clus>
<clus scale="  139.022">  2  5  1 -1</clus>
<clus scale="   22.982">  2  5  1 -1</clus>
</clustering>
</event>
<event>
 9    2  0.7820252E-005  0.1029953E+03  0.7546771E-02  0.1277993E+00
          2   -1    0    0  502    0 -0.00000000000E+00  0.00000000000E+00  0.48859428500E+03  0.48859428500E+03  0.00000000000E+00 0. -1.
         21   -1    0    0  501  502  0.00000000000E+00 -0.00000000000E+00 -0.14033046386E+03  0.14033046386E+03  0.00000000000E+00 0. -1.
         24    2    1    2    0    0 -0.63332133299E+01  0.62063359425E+02  0.35367821403E+03  0.36820829936E+03  0.81222548998E+02 0.  0.
         23    2    1    2    0    0  0.53869238323E+02  0.13476574279E+01  0.89021383763E+02  0.13743325259E+03  0.89774056001E+02 0.  0.
        -11    1    3    3    0    0 -0.22663831584E+02  0.26986191215E+02  0.45207163697E+02  0.57320078750E+02  0.00000000000E+00 0.  1.
         12    1    3    3    0    0  0.16330618254E+02  0.35077168209E+02  0.30847105033E+03  0.31088822061E+03  0.00000000000E+00 0. -1.
        -11    1    4    4    0    0  0.32951041994E+02  0.18894885151E+01  0.10566269863E+03  0.11069754838E+03  0.00000000000E+00 0. -1.
         11    1    4    4    0    0  0.20918196328E+02 -0.54183108717E+00 -0.16641314871E+02  0.26735704202E+02  0.00000000000E+00 0.  1.
          1    1    1    2  501    0 -0.47536024993E+02 -0.63411016853E+02 -0.94435776655E+02  0.12328319692E+03  0.00000000000E+00 0. -1.
<scales pt_clust_5="13000.00000" pt_clust_6="13000.00000" pt_clust_7="13000.00000" pt_clust_8="13000.00000" pt_clust_9="79.25043"></scales>
<clustering>
<clus scale="   79.250">  2  9  1 -1</clus>
<clus scale="   81.223">  5  6 -1 -1</clus>
<clus scale="   89.774">  7  8 -1 -1</clus>
<clus scale="   95.633">  1  5  2 -1</clus>
<clus scale="   79.250">  2  5  1 -1</clus>
</clustering>
</event>
<event>
 9    2  0.7820252E-005  0.1028257E+03  0.7546771E-02  0.1287321E+00
         21   -1    0    0  501  502  0.00000000000E+00  0.00000000000E+00  0.49460007287E+02  0.49460007287E+02  0.00000000000E+00 0. -1.
          2   -1    0    0  502    0 -0.00000000000E+00 -0.00000000000E+00 -0.12725340127E+04  0.12725340127E+04  0.00000000000E+00 0. -1.
         24    2    1    2    0    0 -0.44433202248E+01 -0.16888823426E+02 -0.88733655681E+03  0.89100433319E+03  0.78851640912E+02 0.  0.
         23    2    1    2    0    0  0.47689080372E+02 -0.15788947420E+02 -0.35564578189E+03  0.37324564631E+03  0.10151281233E+03 0.  0.
        -11    1    3    3    0    0 -0.18913663544E+02  0.20590097524E+02 -0.15060351997E+03  0.15317669213E+03  0.00000000000E+00 0.  1.
         12    1    3    3    0    0  0.14470343319E+02 -0.37478920951E+02 -0.73673303684E+03  0.73782764106E+03  0.00000000000E+00 0. -1.
        -13    1    4    4    0    0  0.48417576327E+02  0.26457898362E+02 -0.10072523825E+03  0.11484709706E+03  0.00000000000E+00 0.  1.
         13    1    4    4    0    0 -0.72849595546E+00 -0.42246845782E+02 -0.25492054363E+03  0.25839854924E+03  0.00000000000E+00 0. -1.
          1    1    1    2  501    0 -0.43245760147E+02  0.32677770846E+02  0.19908333275E+02  0.57744040489E+02  0.00000000000E+00 0. -1.
<scales pt_clust_5="13000.00000" pt_clust_6="13000.00000" pt_clust_7="13000.00000" pt_clust_8="13000.00000" pt_clust_9="54.20362"></scales>
<clustering>
<clus scale="   54.204">  1  9  2 -1</clus>
<clus scale="   78.852">  5  6 -1 -1</clus>
<clus scale="   80.535">  2  5  1 -1</clus>
<clus scale="  101.513">  7  8 -1 -1</clus>
<clus scale="   54.204">  1  5  2 -1</clus>
</clustering>
</event>
<event>
 9    2  0.7820252E-005  0.9882128E+02  0.7546771E-02  0.1290705E+00
         21   -1    0    0  501  502  0.00000000000E+00  0.00000000000E+00  0.29844844288E+03  0.29844844288E+03  0.00000000000E+00 0.  1.
          2   -1    0    0  502    0 -0.00000000000E+00 -0.00000000000E+00 -0.22773415411E+03  0.22773415411E+03  0.00000000000E+00 0. -1.
         24    2    1    2    0    0 -0.18335336721E+02 -0.26136608309E+02 -0.20569794727E+03  0.22271134018E+03  0.79179471236E+02 0.  0.
         23    2    1    2    0    0  0.23141372355E+02  0.25008929137E-01  0.23741558961E+03  0.25629444011E+03  0.93729152895E+02 0.  0.
        -13    1    3    3    0    0  0.25360646330E+02  0.11211954708E+02 -0.60632025738E+02  0.66671679563E+02  0.00000000000E+00 0.  1.
         14    1    3    3    0    0 -0.43695983050E+02 -0.37348563018E+02 -0.14506592154E+03  0.15603966062E+03  0.00000000000E+00 0. -1.
        -11    1    4    4    0    0 -0.15469337180E+02 -0.17899058454E+02  0.11319716223E+02  0.26226182751E+02  0.00000000000E+00 0. -1.
         11    1    4    4    0    0  0.38610709534E+02  0.17924067384E+02  0.22609587338E+03  0.23006825736E+03  0.00000000000E+00 0.  1.
          1    1    1    2  501    0 -0.48060356343E+01  0.26111599380E+02  0.38996646437E+02  0.47176816701E+02  0.00000000000E+00 0. -1.
<scales pt_clust_5="13000.00000" pt_clust_6="13000.00000" pt_clust_7="13000.00000" pt_clust_8="13000.00000" pt_clust_9="26.55021"></scales>
<clustering>
<clus scale="   26.550">  1  9  2 -1</clus>
<clus scale="   79.179">  5  6 -1 -1</clus>
<clus scale="   85.146">  2  5  1 -1</clus>
<clus scale="   93.729">  7  8 -1 -1</clus>
<clus scale="   26.550">  1  5  2 -1</clus>
</clustering>
</event>
<event>
 9    2  0.7820252E-005  0.1401423E+03  0.7546771E-02  0.1215487E+00
         21   -1    0    0  501  502  0.00000000000E+00  0.00000000000E+00  0.37331672018E+03  0.37331672018E+03  0.00000000000E+00 0. -1.
          2   -1    0    0  502    0 -0.00000000000E+00 -0.00000000000E+00 -0.34530811316E+03  0.34530811316E+03  0.00000000000E+00 0. -1.
         24    2    1    2    0    0 -0.10246906479E+03 -0.23050408849E+02 -0.29577201730E+03  0.32381777420E+03  0.79659488337E+02 0.  0.
         23    2    1    2    0    0  0.12718467469E+03  0.36944990846E+02  0.15308777021E+03  0.22177535330E+03  0.90595629685E+02 0.  0.
        -11    1    3    3    0    0 -0.52632162421E+02 -0.49345046018E+02 -0.12927708337E+03  0.14804608192E+03  0.00000000000E+00 0.  1.
         12    1    3    3    0    0 -0.49836902374E+02  0.26294637168E+02 -0.16649493394E+03  0.17577169228E+03  0.00000000000E+00 0. -1.
        -13    1    4    4    0    0  0.49362575601E+02  0.23680416565E+02  0.63060651575E+01  0.55110729050E+02  0.00000000000E+00 0. -1.
         13    1    4    4    0    0  0.77822099085E+02  0.13264574281E+02  0.14678170505E+03  0.16666462425E+03  0.00000000000E+00 0.  1.
          1    1    1    2  501    0 -0.24715609891E+02 -0.13894581997E+02  0.17069285411E+03  0.17303170584E+03  0.00000000000E+00 0. -1.
<scales pt_clust_5="13000.00000" pt_clust_6="13000.00000" pt_clust_7="13000.00000" pt_clust_8="13000.00000" pt_clust_9="28.35350"></scales>
<clustering>
<clus scale="   28.353">  1  9  2 -1</clus>
<clus scale="   79.659">  5  6 -1 -1</clus>
<clus scale="   90.596">  7  8 -1 -1</clus>
<clus scale="  133.334">  2  5  1 -1</clus>
<clus scale="   28.353">  1  5  2 -1</clus>
</clustering>
</event>
<event>
 9    2  0.7820252E-005  0.1308275E+03  0.7546771E-02  0.1240762E+00
          2   -1    0    0  502    0 -0.00000000000E+00  0.00000000000E+00  0.18221344753E+03  0.18221344753E+03  0.00000000000E+00 0. -1.
         21   -1    0    0  501  502  0.00000000000E+00 -0.00000000000E+00 -0.25450833270E+03  0.25450833270E+03  0.00000000000E+00 0. -1.
         24    2    1    2    0    0 -0.53483196704E+02  0.13720092674E+02  0.55001370476E+02  0.11158374633E+03  0.79856674219E+02 0.  0.
         23    2    1    2    0    0 -0.42393836949E+02 -0.31745430685E+02  0.53160256917E+02  0.11999937027E+03  0.93642010707E+02 0.  0.
        -13    1    3    3    0    0 -0.59529839295E+02  0.34645224736E+02  0.22500888201E+02  0.72459528934E+02  0.00000000000E+00 0.  1.
         14    1    3    3    0    0  0.60466425914E+01 -0.20925132062E+02  0.32500482274E+02  0.39124217392E+02  0.00000000000E+00 0. -1.
        -13    1    4    4    0    0 -0.15145668075E+02 -0.35024910424E+02  0.75510731242E+02  0.84605000705E+02  0.00000000000E+00 0.  1.
         13    1    4    4    0    0 -0.27248168875E+02  0.32794797388E+01 -0.22350474325E+02  0.35394369566E+02  0.00000000000E+00 0. -1.
          1    1    1    2  501    0  0.95877033653E+02  0.18025338011E+02 -0.18045651256E+03  0.20513866363E+03  0.00000000000E+00 0. -1.
<scales pt_clust_5="13000.00000" pt_clust_6="13000.00000" pt_clust_7="13000.00000" pt_clust_8="13000.00000" pt_clust_9="91.36200"></scales>
<clustering>
<clus scale="   79.857">  5  6 -1 -1</clus>
<clus scale="   93.642">  7  8 -1 -1</clus>
<clus scale="   97.086">  1  5  2 -1</clus>
<clus scale="   91.362">  2  9  1 -1</clus>
<clus scale="   91.362">  2  5  1 -1</clus>
</clustering>
</event>
<event>
 9    2  0.7820252E-005  0.1038053E+03  0.7546771E-02  0.1284872E+00
         21   -1    0    0  501  502  0.00000000000E+00  0.00000000000E+00  0.11146301566E+03  0.11146301566E+03  0.00000000000E+00 0. -1.
          2   -1    0    0  502    0 -0.00000000000E+00 -0.00000000000E+00 -0.13368080010E+03  0.13368080010E+03  0.00000000000E+00 0. -1.
         24    2    1    2    0    0 -0.20567714909E+02 -0.15176633569E+02 -0.31880244969E+02  0.90479849672E+02  0.80727269706E+02 0.  0.
         23    2    1    2    0    0 -0.14133257237E+01 -0.23105393972E+02  0.24290582443E+02  0.10815953909E+03  0.10282313349E+03 0.  0.
        -11    1    3    3    0    0  0.25564055665E+02 -0.14569811764E+02  0.68858205082E+01  0.30219445411E+02  0.00000000000E+00 0.  1.
         12    1    3    3    0    0 -0.46131770574E+02 -0.60682180546E+00 -0.38766065477E+02  0.60260404260E+02  0.00000000000E+00 0. -1.
        -13    1    4    4    0    0  0.56000002434E+01 -0.48318225686E+02  0.51200784681E+02  0.70622455976E+02  0.00000000000E+00 0. -1.
         13    1    4    4    0    0 -0.70133259671E+01  0.25212831714E+02 -0.26910202239E+02  0.37537083114E+02  0.00000000000E+00 0.  1.
          1    1    1    2  501    0  0.21981040633E+02  0.38282027542E+02 -0.14628121910E+02  0.46504427000E+02  0.00000000000E+00 0. -1.
<scales pt_clust_5="13000.00000" pt_clust_6="13000.00000" pt_clust_7="13000.00000" pt_clust_8="13000.00000" pt_clust_9="44.14388"></scales>
<clustering>
<clus scale="   44.144">  1  9  2 -1</clus>
<clus scale="   80.727">  5  6 -1 -1</clus>
<clus scale="   81.975">  2  5  1 -1</clus>
<clus scale="  102.823">  7  8 -1 -1</clus>
<clus scale="   44.144">  1  5  2 -1</clus>
</clustering>
</event>
<event>
 9    2  0.7820252E-005  0.1066504E+03  0.7546771E-02  0.1271827E+00
          2   -1    0    0  502    0 -0.00000000000E+00  0.00000000000E+00  0.12472067042E+04  0.12472067042E+04  0.00000000000E+00 0. -1.
         21   -1    0    0  501  502  0.00000000000E+00 -0.00000000000E+00 -0.19580244121E+02  0.19580244121E+02  0.00000000000E+00 0.  1.
         24    2    1    2    0    0  0.51579113244E+02 -0.40848571071E+02  0.61117367870E+03  0.62002639730E+03  0.81058356316E+02 0.  0.
         23    2    1    2    0    0  0.20137819230E+02  0.46499979978E+02  0.22146052902E+03  0.24527065544E+03  0.92439973000E+02 0.  0.
        -11    1    3    3    0    0 -0.92056375721E+01 -0.32511707430E+02  0.10896475451E+03  0.11408362112E+03  0.00000000000E+00 0.  1.
         12    1    3    3    0    0  0.60784750816E+02 -0.83368636407E+01  0.50220892419E+03  0.50594277618E+03  0.00000000000E+00 0. -1.
        -13    1    4    4    0    0  0.43747882593E+02  0.60316081117E+01  0.46430763811E+02  0.64078649766E+02  0.00000000000E+00 0.  1.
         13    1    4    4    0    0 -0.23610063363E+02  0.40468371866E+02  0.17502976521E+03  0.18119200568E+03  0.00000000000E+00 0. -1.
          1    1    1    2  501    0 -0.71716932474E+02 -0.56514089064E+01  0.39499225232E+03  0.40148989554E+03  0.00000000000E+00 0. -1.
<scales pt_clust_5="13000.00000" pt_clust_6="13000.00000" pt_clust_7="13000.00000" pt_clust_8="13000.00000" pt_clust_9="71.93929"></scales>
<clustering>
<clus scale="   71.939">  2  9  1 -1</clus>
<clus scale="   81.058">  5  6 -1 -1</clus>
<clus scale="   92.440">  7  8 -1 -1</clus>
<clus scale="   96.952">  1  5  2 -1</clus>
<clus scale="   71.939">  2  5  1 -1</clus>
</clustering>
</event>
<event>
 9    2  0.7820252E-005  0.9201634E+02  0.7546771E-02  0.1303495E+00
          2   -1    0    0  502    0 -0.00000000000E+00  0.00000000000E+00  0.13799327901E+04  0.13799327901E+04  0.00000000000E+00 0. -1.
         21   -1    0    0  501  502  0.00000000000E+00 -0.00000000000E+00 -0.24764985643E+02  0.24764985643E+02  0.00000000000E+00 0. -1.
         24    2    1    2    0    0 -0.10678749584E+02  0.16117985091E+02  0.11130928835E+04  0.11161663263E+04  0.80484008448E+02 0.  0.
         23    2    1    2    0    0  0.46127060517E+02 -0.57649838165E+01  0.22742947871E+03  0.24880417462E+03  0.89545568134E+02 0.  0.
        -13    1    3    3    0    0 -0.97027624998E+01 -0.24705897547E+02  0.15902431279E+03  0.16122424456E+03  0.00000000000E+00 0.  1.
         14    1    3    3    0    0 -0.97598708424E+00  0.40823882638E+02  0.95406857070E+03  0.95494208178E+03  0.00000000000E+00 0. -1.
        -11    1    4    4    0    0  0.35408464991E+02 -0.46681331765E+02  0.13088609155E+03  0.14340179598E+03  0.00000000000E+00 0.  1.
         11    1    4    4    0    0  0.10718595527E+02  0.40916347948E+02  0.96543387162E+02  0.10540237865E+03  0.00000000000E+00 0. -1.
          1    1    1    2  501    0 -0.35448310933E+02 -0.10353001274E+02  0.14645442251E+02  0.39727274789E+02  0.00000000000E+00 0. -1.
<scales pt_clust_5="13000.00000" pt_clust_6="13000.00000" pt_clust_7="13000.00000" pt_clust_8="13000.00000" pt_clust_9="36.92922"></scales>
<clustering>
<clus scale="   36.929">  2  9  1 -1</clus>
<clus scale="   80.484">  5  6 -1 -1</clus>
<clus scale="   83.224">  1  5  2 -1</clus>
<clus scale="   89.546">  7  8 -1 -1</clus>
<clus scale="   36.929">  2  5  1 -1</clus>
</clustering>
</event>
<event>
 9    2  0.7820252E-005  0.2417709E+03  0.7546771E-02  0.1137013E+00
         21   -1    0    0  501  502  0.00000000000E+00  0.00000000000E+00  0.66485910155E+02  0.66485910155E+02  0.00000000000E+00 0. -1.
          2   -1    0    0  502    0 -0.00000000000E+00 -0.00000000000E+00 -0.17737393168E+04  0.17737393168E+04  0.00000000000E+00 0. -1.
         24    2    1    2    0    0  0.73605298137E+02  0.10743957845E+03 -0.37813350039E+03  0.40814367556E+03  0.81457429673E+02 0.  0.
         23    2    1    2    0    0 -0.22487731435E+03 -0.22486209987E+03 -0.97844549156E+03  0.10325270288E+04  0.87313886204E+02 0.  0.
        -13    1    3    3    0    0  0.22849216966E+02 -0.35784714464E+01 -0.23005406637E+02  0.32621172701E+02  0.00000000000E+00 0.  1.
         14    1    3    3    0    0  0.50756081170E+02  0.11101804990E+03 -0.35512809375E+03  0.37552250285E+03  0.00000000000E+00 0. -1.
        -11    1    4    4    0    0 -0.86956837402E+02 -0.10087240069E+03 -0.28290134604E+03  0.31268179414E+03  0.00000000000E+00 0.  1.
         11    1    4    4    0    0 -0.13792047695E+03 -0.12398969919E+03 -0.69554414552E+03  0.71984523464E+03  0.00000000000E+00 0. -1.
          1    1    1    2  501    0  0.15127201622E+03  0.11742252142E+03 -0.35067441470E+03  0.39955452263E+03  0.00000000000E+00 0. -1.
<scales pt_clust_5="13000.00000" pt_clust_6="13000.00000" pt_clust_7="13000.00000" pt_clust_8="13000.00000" pt_clust_9="225.45387"></scales>
<clustering>
<clus scale="   81.457">  5  6 -1 -1</clus>
<clus scale="   87.314">  7  8 -1 -1</clus>
<clus scale="  153.611">  2  5  1 -1</clus>
<clus scale="  225.454">  1  9  2 -1</clus>
<clus scale="  225.454">  1  5  2 -1</clus>
</clustering>
</event>
<event>
 9    2  0.7820252E-005  0.1116967E+03  0.7546771E-02  0.1261596E+00
          2   -1    0    0  502    0 -0.00000000000E+00  0.00000000000E+00  0.16098857127E+03  0.16098857127E+03  0.00000000000E+00 0. -1.
         21   -1    0    0  501  502  0.00000000000E+00 -0.00000000000E+00 -0.21546115809E+03  0.21546115809E+03  0.00000000000E+00 0. -1.
         23    2    1    2    0    0  0.49288199954E+02 -0.75235216131E+02 -0.46107625439E+02  0.12115019032E+03  0.66796639810E+02 0.  0.
         24    2    1    2    0    0  0.44047831257E+02  0.81348758839E+02 -0.72443505922E+02  0.14191942616E+03  0.79594157874E+02 0.  0.
        -13    1    4    4    0    0  0.59204831805E+02  0.34029678609E+02 -0.23615594256E+02  0.72255985408E+02  0.00000000000E+00 0.  1.
         14    1    4    4    0    0 -0.15157000548E+02  0.47319080231E+02 -0.48827911666E+02  0.69663440750E+02  0.00000000000E+00 0. -1.
        -13    1    3    3    0    0  0.34762887185E+02 -0.35199324555E+02  0.10237583358E+02  0.50519886060E+02  0.00000000000E+00 0. -1.
         13    1    3    3    0    0  0.14525312769E+02 -0.40035891577E+02 -0.56345208797E+02  0.70630304260E+02  0.00000000000E+00 0.  1.
          1    1    1    2  501    0 -0.93336031211E+02 -0.61135427080E+01  0.64078544544E+02  0.11338011288E+03  0.00000000000E+00 0. -1.
<scales pt_clust_5="13000.00000" pt_clust_6="13000.00000" pt_clust_7="13000.00000" pt_clust_8="13000.00000" pt_clust_9="93.53608"></scales>
<clustering>
<clus scale="   66.797">  7  8 -1 -1</clus>
<clus scale="   79.594">  5  6 -1 -1</clus>
<clus scale="   93.536">  2  9  1 -1</clus>
<clus scale="  102.970">  1  7  2 -1</clus>
<clus scale="   93.536">  2  5  1 -1</clus>
</clustering>
</event>
<event>
 9    2  0.7820252E-005  0.2393148E+03  0.7546771E-02  0.1120250E+00
         21   -1    0    0  501  502  0.00000000000E+00  0.00000000000E+00  0.10496215236E+03  0.10496215236E+03  0.00000000000E+00 0. -1.
          4   -1    0    0  502    0 -0.00000000000E+00 -0.00000000000E+00 -0.41547954341E+03  0.41547954341E+03  0.00000000000E+00 0. -1.
         24    2    1    2    0    0  0.61907486914E+02  0.67808184125E+02 -0.13403775859E+03  0.18051448409E+03  0.78669380743E+02 0.  0.
         23    2    1    2    0    0  0.39331330888E+02  0.60695332647E+02 -0.11578696185E+03  0.16543923984E+03  0.93448619831E+02 0.  0.
        -13    1    3    3    0    0  0.38784398775E+02  0.32860959957E+02 -0.13059769849E+02  0.52484567885E+02  0.00000000000E+00 0.  1.
         14    1    3    3    0    0  0.23123088139E+02  0.34947224168E+02 -0.12097798875E+03  0.12802991620E+03  0.00000000000E+00 0. -1.
        -11    1    4    4    0    0 -0.15990230001E+02  0.48325818914E+02 -0.21146757466E+02  0.55120391695E+02  0.00000000000E+00 0.  1.
         11    1    4    4    0    0  0.55321560889E+02  0.12369513733E+02 -0.94640204387E+02  0.11031884814E+03  0.00000000000E+00 0. -1.
          3    1    1    2  501    0 -0.10123881780E+03 -0.12850351677E+03 -0.60692670607E+02  0.17448797184E+03  0.00000000000E+00 0. -1.
<scales pt_clust_5="13000.00000" pt_clust_6="13000.00000" pt_clust_7="13000.00000" pt_clust_8="13000.00000" pt_clust_9="163.59233"></scales>
<clustering>
<clus scale="   78.669">  5  6 -1 -1</clus>
<clus scale="   93.449">  7  8 -1 -1</clus>
<clus scale="   94.306">  5  7 -1 -1</clus>
<clus scale="  163.592">  1  9  2 -1</clus>
<clus scale="  163.592">  1  5  2 -1</clus>
</clustering>
</event>
<event>
 9    2  0.7820252E-005  0.1014876E+03  0.7546771E-02  0.1281322E+00
         21   -1    0    0  501  502  0.00000000000E+00  0.00000000000E+00  0.42515984246E+02  0.42515984246E+02  0.00000000000E+00 0.  1.
         -1   -1    0    0    0  501 -0.00000000000E+00 -0.00000000000E+00 -0.75473965042E+03  0.75473965042E+03  0.00000000000E+00 0.  1.
         24    2    1    2    0    0  0.10152650116E+02  0.68424145307E+02 -0.49768225232E+03  0.50915253722E+03  0.82241971773E+02 0.  0.
         23    2    1    2    0    0  0.12371459862E+02 -0.37652205327E+01 -0.19712116253E+03  0.21745200234E+03  0.90892192718E+02 0.  0.
        -11    1    3    3    0    0  0.35722780423E+02  0.43492458326E+02 -0.16045966243E+03  0.17004415379E+03  0.00000000000E+00 0.  1.
         12    1    3    3    0    0 -0.25570130307E+02  0.24931686981E+02 -0.33722258989E+03  0.33910838343E+03  0.00000000000E+00 0. -1.
        -13    1    4    4    0    0 -0.25864417749E+01 -0.30361042571E+02 -0.17257919330E+02  0.35018828745E+02  0.00000000000E+00 0.  1.
         13    1    4    4    0    0  0.14957901637E+02  0.26595822038E+02 -0.17986324320E+03  0.18243317359E+03  0.00000000000E+00 0. -1.
         -2    1    1    2    0  502 -0.22524109978E+02 -0.64658924775E+02 -0.17420251319E+02  0.70651095103E+02  0.00000000000E+00 0.  1.
<scales pt_clust_5="13000.00000" pt_clust_6="13000.00000" pt_clust_7="13000.00000" pt_clust_8="13000.00000" pt_clust_9="68.46979"></scales>
<clustering>
<clus scale="   68.470">  1  9  2 -1</clus>
<clus scale="   82.242">  5  6 -1 -1</clus>
<clus scale="   90.892">  7  8 -1 -1</clus>
<clus scale="   93.819">  2  5  1 -1</clus>
<clus scale="   68.470">  1  5  2 -1</clus>
</clustering>
</event>
<event>
 9    2  0.7820252E-005  0.9930251E+02  0.7546771E-02  0.1288012E+00
          2   -1    0    0  502    0 -0.00000000000E+00  0.00000000000E+00  0.32438806960E+03  0.32438806960E+03  0.00000000000E+00 0. -1.
         21   -1    0    0  501  502  0.00000000000E+00 -0.00000000000E+00 -0.63869849820E+02  0.63869849820E+02  0.00000000000E+00 0.  1.
         23    2    1    2    0    0 -0.22762488472E+02 -0.38198924845E+02  0.18140990900E+03  0.20830053553E+03  0.92207750635E+02 0.  0.
         24    2    1    2    0    0 -0.17587138747E+02  0.34446281948E+02  0.10039146957E+03  0.13418460166E+03  0.80194802642E+02 0.  0.
        -11    1    4    4    0    0 -0.30977801449E+02  0.42119212213E+02  0.26344561960E+02  0.58546461592E+02  0.00000000000E+00 0.  1.
         12    1    4    4    0    0  0.13390662702E+02 -0.76729302653E+01  0.74046907605E+02  0.75638140064E+02  0.00000000000E+00 0. -1.
        -13    1    3    3    0    0  0.16476352024E+02 -0.55046409250E+02  0.12478624866E+03  0.13737971176E+03  0.00000000000E+00 0. -1.
         13    1    3    3    0    0 -0.39238840496E+02  0.16847484406E+02  0.56623660341E+02  0.70920823773E+02  0.00000000000E+00 0.  1.
          1    1    1    2  501    0  0.40349627219E+02  0.37526428970E+01 -0.21283158789E+02  0.45772782234E+02  0.00000000000E+00 0. -1.
<scales pt_clust_5="13000.00000" pt_clust_6="13000.00000" pt_clust_7="13000.00000" pt_clust_8="13000.00000" pt_clust_9="40.52376"></scales>
<clustering>
<clus scale="   40.524">  2  9  1 -1</clus>
<clus scale="   80.195">  5  6 -1 -1</clus>
<clus scale="   88.261">  2  5  1 -1</clus>
<clus scale="   92.208">  7  8 -1 -1</clus>
<clus scale="   40.524">  2  5  1 -1</clus>
</clustering>
</event>
<event>
 9    2  0.7820252E-005  0.3075959E+03  0.7546771E-02  0.1081504E+00
         21   -1    0    0  501  502  0.00000000000E+00  0.00000000000E+00  0.22073565284E+03  0.22073565284E+03  0.00000000000E+00 0. -1.
          2   -1    0    0  502    0 -0.00000000000E+00 -0.00000000000E+00 -0.36761090262E+03  0.36761090262E+03  0.00000000000E+00 0. -1.
         24    2    1    2    0    0  0.70260893062E+02 -0.30537164562E+02 -0.68482925419E+02  0.13118849768E+03  0.81556111578E+02 0.  0.
         23    2    1    2    0    0  0.10323386916E+03 -0.13853502377E+03 -0.89591278510E+02  0.21464774056E+03  0.90542094011E+02 0.  0.
        -11    1    3    3    0    0 -0.29098930517E+01  0.20480941119E+02 -0.23430715430E+02  0.31255957069E+02  0.00000000000E+00 0.  1.
         12    1    3    3    0    0  0.73170786113E+02 -0.51018105682E+02 -0.45052209989E+02  0.99932540609E+02  0.00000000000E+00 0. -1.
        -13    1    4    4    0    0  0.73898360583E+02 -0.11137476030E+03 -0.21062937370E+02  0.13531057704E+03  0.00000000000E+00 0. -1.
         13    1    4    4    0    0  0.29335508578E+02 -0.27160263473E+02 -0.68528341140E+02  0.79337163517E+02  0.00000000000E+00 0.  1.
          1    1    1    2  501    0 -0.17349476222E+03  0.16907218833E+03  0.11198954144E+02  0.24251031722E+03  0.00000000000E+00 0. -1.
<scales pt_clust_5="13000.00000" pt_clust_6="13000.00000" pt_clust_7="13000.00000" pt_clust_8="13000.00000" pt_clust_9="242.25160"></scales>
<clustering>
<clus scale="   81.556">  5  6 -1 -1</clus>
<clus scale="   90.542">  7  8 -1 -1</clus>
<clus scale="  100.618">  5  7 -1 -1</clus>
<clus scale="  242.252">  1  9  2 -1</clus>
<clus scale="  242.252">  1  5  2 -1</clus>
</clustering>
</event>
<event>
 9    2  0.7820252E-005  0.1492841E+03  0.7546771E-02  0.1215306E+00
          2   -1    0    0  502    0 -0.00000000000E+00  0.00000000000E+00  0.55210993398E+03  0.55210993398E+03  0.00000000000E+00 0. -1.
         21   -1    0    0  501  502  0.00000000000E+00 -0.00000000000E+00 -0.14143258240E+03  0.14143258240E+03  0.00000000000E+00 0.  1.
         24    2    1    2    0    0  0.51574761276E+02  0.56815034511E+02  0.48519376074E+03  0.49753065682E+03  0.78967492462E+02 0.  0.
         23    2    1    2    0    0 -0.59382281436E+02 -0.75325742043E+02 -0.74070336800E+02  0.17591701832E+03  0.12751533154E+03 0.  0.
        -13    1    3    3    0    0  0.22920271018E+02 -0.17802880374E+02  0.99740122824E+02  0.10387672248E+03  0.00000000000E+00 0.  1.
         14    1    3    3    0    0  0.28654490258E+02  0.74617914885E+02  0.38545363791E+03  0.39365393433E+03  0.00000000000E+00 0. -1.
        -13    1    4    4    0    0 -0.33745219559E+02 -0.65730266365E+02 -0.10891124728E+03  0.13160876697E+03  0.00000000000E+00 0.  1.
         13    1    4    4    0    0 -0.25637061877E+02 -0.95954756779E+01  0.34840910475E+02  0.44308251352E+02  0.00000000000E+00 0. -1.
          1    1    1    2  501    0  0.78075201599E+01  0.18510707532E+02 -0.44607235924E+00  0.20094841252E+02  0.00000000000E+00 0. -1.
<scales pt_clust_5="13000.00000" pt_clust_6="13000.00000" pt_clust_7="13000.00000" pt_clust_8="13000.00000" pt_clust_9="20.08989"></scales>
<clustering>
<clus scale="   20.090">  2  9  1 -1</clus>
<clus scale="   78.967">  5  6 -1 -1</clus>
<clus scale="  110.731">  1  5  2 -1</clus>
<clus scale="  127.515">  7  8 -1 -1</clus>
<clus scale="   20.090">  2  5  1 -1</clus>
</clustering>
</event>
<event>
 9    2  0.7820252E-005  0.2779676E+03  0.7546771E-02  0.1109824E+00
          2   -1    0    0  502    0 -0.00000000000E+00  0.00000000000E+00  0.31085541751E+04  0.31085541751E+04  0.00000000000E+00 0. -1.
         21   -1    0    0  501  502  0.00000000000E+00 -0.00000000000E+00 -0.19282826282E+03  0.19282826282E+03  0.00000000000E+00 0. -1.
         24    2    1    2    0    0  0.16672944063E+03  0.58244857209E+02  0.26706425277E+04  0.26780232924E+04  0.91027877133E+02 0.  0.
         23    2    1    2    0    0 -0.20412138905E+03 -0.25487334403E+03  0.47743483032E+02  0.34228272104E+03  0.90840838740E+02 0.  0.
        -13    1    3    3    0    0  0.43668643758E+02  0.15636656443E+02  0.27830090092E+03  0.28213976488E+03  0.00000000000E+00 0.  1.
         14    1    3    3    0    0  0.12306079687E+03  0.42608200766E+02  0.23923416267E+04  0.23958835275E+04  0.00000000000E+00 0. -1.
        -13    1    4    4    0    0 -0.58848327206E+02 -0.36580060545E+02 -0.18722769120E+02  0.71775821332E+02  0.00000000000E+00 0.  1.
         13    1    4    4    0    0 -0.14527306184E+03 -0.21829328348E+03  0.66466252152E+02  0.27050689970E+03  0.00000000000E+00 0. -1.
          1    1    1    2  501    0  0.37391948419E+02  0.19662848682E+03  0.19733990158E+03  0.28107642447E+03  0.00000000000E+00 0. -1.
<scales pt_clust_5="13000.00000" pt_clust_6="13000.00000" pt_clust_7="13000.00000" pt_clust_8="13000.00000" pt_clust_9="262.70515"></scales>
<clustering>
<clus scale="   90.841">  7  8 -1 -1</clus>
<clus scale="   91.028">  5  6 -1 -1</clus>
<clus scale="  198.689">  1  5  2 -1</clus>
<clus scale="  262.705">  2  9  1 -1</clus>
<clus scale="  262.705">  2  5  1 -1</clus>
</clustering>
</event>
<event>
 9    2  0.1149635E-004  0.2723779E+03  0.7546771E-02  0.1100541E+00
         21   -1    0    0  501  502  0.00000000000E+00  0.00000000000E+00  0.78595294722E+03  0.78595294722E+03  0.00000000000E+00 0.  1.
          2   -1    0    0  502    0 -0.00000000000E+00 -0.00000000000E+00 -0.59584828218E+03  0.59584828218E+03  0.00000000000E+00 0. -1.
         23    2    1    2    0    0  0.99317371225E+02 -0.23495003444E+03 -0.53264314264E+03  0.59800678964E+03  0.94010340628E+02 0.  0.
         24    2    1    2    0    0 -0.12211604961E+03  0.23885343157E+03  0.66823141613E+03  0.72457406156E+03  0.80691101389E+02 0.  0.
        -13    1    4    4    0    0 -0.11674416671E+03  0.20030231857E+03  0.48914871849E+03  0.54131015886E+03  0.00000000000E+00 0.  1.
         14    1    4    4    0    0 -0.53718828934E+01  0.38551112997E+02  0.17908269764E+03  0.18326390271E+03  0.00000000000E+00 0. -1.
        -11    1    3    3    0    0  0.71874166744E+02 -0.87285001584E+02 -0.30497013204E+03  0.32525582052E+03  0.00000000000E+00 0. -1.
         11    1    3    3    0    0  0.27443204481E+02 -0.14766503285E+03 -0.22767301061E+03  0.27275096912E+03  0.00000000000E+00 0.  1.
          1    1    1    2  501    0  0.22798678382E+02 -0.39033971284E+01  0.54516391550E+02  0.59220378189E+02  0.00000000000E+00 0. -1.
<scales pt_clust_5="13000.00000" pt_clust_6="13000.00000" pt_clust_7="13000.00000" pt_clust_8="13000.00000" pt_clust_9="23.13042"></scales>
<clustering>
<clus scale="   23.130">  1  9  2 -1</clus>
<clus scale="   80.691">  5  6 -1 -1</clus>
<clus scale="   94.010">  7  8 -1 -1</clus>
<clus scale="  268.072">  1  5  2 -1</clus>
<clus scale="   23.130">  1  5  2 -1</clus>
</clustering>
</event>
<event>
 9    2  0.7820252E-005  0.1024197E+03  0.7546771E-02  0.1281202E+00
         21   -1    0    0  501  502  0.00000000000E+00  0.00000000000E+00  0.18128221904E+03  0.18128221904E+03  0.00000000000E+00 0. -1.
          2   -1    0    0  502    0 -0.00000000000E+00 -0.00000000000E+00 -0.16144222917E+04  0.16144222917E+04  0.00000000000E+00 0. -1.
         24    2    1    2    0    0  0.41278107052E+02 -0.16828349075E+02 -0.15442778252E+04  0.15469935813E+04  0.80050382764E+02 0.  0.
         23    2    1    2    0    0 -0.26291976306E+02 -0.37119885404E+02  0.14901368112E+03  0.18111224535E+03  0.92344000036E+02 0.  0.
        -11    1    3    3    0    0 -0.75198964320E+01 -0.21170755234E+02 -0.13440092470E+03  0.13626576342E+03  0.00000000000E+00 0.  1.
         12    1    3    3    0    0  0.48798003484E+02  0.43424061588E+01 -0.14098769005E+04  0.14107278179E+04  0.00000000000E+00 0. -1.
        -11    1    4    4    0    0  0.14356538434E+01 -0.62164774090E+02  0.69494912291E+02  0.93252684004E+02  0.00000000000E+00 0. -1.
         11    1    4    4    0    0 -0.27727630150E+02  0.25044888686E+02  0.79518768831E+02  0.87859561343E+02  0.00000000000E+00 0.  1.
          1    1    1    2  501    0 -0.14986130746E+02  0.53948234479E+02 -0.37875928517E+02  0.67598684005E+02  0.00000000000E+00 0. -1.
<scales pt_clust_5="13000.00000" pt_clust_6="13000.00000" pt_clust_7="13000.00000" pt_clust_8="13000.00000" pt_clust_9="55.99104"></scales>
<clustering>
<clus scale="   55.991">  1  9  2 -1</clus>
<clus scale="   80.050">  5  6 -1 -1</clus>
<clus scale="   91.490">  2  5  1 -1</clus>
<clus scale="   92.344">  7  8 -1 -1</clus>
<clus scale="   55.991">  1  5  2 -1</clus>
</clustering>
</event>
<event>
 9    2  0.7820252E-005  0.1425649E+03  0.7546771E-02  0.1218863E+00
         21   -1    0    0  501  502  0.00000000000E+00  0.00000000000E+00  0.88362532188E+03  0.88362532188E+03  0.00000000000E+00 0.  1.
          2   -1    0    0  502    0 -0.00000000000E+00 -0.00000000000E+00 -0.30890151183E+02  0.30890151183E+02  0.00000000000E+00 0. -1.
         23    2    1    2    0    0  0.76312472486E+02  0.66914908642E+02  0.29324275216E+03  0.33064171366E+03  0.11415530064E+03 0.  0.
         24    2    1    2    0    0 -0.53229123581E+02 -0.28954028618E+02  0.49670895068E+03  0.50696060549E+03  0.81348622969E+02 0.  0.
        -13    1    4    4    0    0 -0.11576537378E+02 -0.50829430721E+02  0.20741135800E+03  0.21386238256E+03  0.00000000000E+00 0.  1.
         14    1    4    4    0    0 -0.41652586203E+02  0.21875402103E+02  0.28929759268E+03  0.29309822293E+03  0.00000000000E+00 0. -1.
        -11    1    3    3    0    0  0.60928927289E+02  0.53040309285E+02  0.29852588541E+03  0.30926253063E+03  0.00000000000E+00 0.  1.
         11    1    3    3    0    0  0.15383545197E+02  0.13874599357E+02 -0.52831332551E+01  0.21379183032E+02  0.00000000000E+00 0. -1.
          1    1    1    2  501    0 -0.23083348905E+02 -0.37960880025E+02  0.62783467860E+02  0.76913153917E+02  0.00000000000E+00 0. -1.
<scales pt_clust_5="13000.00000" pt_clust_6="13000.00000" pt_clust_7="13000.00000" pt_clust_8="13000.00000" pt_clust_9="44.42827"></scales>
<clustering>
<clus scale="   44.428">  1  9  2 -1</clus>
<clus scale="   81.349">  5  6 -1 -1</clus>
<clus scale="  114.155">  7  8 -1 -1</clus>
<clus scale="  117.945">  1  5  2 -1</clus>
<clus scale="   44.428">  1  5  2 -1</clus>
</clustering>
</event>
<event>
 9    2  0.7914472E-005  0.9802883E+02  0.7546771E-02  0.1290736E+00
          2   -1    0    0  502    0 -0.00000000000E+00  0.00000000000E+00  0.53842126329E+03  0.53842126329E+03  0.00000000000E+00 0. -1.
         21   -1    0    0  501  502  0.00000000000E+00 -0.00000000000E+00 -0.24149835759E+03  0.24149835759E+03  0.00000000000E+00 0. -1.
         24    2    1    2    0    0  0.17943643838E+01  0.35992623337E+02  0.49263788671E+03  0.50041274204E+03  0.80138232433E+02 0.  0.
         23    2    1    2    0    0 -0.13787623170E+02 -0.98457556770E+01 -0.12687849316E+02  0.94232952231E+02  0.91824998276E+02 0.  0.
        -11    1    3    3    0    0 -0.37284309033E+02  0.49430078643E+01  0.19002032956E+03  0.19370668205E+03  0.00000000000E+00 0.  1.
         12    1    3    3    0    0  0.39078673416E+02  0.31049615473E+02  0.30261755715E+03  0.30670605999E+03  0.00000000000E+00 0. -1.
        -13    1    4    4    0    0  0.16426447860E+02 -0.30775846698E+02 -0.36459186339E+02  0.50460412184E+02  0.00000000000E+00 0.  1.
         13    1    4    4    0    0 -0.30214071030E+02  0.20930091021E+02  0.23771337023E+02  0.43772540047E+02  0.00000000000E+00 0. -1.
          1    1    1    2  501    0  0.11993258786E+02 -0.26146867660E+02 -0.18302713170E+03  0.18527392661E+03  0.00000000000E+00 0. -1.
<scales pt_clust_5="13000.00000" pt_clust_6="13000.00000" pt_clust_7="13000.00000" pt_clust_8="13000.00000" pt_clust_9="28.76625"></scales>
<clustering>
<clus scale="   28.766">  2  9  1 -1</clus>
<clus scale="   80.138">  5  6 -1 -1</clus>
<clus scale="   87.178">  1  5  2 -1</clus>
<clus scale="   91.825">  7  8 -1 -1</clus>
<clus scale="   28.766">  2  5  1 -1</clus>
</clustering>
</event>
<event>
 9    2  0.7820252E-005  0.1554464E+03  0.7546771E-02  0.1196149E+00
         21   -1    0    0  501  502  0.00000000000E+00  0.00000000000E+00  0.79007781870E+02  0.79007781870E+02  0.00000000000E+00 0.  1.
          2   -1    0    0  502    0 -0.00000000000E+00 -0.00000000000E+00 -0.12959732624E+04  0.12959732624E+04  0.00000000000E+00 0. -1.
         24    2    1    2    0    0  0.12254548134E+02 -0.12602755350E+03 -0.11963909109E+04  0.12058218750E+04  0.81376066472E+02 0.  0.
         23    2    1    2    0    0 -0.79513628348E+01  0.90128432739E+02 -0.24396450091E+02  0.13280162475E+03  0.94099554730E+02 0.  0.
        -11    1    3    3    0    0  0.35532461015E+02 -0.77740888874E+02 -0.48995498801E+03  0.49735509635E+03  0.00000000000E+00 0.  1.
         12    1    3    3    0    0 -0.23277912881E+02 -0.48286664625E+02 -0.70643592292E+03  0.70846677862E+03  0.00000000000E+00 0. -1.
        -11    1    4    4    0    0  0.59228414260E+01  0.49069665876E+02  0.34064864737E+02  0.60027720008E+02  0.00000000000E+00 0.  1.
         11    1    4    4    0    0 -0.13874204261E+02  0.41058766862E+02 -0.58461314828E+02  0.72773904743E+02  0.00000000000E+00 0. -1.
          1    1    1    2  501    0 -0.43031852993E+01  0.35899120761E+02  0.38218804970E+01  0.36357544549E+02  0.00000000000E+00 0. -1.
<scales pt_clust_5="13000.00000" pt_clust_6="13000.00000" pt_clust_7="13000.00000" pt_clust_8="13000.00000" pt_clust_9="36.15611"></scales>
<clustering>
<clus scale="   36.156">  1  9  2 -1</clus>
<clus scale="   81.376">  5  6 -1 -1</clus>
<clus scale="   94.100">  7  8 -1 -1</clus>
<clus scale="  148.091">  2  5  1 -1</clus>
<clus scale="   36.156">  1  5  2 -1</clus>
</clustering>
</event>
<event>
 9    2  0.7820252E-005  0.9615226E+02  0.7546771E-02  0.1294801E+00
         -1   -1    0    0    0  501 -0.00000000000E+00  0.00000000000E+00  0.54312210822E+03  0.54312210822E+03  0.00000000000E+00 0.  1.
         21   -1    0    0  501  502  0.00000000000E+00 -0.00000000000E+00 -0.39835442565E+02  0.39835442565E+02  0.00000000000E+00 0. -1.
         23    2    1    2    0    0 -0.67853400022E+01 -0.29888446037E+02  0.44182316038E+03  0.45251007400E+03  0.92834810157E+02 0.  0.
         24    2    1    2    0    0  0.65601174721E+01 -0.29273021013E+01  0.42514692089E+02  0.92553129289E+02  0.81896144347E+02 0.  0.
        -11    1    4    4    0    0 -0.24151794224E+02 -0.27115322217E+02  0.39022996031E+02  0.53304259515E+02  0.00000000000E+00 0.  1.
         12    1    4    4    0    0  0.30711911697E+02  0.24188020116E+02  0.34916960581E+01  0.39248869774E+02  0.00000000000E+00 0. -1.
        -11    1    3    3    0    0  0.41728068193E+02 -0.43577314195E+01  0.16034074982E+03  0.16573888364E+03  0.00000000000E+00 0.  1.
         11    1    3    3    0    0 -0.48513408196E+02 -0.25530714618E+02  0.28148241056E+03  0.28677119036E+03  0.00000000000E+00 0. -1.
         -2    1    1    2    0  502  0.22522253008E+00  0.32815748138E+02  0.18948813184E+02  0.37894347496E+02  0.00000000000E+00 0.  1.
<scales pt_clust_5="13000.00000" pt_clust_6="13000.00000" pt_clust_7="13000.00000" pt_clust_8="13000.00000" pt_clust_9="32.81652"></scales>
<clustering>
<clus scale="   32.817">  2  9  1 -1</clus>
<clus scale="   81.896">  5  6 -1 -1</clus>
<clus scale="   85.638">  2  5  1 -1</clus>
<clus scale="   92.835">  7  8 -1 -1</clus>
<clus scale="   32.817">  2  5  1 -1</clus>
</clustering>
</event>
<event>
 9    2  0.7820252E-005  0.9163897E+02  0.7546771E-02  0.1306162E+00
         21   -1    0    0  501  502  0.00000000000E+00  0.00000000000E+00  0.90090371076E+02  0.90090371076E+02  0.00000000000E+00 0. -1.
          2   -1    0    0  502    0 -0.00000000000E+00 -0.00000000000E+00 -0.32336919772E+03  0.32336919772E+03  0.00000000000E+00 0. -1.
         24    2    1    2    0    0  0.80627713808E+01 -0.34912265818E+01 -0.18115109230E+03  0.19773223471E+03  0.78772593324E+02 0.  0.
         23    2    1    2    0    0 -0.69767422834E+02  0.14961179271E+02  0.23443199933E+02  0.11749297180E+03  0.90353110764E+02 0.  0.
        -13    1    3    3    0    0 -0.29625321931E+02  0.14927326591E+02 -0.11241111688E+03  0.11720385649E+03  0.00000000000E+00 0.  1.
         14    1    3    3    0    0  0.37688093312E+02 -0.18418553173E+02 -0.68739975418E+02  0.80528378222E+02  0.00000000000E+00 0. -1.
        -13    1    4    4    0    0 -0.30686923357E+02 -0.33955020393E+02 -0.95028049340E+01  0.46743277342E+02  0.00000000000E+00 0.  1.
         13    1    4    4    0    0 -0.39080499477E+02  0.48916199664E+02  0.32946004867E+02  0.70749694456E+02  0.00000000000E+00 0. -1.
          1    1    1    2  501    0  0.61704651453E+02 -0.11469952690E+02 -0.75570934281E+02  0.98234362286E+02  0.00000000000E+00 0. -1.
<scales pt_clust_5="13000.00000" pt_clust_6="13000.00000" pt_clust_7="13000.00000" pt_clust_8="13000.00000" pt_clust_9="62.76167"></scales>
<clustering>
<clus scale="   62.762">  1  9  2 -1</clus>
<clus scale="   78.773">  5  6 -1 -1</clus>
<clus scale="   80.244">  2  5  1 -1</clus>
<clus scale="   90.353">  7  8 -1 -1</clus>
<clus scale="   62.762">  1  5  2 -1</clus>
</clustering>
</event>
<event>
 9    2  0.7820252E-005  0.3058058E+03  0.7546771E-02  0.1082664E+00
          2   -1    0    0  502    0 -0.00000000000E+00  0.00000000000E+00  0.44052852909E+03  0.44052852909E+03  0.00000000000E+00 0. -1.
         21   -1    0    0  501  502  0.00000000000E+00 -0.00000000000E+00 -0.52301695493E+03  0.52301695493E+03  0.00000000000E+00 0. -1.
         23    2    1    2    0    0  0.76541533227E+02  0.24997609514E+03 -0.43646821014E+02  0.27953023517E+03  0.88800072855E+02 0.  0.
         24    2    1    2    0    0 -0.15342208713E+03 -0.32787995229E+03 -0.24929494463E+03  0.44680176112E+03  0.80251133239E+02 0.  0.
        -13    1    4    4    0    0 -0.51392742423E+02 -0.71394514956E+02 -0.25916294608E+02  0.91706297852E+02  0.00000000000E+00 0.  1.
         14    1    4    4    0    0 -0.10202934471E+03 -0.25648543733E+03 -0.22337865002E+03  0.35509546327E+03  0.00000000000E+00 0. -1.
        -11    1    3    3    0    0  0.50975512878E+02  0.24390633315E+03 -0.33749672669E+02  0.25145147180E+03  0.00000000000E+00 0. -1.
         11    1    3    3    0    0  0.25566020349E+02  0.60697619890E+01 -0.98971483448E+01  0.28078763371E+02  0.00000000000E+00 0.  1.
          1    1    1    2  501    0  0.76880553907E+02  0.77903857150E+02  0.21045333980E+03  0.23721348773E+03  0.00000000000E+00 0. -1.
<scales pt_clust_5="13000.00000" pt_clust_6="13000.00000" pt_clust_7="13000.00000" pt_clust_8="13000.00000" pt_clust_9="109.45155"></scales>
<clustering>
<clus scale="   80.251">  5  6 -1 -1</clus>
<clus scale="   88.800">  7  8 -1 -1</clus>
<clus scale="  109.452">  2  9  1 -1</clus>
<clus scale="  303.434">  2  5  1 -1</clus>
<clus scale="  109.452">  2  5  1 -1</clus>
</clustering>
</event>
<event>
 9    2  0.7820252E-005  0.1502041E+03  0.7546771E-02  0.1218222E+00
         21   -1    0    0  501  502  0.00000000000E+00  0.00000000000E+00  0.84955582686E+02  0.84955582686E+02  0.00000000000E+00 0. -1.
          2   -1    0    0  502    0 -0.00000000000E+00 -0.00000000000E+00 -0.49150933458E+03  0.49150933458E+03  0.00000000000E+00 0. -1.
         23    2    1    2    0    0  0.87993707354E+00  0.59073688446E+02 -0.10868761862E+03  0.14920382463E+03  0.83416472516E+02 0.  0.
         24    2    1    2    0    0  0.11172490942E+03 -0.76453628847E+02 -0.71792991812E+02  0.17409913050E+03  0.82635711523E+02 0.  0.
        -11    1    4    4    0    0 -0.24424838412E+00 -0.31062106268E+02 -0.37119409180E+02  0.48402114013E+02  0.00000000000E+00 0.  1.
         12    1    4    4    0    0  0.11196915780E+03 -0.45391522579E+02 -0.34673582632E+02  0.12569701649E+03  0.00000000000E+00 0. -1.
        -13    1    3    3    0    0  0.13112212633E+02  0.78243665531E+02 -0.87689583800E+02  0.11825169945E+03  0.00000000000E+00 0.  1.
         13    1    3    3    0    0 -0.12232275559E+02 -0.19169977085E+02 -0.20998034820E+02  0.30952125179E+02  0.00000000000E+00 0. -1.
          1    1    1    2  501    0 -0.11260484649E+03  0.17379940400E+02 -0.22607314146E+03  0.25316196213E+03  0.00000000000E+00 0. -1.
<scales pt_clust_5="13000.00000" pt_clust_6="13000.00000" pt_clust_7="13000.00000" pt_clust_8="13000.00000" pt_clust_9="125.42980"></scales>
<clustering>
<clus scale="   82.636">  5  6 -1 -1</clus>
<clus scale="   83.416">  7  8 -1 -1</clus>
<clus scale="  102.219">  2  7  1 -1</clus>
<clus scale="  125.430">  1  9  2 -1</clus>
<clus scale="  125.430">  1  5  2 -1</clus>
</clustering>
</event>
<event>
 9    2  0.7820252E-005  0.1035434E+03  0.7546771E-02  0.1278057E+00
         21   -1    0    0  501  502  0.00000000000E+00  0.00000000000E+00  0.97549798495E+02  0.97549798495E+02  0.00000000000E+00 0. -1.
          2   -1    0    0  502    0 -0.00000000000E+00 -0.00000000000E+00 -0.37256231931E+03  0.37256231931E+03  0.00000000000E+00 0. -1.
         24    2    1    2    0    0  0.44699222776E+02 -0.16573990144E+02 -0.29593058118E+03  0.31045674409E+03  0.80844068477E+02 0.  0.
         23    2    1    2    0    0 -0.53347400084E+02 -0.28066004134E+01 -0.24991830968E+02  0.10907754871E+03  0.91757822091E+02 0.  0.
        -13    1    3    3    0    0 -0.10901090014E+02 -0.26151329226E+02 -0.44349462372E+02  0.52626994941E+02  0.00000000000E+00 0.  1.
         14    1    3    3    0    0  0.55600312791E+02  0.95773390820E+01 -0.25158111880E+03  0.25782974915E+03  0.00000000000E+00 0. -1.
        -11    1    4    4    0    0 -0.11944909167E+02  0.28310693908E+02  0.23067441033E+02  0.38422429391E+02  0.00000000000E+00 0.  1.
         11    1    4    4    0    0 -0.41402490917E+02 -0.31117294321E+02 -0.48059272001E+02  0.70655119314E+02  0.00000000000E+00 0. -1.
          1    1    1    2  501    0  0.86481773074E+01  0.19380590557E+02  0.45909891329E+02  0.50577825012E+02  0.00000000000E+00 0. -1.
<scales pt_clust_5="13000.00000" pt_clust_6="13000.00000" pt_clust_7="13000.00000" pt_clust_8="13000.00000" pt_clust_9="21.22259"></scales>
<clustering>
<clus scale="   21.223">  1  9  2 -1</clus>
<clus scale="   80.844">  5  6 -1 -1</clus>
<clus scale="   91.758">  7  8 -1 -1</clus>
<clus scale="   94.008">  2  5  1 -1</clus>
<clus scale="   21.223">  1  5  2 -1</clus>
</clustering>
</event>
<event>
 9    2  0.7820252E-005  0.1427750E+03  0.7546771E-02  0.1213079E+00
         21   -1    0    0  501  502  0.00000000000E+00  0.00000000000E+00  0.13445208852E+03  0.13445208852E+03  0.00000000000E+00 0.  1.
          2   -1    0    0  502    0 -0.00000000000E+00 -0.00000000000E+00 -0.61942003160E+03  0.61942003160E+03  0.00000000000E+00 0. -1.
         24    2    1    2    0    0  0.10735611518E+03 -0.55941908581E+01 -0.52634849864E+03  0.54277747817E+03  0.77511407845E+02 0.  0.
         23    2    1    2    0    0 -0.11006924826E+03 -0.17258392479E+02 -0.18670757485E+02  0.14678475269E+03  0.93723395766E+02 0.  0.
        -11    1    3    3    0    0  0.21593887897E+02 -0.13651137536E+01 -0.20884281809E+02  0.30071793375E+02  0.00000000000E+00 0.  1.
         12    1    3    3    0    0  0.85762227288E+02 -0.42290771045E+01 -0.50546421683E+03  0.51270568480E+03  0.00000000000E+00 0. -1.
        -11    1    4    4    0    0 -0.34478161633E+02  0.12006619536E+02 -0.48243158826E+02  0.60500453848E+02  0.00000000000E+00 0. -1.
         11    1    4    4    0    0 -0.75591086629E+02 -0.29265012015E+02  0.29572401341E+02  0.86284298844E+02  0.00000000000E+00 0.  1.
          1    1    1    2  501    0  0.27131330779E+01  0.22852583337E+02  0.60051313050E+02  0.64309889250E+02  0.00000000000E+00 0. -1.
<scales pt_clust_5="13000.00000" pt_clust_6="13000.00000" pt_clust_7="13000.00000" pt_clust_8="13000.00000" pt_clust_9="23.01308"></scales>
<clustering>
<clus scale="   23.013">  1  9  2 -1</clus>
<clus scale="   77.511">  5  6 -1 -1</clus>
<clus scale="   93.723">  7  8 -1 -1</clus>
<clus scale="  132.698">  2  5  1 -1</clus>
<clus scale="   23.013">  1  5  2 -1</clus>
</clustering>
</event>
<event>
 9    2  0.7820252E-005  0.1280836E+03  0.7546771E-02  0.1231646E+00
         -1   -1    0    0    0  501 -0.00000000000E+00  0.00000000000E+00  0.89059539398E+03  0.89059539398E+03  0.00000000000E+00 0.  1.
         21   -1    0    0  501  502  0.00000000000E+00 -0.00000000000E+00 -0.67331131919E+02  0.67331131919E+02  0.00000000000E+00 0.  1.
         24    2    1    2    0    0 -0.33939709453E+02 -0.80795371840E+02  0.62886684476E+03  0.63991300050E+03  0.79594872844E+02 0.  0.
         23    2    1    2    0    0  0.48727948176E+02  0.15006741287E+03  0.15534571134E+03  0.23712877152E+03  0.84871213680E+02 0.  0.
        -11    1    3    3    0    0 -0.18773889484E+02 -0.94560021896E+02  0.55247894588E+03  0.56082710554E+03  0.00000000000E+00 0.  1.
         12    1    3    3    0    0 -0.15165819969E+02  0.13764650056E+02  0.76387898881E+02  0.79085894962E+02  0.00000000000E+00 0. -1.
        -13    1    4    4    0    0  0.39982521061E+02  0.11728116605E+03  0.63536033664E+02  0.13924906274E+03  0.00000000000E+00 0.  1.
         13    1    4    4    0    0  0.87454271152E+01  0.32786246822E+02  0.91809677674E+02  0.97879708779E+02  0.00000000000E+00 0. -1.
         -2    1    1    2    0  502 -0.14788238723E+02 -0.69272041027E+02  0.39051705969E+02  0.80884753889E+02  0.00000000000E+00 0.  1.
<scales pt_clust_5="13000.00000" pt_clust_6="13000.00000" pt_clust_7="13000.00000" pt_clust_8="13000.00000" pt_clust_9="70.83296"></scales>
<clustering>
<clus scale="   70.833">  2  9  1 -1</clus>
<clus scale="   79.595">  5  6 -1 -1</clus>
<clus scale="   84.871">  7  8 -1 -1</clus>
<clus scale="  124.650">  1  5  2 -1</clus>
<clus scale="   70.833">  2  5  1 -1</clus>
</clustering>
</event>
<event>
 9    2  0.7820252E-005  0.9312500E+02  0.7546771E-02  0.1302035E+00
          2   -1    0    0  502    0 -0.00000000000E+00  0.00000000000E+00  0.21553532244E+03  0.21553532244E+03  0.00000000000E+00 0. -1.
         21   -1    0    0  501  502  0.00000000000E+00 -0.00000000000E+00 -0.51322283364E+02  0.51322283364E+02  0.00000000000E+00 0. -1.
         23    2    1    2    0    0 -0.10154844814E+02 -0.11457359113E+02  0.89030916392E+02  0.12826714146E+03  0.91058023012E+02 0.  0.
         24    2    1    2    0    0  0.28868752563E+02 -0.78720383755E+01  0.71409978731E+02  0.11142311224E+03  0.80127092891E+02 0.  0.
        -13    1    4    4    0    0  0.10286484489E+02 -0.38588449380E+02  0.11462778279E+02  0.41548471387E+02  0.00000000000E+00 0.  1.
         14    1    4    4    0    0  0.18582268074E+02  0.30716411004E+02  0.59947200452E+02  0.69874640849E+02  0.00000000000E+00 0. -1.
        -13    1    3    3    0    0  0.31899098168E+02 -0.32074749387E+02  0.48588296971E+02  0.66386479156E+02  0.00000000000E+00 0. -1.
         13    1    3    3    0    0 -0.42053942983E+02  0.20617390274E+02  0.40442619421E+02  0.61880662308E+02  0.00000000000E+00 0.  1.
          1    1    1    2  501    0 -0.18713907749E+02  0.19329397488E+02  0.37721439575E+01  0.27167352108E+02  0.00000000000E+00 0. -1.
<scales pt_clust_5="13000.00000" pt_clust_6="13000.00000" pt_clust_7="13000.00000" pt_clust_8="13000.00000" pt_clust_9="26.90420"></scales>
<clustering>
<clus scale="   26.904">  2  9  1 -1</clus>
<clus scale="   80.127">  5  6 -1 -1</clus>
<clus scale="   82.468">  2  5  1 -1</clus>
<clus scale="   91.058">  7  8 -1 -1</clus>
<clus scale="   26.904">  2  5  1 -1</clus>
</clustering>
</event>
<event>
 9    2  0.7820252E-005  0.9832546E+02  0.7546771E-02  0.1289479E+00
         21   -1    0    0  501  502  0.00000000000E+00  0.00000000000E+00  0.19743246696E+03  0.19743246696E+03  0.00000000000E+00 0.  1.
         -1   -1    0    0    0  501 -0.00000000000E+00 -0.00000000000E+00 -0.21518335298E+03  0.21518335298E+03  0.00000000000E+00 0.  1.
         24    2    1    2    0    0  0.34503467561E+02  0.13781338091E+02 -0.15871098726E+03  0.18168927160E+03  0.80258329064E+02 0.  0.
         23    2    1    2    0    0 -0.53067262194E+02  0.47213218774E+02  0.67847842580E+02  0.13391957537E+03  0.91026922282E+02 0.  0.
        -13    1    3    3    0    0  0.43479140475E+02  0.10882976716E+02 -0.16458431606E+03  0.17057805232E+03  0.00000000000E+00 0.  1.
         14    1    3    3    0    0 -0.89756729143E+01  0.28983613747E+01  0.58733287960E+01  0.11111219288E+02  0.00000000000E+00 0. -1.
        -13    1    4    4    0    0 -0.38272022975E+02 -0.97031350059E+01  0.63727779018E+02  0.74967515566E+02  0.00000000000E+00 0. -1.
         13    1    4    4    0    0 -0.14795239219E+02  0.56916353780E+02  0.41200635627E+01  0.58952059802E+02  0.00000000000E+00 0.  1.
         -2    1    1    2    0  502  0.18563794633E+02 -0.60994556865E+02  0.73112258667E+02  0.97006972975E+02  0.00000000000E+00 0.  1.
<scales pt_clust_5="13000.00000" pt_clust_6="13000.00000" pt_clust_7="13000.00000" pt_clust_8="13000.00000" pt_clust_9="63.75696"></scales>
<clustering>
<clus scale="   63.757">  1  9  2 -1</clus>
<clus scale="   80.258">  5  6 -1 -1</clus>
<clus scale="   88.450">  2  5  1 -1</clus>
<clus scale="   91.027">  7  8 -1 -1</clus>
<clus scale="   63.757">  1  5  2 -1</clus>
</clustering>
</event>
<event>
 9    2  0.7820252E-005  0.1314761E+03  0.7546771E-02  0.1230560E+00
         -3   -1    0    0    0  501 -0.00000000000E+00  0.00000000000E+00  0.95589724945E+02  0.95589724945E+02  0.00000000000E+00 0.  1.
         21   -1    0    0  501  502  0.00000000000E+00 -0.00000000000E+00 -0.36933379622E+03  0.36933379622E+03  0.00000000000E+00 0.  1.
         24    2    1    2    0    0  0.71674591320E+02  0.49071139230E+02 -0.43537442543E+02  0.12563962371E+03  0.79652886931E+02 0.  0.
         23    2    1    2    0    0  0.53340611661E+02 -0.62646369551E+02 -0.12727023139E+03  0.17677546767E+03  0.91005855312E+02 0.  0.
        -11    1    3    3    0    0  0.72511219546E+02  0.67492216781E+02 -0.40164067654E+02  0.10689353870E+03  0.00000000000E+00 0.  1.
         12    1    3    3    0    0 -0.83662822576E+00 -0.18421077551E+02 -0.33733748888E+01  0.18746085006E+02  0.00000000000E+00 0. -1.
        -13    1    4    4    0    0 -0.25684038176E+02 -0.14561712249E+02 -0.23304184092E+02  0.37613804339E+02  0.00000000000E+00 0. -1.
         13    1    4    4    0    0  0.79024649837E+02 -0.48084657302E+02 -0.10396604730E+03  0.13916166333E+03  0.00000000000E+00 0.  1.
         -4    1    1    2    0  502 -0.12501520298E+03  0.13575230321E+02 -0.10293639734E+03  0.16250842979E+03  0.00000000000E+00 0.  1.
<scales pt_clust_5="13000.00000" pt_clust_6="13000.00000" pt_clust_7="13000.00000" pt_clust_8="13000.00000" pt_clust_9="94.88890"></scales>
<clustering>
<clus scale="   79.653">  5  6 -1 -1</clus>
<clus scale="   91.006">  7  8 -1 -1</clus>
<clus scale="  117.855">  1  5  2 -1</clus>
<clus scale="   94.889">  2  9  1 -1</clus>
<clus scale="   94.889">  2  5  1 -1</clus>
</clustering>
</event>
<event>
 9    2  0.7820252E-005  0.1295279E+03  0.7546771E-02  0.1232546E+00
         21   -1    0    0  501  502  0.00000000000E+00  0.00000000000E+00  0.15932418075E+03  0.15932418075E+03  0.00000000000E+00 0.  1.
         -1   -1    0    0    0  501 -0.00000000000E+00 -0.00000000000E+00 -0.22301842375E+03  0.22301842375E+03  0.00000000000E+00 0.  1.
         24    2    1    2    0    0  0.46226369046E+00 -0.58570713398E+02 -0.22413660991E+02  0.10189017940E+03  0.80302517419E+02 0.  0.
         23    2    1    2    0    0 -0.53658227291E+02  0.14038028728E+03 -0.12923607887E+02  0.17883188140E+03  0.96062436740E+02 0.  0.
        -13    1    3    3    0    0  0.17338653969E+02  0.11413226355E+02  0.98793479307E+01  0.22988957628E+02  0.00000000000E+00 0.  1.
         14    1    3    3    0    0 -0.16876390278E+02 -0.69983939752E+02 -0.32293008922E+02  0.78901221773E+02  0.00000000000E+00 0. -1.
        -13    1    4    4    0    0  0.13250960637E+02  0.15782601073E+02 -0.29981097783E+02  0.36380553579E+02  0.00000000000E+00 0. -1.
         13    1    4    4    0    0 -0.66909187928E+02  0.12459768620E+03  0.17057489896E+02  0.14245132782E+03  0.00000000000E+00 0.  1.
         -2    1    1    2    0  502  0.53195963600E+02 -0.81809573879E+02 -0.28356974125E+02  0.10162054371E+03  0.00000000000E+00 0.  1.
<scales pt_clust_5="13000.00000" pt_clust_6="13000.00000" pt_clust_7="13000.00000" pt_clust_8="13000.00000" pt_clust_9="97.58395"></scales>
<clustering>
<clus scale="   80.303">  5  6 -1 -1</clus>
<clus scale="   96.062">  7  8 -1 -1</clus>
<clus scale="   97.584">  1  9  2 -1</clus>
<clus scale="  118.313">  2  5  1 -1</clus>
<clus scale="   97.584">  1  5  2 -1</clus>
</clustering>
</event>
<event>
 9    2  0.1226394E-004  0.1378722E+03  0.7546771E-02  0.1217967E+00
         21   -1    0    0  501  502  0.00000000000E+00  0.00000000000E+00  0.17493220672E+03  0.17493220672E+03  0.00000000000E+00 0. -1.
          2   -1    0    0  502    0 -0.00000000000E+00 -0.00000000000E+00 -0.55828333690E+03  0.55828333690E+03  0.00000000000E+00 0. -1.
         23    2    1    2    0    0 -0.71953835579E+02 -0.77154371096E+02 -0.50114266484E+03  0.52027865838E+03  0.91737453693E+02 0.  0.
         24    2    1    2    0    0  0.74095391583E+02  0.41127270627E+02  0.37840258533E+02  0.12521719084E+03  0.84058790576E+02 0.  0.
        -13    1    4    4    0    0  0.32338322694E+02  0.54997686771E+02  0.48263208788E+02  0.79999062416E+02  0.00000000000E+00 0.  1.
         14    1    4    4    0    0  0.41757068889E+02 -0.13870416145E+02 -0.10422950255E+02  0.45218128425E+02  0.00000000000E+00 0. -1.
        -13    1    3    3    0    0 -0.49768262739E+02 -0.96708402771E+02 -0.42202261350E+03  0.43581243838E+03  0.00000000000E+00 0. -1.
         13    1    3    3    0    0 -0.22185572840E+02  0.19554031675E+02 -0.79120051340E+02  0.84466220000E+02  0.00000000000E+00 0.  1.
          1    1    1    2  501    0 -0.21415560042E+01  0.36027100469E+02  0.79951276133E+02  0.87719694400E+02  0.00000000000E+00 0. -1.
<scales pt_clust_5="13000.00000" pt_clust_6="13000.00000" pt_clust_7="13000.00000" pt_clust_8="13000.00000" pt_clust_9="36.09069"></scales>
<clustering>
<clus scale="   36.091">  1  9  2 -1</clus>
<clus scale="   84.059">  5  6 -1 -1</clus>
<clus scale="   91.737">  7  8 -1 -1</clus>
<clus scale="  132.887">  1  5  2 -1</clus>
<clus scale="   36.091">  1  5  2 -1</clus>
</clustering>
</event>
<event>
 9    2  0.7820252E-005  0.1067822E+03  0.7546771E-02  0.1272754E+00
         21   -1    0    0  501  502  0.00000000000E+00  0.00000000000E+00  0.41575073445E+03  0.41575073445E+03  0.00000000000E+00 0.  1.
         -3   -1    0    0    0  501 -0.00000000000E+00 -0.00000000000E+00 -0.55055323736E+02  0.55055323736E+02  0.00000000000E+00 0.  1.
         23    2    1    2    0    0  0.66796028696E+02 -0.54038915804E+02  0.15334364377E+03  0.19967397519E+03  0.94728609259E+02 0.  0.
         24    2    1    2    0    0 -0.24493219800E+02 -0.11772462391E+02  0.15491686524E+03  0.17695095932E+03  0.81079579313E+02 0.  0.
        -11    1    4    4    0    0 -0.53650195300E+02 -0.50187501553E+00  0.87497594625E+02  0.10263734408E+03  0.00000000000E+00 0.  1.
         12    1    4    4    0    0  0.29156975500E+02 -0.11270587376E+02  0.67419270613E+02  0.74313615240E+02  0.00000000000E+00 0. -1.
        -13    1    3    3    0    0  0.50232106848E+02 -0.20827191576E+01  0.17401109820E+02  0.53201512201E+02  0.00000000000E+00 0. -1.
         13    1    3    3    0    0  0.16563921848E+02 -0.51956196647E+02  0.13594253395E+03  0.14647246299E+03  0.00000000000E+00 0.  1.
         -4    1    1    2    0  502 -0.42302808895E+02  0.65811378196E+02  0.52434901705E+02  0.94181123678E+02  0.00000000000E+00 0.  1.
<scales pt_clust_5="13000.00000" pt_clust_6="13000.00000" pt_clust_7="13000.00000" pt_clust_8="13000.00000" pt_clust_9="78.23472"></scales>
<clustering>
<clus scale="   78.235">  1  9  2 -1</clus>
<clus scale="   81.080">  5  6 -1 -1</clus>
<clus scale="   94.729">  7  8 -1 -1</clus>
<clus scale="   94.883">  1  5  2 -1</clus>
<clus scale="   78.235">  1  5  2 -1</clus>
</clustering>
</event>
<event>
 9    2  0.7820252E-005  0.9959344E+02  0.7546771E-02  0.1284207E+00
          2   -1    0    0  502    0 -0.00000000000E+00  0.00000000000E+00  0.85906991967E+03  0.85906991967E+03  0.00000000000E+00 0. -1.
         21   -1    0    0  501  502  0.00000000000E+00 -0.00000000000E+00 -0.26910400525E+02  0.26910400525E+02  0.00000000000E+00 0.  1.
         23    2    1    2    0    0  0.34104378622E+02 -0.32669753935E+02  0.53249687411E+03  0.54223299844E+03  0.90737435461E+02 0.  0.
         24    2    1    2    0    0  0.95892797369E+01  0.30158139676E+02  0.82764752955E+02  0.12247793938E+03  0.84553968739E+02 0.  0.
        -13    1    4    4    0    0  0.62405235948E+01  0.47372796979E+02  0.11580724714E+02  0.49165427012E+02  0.00000000000E+00 0.  1.
         14    1    4    4    0    0  0.33487561421E+01 -0.17214657303E+02  0.71184028241E+02  0.73312512372E+02  0.00000000000E+00 0. -1.
        -11    1    3    3    0    0  0.28386295198E+02 -0.64219522755E+02  0.36984412012E+03  0.37644999940E+03  0.00000000000E+00 0. -1.
         11    1    3    3    0    0  0.57180834246E+01  0.31549768820E+02  0.16265275399E+03  0.16578299904E+03  0.00000000000E+00 0.  1.
          1    1    1    2  501    0 -0.43693658359E+02  0.25116142583E+01  0.21689789208E+03  0.22126938237E+03  0.00000000000E+00 0. -1.
<scales pt_clust_5="13000.00000" pt_clust_6="13000.00000" pt_clust_7="13000.00000" pt_clust_8="13000.00000" pt_clust_9="43.76581"></scales>
<clustering>
<clus scale="   43.766">  2  9  1 -1</clus>
<clus scale="   84.554">  5  6 -1 -1</clus>
<clus scale="   90.737">  7  8 -1 -1</clus>
<clus scale="   93.994">  2  5  1 -1</clus>
<clus scale="   43.766">  2  5  1 -1</clus>
</clustering>
</event>
<event>
 9    2  0.7820252E-005  0.1869166E+03  0.7546771E-02  0.1182194E+00
          2   -1    0    0  502    0 -0.00000000000E+00  0.00000000000E+00  0.13806907178E+04  0.13806907178E+04  0.00000000000E+00 0. -1.
         21   -1    0    0  501  502  0.00000000000E+00 -0.00000000000E+00 -0.21158878976E+03  0.21158878976E+03  0.00000000000E+00 0. -1.
         24    2    1    2    0    0 -0.11524150403E+02  0.80078254175E+02  0.94261403220E+03  0.94972375617E+03  0.83118388448E+02 0.  0.
         23    2    1    2    0    0  0.41528256207E+02  0.85802003663E+02  0.38733328977E+03  0.40955844016E+03  0.92867963524E+02 0.  0.
        -11    1    3    3    0    0  0.21581189914E+01  0.78107825609E+02  0.43765279571E+03  0.44457334546E+03  0.00000000000E+00 0.  1.
         12    1    3    3    0    0 -0.13682269395E+02  0.19704285658E+01  0.50496123649E+03  0.50515041071E+03  0.00000000000E+00 0. -1.
        -13    1    4    4    0    0  0.53457824097E+02  0.81912460159E+01  0.17528827011E+03  0.18344157955E+03  0.00000000000E+00 0.  1.
         13    1    4    4    0    0 -0.11929567890E+02  0.77610757647E+02  0.21204501965E+03  0.22611686061E+03  0.00000000000E+00 0. -1.
          1    1    1    2  501    0 -0.30004105804E+02 -0.16588025784E+03 -0.16084539391E+03  0.23299731125E+03  0.00000000000E+00 0. -1.
<scales pt_clust_5="13000.00000" pt_clust_6="13000.00000" pt_clust_7="13000.00000" pt_clust_8="13000.00000" pt_clust_9="162.21388"></scales>
<clustering>
<clus scale="   83.118">  5  6 -1 -1</clus>
<clus scale="   92.868">  7  8 -1 -1</clus>
<clus scale="  115.991">  1  5  2 -1</clus>
<clus scale="  162.214">  2  9  1 -1</clus>
<clus scale="  162.214">  2  5  1 -1</clus>
</clustering>
</event>
<event>
 9    2  0.7820252E-005  0.1446523E+03  0.7546771E-02  0.1230215E+00
          2   -1    0    0  502    0 -0.00000000000E+00  0.00000000000E+00  0.33443779635E+03  0.33443779635E+03  0.00000000000E+00 0. -1.
         21   -1    0    0  501  502  0.00000000000E+00 -0.00000000000E+00 -0.37330857389E+03  0.37330857389E+03  0.00000000000E+00 0.  1.
         24    2    1    2    0    0  0.21052704397E+02 -0.33662341939E+02  0.25813743626E+03  0.27309018664E+03  0.79793135118E+02 0.  0.
         23    2    1    2    0    0  0.10375853484E+03  0.29631841992E+02 -0.27253572126E+03  0.30740449103E+03  0.92617072575E+02 0.  0.
        -11    1    3    3    0    0 -0.74526584269E+01 -0.40719921863E+02  0.60646414497E+02  0.73427799542E+02  0.00000000000E+00 0.  1.
         12    1    3    3    0    0  0.28505362824E+02  0.70575799244E+01  0.19749102176E+03  0.19966238710E+03  0.00000000000E+00 0. -1.
        -13    1    4    4    0    0  0.19977794467E+02 -0.81340320736E+01 -0.19728004084E+01  0.21660256023E+02  0.00000000000E+00 0. -1.
         13    1    4    4    0    0  0.83780740373E+02  0.37765874066E+02 -0.27056292085E+03  0.28574423501E+03  0.00000000000E+00 0.  1.
          1    1    1    2  501    0 -0.12481123924E+03  0.40304999464E+01 -0.24472492540E+02  0.12725169257E+03  0.00000000000E+00 0. -1.
<scales pt_clust_5="13000.00000" pt_clust_6="13000.00000" pt_clust_7="13000.00000" pt_clust_8="13000.00000" pt_clust_9="111.11429"></scales>
<clustering>
<clus scale="   79.793">  5  6 -1 -1</clus>
<clus scale="   89.125">  1  5  2 -1</clus>
<clus scale="   92.617">  7  8 -1 -1</clus>
<clus scale="  111.114">  2  9  1 -1</clus>
<clus scale="  111.114">  2  5  1 -1</clus>
</clustering>
</event>
<event>
 9    2  0.7820252E-005  0.1014974E+03  0.7546771E-02  0.1282540E+00
          2   -1    0    0  502    0 -0.00000000000E+00  0.00000000000E+00  0.49653284593E+03  0.49653284593E+03  0.00000000000E+00 0. -1.
         21   -1    0    0  501  502  0.00000000000E+00 -0.00000000000E+00 -0.57679660746E+02  0.57679660746E+02  0.00000000000E+00 0.  1.
         24    2    1    2    0    0 -0.23560327016E+02  0.44708866377E+02  0.34097047779E+03  0.35409448165E+03  0.81043589935E+02 0.  0.
         23    2    1    2    0    0  0.84742758621E+00  0.88574981777E+01  0.76842893520E+01  0.92782169741E+02  0.92034283349E+02 0.  0.
        -11    1    3    3    0    0 -0.29196891471E+02  0.14267072205E+01  0.37730223543E+02  0.47729065921E+02  0.00000000000E+00 0.  1.
         12    1    3    3    0    0  0.56365644545E+01  0.43282159156E+02  0.30324025424E+03  0.30636541573E+03  0.00000000000E+00 0. -1.
        -11    1    4    4    0    0 -0.17890763852E+02 -0.29627531523E+02 -0.21710957603E+02  0.40856281468E+02  0.00000000000E+00 0.  1.
         11    1    4    4    0    0  0.18738191438E+02  0.38485029701E+02  0.29395246955E+02  0.51925888273E+02  0.00000000000E+00 0. -1.
          1    1    1    2  501    0  0.22712899430E+02 -0.53566364555E+02  0.90198418047E+02  0.10733585529E+03  0.00000000000E+00 0. -1.
<scales pt_clust_5="13000.00000" pt_clust_6="13000.00000" pt_clust_7="13000.00000" pt_clust_8="13000.00000" pt_clust_9="58.18277"></scales>
<clustering>
<clus scale="   58.183">  2  9  1 -1</clus>
<clus scale="   81.044">  5  6 -1 -1</clus>
<clus scale="   91.649">  1  5  2 -1</clus>
<clus scale="   92.034">  7  8 -1 -1</clus>
<clus scale="   58.183">  2  5  1 -1</clus>
</clustering>
</event>
<event>
 9    2  0.7820252E-005  0.9429349E+02  0.7546771E-02  0.1299877E+00
          4   -1    0    0  502    0 -0.00000000000E+00  0.00000000000E+00  0.39017513433E+03  0.39017513433E+03  0.00000000000E+00 0. -1.
         21   -1    0    0  501  502  0.00000000000E+00 -0.00000000000E+00 -0.12961674485E+03  0.12961674485E+03  0.00000000000E+00 0. -1.
         24    2    1    2    0    0 -0.22365240734E+02 -0.11253431780E+02  0.34798157935E+03  0.35779112585E+03  0.79350276900E+02 0.  0.
         23    2    1    2    0    0  0.27098494001E+01 -0.56987001305E+01 -0.25881174933E+02  0.95209071309E+02  0.91406310377E+02 0.  0.
        -11    1    3    3    0    0  0.12527237081E+02  0.24022298798E+02  0.63854466951E+02  0.69364223185E+02  0.00000000000E+00 0.  1.
         12    1    3    3    0    0 -0.34892477815E+02 -0.35275730578E+02  0.28412711240E+03  0.28842690266E+03  0.00000000000E+00 0. -1.
        -11    1    4    4    0    0 -0.23364712875E+02  0.35111755845E+02 -0.19132746654E+02  0.46312063231E+02  0.00000000000E+00 0.  1.
         11    1    4    4    0    0  0.26074562275E+02 -0.40810455975E+02 -0.67484282796E+01  0.48897008078E+02  0.00000000000E+00 0. -1.
          3    1    1    2  501    0  0.19655391334E+02  0.16952131910E+02 -0.61542014944E+02  0.66791682029E+02  0.00000000000E+00 0. -1.
<scales pt_clust_5="13000.00000" pt_clust_6="13000.00000" pt_clust_7="13000.00000" pt_clust_8="13000.00000" pt_clust_9="25.95591"></scales>
<clustering>
<clus scale="   25.956">  2  9  1 -1</clus>
<clus scale="   79.350">  5  6 -1 -1</clus>
<clus scale="   82.660">  1  5  2 -1</clus>
<clus scale="   91.406">  7  8 -1 -1</clus>
<clus scale="   25.956">  2  5  1 -1</clus>
</clustering>
</event>
<event>
 9    2  0.7820252E-005  0.1068528E+03  0.7546771E-02  0.1271226E+00
          2   -1    0    0  502    0 -0.00000000000E+00  0.00000000000E+00  0.22394561001E+03  0.22394561001E+03  0.00000000000E+00 0. -1.
         21   -1    0    0  501  502  0.00000000000E+00 -0.00000000000E+00 -0.83321979941E+02  0.83321979941E+02  0.00000000000E+00 0. -1.
         23    2    1    2    0    0  0.16107253097E+02 -0.59674367003E+02  0.14272428191E+03  0.18022395431E+03  0.91049323880E+02 0.  0.
         24    2    1    2    0    0  0.25543728529E+01  0.45969126287E+02  0.20742396129E+02  0.94518341685E+02  0.79898589007E+02 0.  0.
        -11    1    4    4    0    0 -0.25664262247E+02 -0.77623750795E+01  0.20624992256E+02  0.33827490730E+02  0.00000000000E+00 0.  1.
         12    1    4    4    0    0  0.28218635100E+02  0.53731501366E+02  0.11740387381E+00  0.60690850955E+02  0.00000000000E+00 0. -1.
        -11    1    3    3    0    0  0.41328834402E+02 -0.44483673792E+01  0.92569818593E+02  0.10147429152E+03  0.00000000000E+00 0.  1.
         11    1    3    3    0    0 -0.25221581305E+02 -0.55225999624E+02  0.50154463318E+02  0.78749662785E+02  0.00000000000E+00 0. -1.
          1    1    1    2  501    0 -0.18661625950E+02  0.13705240716E+02 -0.22843047975E+02  0.32525293957E+02  0.00000000000E+00 0. -1.
<scales pt_clust_5="13000.00000" pt_clust_6="13000.00000" pt_clust_7="13000.00000" pt_clust_8="13000.00000" pt_clust_9="23.15362"></scales>
<clustering>
<clus scale="   23.154">  2  9  1 -1</clus>
<clus scale="   79.899">  5  6 -1 -1</clus>
<clus scale="   91.049">  7  8 -1 -1</clus>
<clus scale="   97.526">  2  5  1 -1</clus>
<clus scale="   23.154">  2  5  1 -1</clus>
</clustering>
</event>
<event>
 9    2  0.7820252E-005  0.9689340E+02  0.7546771E-02  0.1293636E+00
          2   -1    0    0  502    0 -0.00000000000E+00  0.00000000000E+00  0.22928258151E+03  0.22928258151E+03  0.00000000000E+00 0. -1.
         21   -1    0    0  501  502  0.00000000000E+00 -0.00000000000E+00 -0.63647600426E+02  0.63647600426E+02  0.00000000000E+00 0. -1.
         23    2    1    2    0    0 -0.20767030029E+01 -0.24544073907E+02  0.90889713234E+02  0.13156651456E+03  0.91880811502E+02 0.  0.
         24    2    1    2    0    0 -0.34963176755E+02  0.36162386403E+02  0.23746873749E+02  0.97271748397E+02  0.79798102134E+02 0.  0.
        -13    1    4    4    0    0  0.19126569868E+02  0.25009246654E+02  0.27655412981E+02  0.41905965688E+02  0.00000000000E+00 0.  1.
         14    1    4    4    0    0 -0.54089746623E+02  0.11153139749E+02 -0.39085392321E+01  0.55365782709E+02  0.00000000000E+00 0. -1.
        -11    1    3    3    0    0 -0.42965774317E+02 -0.28563340397E+02  0.65064636241E+02  0.83038118154E+02  0.00000000000E+00 0. -1.
         11    1    3    3    0    0  0.40889071314E+02  0.40192664905E+01  0.25825076992E+02  0.48528396405E+02  0.00000000000E+00 0.  1.
          1    1    1    2  501    0  0.37039879758E+02 -0.11618312496E+02  0.50998394103E+02  0.64091918983E+02  0.00000000000E+00 0. -1.
<scales pt_clust_5="13000.00000" pt_clust_6="13000.00000" pt_clust_7="13000.00000" pt_clust_8="13000.00000" pt_clust_9="38.81932"></scales>
<clustering>
<clus scale="   38.819">  2  9  1 -1</clus>
<clus scale="   79.798">  5  6 -1 -1</clus>
<clus scale="   85.522">  2  5  1 -1</clus>
<clus scale="   91.881">  7  8 -1 -1</clus>
<clus scale="   38.819">  2  5  1 -1</clus>
</clustering>
</event>
<event>
 9    2  0.7820252E-005  0.9276683E+02  0.7546771E-02  0.1302592E+00
         21   -1    0    0  501  502  0.00000000000E+00  0.00000000000E+00  0.60082484206E+02  0.60082484206E+02  0.00000000000E+00 0. -1.
          2   -1    0    0  502    0 -0.00000000000E+00 -0.00000000000E+00 -0.51693163815E+03  0.51693163815E+03  0.00000000000E+00 0. -1.
         24    2    1    2    0    0  0.17955194255E+01 -0.15915530225E+02 -0.29048625128E+03  0.30223873569E+03  0.81911312877E+02 0.  0.
         23    2    1    2    0    0  0.39227513510E+02 -0.31565006228E+02 -0.18197930807E+03  0.21011347600E+03  0.92174057075E+02 0.  0.
        -13    1    3    3    0    0 -0.60925057538E+01 -0.47548721910E+02 -0.13202615365E+03  0.14045961992E+03  0.00000000000E+00 0.  1.
         14    1    3    3    0    0  0.78880251793E+01  0.31633191685E+02 -0.15846009763E+03  0.16177911577E+03  0.00000000000E+00 0. -1.
        -13    1    4    4    0    0  0.87831667210E+01  0.24350242250E+02 -0.11430131258E+03  0.11719585476E+03  0.00000000000E+00 0.  1.
         13    1    4    4    0    0  0.30444346789E+02 -0.55915248478E+02 -0.67677995488E+02  0.92917621240E+02  0.00000000000E+00 0. -1.
          1    1    1    2  501    0 -0.41023032936E+02  0.47480536453E+02  0.15616405404E+02  0.64661910665E+02  0.00000000000E+00 0. -1.
<scales pt_clust_5="13000.00000" pt_clust_6="13000.00000" pt_clust_7="13000.00000" pt_clust_8="13000.00000" pt_clust_9="62.74783"></scales>
<clustering>
<clus scale="   62.748">  1  9  2 -1</clus>
<clus scale="   81.911">  5  6 -1 -1</clus>
<clus scale="   82.578">  2  5  1 -1</clus>
<clus scale="   92.174">  7  8 -1 -1</clus>
<clus scale="   62.748">  1  5  2 -1</clus>
</clustering>
</event>
<event>
 9    2  0.7820252E-005  0.1011079E+03  0.7546771E-02  0.1283536E+00
          4   -1    0    0  502    0 -0.00000000000E+00  0.00000000000E+00  0.35186565752E+03  0.35186565752E+03  0.00000000000E+00 0. -1.
         21   -1    0    0  501  502  0.00000000000E+00 -0.00000000000E+00 -0.17696068269E+03  0.17696068269E+03  0.00000000000E+00 0. -1.
         24    2    1    2    0    0 -0.14862432576E+02  0.42457286292E+02  0.30115412310E+03  0.31513365811E+03  0.81190538563E+02 0.  0.
         23    2    1    2    0    0  0.57169010778E+01 -0.10265384297E+02 -0.11124764710E+02  0.93802803518E+02  0.92396669233E+02 0.  0.
        -11    1    3    3    0    0 -0.83983385433E+01 -0.22616375514E+02  0.12330776342E+03  0.12564568059E+03  0.00000000000E+00 0.  1.
         12    1    3    3    0    0 -0.64640940329E+01  0.65073661806E+02  0.17784635968E+03  0.18948797751E+03  0.00000000000E+00 0. -1.
        -13    1    4    4    0    0 -0.21403577837E+02 -0.21792278556E+02 -0.41468998523E+02  0.51504314260E+02  0.00000000000E+00 0.  1.
         13    1    4    4    0    0  0.27120478915E+02  0.11526894259E+02  0.30344233813E+02  0.42298489258E+02  0.00000000000E+00 0. -1.
          3    1    1    2  501    0  0.91455314984E+01 -0.32191901995E+02 -0.11512438356E+03  0.11988987860E+03  0.00000000000E+00 0. -1.
<scales pt_clust_5="13000.00000" pt_clust_6="13000.00000" pt_clust_7="13000.00000" pt_clust_8="13000.00000" pt_clust_9="33.46579"></scales>
<clustering>
<clus scale="   33.466">  2  9  1 -1</clus>
<clus scale="   81.191">  5  6 -1 -1</clus>
<clus scale="   90.981">  1  5  2 -1</clus>
<clus scale="   92.397">  7  8 -1 -1</clus>
<clus scale="   33.466">  2  5  1 -1</clus>
</clustering>
</event>
<event>
 9    2  0.7820252E-005  0.9560513E+02  0.7546771E-02  0.1300036E+00
          2   -1    0    0  502    0 -0.00000000000E+00  0.00000000000E+00  0.35021085537E+02  0.35021085537E+02  0.00000000000E+00 0. -1.
         21   -1    0    0  501  502  0.00000000000E+00 -0.00000000000E+00 -0.60064625874E+03  0.60064625874E+03  0.00000000000E+00 0.  1.
         24    2    1    2    0    0  0.19685590569E+02  0.23836404078E+02 -0.15887621942E+03  0.17813568262E+03  0.74397390341E+02 0.  0.
         23    2    1    2    0    0  0.31993403369E+02 -0.32565633889E+02 -0.38887320023E+03  0.40215603135E+03  0.91776954201E+02 0.  0.
        -11    1    3    3    0    0 -0.11592811792E+02  0.18176926656E+02 -0.65554947284E+01  0.22533718269E+02  0.00000000000E+00 0.  1.
         12    1    3    3    0    0  0.31278402362E+02  0.56594774222E+01 -0.15232072469E+03  0.15560196435E+03  0.00000000000E+00 0. -1.
        -11    1    4    4    0    0 -0.19710669622E+02  0.98227072702E+01 -0.30617688598E+02  0.37715234722E+02  0.00000000000E+00 0. -1.
         11    1    4    4    0    0  0.51704072992E+02 -0.42388341159E+02 -0.35825551163E+03  0.36444079662E+03  0.00000000000E+00 0.  1.
          1    1    1    2  501    0 -0.51678993939E+02  0.87292298109E+01 -0.17875753558E+02  0.55375630316E+02  0.00000000000E+00 0. -1.
<scales pt_clust_5="13000.00000" pt_clust_6="13000.00000" pt_clust_7="13000.00000" pt_clust_8="13000.00000" pt_clust_9="52.41107"></scales>
<clustering>
<clus scale="   52.411">  2  9  1 -1</clus>
<clus scale="   74.397">  5  6 -1 -1</clus>
<clus scale="   79.072">  1  5  2 -1</clus>
<clus scale="   91.777">  7  8 -1 -1</clus>
<clus scale="   52.411">  2  5  1 -1</clus>
</clustering>
</event>
<event>
 9    2  0.7820252E-005  0.9161553E+02  0.7546771E-02  0.1301434E+00
         21   -1    0    0  501  502  0.00000000000E+00  0.00000000000E+00  0.16002745610E+02  0.16002745610E+02  0.00000000000E+00 0.  1.
          2   -1    0    0  502    0 -0.00000000000E+00 -0.00000000000E+00 -0.11518931859E+04  0.11518931859E+04  0.00000000000E+00 0. -1.
         24    2    1    2    0    0 -0.90304866846E+01 -0.32214343136E+02 -0.88059900104E+03  0.88483995962E+03  0.79798746374E+02 0.  0.
         23    2    1    2    0    0 -0.34934347444E+01  0.51584109996E+02 -0.21516220845E+03  0.23676999518E+03  0.84214785986E+02 0.  0.
        -13    1    3    3    0    0 -0.11962506870E+02  0.21400267540E+02 -0.12792483104E+03  0.13025296703E+03  0.00000000000E+00 0.  1.
         14    1    3    3    0    0  0.29320201850E+01 -0.53614610677E+02 -0.75267417000E+03  0.75458699260E+03  0.00000000000E+00 0. -1.
        -13    1    4    4    0    0  0.38414712416E+02  0.29901227695E+02 -0.13788534830E+03  0.14622634107E+03  0.00000000000E+00 0.  1.
         13    1    4    4    0    0 -0.41908147160E+02  0.21682882302E+02 -0.77276860153E+02  0.90543654104E+02  0.00000000000E+00 0. -1.
          1    1    1    2  501    0  0.12523921429E+02 -0.19369766860E+02 -0.40129230845E+02  0.46285976758E+02  0.00000000000E+00 0. -1.
<scales pt_clust_5="13000.00000" pt_clust_6="13000.00000" pt_clust_7="13000.00000" pt_clust_8="13000.00000" pt_clust_9="23.06592"></scales>
<clustering>
<clus scale="   23.066">  1  9  2 -1</clus>
<clus scale="   79.799">  5  6 -1 -1</clus>
<clus scale="   84.215">  7  8 -1 -1</clus>
<clus scale="   87.573">  2  5  1 -1</clus>
<clus scale="   23.066">  1  5  2 -1</clus>
</clustering>
</event>
<event>
 9    2  0.7820252E-005  0.2491975E+03  0.7546771E-02  0.1145038E+00
          2   -1    0    0  502    0 -0.00000000000E+00  0.00000000000E+00  0.17308599861E+04  0.17308599861E+04  0.00000000000E+00 0. -1.
         21   -1    0    0  501  502  0.00000000000E+00 -0.00000000000E+00 -0.60307813221E+02  0.60307813221E+02  0.00000000000E+00 0.  1.
         24    2    1    2    0    0 -0.25175027153E+01  0.82889992048E+02  0.59620292656E+03  0.60731317096E+03  0.80587029831E+02 0.  0.
         23    2    1    2    0    0 -0.20480093557E+03  0.72308083583E+02  0.44728739473E+03  0.50541970647E+03  0.90615583875E+02 0.  0.
        -11    1    3    3    0    0 -0.22449556083E+02 -0.69484517110E+01  0.11089342720E+03  0.11335614560E+03  0.00000000000E+00 0.  1.
         12    1    3    3    0    0  0.19932053367E+02  0.89838443759E+02  0.48530949936E+03  0.49395702536E+03  0.00000000000E+00 0. -1.
        -11    1    4    4    0    0 -0.16118508305E+03  0.87326453500E+02  0.39639332239E+03  0.43673127494E+03  0.00000000000E+00 0.  1.
         11    1    4    4    0    0 -0.43615852520E+02 -0.15018369917E+02  0.50894072338E+02  0.68688431523E+02  0.00000000000E+00 0. -1.
          1    1    1    2  501    0  0.20731843828E+03 -0.15519807563E+03  0.62706185160E+03  0.67843492191E+03  0.00000000000E+00 0. -1.
<scales pt_clust_5="13000.00000" pt_clust_6="13000.00000" pt_clust_7="13000.00000" pt_clust_8="13000.00000" pt_clust_9="232.13849"></scales>
<clustering>
<clus scale="   80.587">  5  6 -1 -1</clus>
<clus scale="   90.616">  7  8 -1 -1</clus>
<clus scale="  115.635">  1  5  2 -1</clus>
<clus scale="  232.138">  2  9  1 -1</clus>
<clus scale="  232.138">  2  5  1 -1</clus>
</clustering>
</event>
<event>
 9    2  0.7820252E-005  0.1321245E+03  0.7546771E-02  0.1227298E+00
          2   -1    0    0  502    0 -0.00000000000E+00  0.00000000000E+00  0.16094555343E+04  0.16094555343E+04  0.00000000000E+00 0. -1.
         21   -1    0    0  501  502  0.00000000000E+00 -0.00000000000E+00 -0.45531365960E+02  0.45531365960E+02  0.00000000000E+00 0.  1.
         24    2    1    2    0    0  0.84435114728E+02  0.38638484007E+02  0.10913927201E+04  0.10981909033E+04  0.79138925747E+02 0.  0.
         23    2    1    2    0    0 -0.10342446309E+03 -0.85879174853E+02  0.12327504460E+03  0.20384796437E+03  0.91024193033E+02 0.  0.
        -13    1    3    3    0    0  0.92064680758E+01 -0.20228631237E+02  0.11435576367E+03  0.11649548172E+03  0.00000000000E+00 0.  1.
         14    1    3    3    0    0  0.75228646652E+02  0.58867115244E+02  0.97703695647E+03  0.98169542163E+03  0.00000000000E+00 0. -1.
        -11    1    4    4    0    0  0.34497228706E+01 -0.49039017604E+02  0.41342452203E+02  0.64233357297E+02  0.00000000000E+00 0. -1.
         11    1    4    4    0    0 -0.10687418596E+03 -0.36840157249E+02  0.81932592398E+02  0.13961460707E+03  0.00000000000E+00 0.  1.
          1    1    1    2  501    0  0.18989348364E+02  0.47240690846E+02  0.34925640357E+03  0.35294803251E+03  0.00000000000E+00 0. -1.
<scales pt_clust_5="13000.00000" pt_clust_6="13000.00000" pt_clust_7="13000.00000" pt_clust_8="13000.00000" pt_clust_9="50.91445"></scales>
<clustering>
<clus scale="   50.914">  2  9  1 -1</clus>
<clus scale="   79.139">  5  6 -1 -1</clus>
<clus scale="   91.024">  7  8 -1 -1</clus>
<clus scale="  124.235">  1  5  2 -1</clus>
<clus scale="   50.914">  2  5  1 -1</clus>
</clustering>
</event>
<event>
 9    2  0.7820252E-005  0.1352256E+03  0.7546771E-02  0.1237165E+00
         21   -1    0    0  501  502  0.00000000000E+00  0.00000000000E+00  0.83399690195E+02  0.83399690195E+02  0.00000000000E+00 0. -1.
          2   -1    0    0  502    0 -0.00000000000E+00 -0.00000000000E+00 -0.61979723153E+03  0.61979723153E+03  0.00000000000E+00 0. -1.
         23    2    1    2    0    0 -0.20675065925E+02 -0.15274530611E+02 -0.19797013244E+02  0.96641634479E+02  0.91032489502E+02 0.  0.
         24    2    1    2    0    0  0.99841979439E+02 -0.58638436139E+02 -0.46643963535E+03  0.48719598928E+03  0.79919406256E+02 0.  0.
        -13    1    4    4    0    0 -0.32816144175E+01 -0.25625795875E+02 -0.43296014935E+02  0.50418204219E+02  0.00000000000E+00 0.  1.
         14    1    4    4    0    0  0.10312359386E+03 -0.33012640264E+02 -0.42314362042E+03  0.43677778506E+03  0.00000000000E+00 0. -1.
        -13    1    3    3    0    0  0.19566032334E+02 -0.12475029510E+02 -0.43896665415E+02  0.49652524781E+02  0.00000000000E+00 0.  1.
         13    1    3    3    0    0 -0.40241098259E+02 -0.27995011008E+01  0.24099652170E+02  0.46989109698E+02  0.00000000000E+00 0. -1.
          1    1    1    2  501    0 -0.79166913514E+02  0.73912966750E+02 -0.50160892735E+02  0.11935929796E+03  0.00000000000E+00 0. -1.
<scales pt_clust_5="13000.00000" pt_clust_6="13000.00000" pt_clust_7="13000.00000" pt_clust_8="13000.00000" pt_clust_9="109.08192"></scales>
<clustering>
<clus scale="   79.919">  5  6 -1 -1</clus>
<clus scale="   91.032">  7  8 -1 -1</clus>
<clus scale="   94.592">  2  7  1 -1</clus>
<clus scale="  109.082">  1  9  2 -1</clus>
<clus scale="  109.082">  1  5  2 -1</clus>
</clustering>
</event>
<event>
 9    2  0.7820252E-005  0.9226250E+02  0.7546771E-02  0.1303514E+00
         21   -1    0    0  501  502  0.00000000000E+00  0.00000000000E+00  0.22812133043E+03  0.22812133043E+03  0.00000000000E+00 0. -1.
          4   -1    0    0  502    0 -0.00000000000E+00 -0.00000000000E+00 -0.92192445468E+02  0.92192445468E+02  0.00000000000E+00 0. -1.
         24    2    1    2    0    0 -0.11248330680E+02 -0.10942883037E+02  0.49720522205E+01  0.82737734343E+02  0.81083535621E+02 0.  0.
         23    2    1    2    0    0 -0.43776556491E+02  0.32165733742E+01  0.64243145642E+01  0.10120968884E+03  0.90969203881E+02 0.  0.
        -11    1    3    3    0    0 -0.18331918377E+02  0.26125041379E+02 -0.19834238593E+02  0.37576243014E+02  0.00000000000E+00 0.  1.
         12    1    3    3    0    0  0.70835876964E+01 -0.37067924416E+02  0.24806290814E+02  0.45161491330E+02  0.00000000000E+00 0. -1.
        -11    1    4    4    0    0  0.14267312060E+02 -0.15705662289E+02  0.29160375853E+02  0.36063160445E+02  0.00000000000E+00 0.  1.
         11    1    4    4    0    0 -0.58043868551E+02  0.18922235663E+02 -0.22736061289E+02  0.65146528394E+02  0.00000000000E+00 0. -1.
          3    1    1    2  501    0  0.55024887171E+02  0.77263096627E+01  0.12453251818E+03  0.13636635271E+03  0.00000000000E+00 0. -1.
<scales pt_clust_5="13000.00000" pt_clust_6="13000.00000" pt_clust_7="13000.00000" pt_clust_8="13000.00000" pt_clust_9="55.56468"></scales>
<clustering>
<clus scale="   55.565">  1  9  2 -1</clus>
<clus scale="   81.084">  5  6 -1 -1</clus>
<clus scale="   82.532">  2  5  1 -1</clus>
<clus scale="   90.969">  7  8 -1 -1</clus>
<clus scale="   55.565">  1  5  2 -1</clus>
</clustering>
</event>
<event>
 9    2  0.7820252E-005  0.1097685E+03  0.7546771E-02  0.1269420E+00
          2   -1    0    0  502    0 -0.00000000000E+00  0.00000000000E+00  0.80084990271E+03  0.80084990271E+03  0.00000000000E+00 0. -1.
         21   -1    0    0  501  502  0.00000000000E+00 -0.00000000000E+00 -0.19328731941E+02  0.19328731941E+02  0.00000000000E+00 0.  1.
         24    2    1    2    0    0  0.28889402355E+02 -0.43439807081E+02  0.44185737398E+03  0.45191340730E+03  0.79159170966E+02 0.  0.
         23    2    1    2    0    0  0.27809426196E+01  0.49454471882E+02  0.26828481185E+03  0.28994443551E+03  0.98171059810E+02 0.  0.
        -13    1    3    3    0    0  0.52193030102E+02 -0.95101978762E+01  0.27343614600E+03  0.27853524408E+03  0.00000000000E+00 0.  1.
         14    1    3    3    0    0 -0.23303627748E+02 -0.33929609205E+02  0.16842122798E+03  0.17337816322E+03  0.00000000000E+00 0. -1.
        -11    1    4    4    0    0  0.11422842121E+02  0.78547727545E+02  0.18532939859E+03  0.20161153936E+03  0.00000000000E+00 0. -1.
         11    1    4    4    0    0 -0.86418995010E+01 -0.29093255663E+02  0.82955413261E+02  0.88332896145E+02  0.00000000000E+00 0.  1.
          1    1    1    2  501    0 -0.31670344974E+02 -0.60146648008E+01  0.71378984940E+02  0.78320791841E+02  0.00000000000E+00 0. -1.
<scales pt_clust_5="13000.00000" pt_clust_6="13000.00000" pt_clust_7="13000.00000" pt_clust_8="13000.00000" pt_clust_9="32.23642"></scales>
<clustering>
<clus scale="   32.236">  2  9  1 -1</clus>
<clus scale="   79.159">  5  6 -1 -1</clus>
<clus scale="   93.154">  1  5  2 -1</clus>
<clus scale="   98.171">  7  8 -1 -1</clus>
<clus scale="   32.236">  2  5  1 -1</clus>
</clustering>
</event>
<event>
 9    2  0.7820252E-005  0.1036042E+03  0.7546771E-02  0.1275792E+00
          2   -1    0    0  502    0 -0.00000000000E+00  0.00000000000E+00  0.45411103363E+02  0.45411103363E+02  0.00000000000E+00 0. -1.
         21   -1    0    0  501  502  0.00000000000E+00 -0.00000000000E+00 -0.33699545477E+03  0.33699545477E+03  0.00000000000E+00 0. -1.
         23    2    1    2    0    0 -0.29786536579E+02  0.32378176069E+02 -0.95263731407E+02  0.13713392228E+03  0.88289014448E+02 0.  0.
         24    2    1    2    0    0  0.64372742330E+02 -0.25786409497E+02 -0.11778648024E+03  0.15920714845E+03  0.81636219403E+02 0.  0.
        -13    1    4    4    0    0  0.33211703013E+02  0.12477782385E+02 -0.46561640598E+01  0.35782567460E+02  0.00000000000E+00 0.  1.
         14    1    4    4    0    0  0.31161039317E+02 -0.38264191882E+02 -0.11313031618E+03  0.12342458099E+03  0.00000000000E+00 0. -1.
        -11    1    3    3    0    0 -0.12865233458E+00  0.49577888803E+02 -0.89576077919E+02  0.10238094229E+03  0.00000000000E+00 0. -1.
         11    1    3    3    0    0 -0.29657884244E+02 -0.17199712734E+02 -0.56876534885E+01  0.34752979990E+02  0.00000000000E+00 0.  1.
          1    1    1    2  501    0 -0.34586205751E+02 -0.65917665723E+01 -0.78534139752E+02  0.86065487400E+02  0.00000000000E+00 0. -1.
<scales pt_clust_5="13000.00000" pt_clust_6="13000.00000" pt_clust_7="13000.00000" pt_clust_8="13000.00000" pt_clust_9="35.20876"></scales>
<clustering>
<clus scale="   35.209">  2  9  1 -1</clus>
<clus scale="   81.636">  5  6 -1 -1</clus>
<clus scale="   88.289">  7  8 -1 -1</clus>
<clus scale="   97.997">  2  5  1 -1</clus>
<clus scale="   35.209">  2  5  1 -1</clus>
</clustering>
</event>
<event>
 9    2  0.7820252E-005  0.1263761E+03  0.7546771E-02  0.1234470E+00
         -3   -1    0    0    0  501 -0.00000000000E+00  0.00000000000E+00  0.11863396292E+03  0.11863396292E+03  0.00000000000E+00 0.  1.
         21   -1    0    0  501  502  0.00000000000E+00 -0.00000000000E+00 -0.27370722788E+03  0.27370722788E+03  0.00000000000E+00 0. -1.
         24    2    1    2    0    0  0.77038396385E+02  0.67657850930E+02  0.36910575366E+02  0.13560553954E+03  0.80709184537E+02 0.  0.
         23    2    1    2    0    0 -0.62404437311E+02 -0.33827706815E+02 -0.76662314329E+02  0.13566672145E+03  0.86543176077E+02 0.  0.
        -11    1    3    3    0    0  0.33931103869E+02  0.63918315898E+02  0.52725367486E+02  0.89536781791E+02  0.00000000000E+00 0.  1.
         12    1    3    3    0    0  0.43107292516E+02  0.37395350324E+01 -0.15814792119E+02  0.46068757744E+02  0.00000000000E+00 0. -1.
        -13    1    4    4    0    0 -0.13552681739E+02 -0.52645160076E+02 -0.18521499288E+02  0.57430253330E+02  0.00000000000E+00 0.  1.
         13    1    4    4    0    0 -0.48851755572E+02  0.18817453261E+02 -0.58140815041E+02  0.78236468117E+02  0.00000000000E+00 0. -1.
         -4    1    1    2    0  502 -0.14633959074E+02 -0.33830144116E+02 -0.11532152600E+03  0.12106892982E+03  0.00000000000E+00 0.  1.
<scales pt_clust_5="13000.00000" pt_clust_6="13000.00000" pt_clust_7="13000.00000" pt_clust_8="13000.00000" pt_clust_9="36.85962"></scales>
<clustering>
<clus scale="   36.860">  2  9  1 -1</clus>
<clus scale="   80.709">  5  6 -1 -1</clus>
<clus scale="   86.543">  7  8 -1 -1</clus>
<clus scale="  122.455">  1  5  2 -1</clus>
<clus scale="   36.860">  2  5  1 -1</clus>
</clustering>
</event>
<event>
 9    2  0.7820252E-005  0.2316142E+03  0.7546771E-02  0.1125509E+00
          2   -1    0    0  502    0 -0.00000000000E+00  0.00000000000E+00  0.10286810259E+04  0.10286810259E+04  0.00000000000E+00 0. -1.
         21   -1    0    0  501  502  0.00000000000E+00 -0.00000000000E+00 -0.38941047614E+02  0.38941047614E+02  0.00000000000E+00 0.  1.
         24    2    1    2    0    0  0.68277918066E+02  0.92003431206E+01  0.19195284849E+03  0.21882174440E+03  0.79312920590E+02 0.  0.
         23    2    1    2    0    0  0.55632631319E+02  0.70401754427E+02  0.23327588314E+03  0.26539372494E+03  0.89245699562E+02 0.  0.
        -13    1    3    3    0    0  0.43953238079E+02  0.39946545903E+02  0.15035346656E+03  0.16165945247E+03  0.00000000000E+00 0.  1.
         14    1    3    3    0    0  0.24324679988E+02 -0.30746202783E+02  0.41599381928E+02  0.57162291931E+02  0.00000000000E+00 0. -1.
        -11    1    4    4    0    0  0.20854002188E+01  0.72244993141E+02  0.14756850199E+03  0.16431722584E+03  0.00000000000E+00 0.  1.
         11    1    4    4    0    0  0.53547231100E+02 -0.18432387136E+01  0.85707381157E+02  0.10107649911E+03  0.00000000000E+00 0. -1.
          1    1    1    2  501    0 -0.12391054939E+03 -0.79602097547E+02  0.56451124664E+03  0.58340660415E+03  0.00000000000E+00 0. -1.
<scales pt_clust_5="13000.00000" pt_clust_6="13000.00000" pt_clust_7="13000.00000" pt_clust_8="13000.00000" pt_clust_9="147.27641"></scales>
<clustering>
<clus scale="   79.313">  5  6 -1 -1</clus>
<clus scale="   89.246">  7  8 -1 -1</clus>
<clus scale="  103.139">  5  7 -1 -1</clus>
<clus scale="  147.276">  2  9  1 -1</clus>
<clus scale="  147.276">  2  5  1 -1</clus>
</clustering>
</event>
<event>
 9    2  0.7820252E-005  0.8963582E+02  0.7546771E-02  0.1306850E+00
          2   -1    0    0  502    0 -0.00000000000E+00  0.00000000000E+00  0.12420658517E+03  0.12420658517E+03  0.00000000000E+00 0. -1.
         21   -1    0    0  501  502  0.00000000000E+00 -0.00000000000E+00 -0.10137601377E+03  0.10137601377E+03  0.00000000000E+00 0. -1.
         24    2    1    2    0    0  0.70829682497E+01  0.13616911053E+02  0.31848201468E+02  0.89762074077E+02  0.82506565193E+02 0.  0.
         23    2    1    2    0    0  0.23592863573E+02 -0.29792672335E+02 -0.23355941707E+02  0.98293879781E+02  0.87589726869E+02 0.  0.
        -13    1    3    3    0    0  0.29226857147E+02 -0.18213591764E+02  0.37114895383E+02  0.50630618828E+02  0.00000000000E+00 0.  1.
         14    1    3    3    0    0 -0.22143888897E+02  0.31830502817E+02 -0.52666939155E+01  0.39131455249E+02  0.00000000000E+00 0. -1.
        -11    1    4    4    0    0  0.56799899101E+02 -0.16843168086E+02 -0.92541664016E+01  0.59962992294E+02  0.00000000000E+00 0. -1.
         11    1    4    4    0    0 -0.33207035528E+02 -0.12949504249E+02 -0.14101775305E+02  0.38330887488E+02  0.00000000000E+00 0.  1.
          1    1    1    2  501    0 -0.30675831823E+02  0.16175761282E+02  0.14338311638E+02  0.37526645090E+02  0.00000000000E+00 0. -1.
<scales pt_clust_5="13000.00000" pt_clust_6="13000.00000" pt_clust_7="13000.00000" pt_clust_8="13000.00000" pt_clust_9="34.67943"></scales>
<clustering>
<clus scale="   34.679">  2  9  1 -1</clus>
<clus scale="   82.507">  5  6 -1 -1</clus>
<clus scale="   84.676">  1  5  2 -1</clus>
<clus scale="   87.590">  7  8 -1 -1</clus>
<clus scale="   34.679">  2  5  1 -1</clus>
</clustering>
</event>
<event>
 9    2  0.7820252E-005  0.9118661E+02  0.7546771E-02  0.1305719E+00
          2   -1    0    0  502    0 -0.00000000000E+00  0.00000000000E+00  0.16368787739E+03  0.16368787739E+03  0.00000000000E+00 0. -1.
         21   -1    0    0  501  502  0.00000000000E+00 -0.00000000000E+00 -0.12278604996E+03  0.12278604996E+03  0.00000000000E+00 0. -1.
         24    2    1    2    0    0  0.16387871535E+02  0.13860594153E+02  0.58569625187E+02  0.10303257466E+03  0.82003853833E+02 0.  0.
         23    2    1    2    0    0  0.49749065032E+02  0.23327783606E+02 -0.48744896398E+01  0.10649501716E+03  0.91094857542E+02 0.  0.
        -13    1    3    3    0    0 -0.13053511488E+02  0.32518921284E+02  0.19284402635E+00  0.35041569492E+02  0.00000000000E+00 0.  1.
         14    1    3    3    0    0  0.29441383022E+02 -0.18658327131E+02  0.58376781161E+02  0.67991005172E+02  0.00000000000E+00 0. -1.
        -11    1    4    4    0    0  0.26305493536E+02 -0.33538002042E+02 -0.12736523299E+02  0.44485903350E+02  0.00000000000E+00 0.  1.
         11    1    4    4    0    0  0.23443571495E+02  0.56865785648E+02  0.78620336587E+01  0.62009113807E+02  0.00000000000E+00 0. -1.
          1    1    1    2  501    0 -0.66136936566E+02 -0.37188377759E+02 -0.12793308123E+02  0.76946335530E+02  0.00000000000E+00 0. -1.
<scales pt_clust_5="13000.00000" pt_clust_6="13000.00000" pt_clust_7="13000.00000" pt_clust_8="13000.00000" pt_clust_9="75.87536"></scales>
<clustering>
<clus scale="   75.875">  2  9  1 -1</clus>
<clus scale="   82.004">  5  6 -1 -1</clus>
<clus scale="   82.106">  1  5  2 -1</clus>
<clus scale="   91.095">  7  8 -1 -1</clus>
<clus scale="   75.875">  2  5  1 -1</clus>
</clustering>
</event>
<event>
 9    2  0.7820252E-005  0.9711670E+02  0.7546771E-02  0.1292125E+00
          2   -1    0    0  502    0 -0.00000000000E+00  0.00000000000E+00  0.53533693400E+03  0.53533693400E+03  0.00000000000E+00 0. -1.
         21   -1    0    0  501  502  0.00000000000E+00 -0.00000000000E+00 -0.53282882934E+02  0.53282882934E+02  0.00000000000E+00 0. -1.
         24    2    1    2    0    0 -0.52009609088E+01  0.54979681926E+02  0.27732203091E+03  0.29412343439E+03  0.80939918504E+02 0.  0.
         23    2    1    2    0    0  0.33106837534E+02  0.75467198197E+01  0.20391419952E+03  0.22602041818E+03  0.91384971398E+02 0.  0.
        -13    1    3    3    0    0 -0.32298335941E+02  0.22815660522E+01  0.53009735715E+02  0.62116182503E+02  0.00000000000E+00 0.  1.
         14    1    3    3    0    0  0.27097375032E+02  0.52698115873E+02  0.22431229520E+03  0.23200725188E+03  0.00000000000E+00 0. -1.
        -13    1    4    4    0    0  0.16444240866E+02  0.39536988093E+02  0.17390583935E+03  0.17910004870E+03  0.00000000000E+00 0.  1.
         13    1    4    4    0    0  0.16662596669E+02 -0.31990268274E+02  0.30008360171E+02  0.46920369479E+02  0.00000000000E+00 0. -1.
          1    1    1    2  501    0 -0.27905876626E+02 -0.62526401745E+02  0.81782063464E+00  0.68475964367E+02  0.00000000000E+00 0. -1.
<scales pt_clust_5="13000.00000" pt_clust_6="13000.00000" pt_clust_7="13000.00000" pt_clust_8="13000.00000" pt_clust_9="68.47108"></scales>
<clustering>
<clus scale="   68.471">  2  9  1 -1</clus>
<clus scale="   80.940">  5  6 -1 -1</clus>
<clus scale="   87.360">  1  5  2 -1</clus>
<clus scale="   91.385">  7  8 -1 -1</clus>
<clus scale="   68.471">  2  5  1 -1</clus>
</clustering>
</event>
<event>
 9    2  0.7820252E-005  0.1763888E+03  0.7546771E-02  0.1203076E+00
         21   -1    0    0  501  502  0.00000000000E+00  0.00000000000E+00  0.40433190683E+02  0.40433190683E+02  0.00000000000E+00 0.  1.
         -3   -1    0    0    0  501 -0.00000000000E+00 -0.00000000000E+00 -0.12742609031E+04  0.12742609031E+04  0.00000000000E+00 0.  1.
         24    2    1    2    0    0 -0.76425554722E+01 -0.38694345183E+02 -0.20350713224E+03  0.22139869347E+03  0.77759678449E+02 0.  0.
         23    2    1    2    0    0 -0.24115949129E+02 -0.13648239245E+03 -0.31338571203E+03  0.35458632552E+03  0.91169267242E+02 0.  0.
        -13    1    3    3    0    0 -0.46572407984E+01 -0.52390973705E+02 -0.20020218294E+03  0.20699617888E+03  0.00000000000E+00 0.  1.
         14    1    3    3    0    0 -0.29853146738E+01  0.13696628522E+02 -0.33049493045E+01  0.14402514588E+02  0.00000000000E+00 0. -1.
        -13    1    4    4    0    0  0.27964069568E+02 -0.24074301709E+02 -0.11423394985E+03  0.12004564336E+03  0.00000000000E+00 0. -1.
         13    1    4    4    0    0 -0.52080018697E+02 -0.11240809074E+03 -0.19915176218E+03  0.23454068217E+03  0.00000000000E+00 0.  1.
         -4    1    1    2    0  502  0.31758504601E+02  0.17517673764E+03 -0.71693486817E+03  0.73870907482E+03  0.00000000000E+00 0.  1.
<scales pt_clust_5="13000.00000" pt_clust_6="13000.00000" pt_clust_7="13000.00000" pt_clust_8="13000.00000" pt_clust_9="151.00062"></scales>
<clustering>
<clus scale="   77.760">  5  6 -1 -1</clus>
<clus scale="   87.191">  2  5  1 -1</clus>
<clus scale="   91.169">  7  8 -1 -1</clus>
<clus scale="  151.001">  1  9  2 -1</clus>
<clus scale="  151.001">  1  5  2 -1</clus>
</clustering>
</event>
<event>
 9    2  0.7820252E-005  0.1094252E+03  0.7546771E-02  0.1262061E+00
         21   -1    0    0  501  502  0.00000000000E+00  0.00000000000E+00  0.44233388766E+02  0.44233388766E+02  0.00000000000E+00 0. -1.
          2   -1    0    0  502    0 -0.00000000000E+00 -0.00000000000E+00 -0.96984010257E+03  0.96984010257E+03  0.00000000000E+00 0. -1.
         24    2    1    2    0    0  0.42922711014E+02  0.50017769348E+02 -0.46518678853E+03  0.47802069274E+03  0.88095959565E+02 0.  0.
         23    2    1    2    0    0  0.23919650231E+02 -0.78241887756E+02 -0.71839939698E+02  0.14075682429E+03  0.89205179113E+02 0.  0.
        -13    1    3    3    0    0  0.40311297633E+01  0.20003037199E+02 -0.15413471667E+02  0.25572379889E+02  0.00000000000E+00 0.  1.
         14    1    3    3    0    0  0.38891581251E+02  0.30014732149E+02 -0.44977331686E+03  0.45244831285E+03  0.00000000000E+00 0. -1.
        -13    1    4    4    0    0 -0.32895151610E+02 -0.16892533657E+02 -0.16547800644E+02  0.40512694294E+02  0.00000000000E+00 0. -1.
         13    1    4    4    0    0  0.56814801842E+02 -0.61349354100E+02 -0.55292139055E+02  0.10024412999E+03  0.00000000000E+00 0.  1.
          1    1    1    2  501    0 -0.66842361245E+02  0.28224118408E+02 -0.38857998557E+03  0.39529597431E+03  0.00000000000E+00 0. -1.
<scales pt_clust_5="13000.00000" pt_clust_6="13000.00000" pt_clust_7="13000.00000" pt_clust_8="13000.00000" pt_clust_9="72.55693"></scales>
<clustering>
<clus scale="   72.557">  1  9  2 -1</clus>
<clus scale="   88.096">  5  6 -1 -1</clus>
<clus scale="   89.205">  7  8 -1 -1</clus>
<clus scale="  108.523">  2  5  1 -1</clus>
<clus scale="   72.557">  1  5  2 -1</clus>
</clustering>
</event>
<event>
 9    2  0.7820252E-005  0.1159762E+03  0.7546771E-02  0.1259890E+00
          4   -1    0    0  502    0 -0.00000000000E+00  0.00000000000E+00  0.76121795900E+02  0.76121795900E+02  0.00000000000E+00 0. -1.
         21   -1    0    0  501  502  0.00000000000E+00 -0.00000000000E+00 -0.66258824130E+03  0.66258824130E+03  0.00000000000E+00 0. -1.
         24    2    1    2    0    0 -0.18916988938E+02  0.41876766763E+02 -0.30007559552E+02  0.85474892969E+02  0.65528525337E+02 0.  0.
         23    2    1    2    0    0  0.73042751064E+02 -0.98342953328E+02 -0.86064137159E+02  0.17638165735E+03  0.93257028657E+02 0.  0.
        -11    1    3    3    0    0 -0.11359704212E+02  0.27626478021E+02 -0.50937877937E+02  0.59050254668E+02  0.00000000000E+00 0.  1.
         12    1    3    3    0    0 -0.75572847264E+01  0.14250288742E+02  0.20930318385E+02  0.26424638301E+02  0.00000000000E+00 0. -1.
        -11    1    4    4    0    0  0.12283697547E+02 -0.91757691885E+02 -0.46717552610E+02  0.10369615696E+03  0.00000000000E+00 0. -1.
         11    1    4    4    0    0  0.60759053518E+02 -0.65852614438E+01 -0.39346584549E+02  0.72685500399E+02  0.00000000000E+00 0.  1.
          3    1    1    2  501    0 -0.54125762126E+02  0.56466186565E+02 -0.47039474868E+03  0.47685348687E+03  0.00000000000E+00 0. -1.
<scales pt_clust_5="13000.00000" pt_clust_6="13000.00000" pt_clust_7="13000.00000" pt_clust_8="13000.00000" pt_clust_9="78.21783"></scales>
<clustering>
<clus scale="   65.529">  5  6 -1 -1</clus>
<clus scale="   78.218">  2  9  1 -1</clus>
<clus scale="   93.257">  7  8 -1 -1</clus>
<clus scale="   95.119">  1  5  2 -1</clus>
<clus scale="   78.218">  2  5  1 -1</clus>
</clustering>
</event>
<event>
 9    2  0.7820252E-005  0.1226970E+03  0.7546771E-02  0.1242482E+00
         21   -1    0    0  501  502  0.00000000000E+00  0.00000000000E+00  0.41521327905E+03  0.41521327905E+03  0.00000000000E+00 0. -1.
         -3   -1    0    0    0  501 -0.00000000000E+00 -0.00000000000E+00 -0.44944315677E+02  0.44944315677E+02  0.00000000000E+00 0.  1.
         24    2    1    2    0    0 -0.52093943028E+01  0.80543352658E+02  0.13620839726E+03  0.17696711023E+03  0.79058593295E+02 0.  0.
         23    2    1    2    0    0 -0.27972651832E+02 -0.82001764713E+02  0.18988519477E+03  0.22792169959E+03  0.91570493522E+02 0.  0.
        -13    1    3    3    0    0 -0.17291371230E+02  0.87259204128E+02  0.81863142327E+02  0.12089141531E+03  0.00000000000E+00 0.  1.
         14    1    3    3    0    0  0.12081976928E+02 -0.67158514700E+01  0.54345254930E+02  0.56075694920E+02  0.00000000000E+00 0. -1.
        -13    1    4    4    0    0 -0.53521358203E+01 -0.47718808165E+02  0.18134804064E+02  0.51328365734E+02  0.00000000000E+00 0.  1.
         13    1    4    4    0    0 -0.22620516012E+02 -0.34282956548E+02  0.17175039070E+03  0.17659333385E+03  0.00000000000E+00 0. -1.
         -4    1    1    2    0  502  0.33182046135E+02  0.14584120551E+01  0.44175371345E+02  0.55268784905E+02  0.00000000000E+00 0.  1.
<scales pt_clust_5="13000.00000" pt_clust_6="13000.00000" pt_clust_7="13000.00000" pt_clust_8="13000.00000" pt_clust_9="33.21410"></scales>
<clustering>
<clus scale="   33.214">  1  9  2 -1</clus>
<clus scale="   79.059">  5  6 -1 -1</clus>
<clus scale="   91.570">  7  8 -1 -1</clus>
<clus scale="  113.665">  2  5  1 -1</clus>
<clus scale="   33.214">  1  5  2 -1</clus>
</clustering>
</event>
<event>
 9    2  0.7820252E-005  0.1103259E+03  0.7546771E-02  0.1264345E+00
         21   -1    0    0  501  502  0.00000000000E+00  0.00000000000E+00  0.51936792040E+02  0.51936792040E+02  0.00000000000E+00 0. -1.
          2   -1    0    0  502    0 -0.00000000000E+00 -0.00000000000E+00 -0.48344325674E+03  0.48344325674E+03  0.00000000000E+00 0. -1.
         24    2    1    2    0    0  0.16973443650E+02  0.79392562060E+02 -0.29724736806E+03  0.31850201146E+03  0.80599359705E+02 0.  0.
         23    2    1    2    0    0 -0.29927968807E+02 -0.72354270093E+01 -0.70493325296E+02  0.11971556794E+03  0.91730439743E+02 0.  0.
        -11    1    3    3    0    0  0.23154051529E+02 -0.89428308517E+01 -0.84265525425E+02  0.87845108578E+02  0.00000000000E+00 0.  1.
         12    1    3    3    0    0 -0.61806078783E+01  0.88335392912E+02 -0.21298184264E+03  0.23065690288E+03  0.00000000000E+00 0. -1.
        -13    1    4    4    0    0  0.21161185583E+02 -0.30886539359E+02 -0.14034407997E+02  0.39984230600E+02  0.00000000000E+00 0.  1.
         13    1    4    4    0    0 -0.51089154390E+02  0.23651112350E+02 -0.56458917299E+02  0.79731337341E+02  0.00000000000E+00 0. -1.
          1    1    1    2  501    0  0.12954525157E+02 -0.72157135051E+02 -0.63765771342E+02  0.97162469378E+02  0.00000000000E+00 0. -1.
<scales pt_clust_5="13000.00000" pt_clust_6="13000.00000" pt_clust_7="13000.00000" pt_clust_8="13000.00000" pt_clust_9="73.31079"></scales>
<clustering>
<clus scale="   73.311">  1  9  2 -1</clus>
<clus scale="   80.599">  5  6 -1 -1</clus>
<clus scale="   91.730">  7  8 -1 -1</clus>
<clus scale="  101.260">  2  5  1 -1</clus>
<clus scale="   73.311">  1  5  2 -1</clus>
</clustering>
</event>
<event>
 9    2  0.1028244E-004  0.2403422E+03  0.7546771E-02  0.1150168E+00
          2   -1    0    0  502    0 -0.00000000000E+00  0.00000000000E+00  0.36841345097E+03  0.36841345097E+03  0.00000000000E+00 0. -1.
         21   -1    0    0  501  502  0.00000000000E+00 -0.00000000000E+00 -0.80209415862E+03  0.80209415862E+03  0.00000000000E+00 0. -1.
         23    2    1    2    0    0  0.30683934204E+02  0.59845726599E+02  0.15972512820E+03  0.19628286851E+03  0.92151142608E+02 0.  0.
         24    2    1    2    0    0  0.12412820042E+03  0.11418433248E+03  0.12121117603E+03  0.22260599987E+03  0.80096254969E+02 0.  0.
        -11    1    4    4    0    0  0.79585057706E+02  0.34252988019E+02  0.92410741396E+02  0.12667593980E+03  0.00000000000E+00 0.  1.
         12    1    4    4    0    0  0.44543142711E+02  0.79931344460E+02  0.28800434631E+02  0.95930060068E+02  0.00000000000E+00 0. -1.
        -13    1    3    3    0    0  0.20207918225E+02  0.12331780370E+02 -0.52788383767E+01  0.24254873751E+02  0.00000000000E+00 0.  1.
         13    1    3    3    0    0  0.10476015980E+02  0.47513946229E+02  0.16500396657E+03  0.17202799476E+03  0.00000000000E+00 0. -1.
          1    1    1    2  501    0 -0.15481213462E+03 -0.17403005908E+03 -0.71461701187E+03  0.75161874121E+03  0.00000000000E+00 0. -1.
<scales pt_clust_5="13000.00000" pt_clust_6="13000.00000" pt_clust_7="13000.00000" pt_clust_8="13000.00000" pt_clust_9="226.60306"></scales>
<clustering>
<clus scale="   80.096">  5  6 -1 -1</clus>
<clus scale="   92.151">  7  8 -1 -1</clus>
<clus scale="  114.083">  1  7  2 -1</clus>
<clus scale="  226.603">  2  9  1 -1</clus>
<clus scale="  226.603">  2  5  1 -1</clus>
</clustering>
</event>
<event>
 9    2  0.7820252E-005  0.9998581E+02  0.7546771E-02  0.1286021E+00
         21   -1    0    0  501  502  0.00000000000E+00  0.00000000000E+00  0.12319289102E+03  0.12319289102E+03  0.00000000000E+00 0. -1.
          2   -1    0    0  502    0 -0.00000000000E+00 -0.00000000000E+00 -0.13200957363E+03  0.13200957363E+03  0.00000000000E+00 0. -1.
         24    2    1    2    0    0  0.47720871245E+01  0.44969211287E+02 -0.73989895831E+02  0.11839304208E+03  0.80606482054E+02 0.  0.
         23    2    1    2    0    0 -0.44329731122E+01 -0.18535712983E+02  0.52370869208E+02  0.10743690407E+03  0.91851818206E+02 0.  0.
        -11    1    3    3    0    0  0.39684056787E+02  0.14779394093E+02 -0.52585355255E+02  0.67516475324E+02  0.00000000000E+00 0.  1.
         12    1    3    3    0    0 -0.34911969662E+02  0.30189817194E+02 -0.21404540575E+02  0.50876566759E+02  0.00000000000E+00 0. -1.
        -13    1    4    4    0    0  0.29959697994E+02  0.24203513280E+02  0.16559167178E+02  0.41923735242E+02  0.00000000000E+00 0. -1.
         13    1    4    4    0    0 -0.34392671106E+02 -0.42739226263E+02  0.35811702030E+02  0.65513168826E+02  0.00000000000E+00 0.  1.
          1    1    1    2  501    0 -0.33911401238E+00 -0.26433498303E+02  0.12802344006E+02  0.29372518498E+02  0.00000000000E+00 0. -1.
<scales pt_clust_5="13000.00000" pt_clust_6="13000.00000" pt_clust_7="13000.00000" pt_clust_8="13000.00000" pt_clust_9="26.43567"></scales>
<clustering>
<clus scale="   26.436">  1  9  2 -1</clus>
<clus scale="   80.606">  5  6 -1 -1</clus>
<clus scale="   89.765">  2  5  1 -1</clus>
<clus scale="   91.852">  7  8 -1 -1</clus>
<clus scale="   26.436">  1  5  2 -1</clus>
</clustering>
</event>
<event>
 9    2  0.7820252E-005  0.1331438E+03  0.7546771E-02  0.1225897E+00
          2   -1    0    0  502    0 -0.00000000000E+00  0.00000000000E+00  0.85566461774E+03  0.85566461774E+03  0.00000000000E+00 0. -1.
         21   -1    0    0  501  502  0.00000000000E+00 -0.00000000000E+00 -0.50975921753E+02  0.50975921753E+02  0.00000000000E+00 0. -1.
         23    2    1    2    0    0  0.84809849107E+02  0.44059851193E+02  0.64950679913E+03  0.66264990284E+03  0.90065701694E+02 0.  0.
         24    2    1    2    0    0 -0.82281284131E+02 -0.84031817240E+02  0.88926868636E+02  0.16657048117E+03  0.77499556165E+02 0.  0.
        -11    1    4    4    0    0 -0.55213337670E+02 -0.39260727063E+02  0.91894548576E+02  0.11416884603E+03  0.00000000000E+00 0.  1.
         12    1    4    4    0    0 -0.27067946461E+02 -0.44771090177E+02 -0.29676799404E+01  0.52401635141E+02  0.00000000000E+00 0. -1.
        -11    1    3    3    0    0  0.89121349074E+02  0.40909601566E+01  0.49640047205E+03  0.50435382369E+03  0.00000000000E+00 0. -1.
         11    1    3    3    0    0 -0.43114999668E+01  0.39968891037E+02  0.15310632708E+03  0.15829607916E+03  0.00000000000E+00 0.  1.
          1    1    1    2  501    0 -0.25285649765E+01  0.39971966047E+02  0.66255028217E+02  0.77420155480E+02  0.00000000000E+00 0. -1.
<scales pt_clust_5="13000.00000" pt_clust_6="13000.00000" pt_clust_7="13000.00000" pt_clust_8="13000.00000" pt_clust_9="40.05186"></scales>
<clustering>
<clus scale="   40.052">  2  9  1 -1</clus>
<clus scale="   77.500">  5  6 -1 -1</clus>
<clus scale="   90.066">  7  8 -1 -1</clus>
<clus scale="  124.986">  2  5  1 -1</clus>
<clus scale="   40.052">  2  5  1 -1</clus>
</clustering>
</event>
<event>
 9    2  0.7820252E-005  0.9350541E+02  0.7546771E-02  0.1300631E+00
          2   -1    0    0  502    0 -0.00000000000E+00  0.00000000000E+00  0.65288297483E+03  0.65288297483E+03  0.00000000000E+00 0. -1.
         21   -1    0    0  501  502  0.00000000000E+00 -0.00000000000E+00 -0.63179227679E+02  0.63179227679E+02  0.00000000000E+00 0. -1.
         24    2    1    2    0    0 -0.58749653303E+01 -0.19861462704E+02  0.54244735892E+03  0.54881602503E+03  0.80752084878E+02 0.  0.
         23    2    1    2    0    0  0.44332338672E+02  0.13792249145E+02  0.68419549876E+02  0.12293269953E+03  0.90970497525E+02 0.  0.
        -13    1    3    3    0    0 -0.12422173766E+01  0.21245288612E+02  0.46410116975E+02  0.51056873679E+02  0.00000000000E+00 0.  1.
         14    1    3    3    0    0 -0.46327479537E+01 -0.41106751317E+02  0.49603724194E+03  0.49775915135E+03  0.00000000000E+00 0. -1.
        -11    1    4    4    0    0 -0.14965117178E+01 -0.35008656411E+02  0.20413474552E+02  0.40553119662E+02  0.00000000000E+00 0. -1.
         11    1    4    4    0    0  0.45828850390E+02  0.48800905556E+02  0.48006075324E+02  0.82379579868E+02  0.00000000000E+00 0.  1.
          1    1    1    2  501    0 -0.38457373342E+02  0.60692135594E+01 -0.21163161641E+02  0.44313477952E+02  0.00000000000E+00 0. -1.
<scales pt_clust_5="13000.00000" pt_clust_6="13000.00000" pt_clust_7="13000.00000" pt_clust_8="13000.00000" pt_clust_9="38.93334"></scales>
<clustering>
<clus scale="   38.933">  2  9  1 -1</clus>
<clus scale="   80.752">  5  6 -1 -1</clus>
<clus scale="   83.597">  1  5  2 -1</clus>
<clus scale="   90.970">  7  8 -1 -1</clus>
<clus scale="   38.933">  2  5  1 -1</clus>
</clustering>
</event>
<event>
 9    2  0.7820252E-005  0.9608555E+02  0.7546771E-02  0.1294751E+00
         21   -1    0    0  501  502  0.00000000000E+00  0.00000000000E+00  0.43547000811E+02  0.43547000811E+02  0.00000000000E+00 0. -1.
          4   -1    0    0  502    0 -0.00000000000E+00 -0.00000000000E+00 -0.62202883580E+03  0.62202883580E+03  0.00000000000E+00 0. -1.
         24    2    1    2    0    0 -0.31110639916E+02  0.32048933504E+01 -0.45688819344E+03  0.46534896766E+03  0.82611725198E+02 0.  0.
         23    2    1    2    0    0 -0.29394553322E+01  0.38040330129E+01 -0.13403732426E+03  0.16330290282E+03  0.93159662460E+02 0.  0.
        -11    1    3    3    0    0 -0.29906559105E+01  0.40700292052E+02 -0.18466932556E+03  0.18912487303E+03  0.00000000000E+00 0.  1.
         12    1    3    3    0    0 -0.28119984006E+02 -0.37495398702E+02 -0.27221886788E+03  0.27622409463E+03  0.00000000000E+00 0. -1.
        -11    1    4    4    0    0  0.44616945553E+02  0.78416881954E+01 -0.59245195189E+02  0.74579870322E+02  0.00000000000E+00 0.  1.
         11    1    4    4    0    0 -0.47556400885E+02 -0.40376551825E+01 -0.74792129075E+02  0.88723032501E+02  0.00000000000E+00 0. -1.
          3    1    1    2  501    0  0.34050095248E+02 -0.70089263633E+01  0.12443682714E+02  0.36923966129E+02  0.00000000000E+00 0. -1.
<scales pt_clust_5="13000.00000" pt_clust_6="13000.00000" pt_clust_7="13000.00000" pt_clust_8="13000.00000" pt_clust_9="34.76398"></scales>
<clustering>
<clus scale="   34.764">  1  9  2 -1</clus>
<clus scale="   82.612">  5  6 -1 -1</clus>
<clus scale="   85.898">  2  5  1 -1</clus>
<clus scale="   93.160">  7  8 -1 -1</clus>
<clus scale="   34.764">  1  5  2 -1</clus>
</clustering>
</event>
<event>
 9    2  0.7820252E-005  0.1029533E+03  0.7546771E-02  0.1280800E+00
          2   -1    0    0  502    0 -0.00000000000E+00  0.00000000000E+00  0.10863097386E+03  0.10863097386E+03  0.00000000000E+00 0. -1.
         21   -1    0    0  501  502  0.00000000000E+00 -0.00000000000E+00 -0.12377568239E+03  0.12377568239E+03  0.00000000000E+00 0.  1.
         23    2    1    2    0    0 -0.40474038606E+02 -0.12764144517E+02  0.35102077840E+02  0.10953155812E+03  0.94678060649E+02 0.  0.
         24    2    1    2    0    0  0.39407008363E+02 -0.84258080396E+01 -0.37681195128E+02  0.98216494635E+02  0.81257004639E+02 0.  0.
        -11    1    4    4    0    0  0.33944621099E+02  0.33638161832E+02 -0.25063630491E+02  0.53962475910E+02  0.00000000000E+00 0.  1.
         12    1    4    4    0    0  0.54623872647E+01 -0.42063969871E+02 -0.12617564636E+02  0.44254018725E+02  0.00000000000E+00 0. -1.
        -11    1    3    3    0    0 -0.37559324422E+02 -0.52133489936E+02  0.22867024147E+02  0.68201938515E+02  0.00000000000E+00 0. -1.
         11    1    3    3    0    0 -0.29147141845E+01  0.39369345419E+02  0.12235053693E+02  0.41329619601E+02  0.00000000000E+00 0.  1.
          1    1    1    2  501    0  0.10670302431E+01  0.21189952557E+02 -0.12565591243E+02  0.24658603492E+02  0.00000000000E+00 0. -1.
<scales pt_clust_5="13000.00000" pt_clust_6="13000.00000" pt_clust_7="13000.00000" pt_clust_8="13000.00000" pt_clust_9="21.21680"></scales>
<clustering>
<clus scale="   21.217">  2  9  1 -1</clus>
<clus scale="   81.257">  5  6 -1 -1</clus>
<clus scale="   90.764">  2  5  1 -1</clus>
<clus scale="   94.678">  7  8 -1 -1</clus>
<clus scale="   21.217">  2  5  1 -1</clus>
</clustering>
</event>
<event>
 9    2  0.7820252E-005  0.1159117E+03  0.7546771E-02  0.1252525E+00
         21   -1    0    0  501  502  0.00000000000E+00  0.00000000000E+00  0.71897592266E+02  0.71897592266E+02  0.00000000000E+00 0. -1.
          2   -1    0    0  502    0 -0.00000000000E+00 -0.00000000000E+00 -0.65355932995E+03  0.65355932995E+03  0.00000000000E+00 0. -1.
         23    2    1    2    0    0  0.20601904050E+02  0.50268649994E+02 -0.28804721399E+03  0.30638191393E+03  0.89147653222E+02 0.  0.
         24    2    1    2    0    0  0.35957837227E+02 -0.12192305775E+03 -0.29086094601E+03  0.32774625775E+03  0.81604665835E+02 0.  0.
        -13    1    4    4    0    0 -0.18678778094E+02 -0.76194453858E+02 -0.17418776684E+03  0.19103892186E+03  0.00000000000E+00 0.  1.
         14    1    4    4    0    0  0.54636615321E+02 -0.45728603887E+02 -0.11667317917E+03  0.13670733588E+03  0.00000000000E+00 0. -1.
        -13    1    3    3    0    0  0.53112788827E+01 -0.24916745612E+02 -0.47581458050E+02  0.53972669431E+02  0.00000000000E+00 0. -1.
         13    1    3    3    0    0  0.15290625167E+02  0.75185395606E+02 -0.24046575594E+03  0.25240924450E+03  0.00000000000E+00 0.  1.
          1    1    1    2  501    0 -0.56559741277E+02  0.71654407752E+02 -0.27535776809E+01  0.91328750531E+02  0.00000000000E+00 0. -1.
<scales pt_clust_5="13000.00000" pt_clust_6="13000.00000" pt_clust_7="13000.00000" pt_clust_8="13000.00000" pt_clust_9="91.28723"></scales>
<clustering>
<clus scale="   81.605">  5  6 -1 -1</clus>
<clus scale="   89.148">  7  8 -1 -1</clus>
<clus scale="   91.287">  1  9  2 -1</clus>
<clus scale="  110.216">  1  5  2 -1</clus>
<clus scale="   91.287">  1  5  2 -1</clus>
</clustering>
</event>
<event>
 9    2  0.7820252E-005  0.9694041E+02  0.7546771E-02  0.1293998E+00
         21   -1    0    0  501  502  0.00000000000E+00  0.00000000000E+00  0.16889979188E+03  0.16889979188E+03  0.00000000000E+00 0. -1.
          2   -1    0    0  502    0 -0.00000000000E+00 -0.00000000000E+00 -0.10485555074E+03  0.10485555074E+03  0.00000000000E+00 0. -1.
         24    2    1    2    0    0 -0.33600203502E+01  0.19535104844E+02 -0.17736387126E+02  0.83770316906E+02  0.79435360566E+02 0.  0.
         23    2    1    2    0    0 -0.12091385379E+02 -0.64899402315E+02  0.85290713132E+02  0.14193311504E+03  0.92262502545E+02 0.  0.
        -13    1    3    3    0    0  0.28071238010E+02 -0.13378629011E+02 -0.21952865736E+02  0.38064556107E+02  0.00000000000E+00 0.  1.
         14    1    3    3    0    0 -0.31431258360E+02  0.32913733855E+02  0.42164786101E+01  0.45705760799E+02  0.00000000000E+00 0. -1.
        -13    1    4    4    0    0 -0.33763753612E+02  0.64477617353E+01  0.46659515245E+02  0.57954077098E+02  0.00000000000E+00 0.  1.
         13    1    4    4    0    0  0.21672368233E+02 -0.71347164050E+02  0.38631197887E+02  0.83979037938E+02  0.00000000000E+00 0. -1.
          1    1    1    2  501    0  0.15451405729E+02  0.45364297471E+02 -0.35100848586E+01  0.48051910677E+02  0.00000000000E+00 0. -1.
<scales pt_clust_5="13000.00000" pt_clust_6="13000.00000" pt_clust_7="13000.00000" pt_clust_8="13000.00000" pt_clust_9="47.92356"></scales>
<clustering>
<clus scale="   47.924">  1  9  2 -1</clus>
<clus scale="   79.435">  5  6 -1 -1</clus>
<clus scale="   84.824">  2  5  1 -1</clus>
<clus scale="   92.263">  7  8 -1 -1</clus>
<clus scale="   47.924">  1  5  2 -1</clus>
</clustering>
</event>
<event>
 9    2  0.7820252E-005  0.1446606E+03  0.7546771E-02  0.1225593E+00
          2   -1    0    0  502    0 -0.00000000000E+00  0.00000000000E+00  0.12606501803E+04  0.12606501803E+04  0.00000000000E+00 0. -1.
         21   -1    0    0  501  502  0.00000000000E+00 -0.00000000000E+00 -0.36483384241E+02  0.36483384241E+02  0.00000000000E+00 0. -1.
         24    2    1    2    0    0  0.25302153334E+02 -0.43229505581E+02  0.25393089919E+03  0.27221000920E+03  0.84311318517E+02 0.  0.
         23    2    1    2    0    0  0.98382941434E+02  0.52730620102E+02  0.20946233775E+03  0.25410277065E+03  0.90741532151E+02 0.  0.
        -11    1    3    3    0    0  0.21615672765E+02  0.11139377174E+02  0.18499178725E+02  0.30553930131E+02  0.00000000000E+00 0.  1.
         12    1    3    3    0    0  0.36864805686E+01 -0.54368882755E+02  0.23543172047E+03  0.24165607907E+03  0.00000000000E+00 0. -1.
        -11    1    4    4    0    0  0.83729010646E+02 -0.40851124198E+01  0.13996689114E+03  0.16315013326E+03  0.00000000000E+00 0.  1.
         11    1    4    4    0    0  0.14653930788E+02  0.56815732522E+02  0.69495446604E+02  0.90952637391E+02  0.00000000000E+00 0. -1.
          1    1    1    2  501    0 -0.12368509477E+03 -0.95011145207E+01  0.76077355910E+03  0.77082078467E+03  0.00000000000E+00 0. -1.
<scales pt_clust_5="13000.00000" pt_clust_6="13000.00000" pt_clust_7="13000.00000" pt_clust_8="13000.00000" pt_clust_9="112.66172"></scales>
<clustering>
<clus scale="   84.311">  5  6 -1 -1</clus>
<clus scale="   90.742">  7  8 -1 -1</clus>
<clus scale="   98.068">  1  5  2 -1</clus>
<clus scale="  112.662">  2  9  1 -1</clus>
<clus scale="  112.662">  2  5  1 -1</clus>
</clustering>
</event>
<event>
 9    2  0.7820252E-005  0.9373446E+02  0.7546771E-02  0.1305694E+00
          2   -1    0    0  502    0 -0.00000000000E+00  0.00000000000E+00  0.84168661191E+03  0.84168661191E+03  0.00000000000E+00 0. -1.
         21   -1    0    0  501  502  0.00000000000E+00 -0.00000000000E+00 -0.18519294937E+02  0.18519294937E+02  0.00000000000E+00 0. -1.
         23    2    1    2    0    0  0.22196342767E+02 -0.25672040151E+02  0.28021613998E+03  0.29735095390E+03  0.93513493132E+02 0.  0.
         24    2    1    2    0    0  0.81763161227E+01 -0.27102220784E+02  0.22114884334E+03  0.23534256697E+03  0.75352043128E+02 0.  0.
        -13    1    4    4    0    0 -0.27511732892E+02 -0.33330609345E+02  0.13891073636E+03  0.14547858138E+03  0.00000000000E+00 0.  1.
         14    1    4    4    0    0  0.35688049014E+02  0.62283885609E+01  0.82238106982E+02  0.89863985592E+02  0.00000000000E+00 0. -1.
        -11    1    3    3    0    0  0.45029782346E+02  0.10363891440E+02  0.21134665009E+03  0.21633885007E+03  0.00000000000E+00 0.  1.
         11    1    3    3    0    0 -0.22833439579E+02 -0.36035931591E+02  0.68869489893E+02  0.81012103829E+02  0.00000000000E+00 0. -1.
          1    1    1    2  501    0 -0.30372658890E+02  0.52774260934E+02  0.32180233365E+03  0.32751238598E+03  0.00000000000E+00 0. -1.
<scales pt_clust_5="13000.00000" pt_clust_6="13000.00000" pt_clust_7="13000.00000" pt_clust_8="13000.00000" pt_clust_9="60.89027"></scales>
<clustering>
<clus scale="   60.890">  2  9  1 -1</clus>
<clus scale="   75.352">  5  6 -1 -1</clus>
<clus scale="   75.626">  2  5  1 -1</clus>
<clus scale="   93.513">  7  8 -1 -1</clus>
<clus scale="   60.890">  2  5  1 -1</clus>
</clustering>
</event>
<event>
 9    2  0.1531585E-004  0.9764066E+02  0.7546771E-02  0.1291506E+00
         21   -1    0    0  501  502  0.00000000000E+00  0.00000000000E+00  0.12254571146E+03  0.12254571146E+03  0.00000000000E+00 0. -1.
          2   -1    0    0  502    0 -0.00000000000E+00 -0.00000000000E+00 -0.31716673714E+03  0.31716673714E+03  0.00000000000E+00 0. -1.
         23    2    1    2    0    0  0.34642592640E+02 -0.17553484630E+02 -0.25046647132E+03  0.26898564478E+03  0.90064364743E+02 0.  0.
         24    2    1    2    0    0 -0.38246310992E+02 -0.39187356913E+01 -0.21901291134E+02  0.89988968132E+02  0.78359498711E+02 0.  0.
        -13    1    4    4    0    0 -0.36193138737E+02  0.27096812953E+02  0.90657701098E+01  0.46112566091E+02  0.00000000000E+00 0.  1.
         14    1    4    4    0    0 -0.20531722556E+01 -0.31015548644E+02 -0.30967061243E+02  0.43876402041E+02  0.00000000000E+00 0. -1.
        -13    1    3    3    0    0 -0.30265388296E+02 -0.73660484763E+01 -0.61801177476E+02  0.69207210146E+02  0.00000000000E+00 0.  1.
         13    1    3    3    0    0  0.64907980936E+02 -0.10187436153E+02 -0.18866529385E+03  0.19977843464E+03  0.00000000000E+00 0. -1.
          1    1    1    2  501    0  0.36037183521E+01  0.21472220321E+02  0.77746736778E+02  0.80737835685E+02  0.00000000000E+00 0. -1.
<scales pt_clust_5="13000.00000" pt_clust_6="13000.00000" pt_clust_7="13000.00000" pt_clust_8="13000.00000" pt_clust_9="21.77253"></scales>
<clustering>
<clus scale="   21.773">  1  9  2 -1</clus>
<clus scale="   78.359">  5  6 -1 -1</clus>
<clus scale="   86.962">  1  5  2 -1</clus>
<clus scale="   90.064">  7  8 -1 -1</clus>
<clus scale="   21.773">  1  5  2 -1</clus>
</clustering>
</event>
<event>
 9    2  0.7820252E-005  0.9092880E+02  0.7546771E-02  0.1304987E+00
          4   -1    0    0  502    0 -0.00000000000E+00  0.00000000000E+00  0.20147986688E+02  0.20147986688E+02  0.00000000000E+00 0. -1.
         21   -1    0    0  501  502  0.00000000000E+00 -0.00000000000E+00 -0.75404047459E+03  0.75404047459E+03  0.00000000000E+00 0. -1.
         23    2    1    2    0    0  0.16684141469E+02  0.19093742040E+02 -0.17951856799E+03  0.20263413499E+03  0.90502733910E+02 0.  0.
         24    2    1    2    0    0  0.24803526812E+02  0.11097739524E+02 -0.34923747349E+03  0.36009815157E+03  0.83459517799E+02 0.  0.
        -11    1    4    4    0    0 -0.28828655684E+02 -0.83567291751E+01 -0.99601701876E+02  0.10402608004E+03  0.00000000000E+00 0.  1.
         12    1    4    4    0    0  0.53632182496E+02  0.19454468699E+02 -0.24963577161E+03  0.25607207153E+03  0.00000000000E+00 0. -1.
        -11    1    3    3    0    0 -0.31308004276E+02 -0.73753330607E+01 -0.32472556273E+02  0.45706165672E+02  0.00000000000E+00 0.  1.
         11    1    3    3    0    0  0.47992145745E+02  0.26469075101E+02 -0.14704601172E+03  0.15692796931E+03  0.00000000000E+00 0. -1.
          3    1    1    2  501    0 -0.41487668281E+02 -0.30191481564E+02 -0.20513644642E+03  0.21145617473E+03  0.00000000000E+00 0. -1.
<scales pt_clust_5="13000.00000" pt_clust_6="13000.00000" pt_clust_7="13000.00000" pt_clust_8="13000.00000" pt_clust_9="51.31035"></scales>
<clustering>
<clus scale="   51.310">  2  9  1 -1</clus>
<clus scale="   83.460">  5  6 -1 -1</clus>
<clus scale="   83.921">  2  5  1 -1</clus>
<clus scale="   90.503">  7  8 -1 -1</clus>
<clus scale="   51.310">  2  5  1 -1</clus>
</clustering>
</event>
<event>
 9    2  0.7820252E-005  0.1069236E+03  0.7546771E-02  0.1270912E+00
         21   -1    0    0  501  502  0.00000000000E+00  0.00000000000E+00  0.76393326545E+02  0.76393326545E+02  0.00000000000E+00 0. -1.
          2   -1    0    0  502    0 -0.00000000000E+00 -0.00000000000E+00 -0.84670734246E+03  0.84670734246E+03  0.00000000000E+00 0. -1.
         24    2    1    2    0    0 -0.20400362634E+02 -0.60218178248E+02 -0.74034574086E+03  0.74727479950E+03  0.79154318652E+02 0.  0.
         23    2    1    2    0    0 -0.32777149948E+02  0.99533817668E+01 -0.34935881207E+02  0.10248369392E+03  0.90049877049E+02 0.  0.
        -13    1    3    3    0    0 -0.31307606628E+02 -0.44678197345E+02 -0.22284149205E+03  0.22942240111E+03  0.00000000000E+00 0.  1.
         14    1    3    3    0    0  0.10907243993E+02 -0.15539980903E+02 -0.51750424881E+03  0.51785239839E+03  0.00000000000E+00 0. -1.
        -11    1    4    4    0    0  0.18074539119E+02  0.20938031541E+02  0.14051875526E+02  0.31024914745E+02  0.00000000000E+00 0.  1.
         11    1    4    4    0    0 -0.50851689067E+02 -0.10984649774E+02 -0.48987756732E+02  0.71458779175E+02  0.00000000000E+00 0. -1.
          1    1    1    2  501    0  0.53177512582E+02  0.50264796481E+02  0.49676061518E+01  0.73342175592E+02  0.00000000000E+00 0. -1.
<scales pt_clust_5="13000.00000" pt_clust_6="13000.00000" pt_clust_7="13000.00000" pt_clust_8="13000.00000" pt_clust_9="73.17375"></scales>
<clustering>
<clus scale="   73.174">  1  9  2 -1</clus>
<clus scale="   79.154">  5  6 -1 -1</clus>
<clus scale="   90.050">  7  8 -1 -1</clus>
<clus scale="   97.924">  2  5  1 -1</clus>
<clus scale="   73.174">  1  5  2 -1</clus>
</clustering>
</event>
<event>
 9    2  0.7820252E-005  0.1039266E+03  0.7546771E-02  0.1274545E+00
          2   -1    0    0  502    0 -0.00000000000E+00  0.00000000000E+00  0.33041117788E+03  0.33041117788E+03  0.00000000000E+00 0. -1.
         21   -1    0    0  501  502  0.00000000000E+00 -0.00000000000E+00 -0.61046144845E+02  0.61046144845E+02  0.00000000000E+00 0. -1.
         24    2    1    2    0    0  0.18359947035E+02 -0.62942230819E+02  0.17286214734E+03  0.20531834197E+03  0.89305584864E+02 0.  0.
         23    2    1    2    0    0 -0.16622472493E+02 -0.16125197802E+00  0.52451992376E+02  0.10916138947E+03  0.94279716019E+02 0.  0.
        -13    1    3    3    0    0  0.52066100061E+01  0.22031232373E+02  0.21405497080E+02  0.31155726486E+02  0.00000000000E+00 0.  1.
         14    1    3    3    0    0  0.13153337028E+02 -0.84973463192E+02  0.15145665026E+03  0.17416261548E+03  0.00000000000E+00 0. -1.
        -11    1    4    4    0    0 -0.48488944511E+02 -0.25013222025E+02  0.36868655530E+02  0.65849349096E+02  0.00000000000E+00 0. -1.
         11    1    4    4    0    0  0.31866472017E+02  0.24851970047E+02  0.15583336846E+02  0.43312040373E+02  0.00000000000E+00 0.  1.
          1    1    1    2  501    0 -0.17374745412E+01  0.63103482797E+02  0.44050893314E+02  0.76977591289E+02  0.00000000000E+00 0. -1.
<scales pt_clust_5="13000.00000" pt_clust_6="13000.00000" pt_clust_7="13000.00000" pt_clust_8="13000.00000" pt_clust_9="63.12740"></scales>
<clustering>
<clus scale="   63.127">  2  9  1 -1</clus>
<clus scale="   89.306">  5  6 -1 -1</clus>
<clus scale="   94.280">  7  8 -1 -1</clus>
<clus scale="   99.436">  1  5  2 -1</clus>
<clus scale="   63.127">  2  5  1 -1</clus>
</clustering>
</event>
<event>
 9    2  0.7820252E-005  0.1154217E+03  0.7546771E-02  0.1254811E+00
          2   -1    0    0  502    0 -0.00000000000E+00  0.00000000000E+00  0.53148471204E+03  0.53148471204E+03  0.00000000000E+00 0. -1.
         21   -1    0    0  501  502  0.00000000000E+00 -0.00000000000E+00 -0.89949828146E+02  0.89949828146E+02  0.00000000000E+00 0.  1.
         23    2    1    2    0    0 -0.57528183991E+02  0.38735545011E+02  0.43680268777E+03  0.45173471140E+03  0.91965901537E+02 0.  0.
         24    2    1    2    0    0  0.31574570421E+02 -0.78662828398E+02  0.21905133913E+02  0.11907683195E+03  0.80713461998E+02 0.  0.
        -11    1    4    4    0    0  0.86308815087E+01 -0.75439404665E+02 -0.13145246542E+02  0.77060971954E+02  0.00000000000E+00 0.  1.
         12    1    4    4    0    0  0.22943688913E+02 -0.32234237322E+01  0.35050380455E+02  0.42015860000E+02  0.00000000000E+00 0. -1.
        -13    1    3    3    0    0 -0.52148650127E+02 -0.16855815844E+02  0.15378422249E+03  0.16325803908E+03  0.00000000000E+00 0.  1.
         13    1    3    3    0    0 -0.53795338645E+01  0.55591360855E+02  0.28301846527E+03  0.28847667232E+03  0.00000000000E+00 0. -1.
          1    1    1    2  501    0  0.25953613570E+02  0.39927283387E+02 -0.17172937784E+02  0.50622996831E+02  0.00000000000E+00 0. -1.
<scales pt_clust_5="13000.00000" pt_clust_6="13000.00000" pt_clust_7="13000.00000" pt_clust_8="13000.00000" pt_clust_9="47.62119"></scales>
<clustering>
<clus scale="   47.621">  2  9  1 -1</clus>
<clus scale="   80.713">  5  6 -1 -1</clus>
<clus scale="   91.966">  7  8 -1 -1</clus>
<clus scale="  106.673">  2  5  1 -1</clus>
<clus scale="   47.621">  2  5  1 -1</clus>
</clustering>
</event>
<event>
 9    2  0.7820252E-005  0.1026941E+03  0.7546771E-02  0.1278672E+00
          2   -1    0    0  502    0 -0.00000000000E+00  0.00000000000E+00  0.71913647290E+03  0.71913647290E+03  0.00000000000E+00 0. -1.
         21   -1    0    0  501  502  0.00000000000E+00 -0.00000000000E+00 -0.66135623612E+02  0.66135623612E+02  0.00000000000E+00 0. -1.
         24    2    1    2    0    0 -0.46493572851E+02 -0.12098230705E+02  0.58084523384E+03  0.58855083980E+03  0.81871153924E+02 0.  0.
         23    2    1    2    0    0  0.51287940953E+02  0.33377856011E+02 -0.11936313678E+02  0.10984628355E+03  0.90438909029E+02 0.  0.
        -13    1    3    3    0    0  0.11501358819E+02  0.22787880077E+02  0.11381570915E+03  0.11664297828E+03  0.00000000000E+00 0.  1.
         14    1    3    3    0    0 -0.57994931670E+02 -0.34886110782E+02  0.46702952470E+03  0.47190786152E+03  0.00000000000E+00 0. -1.
        -11    1    4    4    0    0  0.76406355049E+02  0.17743826616E+02 -0.15780212453E+02  0.80011184093E+02  0.00000000000E+00 0. -1.
         11    1    4    4    0    0 -0.25118414096E+02  0.15634029395E+02  0.38438987749E+01  0.29835099457E+02  0.00000000000E+00 0.  1.
          1    1    1    2  501    0 -0.47943681016E+01 -0.21279625305E+02  0.84091929124E+02  0.86874973165E+02  0.00000000000E+00 0. -1.
<scales pt_clust_5="13000.00000" pt_clust_6="13000.00000" pt_clust_7="13000.00000" pt_clust_8="13000.00000" pt_clust_9="21.81304"></scales>
<clustering>
<clus scale="   21.813">  2  9  1 -1</clus>
<clus scale="   81.871">  5  6 -1 -1</clus>
<clus scale="   90.439">  7  8 -1 -1</clus>
<clus scale="   95.235">  1  5  2 -1</clus>
<clus scale="   21.813">  2  5  1 -1</clus>
</clustering>
</event>
<event>
 9    2  0.9877431E-005  0.1018943E+03  0.7546771E-02  0.1281362E+00
          2   -1    0    0  502    0 -0.00000000000E+00  0.00000000000E+00  0.10649810063E+04  0.10649810063E+04  0.00000000000E+00 0. -1.
         21   -1    0    0  501  502  0.00000000000E+00 -0.00000000000E+00 -0.37524017047E+02  0.37524017047E+02  0.00000000000E+00 0. -1.
         23    2    1    2    0    0 -0.57388939984E+02 -0.13650724995E+02  0.35709790970E+03  0.37339589422E+03  0.91791851386E+02 0.  0.
         24    2    1    2    0    0 -0.17974305513E+02  0.37512013451E+02  0.50880275771E+02  0.10460695284E+03  0.81385412130E+02 0.  0.
        -13    1    4    4    0    0  0.29743068108E+02  0.26616306011E+01  0.61293632961E+01  0.30484479205E+02  0.00000000000E+00 0.  1.
         14    1    4    4    0    0 -0.47717373621E+02  0.34850382850E+02  0.44750912475E+02  0.74122473633E+02  0.00000000000E+00 0. -1.
        -13    1    3    3    0    0 -0.78794618376E+02  0.57343662284E+01  0.28448410489E+03  0.29525020030E+03  0.00000000000E+00 0. -1.
         13    1    3    3    0    0  0.21405678392E+02 -0.19385091223E+02  0.72613804813E+02  0.78145693922E+02  0.00000000000E+00 0.  1.
          1    1    1    2  501    0  0.75363245497E+02 -0.23861288456E+02  0.61947880374E+03  0.62450217625E+03  0.00000000000E+00 0. -1.
<scales pt_clust_5="13000.00000" pt_clust_6="13000.00000" pt_clust_7="13000.00000" pt_clust_8="13000.00000" pt_clust_9="79.05053"></scales>
<clustering>
<clus scale="   79.051">  2  9  1 -1</clus>
<clus scale="   81.385">  5  6 -1 -1</clus>
<clus scale="   91.792">  7  8 -1 -1</clus>
<clus scale="   92.630">  2  5  1 -1</clus>
<clus scale="   79.051">  2  5  1 -1</clus>
</clustering>
</event>
<event>
 9    2  0.9445061E-005  0.1234311E+03  0.7546771E-02  0.1240601E+00
          2   -1    0    0  502    0 -0.00000000000E+00  0.00000000000E+00  0.13032102558E+03  0.13032102558E+03  0.00000000000E+00 0. -1.
         21   -1    0    0  501  502  0.00000000000E+00 -0.00000000000E+00 -0.40864221839E+03  0.40864221839E+03  0.00000000000E+00 0.  1.
         23    2    1    2    0    0  0.80709581218E+01 -0.83866164995E+02  0.79622021035E+02  0.14708356038E+03  0.90527528980E+02 0.  0.
         24    2    1    2    0    0 -0.38558097629E+02  0.76537511628E+02 -0.32871463679E+03  0.34901379328E+03  0.80078698087E+02 0.  0.
        -13    1    4    4    0    0 -0.21191103403E+02  0.64430014565E+02 -0.31825118096E+03  0.32539837710E+03  0.00000000000E+00 0.  1.
         14    1    4    4    0    0 -0.17366994226E+02  0.12107497063E+02 -0.10463455827E+02  0.23615416182E+02  0.00000000000E+00 0. -1.
        -11    1    3    3    0    0 -0.19779946512E+02  0.11346010838E+02  0.25001162487E+02  0.33838386067E+02  0.00000000000E+00 0.  1.
         11    1    3    3    0    0  0.27850904634E+02 -0.95212175832E+02  0.54620858548E+02  0.11324517431E+03  0.00000000000E+00 0. -1.
          1    1    1    2  501    0  0.30487139507E+02  0.73286533666E+01 -0.29228577054E+02  0.42865890310E+02  0.00000000000E+00 0. -1.
<scales pt_clust_5="13000.00000" pt_clust_6="13000.00000" pt_clust_7="13000.00000" pt_clust_8="13000.00000" pt_clust_9="31.35562"></scales>
<clustering>
<clus scale="   31.356">  2  9  1 -1</clus>
<clus scale="   80.079">  5  6 -1 -1</clus>
<clus scale="   90.528">  7  8 -1 -1</clus>
<clus scale="  115.985">  2  5  1 -1</clus>
<clus scale="   31.356">  2  5  1 -1</clus>
</clustering>
</event>
<event>
 9    2  0.7820252E-005  0.1291678E+03  0.7546771E-02  0.1231489E+00
         21   -1    0    0  501  502  0.00000000000E+00  0.00000000000E+00  0.63124269403E+02  0.63124269403E+02  0.00000000000E+00 0.  1.
          2   -1    0    0  502    0 -0.00000000000E+00 -0.00000000000E+00 -0.10730409092E+04  0.10730409092E+04  0.00000000000E+00 0. -1.
         23    2    1    2    0    0 -0.82184307043E+02  0.48384378323E+02 -0.54365832572E+03  0.55975080351E+03  0.93065990098E+02 0.  0.
         24    2    1    2    0    0  0.77060362884E+02  0.34240058920E+02 -0.16707755673E+02  0.11930524481E+03  0.82727934676E+02 0.  0.
        -11    1    4    4    0    0  0.89630795706E+02  0.29185385210E+02  0.42397271847E+01  0.94358049658E+02  0.00000000000E+00 0.  1.
         12    1    4    4    0    0 -0.12570432821E+02  0.50546737097E+01 -0.20947482857E+02  0.24947195147E+02  0.00000000000E+00 0. -1.
        -11    1    3    3    0    0 -0.73255802834E+02 -0.90515456064E+01 -0.26456201890E+03  0.27466598801E+03  0.00000000000E+00 0. -1.
         11    1    3    3    0    0 -0.89285042094E+01  0.57435923930E+02 -0.27909630683E+03  0.28508481550E+03  0.00000000000E+00 0.  1.
          1    1    1    2  501    0  0.51239441588E+01 -0.82624437243E+02 -0.44955055841E+03  0.45710913029E+03  0.00000000000E+00 0. -1.
<scales pt_clust_5="13000.00000" pt_clust_6="13000.00000" pt_clust_7="13000.00000" pt_clust_8="13000.00000" pt_clust_9="82.78321"></scales>
<clustering>
<clus scale="   82.728">  5  6 -1 -1</clus>
<clus scale="   82.783">  1  9  2 -1</clus>
<clus scale="   93.066">  7  8 -1 -1</clus>
<clus scale="  121.930">  1  5  2 -1</clus>
<clus scale="   82.783">  1  5  2 -1</clus>
</clustering>
</event>
<event>
 9    2  0.7820252E-005  0.9641273E+02  0.7546771E-02  0.1295770E+00
         21   -1    0    0  501  502  0.00000000000E+00  0.00000000000E+00  0.70269261412E+02  0.70269261412E+02  0.00000000000E+00 0. -1.
          2   -1    0    0  502    0 -0.00000000000E+00 -0.00000000000E+00 -0.30541311106E+03  0.30541311106E+03  0.00000000000E+00 0. -1.
         24    2    1    2    0    0  0.69332057360E+01 -0.37474328693E+02 -0.16619578480E+03  0.18782750637E+03  0.78776510536E+02 0.  0.
         23    2    1    2    0    0  0.26428939089E+02 -0.15768840994E+02 -0.39967356917E+01  0.97485939004E+02  0.92414226392E+02 0.  0.
        -11    1    3    3    0    0  0.13130942563E+01  0.24813568415E+02 -0.42890169761E+02  0.49568175840E+02  0.00000000000E+00 0.  1.
         12    1    3    3    0    0  0.56201114796E+01 -0.62287897108E+02 -0.12330561503E+03  0.13825933053E+03  0.00000000000E+00 0. -1.
        -13    1    4    4    0    0  0.19563756715E+02  0.85163655186E+01 -0.44735604510E+02  0.49563528620E+02  0.00000000000E+00 0.  1.
         13    1    4    4    0    0  0.68651823741E+01 -0.24285206513E+02  0.40738868818E+02  0.47922410383E+02  0.00000000000E+00 0. -1.
          1    1    1    2  501    0 -0.33362144825E+02  0.53243169687E+02 -0.64951329162E+02  0.90368927102E+02  0.00000000000E+00 0. -1.
<scales pt_clust_5="13000.00000" pt_clust_6="13000.00000" pt_clust_7="13000.00000" pt_clust_8="13000.00000" pt_clust_9="62.83209"></scales>
<clustering>
<clus scale="   62.832">  1  9  2 -1</clus>
<clus scale="   78.777">  5  6 -1 -1</clus>
<clus scale="   83.431">  2  5  1 -1</clus>
<clus scale="   92.414">  7  8 -1 -1</clus>
<clus scale="   62.832">  1  5  2 -1</clus>
</clustering>
</event>
<event>
 9    2  0.7820252E-005  0.2081616E+03  0.7546771E-02  0.1165884E+00
         21   -1    0    0  501  502  0.00000000000E+00  0.00000000000E+00  0.15010503892E+03  0.15010503892E+03  0.00000000000E+00 0. -1.
          2   -1    0    0  502    0 -0.00000000000E+00 -0.00000000000E+00 -0.64787719141E+03  0.64787719141E+03  0.00000000000E+00 0. -1.
         24    2    1    2    0    0  0.68861653822E+02 -0.64807628946E+02 -0.30728571306E+03  0.33048393573E+03  0.76505987926E+02 0.  0.
         23    2    1    2    0    0 -0.20152678407E+03 -0.62145773408E+02 -0.16414728270E+03  0.28199639614E+03  0.90013860991E+02 0.  0.
        -13    1    3    3    0    0  0.19184606050E+02 -0.66106025321E+02 -0.21385218635E+03  0.22465710160E+03  0.00000000000E+00 0.  1.
         14    1    3    3    0    0  0.49677047772E+02  0.12983963758E+01 -0.93433526713E+02  0.10582683413E+03  0.00000000000E+00 0. -1.
        -13    1    4    4    0    0 -0.33397340095E+02 -0.22531024333E+02 -0.80624417606E+02  0.90129496266E+02  0.00000000000E+00 0.  1.
         13    1    4    4    0    0 -0.16812944397E+03 -0.39614749075E+02 -0.83522865098E+02  0.19186689988E+03  0.00000000000E+00 0. -1.
          1    1    1    2  501    0  0.13266513024E+03  0.12695340235E+03 -0.26339156726E+02  0.18550189845E+03  0.00000000000E+00 0. -1.
<scales pt_clust_5="13000.00000" pt_clust_6="13000.00000" pt_clust_7="13000.00000" pt_clust_8="13000.00000" pt_clust_9="187.69321"></scales>
<clustering>
<clus scale="   76.506">  5  6 -1 -1</clus>
<clus scale="   90.014">  7  8 -1 -1</clus>
<clus scale="  121.635">  2  5  1 -1</clus>
<clus scale="  187.693">  1  9  2 -1</clus>
<clus scale="  187.693">  1  5  2 -1</clus>
</clustering>
</event>
<event>
 9    2  0.7820252E-005  0.2419840E+03  0.7546771E-02  0.1118478E+00
         21   -1    0    0  501  502  0.00000000000E+00  0.00000000000E+00  0.56196857299E+03  0.56196857299E+03  0.00000000000E+00 0. -1.
          2   -1    0    0  502    0 -0.00000000000E+00 -0.00000000000E+00 -0.64896427515E+03  0.64896427515E+03  0.00000000000E+00 0. -1.
         24    2    1    2    0    0 -0.94604137870E+02 -0.49049884588E+02 -0.32822162826E+03  0.35458825990E+03  0.81532586890E+02 0.  0.
         23    2    1    2    0    0 -0.28425142828E+02 -0.33683282930E+02 -0.28763077668E+03  0.30709929423E+03  0.98162928500E+02 0.  0.
        -13    1    3    3    0    0  0.10798964107E+02 -0.21560610505E+02 -0.43426585503E+02  0.49672385483E+02  0.00000000000E+00 0.  1.
         14    1    3    3    0    0 -0.10540310198E+03 -0.27489274083E+02 -0.28479504275E+03  0.30491587442E+03  0.00000000000E+00 0. -1.
        -11    1    4    4    0    0  0.25416907616E+02 -0.13869248111E+02 -0.24935361478E+02  0.38211876269E+02  0.00000000000E+00 0. -1.
         11    1    4    4    0    0 -0.53842050444E+02 -0.19814034819E+02 -0.26269541520E+03  0.26888741796E+03  0.00000000000E+00 0.  1.
          1    1    1    2  501    0  0.12302928070E+03  0.82733167518E+02  0.52885670277E+03  0.54924529400E+03  0.00000000000E+00 0. -1.
<scales pt_clust_5="13000.00000" pt_clust_6="13000.00000" pt_clust_7="13000.00000" pt_clust_8="13000.00000" pt_clust_9="148.25984"></scales>
<clustering>
<clus scale="   81.533">  5  6 -1 -1</clus>
<clus scale="   98.163">  7  8 -1 -1</clus>
<clus scale="  104.925">  5  7 -1 -1</clus>
<clus scale="  148.260">  1  9  2 -1</clus>
<clus scale="  148.260">  1  5  2 -1</clus>
</clustering>
</event>
<event>
 9    2  0.7820252E-005  0.1005333E+03  0.7546771E-02  0.1284244E+00
         21   -1    0    0  501  502  0.00000000000E+00  0.00000000000E+00  0.79186151446E+02  0.79186151446E+02  0.00000000000E+00 0. -1.
          2   -1    0    0  502    0 -0.00000000000E+00 -0.00000000000E+00 -0.37876254276E+03  0.37876254276E+03  0.00000000000E+00 0. -1.
         24    2    1    2    0    0  0.30116613905E+02 -0.31371850494E+02 -0.32453049416E+03  0.33738449752E+03  0.81345276983E+02 0.  0.
         23    2    1    2    0    0 -0.84108931684E+01  0.24162920249E+02  0.19689129834E+02  0.97094494333E+02  0.91570132452E+02 0.  0.
        -13    1    3    3    0    0  0.24015237264E+02  0.22228639772E+02 -0.71002470763E+02  0.78180527636E+02  0.00000000000E+00 0.  1.
         14    1    3    3    0    0  0.61013766403E+01 -0.53600490266E+02 -0.25352802340E+03  0.25920396988E+03  0.00000000000E+00 0. -1.
        -13    1    4    4    0    0 -0.39059301621E+02  0.43273860790E+02  0.17694509058E+02  0.60920864420E+02  0.00000000000E+00 0.  1.
         13    1    4    4    0    0  0.30648408453E+02 -0.19110940541E+02  0.19946207758E+01  0.36173629913E+02  0.00000000000E+00 0. -1.
          1    1    1    2  501    0 -0.21705720736E+02  0.72089302451E+01  0.52649730114E+01  0.23469702358E+02  0.00000000000E+00 0. -1.
<scales pt_clust_5="13000.00000" pt_clust_6="13000.00000" pt_clust_7="13000.00000" pt_clust_8="13000.00000" pt_clust_9="22.87153"></scales>
<clustering>
<clus scale="   22.872">  1  9  2 -1</clus>
<clus scale="   81.345">  5  6 -1 -1</clus>
<clus scale="   91.318">  2  5  1 -1</clus>
<clus scale="   91.570">  7  8 -1 -1</clus>
<clus scale="   22.872">  1  5  2 -1</clus>
</clustering>
</event>
<event>
 9    2  0.7820252E-005  0.1162426E+03  0.7546771E-02  0.1265433E+00
         21   -1    0    0  501  502  0.00000000000E+00  0.00000000000E+00  0.29232885201E+02  0.29232885201E+02  0.00000000000E+00 0. -1.
         -1   -1    0    0    0  501 -0.00000000000E+00 -0.00000000000E+00 -0.73188529122E+03  0.73188529122E+03  0.00000000000E+00 0.  1.
         24    2    1    2    0    0 -0.14803347412E+02 -0.25725101715E+02 -0.17229316617E+03  0.19201148223E+03  0.79388627930E+02 0.  0.
         23    2    1    2    0    0 -0.69005837447E+02  0.30241717889E+01 -0.22067473562E+03  0.24747988585E+03  0.88192991464E+02 0.  0.
        -11    1    3    3    0    0  0.16277017944E+02 -0.38443472907E+02 -0.13732014916E+03  0.14352583491E+03  0.00000000000E+00 0.  1.
         12    1    3    3    0    0 -0.31080365356E+02  0.12718371193E+02 -0.34973017011E+02  0.48485647313E+02  0.00000000000E+00 0. -1.
        -11    1    4    4    0    0 -0.44847910953E+02 -0.39120953776E+02 -0.15306815632E+03  0.16423046191E+03  0.00000000000E+00 0. -1.
         11    1    4    4    0    0 -0.24157926493E+02  0.42145125565E+02 -0.67606579303E+02  0.83249423941E+02  0.00000000000E+00 0.  1.
         -2    1    1    2    0  502  0.83809184859E+02  0.22700929926E+02 -0.30968450423E+03  0.32162680835E+03  0.00000000000E+00 0.  1.
<scales pt_clust_5="13000.00000" pt_clust_6="13000.00000" pt_clust_7="13000.00000" pt_clust_8="13000.00000" pt_clust_9="75.72549"></scales>
<clustering>
<clus scale="   79.389">  5  6 -1 -1</clus>
<clus scale="   84.755">  2  5  1 -1</clus>
<clus scale="   75.725">  1  9  2 -1</clus>
<clus scale="   88.193">  7  8 -1 -1</clus>
<clus scale="   75.725">  1  5  2 -1</clus>
</clustering>
</event>
<event>
 9    2  0.7820252E-005  0.1496369E+03  0.7546771E-02  0.1202568E+00
          2   -1    0    0  502    0 -0.00000000000E+00  0.00000000000E+00  0.43058955359E+03  0.43058955359E+03  0.00000000000E+00 0. -1.
         21   -1    0    0  501  502  0.00000000000E+00 -0.00000000000E+00 -0.12565123164E+03  0.12565123164E+03  0.00000000000E+00 0.  1.
         23    2    1    2    0    0  0.92691289015E+02 -0.83147008121E+02  0.31455876564E+03  0.35014851118E+03  0.90286559468E+02 0.  0.
         24    2    1    2    0    0 -0.85238469481E+02  0.63265591461E+02  0.50042317651E+02  0.14276407860E+03  0.81297089986E+02 0.  0.
        -11    1    4    4    0    0 -0.87487186145E+02  0.73889817974E+02  0.27542662177E+02  0.11778077593E+03  0.00000000000E+00 0.  1.
         12    1    4    4    0    0  0.22487166644E+01 -0.10624226513E+02  0.22499655473E+02  0.24983302665E+02  0.00000000000E+00 0. -1.
        -13    1    3    3    0    0 -0.13188761259E+02 -0.31714001877E+02  0.50876736318E+02  0.61385369893E+02  0.00000000000E+00 0.  1.
         13    1    3    3    0    0  0.10588005027E+03 -0.51433006244E+02  0.26368202933E+03  0.28876314129E+03  0.00000000000E+00 0. -1.
          1    1    1    2  501    0 -0.74528195338E+01  0.19881416660E+02 -0.59662761347E+02  0.63328195450E+02  0.00000000000E+00 0. -1.
<scales pt_clust_5="13000.00000" pt_clust_6="13000.00000" pt_clust_7="13000.00000" pt_clust_8="13000.00000" pt_clust_9="21.23241"></scales>
<clustering>
<clus scale="   21.232">  2  9  1 -1</clus>
<clus scale="   81.297">  5  6 -1 -1</clus>
<clus scale="   90.287">  7  8 -1 -1</clus>
<clus scale="  144.391">  2  5  1 -1</clus>
<clus scale="   21.232">  2  5  1 -1</clus>
</clustering>
</event>
<event>
 9    2  0.8036946E-005  0.1341523E+03  0.7546771E-02  0.1244658E+00
         21   -1    0    0  501  502  0.00000000000E+00  0.00000000000E+00  0.65267108682E+02  0.65267108682E+02  0.00000000000E+00 0. -1.
          4   -1    0    0  502    0 -0.00000000000E+00 -0.00000000000E+00 -0.90494415629E+03  0.90494415629E+03  0.00000000000E+00 0. -1.
         24    2    1    2    0    0 -0.55739022707E+01 -0.90615508463E+01  0.13787423437E+02  0.84359138054E+02  0.82542056177E+02 0.  0.
         23    2    1    2    0    0 -0.95528892865E+02 -0.71722839175E+01 -0.40875234347E+03  0.42950336886E+03  0.90650176699E+02 0.  0.
        -13    1    3    3    0    0 -0.37681223138E+02  0.38712362492E+01 -0.13572469488E+02  0.40237705890E+02  0.00000000000E+00 0.  1.
         14    1    3    3    0    0  0.32107320868E+02 -0.12932787096E+02  0.27359892925E+02  0.44121432164E+02  0.00000000000E+00 0. -1.
        -13    1    4    4    0    0 -0.20872679835E+02 -0.12248872097E+02 -0.14499976978E+02  0.28212638365E+02  0.00000000000E+00 0.  1.
         13    1    4    4    0    0 -0.74656213030E+02  0.50765881793E+01 -0.39425236649E+03  0.40129073049E+03  0.00000000000E+00 0. -1.
          3    1    1    2  501    0  0.10110279514E+03  0.16233834764E+02 -0.44471212757E+03  0.45634875807E+03  0.00000000000E+00 0. -1.
<scales pt_clust_5="13000.00000" pt_clust_6="13000.00000" pt_clust_7="13000.00000" pt_clust_8="13000.00000" pt_clust_9="98.89083"></scales>
<clustering>
<clus scale="   82.542">  5  6 -1 -1</clus>
<clus scale="   83.225">  2  5  1 -1</clus>
<clus scale="   90.650">  7  8 -1 -1</clus>
<clus scale="   98.891">  1  9  2 -1</clus>
<clus scale="   98.891">  1  5  2 -1</clus>
</clustering>
</event>
<event>
 9    2  0.7820252E-005  0.9545071E+02  0.7546771E-02  0.1296102E+00
         21   -1    0    0  501  502  0.00000000000E+00  0.00000000000E+00  0.76310541055E+02  0.76310541055E+02  0.00000000000E+00 0. -1.
          2   -1    0    0  502    0 -0.00000000000E+00 -0.00000000000E+00 -0.36447729542E+03  0.36447729542E+03  0.00000000000E+00 0. -1.
         24    2    1    2    0    0 -0.84935582438E+01  0.21079755812E+02 -0.29517415035E+03  0.30726581516E+03  0.82267888593E+02 0.  0.
         23    2    1    2    0    0  0.36383896284E+02 -0.12576744285E+02  0.18852700951E+02  0.10205007490E+03  0.92611182094E+02 0.  0.
        -13    1    3    3    0    0 -0.30798718850E+02 -0.21207323269E+02 -0.12068916772E+03  0.12634946319E+03  0.00000000000E+00 0.  1.
         14    1    3    3    0    0  0.22305160606E+02  0.42287079081E+02 -0.17448498264E+03  0.18091635198E+03  0.00000000000E+00 0. -1.
        -11    1    4    4    0    0  0.58072436584E+02 -0.35866121231E+02  0.15946333252E+02  0.70093309860E+02  0.00000000000E+00 0. -1.
         11    1    4    4    0    0 -0.21688540299E+02  0.23289376945E+02  0.29063676989E+01  0.31956765043E+02  0.00000000000E+00 0.  1.
          1    1    1    2  501    0 -0.27890338041E+02 -0.85030115272E+01 -0.11845304958E+02  0.31471946406E+02  0.00000000000E+00 0. -1.
<scales pt_clust_5="13000.00000" pt_clust_6="13000.00000" pt_clust_7="13000.00000" pt_clust_8="13000.00000" pt_clust_9="29.15771"></scales>
<clustering>
<clus scale="   29.158">  1  9  2 -1</clus>
<clus scale="   82.268">  5  6 -1 -1</clus>
<clus scale="   85.452">  2  5  1 -1</clus>
<clus scale="   92.611">  7  8 -1 -1</clus>
<clus scale="   29.158">  1  5  2 -1</clus>
</clustering>
</event>
<event>
 9    2  0.7820252E-005  0.2590214E+03  0.7546771E-02  0.1108361E+00
          4   -1    0    0  502    0 -0.00000000000E+00  0.00000000000E+00  0.17893248191E+04  0.17893248191E+04  0.00000000000E+00 0. -1.
         21   -1    0    0  501  502  0.00000000000E+00 -0.00000000000E+00 -0.48088265811E+02  0.48088265811E+02  0.00000000000E+00 0.  1.
         23    2    1    2    0    0 -0.23503189821E+03  0.24680975903E+02  0.10219047778E+04  0.10528371981E+04  0.91255942975E+02 0.  0.
         24    2    1    2    0    0  0.24875129379E+03 -0.39564758898E+02  0.71720788089E+03  0.76422251511E+03  0.78780275938E+02 0.  0.
        -11    1    4    4    0    0  0.87679399203E+02 -0.25039530025E+02  0.16154833153E+03  0.18550611453E+03  0.00000000000E+00 0.  1.
         12    1    4    4    0    0  0.16107189459E+03 -0.14525228873E+02  0.55565954936E+03  0.57871640058E+03  0.00000000000E+00 0. -1.
        -13    1    3    3    0    0 -0.97872099097E+02  0.53027643242E+02  0.51833876013E+03  0.53015653253E+03  0.00000000000E+00 0. -1.
         13    1    3    3    0    0 -0.13715979911E+03 -0.28346667340E+02  0.50356601767E+03  0.52268066561E+03  0.00000000000E+00 0.  1.
          3    1    1    2  501    0 -0.13719395586E+02  0.14883782995E+02  0.21238946329E+01  0.20353371708E+02  0.00000000000E+00 0. -1.
<scales pt_clust_5="13000.00000" pt_clust_6="13000.00000" pt_clust_7="13000.00000" pt_clust_8="13000.00000" pt_clust_9="20.24225"></scales>
<clustering>
<clus scale="   20.242">  2  9  1 -1</clus>
<clus scale="   78.780">  5  6 -1 -1</clus>
<clus scale="   91.256">  7  8 -1 -1</clus>
<clus scale="  254.894">  2  5  1 -1</clus>
<clus scale="   20.242">  2  5  1 -1</clus>
</clustering>
</event>
<event>
 9    2  0.7820252E-005  0.1063501E+03  0.7546771E-02  0.1272474E+00
          2   -1    0    0  502    0 -0.00000000000E+00  0.00000000000E+00  0.16654304494E+03  0.16654304494E+03  0.00000000000E+00 0. -1.
         21   -1    0    0  501  502  0.00000000000E+00 -0.00000000000E+00 -0.16173670045E+03  0.16173670045E+03  0.00000000000E+00 0. -1.
         23    2    1    2    0    0 -0.17608780028E+02 -0.26690689584E+02 -0.47446347043E+02  0.10694986807E+03  0.90358488192E+02 0.  0.
         24    2    1    2    0    0  0.81930201815E+02  0.21653628774E+02 -0.27434886921E+02  0.11879828492E+03  0.78606118527E+02 0.  0.
        -13    1    4    4    0    0 -0.73577875277E+01  0.25019839706E+02 -0.36343785084E+01  0.26331314501E+02  0.00000000000E+00 0.  1.
         14    1    4    4    0    0  0.89287989342E+02 -0.33662109323E+01 -0.23800508413E+02  0.92466970414E+02  0.00000000000E+00 0. -1.
        -13    1    3    3    0    0 -0.21695276471E+02  0.24050713631E+02  0.62184019865E+01  0.32981667189E+02  0.00000000000E+00 0.  1.
         13    1    3    3    0    0  0.40864964425E+01 -0.50741403215E+02 -0.53664749029E+02  0.73968200882E+02  0.00000000000E+00 0. -1.
          1    1    1    2  501    0 -0.64321421787E+02  0.50370608099E+01  0.79687578446E+02  0.10253159240E+03  0.00000000000E+00 0. -1.
<scales pt_clust_5="13000.00000" pt_clust_6="13000.00000" pt_clust_7="13000.00000" pt_clust_8="13000.00000" pt_clust_9="64.51838"></scales>
<clustering>
<clus scale="   64.518">  2  9  1 -1</clus>
<clus scale="   78.606">  5  6 -1 -1</clus>
<clus scale="   90.358">  7  8 -1 -1</clus>
<clus scale="   96.564">  2  5  1 -1</clus>
<clus scale="   64.518">  2  5  1 -1</clus>
</clustering>
</event>
<event>
 9    2  0.7820252E-005  0.9696850E+02  0.7546771E-02  0.1292270E+00
         21   -1    0    0  501  502  0.00000000000E+00  0.00000000000E+00  0.30355516303E+03  0.30355516303E+03  0.00000000000E+00 0.  1.
         -3   -1    0    0    0  501 -0.00000000000E+00 -0.00000000000E+00 -0.79825843964E+02  0.79825843964E+02  0.00000000000E+00 0.  1.
         23    2    1    2    0    0 -0.33945907737E+02 -0.20917872552E+02  0.26851873623E+02  0.10249462813E+03  0.90522061590E+02 0.  0.
         24    2    1    2    0    0 -0.43571451774E+02  0.61558296861E+02  0.13236911838E+03  0.17215777465E+03  0.80179926098E+02 0.  0.
        -13    1    4    4    0    0 -0.52285430863E+02  0.47771576885E+02  0.13782737599E+03  0.15495894750E+03  0.00000000000E+00 0.  1.
         14    1    4    4    0    0  0.87139790888E+01  0.13786719976E+02 -0.54582576051E+01  0.17198827150E+02  0.00000000000E+00 0. -1.
        -11    1    3    3    0    0 -0.90562300047E+01 -0.47840066340E+02  0.40540589787E+02  0.63357925074E+02  0.00000000000E+00 0.  1.
         11    1    3    3    0    0 -0.24889677732E+02  0.26922193788E+02 -0.13688716164E+02  0.39136703057E+02  0.00000000000E+00 0. -1.
         -4    1    1    2    0  502  0.77517359511E+02 -0.40640424309E+02  0.64508327057E+02  0.10872860421E+03  0.00000000000E+00 0.  1.
<scales pt_clust_5="13000.00000" pt_clust_6="13000.00000" pt_clust_7="13000.00000" pt_clust_8="13000.00000" pt_clust_9="87.52477"></scales>
<clustering>
<clus scale="   80.180">  5  6 -1 -1</clus>
<clus scale="   87.525">  1  9  2 -1</clus>
<clus scale="   87.525">  1  5  2 -1</clus>
<clus scale="   90.522">  7  8 -1 -1</clus>
<clus scale="   87.525">  1  5  2 -1</clus>
</clustering>
</event>
<event>
 9    2  0.7820252E-005  0.1345060E+03  0.7546771E-02  0.1224151E+00
         21   -1    0    0  501  502  0.00000000000E+00  0.00000000000E+00  0.10842153084E+03  0.10842153084E+03  0.00000000000E+00 0. -1.
          2   -1    0    0  502    0 -0.00000000000E+00 -0.00000000000E+00 -0.10256402058E+04  0.10256402058E+04  0.00000000000E+00 0. -1.
         24    2    1    2    0    0  0.30670395033E+02  0.94038132301E+02 -0.92197060158E+03  0.93054458405E+03  0.78099867261E+02 0.  0.
         23    2    1    2    0    0 -0.52919320745E+02 -0.76389358217E+02  0.58301267966E+02  0.14290340925E+03  0.91578152264E+02 0.  0.
        -13    1    3    3    0    0 -0.83062725755E+01  0.69483887666E+02 -0.36331834087E+03  0.36999624542E+03  0.00000000000E+00 0.  1.
         14    1    3    3    0    0  0.38976667609E+02  0.24554244635E+02 -0.55865226071E+03  0.56054833863E+03  0.00000000000E+00 0. -1.
        -13    1    4    4    0    0 -0.42133955713E+02 -0.94630907780E+02  0.62941046209E+02  0.12120995928E+03  0.00000000000E+00 0. -1.
         13    1    4    4    0    0 -0.10785365032E+02  0.18241549563E+02 -0.46397782435E+01  0.21693449968E+02  0.00000000000E+00 0.  1.
          1    1    1    2  501    0  0.22248925712E+02 -0.17648774084E+02 -0.53549341322E+02  0.60613743310E+02  0.00000000000E+00 0. -1.
<scales pt_clust_5="13000.00000" pt_clust_6="13000.00000" pt_clust_7="13000.00000" pt_clust_8="13000.00000" pt_clust_9="28.39885"></scales>
<clustering>
<clus scale="   28.399">  1  9  2 -1</clus>
<clus scale="   78.100">  5  6 -1 -1</clus>
<clus scale="   91.578">  7  8 -1 -1</clus>
<clus scale="  125.718">  2  5  1 -1</clus>
<clus scale="   28.399">  1  5  2 -1</clus>
</clustering>
</event>
<event>
 9    2  0.7820252E-005  0.1147437E+03  0.7546771E-02  0.1257529E+00
          2   -1    0    0  502    0 -0.00000000000E+00  0.00000000000E+00  0.60620798798E+03  0.60620798798E+03  0.00000000000E+00 0. -1.
         21   -1    0    0  501  502  0.00000000000E+00 -0.00000000000E+00 -0.47351395603E+02  0.47351395603E+02  0.00000000000E+00 0.  1.
         23    2    1    2    0    0 -0.73925670282E+02 -0.96630498595E+01  0.49962641892E+03  0.51299277050E+03  0.89312064378E+02 0.  0.
         24    2    1    2    0    0  0.56016828461E+02  0.32806817925E+02  0.48689755134E+02  0.10946257743E+03  0.73465578536E+02 0.  0.
        -13    1    4    4    0    0  0.48466525611E+02 -0.13466217435E+02  0.17998723732E+02  0.53425622811E+02  0.00000000000E+00 0.  1.
         14    1    4    4    0    0  0.75503028503E+01  0.46273035360E+02  0.30691031402E+02  0.56036954619E+02  0.00000000000E+00 0. -1.
        -13    1    3    3    0    0 -0.18411479180E+02 -0.43226417705E+02  0.28257339691E+03  0.28645284149E+03  0.00000000000E+00 0.  1.
         13    1    3    3    0    0 -0.55514191102E+02  0.33563367845E+02  0.21705302201E+03  0.22653992901E+03  0.00000000000E+00 0. -1.
          1    1    1    2  501    0  0.17908841821E+02 -0.23143768065E+02  0.10540418329E+02  0.31104035657E+02  0.00000000000E+00 0. -1.
<scales pt_clust_5="13000.00000" pt_clust_6="13000.00000" pt_clust_7="13000.00000" pt_clust_8="13000.00000" pt_clust_9="29.26364"></scales>
<clustering>
<clus scale="   29.264">  2  9  1 -1</clus>
<clus scale="   73.466">  5  6 -1 -1</clus>
<clus scale="   89.312">  7  8 -1 -1</clus>
<clus scale="  102.892">  2  5  1 -1</clus>
<clus scale="   29.264">  2  5  1 -1</clus>
</clustering>
</event>
<event>
 9    2  0.7820252E-005  0.9160380E+02  0.7546771E-02  0.1304583E+00
         -1   -1    0    0    0  501 -0.00000000000E+00  0.00000000000E+00  0.42770654679E+03  0.42770654679E+03  0.00000000000E+00 0.  1.
         21   -1    0    0  501  502  0.00000000000E+00 -0.00000000000E+00 -0.36731588467E+02  0.36731588467E+02  0.00000000000E+00 0.  1.
         24    2    1    2    0    0  0.70596852233E+01  0.22459894625E+02  0.25280296411E+03  0.26622445656E+03  0.80073944473E+02 0.  0.
         23    2    1    2    0    0 -0.37525716682E+02  0.93555552564E+01  0.10453517908E+03  0.14278952100E+03  0.89249861714E+02 0.  0.
        -13    1    3    3    0    0  0.25838137047E+02  0.39460117514E+02  0.91468241694E+02  0.10291331031E+03  0.00000000000E+00 0.  1.
         14    1    3    3    0    0 -0.18778451823E+02 -0.17000222889E+02  0.16133472242E+03  0.16331114625E+03  0.00000000000E+00 0. -1.
        -11    1    4    4    0    0  0.18139508920E+02  0.20062439204E+02  0.39538621586E+01  0.27334525360E+02  0.00000000000E+00 0. -1.
         11    1    4    4    0    0 -0.55665225603E+02 -0.10706883947E+02  0.10058131692E+03  0.11545499564E+03  0.00000000000E+00 0.  1.
         -2    1    1    2    0  502  0.30466031459E+02 -0.31815449881E+02  0.33636815128E+02  0.55424157693E+02  0.00000000000E+00 0.  1.
<scales pt_clust_5="13000.00000" pt_clust_6="13000.00000" pt_clust_7="13000.00000" pt_clust_8="13000.00000" pt_clust_9="44.04999"></scales>
<clustering>
<clus scale="   44.050">  2  9  1 -1</clus>
<clus scale="   80.074">  5  6 -1 -1</clus>
<clus scale="   82.690">  1  5  2 -1</clus>
<clus scale="   89.250">  7  8 -1 -1</clus>
<clus scale="   44.050">  2  5  1 -1</clus>
</clustering>
</event>
<event>
 9    2  0.7820252E-005  0.9850497E+02  0.7546771E-02  0.1289400E+00
         21   -1    0    0  501  502  0.00000000000E+00  0.00000000000E+00  0.16208871669E+03  0.16208871669E+03  0.00000000000E+00 0. -1.
         -1   -1    0    0    0  501 -0.00000000000E+00 -0.00000000000E+00 -0.11500520814E+03  0.11500520814E+03  0.00000000000E+00 0.  1.
         24    2    1    2    0    0  0.10352532191E+01 -0.38813270844E+02  0.10127493478E+02  0.90082004300E+02  0.80651470115E+02 0.  0.
         23    2    1    2    0    0  0.60063676185E+02  0.38539404561E+01  0.57465699269E+01  0.11001021002E+03  0.91906067203E+02 0.  0.
        -13    1    3    3    0    0 -0.29912448956E+02 -0.41992492778E+02  0.22947845535E+02  0.56433391418E+02  0.00000000000E+00 0.  1.
         14    1    3    3    0    0  0.30947702175E+02  0.31792219341E+01 -0.12820352057E+02  0.33648612882E+02  0.00000000000E+00 0. -1.
        -13    1    4    4    0    0  0.11064230831E+02 -0.27258852597E+02  0.34413560173E+02  0.45274224152E+02  0.00000000000E+00 0. -1.
         13    1    4    4    0    0  0.48999445354E+02  0.31112793053E+02 -0.28666990246E+02  0.64735985868E+02  0.00000000000E+00 0.  1.
         -2    1    1    2    0  502 -0.61098929404E+02  0.34959330388E+02  0.31209445138E+02  0.77001710509E+02  0.00000000000E+00 0.  1.
<scales pt_clust_5="13000.00000" pt_clust_6="13000.00000" pt_clust_7="13000.00000" pt_clust_8="13000.00000" pt_clust_9="70.39342"></scales>
<clustering>
<clus scale="   70.393">  1  9  2 -1</clus>
<clus scale="   80.651">  5  6 -1 -1</clus>
<clus scale="   88.097">  2  5  1 -1</clus>
<clus scale="   91.906">  7  8 -1 -1</clus>
<clus scale="   70.393">  1  5  2 -1</clus>
</clustering>
</event>
<event>
 9    2  0.7820252E-005  0.1166914E+03  0.7546771E-02  0.1252118E+00
          2   -1    0    0  502    0 -0.00000000000E+00  0.00000000000E+00  0.80063236458E+02  0.80063236458E+02  0.00000000000E+00 0. -1.
         21   -1    0    0  501  502  0.00000000000E+00 -0.00000000000E+00 -0.29430934833E+03  0.29430934833E+03  0.00000000000E+00 0. -1.
         24    2    1    2    0    0  0.59342880146E+02  0.59536232970E+02 -0.84757877073E+01  0.11688194615E+03  0.80767629025E+02 0.  0.
         23    2    1    2    0    0 -0.44765020475E+02 -0.28453097236E+02 -0.96135878127E+02  0.14260640527E+03  0.90999966808E+02 0.  0.
        -11    1    3    3    0    0  0.50183169826E+02  0.20435158291E+02 -0.38728832541E+02  0.66602317513E+02  0.00000000000E+00 0.  1.
         12    1    3    3    0    0  0.91597103200E+01  0.39101074678E+02  0.30253044833E+02  0.50279628637E+02  0.00000000000E+00 0. -1.
        -13    1    4    4    0    0 -0.64620829834E+01 -0.56849416420E+02 -0.45961975609E+02  0.73390175540E+02  0.00000000000E+00 0.  1.
         13    1    4    4    0    0 -0.38302937491E+02  0.28396319184E+02 -0.50173902518E+02  0.69216229726E+02  0.00000000000E+00 0. -1.
          1    1    1    2  501    0 -0.14577859671E+02 -0.31083135734E+02 -0.10963444604E+03  0.11488423338E+03  0.00000000000E+00 0. -1.
<scales pt_clust_5="13000.00000" pt_clust_6="13000.00000" pt_clust_7="13000.00000" pt_clust_8="13000.00000" pt_clust_9="34.33184"></scales>
<clustering>
<clus scale="   34.332">  2  9  1 -1</clus>
<clus scale="   80.768">  5  6 -1 -1</clus>
<clus scale="   91.000">  7  8 -1 -1</clus>
<clus scale="  108.900">  1  5  2 -1</clus>
<clus scale="   34.332">  2  5  1 -1</clus>
</clustering>
</event>
<event>
 9    2  0.7820252E-005  0.1411172E+03  0.7546771E-02  0.1218781E+00
         21   -1    0    0  501  502  0.00000000000E+00  0.00000000000E+00  0.16976911283E+03  0.16976911283E+03  0.00000000000E+00 0.  1.
          2   -1    0    0  502    0 -0.00000000000E+00 -0.00000000000E+00 -0.33183383673E+03  0.33183383673E+03  0.00000000000E+00 0. -1.
         24    2    1    2    0    0  0.79601665647E+02  0.49129434204E+02 -0.25551679894E+03  0.28357062799E+03  0.79833201363E+02 0.  0.
         23    2    1    2    0    0 -0.61912703951E+02 -0.58536332079E+02  0.15618140808E+02  0.13766124211E+03  0.10699068265E+03 0.  0.
        -11    1    3    3    0    0 -0.45730627580E+01  0.28952541512E+02 -0.29681532135E+02  0.41715176051E+02  0.00000000000E+00 0.  1.
         12    1    3    3    0    0  0.84174728405E+02  0.20176892691E+02 -0.22583526681E+03  0.24185545194E+03  0.00000000000E+00 0. -1.
        -11    1    4    4    0    0 -0.80364554254E+02 -0.46653907180E+02  0.43148024207E+02  0.10245389514E+03  0.00000000000E+00 0.  1.
         11    1    4    4    0    0  0.18451850304E+02 -0.11882424899E+02 -0.27529883399E+02  0.35207346976E+02  0.00000000000E+00 0. -1.
          1    1    1    2  501    0 -0.17688961696E+02  0.94068978755E+01  0.77833934236E+02  0.80371079452E+02  0.00000000000E+00 0. -1.
<scales pt_clust_5="13000.00000" pt_clust_6="13000.00000" pt_clust_7="13000.00000" pt_clust_8="13000.00000" pt_clust_9="20.03470"></scales>
<clustering>
<clus scale="   20.035">  1  9  2 -1</clus>
<clus scale="   79.833">  5  6 -1 -1</clus>
<clus scale="  106.991">  7  8 -1 -1</clus>
<clus scale="  121.821">  2  5  1 -1</clus>
<clus scale="   20.035">  1  5  2 -1</clus>
</clustering>
</event>
<event>
 9    2  0.7820252E-005  0.1297721E+03  0.7546771E-02  0.1238347E+00
          2   -1    0    0  502    0 -0.00000000000E+00  0.00000000000E+00  0.89157401673E+03  0.89157401673E+03  0.00000000000E+00 0. -1.
         21   -1    0    0  501  502  0.00000000000E+00 -0.00000000000E+00 -0.44032480395E+02  0.44032480395E+02  0.00000000000E+00 0.  1.
         24    2    1    2    0    0 -0.16544969769E+02 -0.67156742521E+02  0.75254183406E+02  0.12875896243E+03  0.78306539924E+02 0.  0.
         23    2    1    2    0    0  0.37504626651E+02 -0.51713230523E+02  0.41960861777E+03  0.43408532102E+03  0.90982518045E+02 0.  0.
        -13    1    3    3    0    0 -0.32792473961E+02 -0.78222177219E+02  0.61451507564E+02  0.10473940586E+03  0.00000000000E+00 0.  1.
         14    1    3    3    0    0  0.16247504192E+02  0.11065434698E+02  0.13802675841E+02  0.24019556572E+02  0.00000000000E+00 0. -1.
        -11    1    4    4    0    0  0.56593528852E+02 -0.24927081640E+01  0.25507214228E+03  0.26128688997E+03  0.00000000000E+00 0.  1.
         11    1    4    4    0    0 -0.19088902201E+02 -0.49220522359E+02  0.16453647549E+03  0.17279843105E+03  0.00000000000E+00 0. -1.
          1    1    1    2  501    0 -0.20959656882E+02  0.11886997304E+03  0.35267873516E+03  0.37276221367E+03  0.00000000000E+00 0. -1.
<scales pt_clust_5="13000.00000" pt_clust_6="13000.00000" pt_clust_7="13000.00000" pt_clust_8="13000.00000" pt_clust_9="92.53646"></scales>
<clustering>
<clus scale="   78.307">  5  6 -1 -1</clus>
<clus scale="   90.983">  7  8 -1 -1</clus>
<clus scale="  104.478">  1  5  2 -1</clus>
<clus scale="   92.536">  2  9  1 -1</clus>
<clus scale="   92.536">  2  5  1 -1</clus>
</clustering>
</event>
<event>
 9    2  0.7820252E-005  0.8832968E+02  0.7546771E-02  0.1311495E+00
          2   -1    0    0  502    0 -0.00000000000E+00  0.00000000000E+00  0.47310309512E+03  0.47310309512E+03  0.00000000000E+00 0. -1.
         21   -1    0    0  501  502  0.00000000000E+00 -0.00000000000E+00 -0.50171100978E+02  0.50171100978E+02  0.00000000000E+00 0. -1.
         24    2    1    2    0    0  0.16699888523E+01 -0.24296406023E+02  0.29695118694E+03  0.30857051296E+03  0.80266118850E+02 0.  0.
         23    2    1    2    0    0  0.13755655522E+02 -0.12578245779E+02  0.14510481479E+03  0.17039320903E+03  0.87355641391E+02 0.  0.
        -13    1    3    3    0    0  0.31065057769E+02  0.82469763134E+01  0.65026296828E+02  0.72535989079E+02  0.00000000000E+00 0.  1.
         14    1    3    3    0    0 -0.29395068916E+02 -0.32543382337E+02  0.23192489012E+03  0.23603452389E+03  0.00000000000E+00 0. -1.
        -11    1    4    4    0    0 -0.30066312656E+02  0.14546561454E+02  0.32729032655E+02  0.46762968099E+02  0.00000000000E+00 0.  1.
         11    1    4    4    0    0  0.43821968178E+02 -0.27124807233E+02  0.11237578213E+03  0.12363024093E+03  0.00000000000E+00 0. -1.
          1    1    1    2  501    0 -0.15425644374E+02  0.36874651802E+02 -0.19124007584E+02  0.44310474111E+02  0.00000000000E+00 0. -1.
<scales pt_clust_5="13000.00000" pt_clust_6="13000.00000" pt_clust_7="13000.00000" pt_clust_8="13000.00000" pt_clust_9="39.97112"></scales>
<clustering>
<clus scale="   39.971">  2  9  1 -1</clus>
<clus scale="   80.266">  5  6 -1 -1</clus>
<clus scale="   81.325">  1  5  2 -1</clus>
<clus scale="   87.356">  7  8 -1 -1</clus>
<clus scale="   39.971">  2  5  1 -1</clus>
</clustering>
</event>
<event>
 9    2  0.7820252E-005  0.9485544E+02  0.7546771E-02  0.1299870E+00
         21   -1    0    0  501  502  0.00000000000E+00  0.00000000000E+00  0.10772175602E+03  0.10772175602E+03  0.00000000000E+00 0. -1.
          2   -1    0    0  502    0 -0.00000000000E+00 -0.00000000000E+00 -0.53379283480E+03  0.53379283480E+03  0.00000000000E+00 0. -1.
         24    2    1    2    0    0 -0.82048163839E+01 -0.96099348443E+00 -0.44809666426E+03  0.45543968824E+03  0.81033613915E+02 0.  0.
         23    2    1    2    0    0 -0.18106100489E+02  0.54834300363E-01 -0.50552726682E+02  0.10886935312E+03  0.94705459146E+02 0.  0.
        -11    1    3    3    0    0  0.12665605648E+02  0.36441035458E+02 -0.20494246384E+03  0.20854203441E+03  0.00000000000E+00 0.  1.
         12    1    3    3    0    0 -0.20870422032E+02 -0.37402028942E+02 -0.24315420042E+03  0.24689765383E+03  0.00000000000E+00 0. -1.
        -11    1    4    4    0    0 -0.22011634727E+02 -0.28988456514E+02 -0.66275852122E+02  0.75613036237E+02  0.00000000000E+00 0. -1.
         11    1    4    4    0    0  0.39055342382E+01  0.29043290815E+02  0.15723125440E+02  0.33256316883E+02  0.00000000000E+00 0.  1.
          1    1    1    2  501    0  0.26310916873E+02  0.90615918407E+00  0.72578312156E+02  0.77205549455E+02  0.00000000000E+00 0. -1.
<scales pt_clust_5="13000.00000" pt_clust_6="13000.00000" pt_clust_7="13000.00000" pt_clust_8="13000.00000" pt_clust_9="26.32652"></scales>
<clustering>
<clus scale="   26.327">  1  9  2 -1</clus>
<clus scale="   81.034">  5  6 -1 -1</clus>
<clus scale="   81.209">  2  5  1 -1</clus>
<clus scale="   94.705">  7  8 -1 -1</clus>
<clus scale="   26.327">  1  5  2 -1</clus>
</clustering>
</event>
<event>
 9    2  0.7820252E-005  0.1407702E+03  0.7546771E-02  0.1232229E+00
         21   -1    0    0  501  502  0.00000000000E+00  0.00000000000E+00  0.48808301988E+03  0.48808301988E+03  0.00000000000E+00 0.  1.
          4   -1    0    0  502    0 -0.00000000000E+00 -0.00000000000E+00 -0.12245236913E+03  0.12245236913E+03  0.00000000000E+00 0. -1.
         23    2    1    2    0    0 -0.26523931723E+02 -0.14971692355E+02 -0.57209376267E+02  0.10899442947E+03  0.87631058403E+02 0.  0.
         24    2    1    2    0    0 -0.57176921047E+02 -0.74762943935E+02  0.11428792208E+03  0.16948292371E+03  0.82486569864E+02 0.  0.
        -13    1    4    4    0    0 -0.23985720830E+02 -0.80666961082E+02  0.52770572308E+02  0.99333814563E+02  0.00000000000E+00 0.  1.
         14    1    4    4    0    0 -0.33191200217E+02  0.59040171469E+01  0.61517349776E+02  0.70149109144E+02  0.00000000000E+00 0. -1.
        -13    1    3    3    0    0  0.29654339029E+02 -0.15333502383E+02 -0.80441020784E+01  0.34339535478E+02  0.00000000000E+00 0.  1.
         13    1    3    3    0    0 -0.56178270751E+02  0.36181002852E+00 -0.49165274188E+02  0.74654893993E+02  0.00000000000E+00 0. -1.
          3    1    1    2  501    0  0.83700852770E+02  0.89734636290E+02  0.30855210493E+03  0.33205803583E+03  0.00000000000E+00 0. -1.
<scales pt_clust_5="13000.00000" pt_clust_6="13000.00000" pt_clust_7="13000.00000" pt_clust_8="13000.00000" pt_clust_9="114.07107"></scales>
<clustering>
<clus scale="   82.487">  5  6 -1 -1</clus>
<clus scale="   87.631">  7  8 -1 -1</clus>
<clus scale="   92.773">  2  7  1 -1</clus>
<clus scale="  114.071">  1  9  2 -1</clus>
<clus scale="  114.071">  1  5  2 -1</clus>
</clustering>
</event>
<event>
 9    2  0.7820252E-005  0.1101638E+03  0.7546771E-02  0.1263343E+00
         21   -1    0    0  501  502  0.00000000000E+00  0.00000000000E+00  0.24392882920E+02  0.24392882920E+02  0.00000000000E+00 0.  1.
          4   -1    0    0  502    0 -0.00000000000E+00 -0.00000000000E+00 -0.84826376974E+03  0.84826376974E+03  0.00000000000E+00 0. -1.
         24    2    1    2    0    0 -0.15730445686E+01  0.55925427983E+02 -0.51920067362E+03  0.52869644902E+03  0.82586123276E+02 0.  0.
         23    2    1    2    0    0 -0.12651145978E+02 -0.80643403650E+02 -0.28300141631E+03  0.30814341042E+03  0.90549156279E+02 0.  0.
        -11    1    3    3    0    0 -0.37447153237E+02  0.26256665678E+02 -0.15730024016E+03  0.16381412434E+03  0.00000000000E+00 0.  1.
         12    1    3    3    0    0  0.35874108668E+02  0.29668762306E+02 -0.36190043345E+03  0.36488232468E+03  0.00000000000E+00 0. -1.
        -13    1    4    4    0    0 -0.21644841528E+02 -0.29176799904E+02 -0.23119114948E+02  0.43061331765E+02  0.00000000000E+00 0.  1.
         13    1    4    4    0    0  0.89936955502E+01 -0.51466603746E+02 -0.25988230137E+03  0.26508207865E+03  0.00000000000E+00 0. -1.
          3    1    1    2  501    0  0.14224190547E+02  0.24717975666E+02 -0.21668796886E+02  0.35816793215E+02  0.00000000000E+00 0. -1.
<scales pt_clust_5="13000.00000" pt_clust_6="13000.00000" pt_clust_7="13000.00000" pt_clust_8="13000.00000" pt_clust_9="28.51852"></scales>
<clustering>
<clus scale="   28.519">  1  9  2 -1</clus>
<clus scale="   82.586">  5  6 -1 -1</clus>
<clus scale="   90.549">  7  8 -1 -1</clus>
<clus scale="  103.718">  2  5  1 -1</clus>
<clus scale="   28.519">  1  5  2 -1</clus>
</clustering>
</event>
<event>
 9    2  0.7820252E-005  0.1441612E+03  0.7546771E-02  0.1210862E+00
         -1   -1    0    0    0  501 -0.00000000000E+00  0.00000000000E+00  0.31186180214E+03  0.31186180214E+03  0.00000000000E+00 0.  1.
         21   -1    0    0  501  502  0.00000000000E+00 -0.00000000000E+00 -0.24544909982E+03  0.24544909982E+03  0.00000000000E+00 0.  1.
         23    2    1    2    0    0 -0.19047154382E+02  0.10484430418E+03  0.22428278882E+03  0.26584105263E+03  0.94939842487E+02 0.  0.
         24    2    1    2    0    0  0.39418486583E+02 -0.10989867470E+03 -0.10100755979E+02  0.14221733552E+03  0.80574248158E+02 0.  0.
        -13    1    4    4    0    0  0.51230350679E+02 -0.26819998367E+02 -0.12733275672E+01  0.57840146146E+02  0.00000000000E+00 0.  1.
         14    1    4    4    0    0 -0.11811864096E+02 -0.83078676331E+02 -0.88274284116E+01  0.84377189374E+02  0.00000000000E+00 0. -1.
        -13    1    3    3    0    0  0.42935608360E+01  0.10095379895E+03  0.21958264634E+03  0.24171603745E+03  0.00000000000E+00 0.  1.
         13    1    3    3    0    0 -0.23340715218E+02  0.38905052303E+01  0.47001424786E+01  0.24125015174E+02  0.00000000000E+00 0. -1.
         -2    1    1    2    0  502 -0.20371332201E+02  0.50543705150E+01 -0.14776933053E+03  0.14925251382E+03  0.00000000000E+00 0.  1.
<scales pt_clust_5="13000.00000" pt_clust_6="13000.00000" pt_clust_7="13000.00000" pt_clust_8="13000.00000" pt_clust_9="20.98899"></scales>
<clustering>
<clus scale="   20.989">  2  9  1 -1</clus>
<clus scale="   80.574">  5  6 -1 -1</clus>
<clus scale="   94.940">  7  8 -1 -1</clus>
<clus scale="  135.134">  2  5  1 -1</clus>
<clus scale="   20.989">  2  5  1 -1</clus>
</clustering>
</event>
<event>
 9    2  0.7820252E-005  0.9226622E+02  0.7546771E-02  0.1301630E+00
         21   -1    0    0  501  502  0.00000000000E+00  0.00000000000E+00  0.10032205281E+03  0.10032205281E+03  0.00000000000E+00 0. -1.
          2   -1    0    0  502    0 -0.00000000000E+00 -0.00000000000E+00 -0.51452406185E+03  0.51452406185E+03  0.00000000000E+00 0. -1.
         24    2    1    2    0    0 -0.15339449479E+01 -0.69152886143E+01 -0.24767004126E+03  0.26040902173E+03  0.80138848610E+02 0.  0.
         23    2    1    2    0    0  0.27402908341E+02  0.77076469683E+02 -0.22808129550E+03  0.25758610256E+03  0.87394629747E+02 0.  0.
        -13    1    3    3    0    0 -0.36014827947E+02  0.14276510945E+02 -0.14395539871E+03  0.14907730684E+03  0.00000000000E+00 0.  1.
         14    1    3    3    0    0  0.34480882999E+02 -0.21191799559E+02 -0.10371464255E+03  0.11133171489E+03  0.00000000000E+00 0. -1.
        -13    1    4    4    0    0 -0.29707469993E+02  0.44404972067E+02 -0.90788077851E+02  0.10534139926E+03  0.00000000000E+00 0.  1.
         13    1    4    4    0    0  0.57110378334E+02  0.32671497615E+02 -0.13729321765E+03  0.15224470330E+03  0.00000000000E+00 0. -1.
          1    1    1    2  501    0 -0.25868963393E+02 -0.70161181068E+02  0.61549327711E+02  0.96850990380E+02  0.00000000000E+00 0. -1.
<scales pt_clust_5="13000.00000" pt_clust_6="13000.00000" pt_clust_7="13000.00000" pt_clust_8="13000.00000" pt_clust_9="74.77830"></scales>
<clustering>
<clus scale="   74.778">  1  9  2 -1</clus>
<clus scale="   80.139">  5  6 -1 -1</clus>
<clus scale="   85.425">  2  5  1 -1</clus>
<clus scale="   87.395">  7  8 -1 -1</clus>
<clus scale="   74.778">  1  5  2 -1</clus>
</clustering>
</event>
<event>
 9    2  0.7820252E-005  0.1230020E+03  0.7546771E-02  0.1252042E+00
         21   -1    0    0  501  502  0.00000000000E+00  0.00000000000E+00  0.75101222769E+02  0.75101222769E+02  0.00000000000E+00 0. -1.
          2   -1    0    0  502    0 -0.00000000000E+00 -0.00000000000E+00 -0.16526662850E+04  0.16526662850E+04  0.00000000000E+00 0. -1.
         23    2    1    2    0    0  0.68259032242E+01 -0.22997127305E+02  0.27284236543E+02  0.97040160846E+02  0.89982789655E+02 0.  0.
         24    2    1    2    0    0  0.49301837976E+02 -0.54946867000E+02 -0.14024654386E+04  0.14067076683E+04  0.80419698949E+02 0.  0.
        -13    1    4    4    0    0  0.33198986778E+02  0.23515874396E+00 -0.18988829467E+03  0.19276875389E+03  0.00000000000E+00 0.  1.
         14    1    4    4    0    0  0.16102851198E+02 -0.55182025744E+02 -0.12125771440E+04  0.12139389144E+04  0.00000000000E+00 0. -1.
        -11    1    3    3    0    0 -0.35900114477E+02  0.12037240581E+02  0.11715313778E+02  0.39635362459E+02  0.00000000000E+00 0.  1.
         11    1    3    3    0    0  0.42726017702E+02 -0.35034367886E+02  0.15568922765E+02  0.57404798387E+02  0.00000000000E+00 0. -1.
          1    1    1    2  501    0 -0.56127741201E+02  0.77943994305E+02 -0.20238386016E+03  0.22401967868E+03  0.00000000000E+00 0. -1.
<scales pt_clust_5="13000.00000" pt_clust_6="13000.00000" pt_clust_7="13000.00000" pt_clust_8="13000.00000" pt_clust_9="93.07069"></scales>
<clustering>
<clus scale="   80.420">  5  6 -1 -1</clus>
<clus scale="   89.983">  7  8 -1 -1</clus>
<clus scale="   93.126">  2  7  1 -1</clus>
<clus scale="   93.071">  1  9  2 -1</clus>
<clus scale="   93.071">  1  5  2 -1</clus>
</clustering>
</event>
<event>
 9    2  0.7820252E-005  0.1791273E+03  0.7546771E-02  0.1169184E+00
          2   -1    0    0  502    0 -0.00000000000E+00  0.00000000000E+00  0.61787711844E+03  0.61787711844E+03  0.00000000000E+00 0. -1.
         21   -1    0    0  501  502  0.00000000000E+00 -0.00000000000E+00 -0.64724923208E+02  0.64724923208E+02  0.00000000000E+00 0.  1.
         23    2    1    2    0    0 -0.10044051212E+03  0.10724612883E+03  0.25060911227E+03  0.30306997465E+03  0.86350760047E+02 0.  0.
         24    2    1    2    0    0  0.10447591796E+03 -0.13053370177E+03  0.30334455231E+03  0.35588385550E+03  0.81738219092E+02 0.  0.
        -11    1    4    4    0    0  0.35605319936E+02 -0.39256176919E+02  0.33205027343E+02  0.62540867238E+02  0.00000000000E+00 0.  1.
         12    1    4    4    0    0  0.68870598027E+02 -0.91277524852E+02  0.27013952496E+03  0.29334298826E+03  0.00000000000E+00 0. -1.
        -11    1    3    3    0    0 -0.10960182841E+03  0.76256598625E+02  0.16958646734E+03  0.21584068089E+03  0.00000000000E+00 0.  1.
         11    1    3    3    0    0  0.91613162865E+01  0.30989530205E+02  0.81022644930E+02  0.87229293760E+02  0.00000000000E+00 0. -1.
          1    1    1    2  501    0 -0.40354058390E+01  0.23287572942E+02 -0.80146933890E+00  0.23648211495E+02  0.00000000000E+00 0. -1.
<scales pt_clust_5="13000.00000" pt_clust_6="13000.00000" pt_clust_7="13000.00000" pt_clust_8="13000.00000" pt_clust_9="23.63463"></scales>
<clustering>
<clus scale="   23.635">  2  9  1 -1</clus>
<clus scale="   81.738">  5  6 -1 -1</clus>
<clus scale="   86.351">  7  8 -1 -1</clus>
<clus scale="  176.950">  2  5  1 -1</clus>
<clus scale="   23.635">  2  5  1 -1</clus>
</clustering>
</event>
<event>
 9    2  0.7820252E-005  0.1066234E+03  0.7546771E-02  0.1274434E+00
         21   -1    0    0  501  502  0.00000000000E+00  0.00000000000E+00  0.76116577578E+02  0.76116577578E+02  0.00000000000E+00 0.  1.
          2   -1    0    0  502    0 -0.00000000000E+00 -0.00000000000E+00 -0.29905440493E+03  0.29905440493E+03  0.00000000000E+00 0. -1.
         23    2    1    2    0    0 -0.38415546584E+02 -0.37864912701E+02 -0.18140086875E+03  0.20989708822E+03  0.90779990220E+02 0.  0.
         24    2    1    2    0    0  0.74946312302E+02  0.71210683719E+01 -0.51990802781E+01  0.10527287589E+03  0.73400876159E+02 0.  0.
        -11    1    4    4    0    0  0.59097625675E+02  0.21942712308E+02  0.25228371646E+02  0.67900535489E+02  0.00000000000E+00 0.  1.
         12    1    4    4    0    0  0.15848686627E+02 -0.14821643936E+02 -0.30427451924E+02  0.37372340405E+02  0.00000000000E+00 0. -1.
        -13    1    3    3    0    0 -0.34794569428E+02 -0.67275367790E+02 -0.13635186276E+03  0.15597585599E+03  0.00000000000E+00 0.  1.
         13    1    3    3    0    0 -0.36209771563E+01  0.29410455090E+02 -0.45049005994E+02  0.53921232230E+02  0.00000000000E+00 0. -1.
          1    1    1    2  501    0 -0.36530765718E+02  0.30743844329E+02 -0.36337878326E+02  0.60001018402E+02  0.00000000000E+00 0. -1.
<scales pt_clust_5="13000.00000" pt_clust_6="13000.00000" pt_clust_7="13000.00000" pt_clust_8="13000.00000" pt_clust_9="47.74603"></scales>
<clustering>
<clus scale="   47.746">  1  9  2 -1</clus>
<clus scale="   73.401">  5  6 -1 -1</clus>
<clus scale="   90.780">  7  8 -1 -1</clus>
<clus scale="   92.278">  1  5  2 -1</clus>
<clus scale="   47.746">  1  5  2 -1</clus>
</clustering>
</event>
<event>
 9    2  0.7820252E-005  0.9971930E+02  0.7546771E-02  0.1283149E+00
          2   -1    0    0  502    0 -0.00000000000E+00  0.00000000000E+00  0.99332325101E+03  0.99332325101E+03  0.00000000000E+00 0. -1.
         21   -1    0    0  501  502  0.00000000000E+00 -0.00000000000E+00 -0.48754080474E+02  0.48754080474E+02  0.00000000000E+00 0. -1.
         24    2    1    2    0    0  0.24847468650E+02  0.16745650520E+02  0.67901371424E+03  0.68545200375E+03  0.88808849900E+02 0.  0.
         23    2    1    2    0    0 -0.24732362498E+02 -0.10660657550E+03  0.12920779655E+03  0.19332902218E+03  0.93299541439E+02 0.  0.
        -13    1    3    3    0    0 -0.45230447254E+01  0.40871223055E+02  0.16544201111E+03  0.17047572803E+03  0.00000000000E+00 0.  1.
         14    1    3    3    0    0  0.29370513375E+02 -0.24125572535E+02  0.51357170312E+03  0.51497627572E+03  0.00000000000E+00 0. -1.
        -11    1    4    4    0    0  0.88911863971E+01 -0.10959452488E+03  0.10186504044E+03  0.14988829021E+03  0.00000000000E+00 0. -1.
         11    1    4    4    0    0 -0.33623548895E+02  0.29879493832E+01  0.27342756109E+02  0.43440731963E+02  0.00000000000E+00 0.  1.
          1    1    1    2  501    0 -0.11510615154E+00  0.89860924978E+02  0.13634765975E+03  0.16329630555E+03  0.00000000000E+00 0. -1.
<scales pt_clust_5="13000.00000" pt_clust_6="13000.00000" pt_clust_7="13000.00000" pt_clust_8="13000.00000" pt_clust_9="89.86100"></scales>
<clustering>
<clus scale="   88.809">  5  6 -1 -1</clus>
<clus scale="   89.861">  2  9  1 -1</clus>
<clus scale="   93.300">  7  8 -1 -1</clus>
<clus scale="   95.531">  1  5  2 -1</clus>
<clus scale="   89.861">  2  5  1 -1</clus>
</clustering>
</event>
<event>
 9    2  0.7820252E-005  0.3752493E+03  0.7546771E-02  0.1088330E+00
         21   -1    0    0  501  502  0.00000000000E+00  0.00000000000E+00  0.17073306488E+03  0.17073306488E+03  0.00000000000E+00 0. -1.
          2   -1    0    0  502    0 -0.00000000000E+00 -0.00000000000E+00 -0.15080185769E+04  0.15080185769E+04  0.00000000000E+00 0. -1.
         23    2    1    2    0    0  0.26248760966E+02 -0.98459159596E+02 -0.24793968222E+02  0.14336196116E+03  0.97748184053E+02 0.  0.
         24    2    1    2    0    0  0.19222056999E+03  0.36745594332E+03 -0.91737488744E+03  0.10098373137E+04  0.78880278128E+02 0.  0.
        -13    1    4    4    0    0  0.56330982216E+02  0.54276943716E+02 -0.13139665671E+03  0.15291908832E+03  0.00000000000E+00 0.  1.
         14    1    4    4    0    0  0.13588958777E+03  0.31317899960E+03 -0.78597823073E+03  0.85691822541E+03  0.00000000000E+00 0. -1.
        -11    1    3    3    0    0  0.11713217912E+02 -0.80443246633E+02 -0.60133683003E+02  0.10111565277E+03  0.00000000000E+00 0. -1.
         11    1    3    3    0    0  0.14535543054E+02 -0.18015912962E+02  0.35339714781E+02  0.42246308390E+02  0.00000000000E+00 0.  1.
          1    1    1    2  501    0 -0.21846933095E+03 -0.26899678372E+03 -0.39511665637E+03  0.52555236690E+03  0.00000000000E+00 0. -1.
<scales pt_clust_5="13000.00000" pt_clust_6="13000.00000" pt_clust_7="13000.00000" pt_clust_8="13000.00000" pt_clust_9="366.86497"></scales>
<clustering>
<clus scale="   78.880">  5  6 -1 -1</clus>
<clus scale="   97.748">  7  8 -1 -1</clus>
<clus scale="  141.202">  2  7  1 -1</clus>
<clus scale="  366.865">  1  9  2 -1</clus>
<clus scale="  366.865">  1  5  2 -1</clus>
</clustering>
</event>
<event>
 9    2  0.7820252E-005  0.9722525E+02  0.7546771E-02  0.1292272E+00
          2   -1    0    0  502    0 -0.00000000000E+00  0.00000000000E+00  0.66840080492E+03  0.66840080492E+03  0.00000000000E+00 0. -1.
         21   -1    0    0  501  502  0.00000000000E+00 -0.00000000000E+00 -0.49584726844E+02  0.49584726844E+02  0.00000000000E+00 0.  1.
         24    2    1    2    0    0 -0.51824904683E+01  0.31062312257E+02  0.51233926725E+03  0.51951170724E+03  0.80057252891E+02 0.  0.
         23    2    1    2    0    0  0.55853012619E+02 -0.36794987498E+02  0.91013108521E+02  0.14518694556E+03  0.91227370432E+02 0.  0.
        -11    1    3    3    0    0  0.32031026481E+02  0.23584042046E+02  0.14980978861E+03  0.15500053696E+03  0.00000000000E+00 0.  1.
         12    1    3    3    0    0 -0.37213516949E+02  0.74782702113E+01  0.36252947865E+03  0.36451117028E+03  0.00000000000E+00 0. -1.
        -11    1    4    4    0    0  0.72093034770E+01 -0.56834779417E+02  0.30156681725E+02  0.64742502737E+02  0.00000000000E+00 0. -1.
         11    1    4    4    0    0  0.48643709142E+02  0.20039791919E+02  0.60856426796E+02  0.80444442827E+02  0.00000000000E+00 0.  1.
          1    1    1    2  501    0 -0.50670522151E+02  0.57326752404E+01  0.15463702304E+02  0.53286878961E+02  0.00000000000E+00 0. -1.
<scales pt_clust_5="13000.00000" pt_clust_6="13000.00000" pt_clust_7="13000.00000" pt_clust_8="13000.00000" pt_clust_9="50.99378"></scales>
<clustering>
<clus scale="   50.994">  2  9  1 -1</clus>
<clus scale="   80.057">  5  6 -1 -1</clus>
<clus scale="   86.830">  1  5  2 -1</clus>
<clus scale="   91.227">  7  8 -1 -1</clus>
<clus scale="   50.994">  2  5  1 -1</clus>
</clustering>
</event>
<event>
 9    2  0.7820252E-005  0.9366444E+02  0.7546771E-02  0.1299624E+00
          4   -1    0    0  502    0 -0.00000000000E+00  0.00000000000E+00  0.11308087842E+02  0.11308087842E+02  0.00000000000E+00 0. -1.
         21   -1    0    0  501  502  0.00000000000E+00 -0.00000000000E+00 -0.16183236615E+04  0.16183236615E+04  0.00000000000E+00 0. -1.
         23    2    1    2    0    0  0.11873889302E+02  0.17687952968E+02 -0.29796833467E+03  0.31242669239E+03  0.91495665057E+02 0.  0.
         24    2    1    2    0    0 -0.29843529279E+02  0.70476095925E+01 -0.12179471430E+04  0.12211114386E+04  0.82326162735E+02 0.  0.
        -11    1    4    4    0    0  0.24110281739E+01  0.20109076988E+02 -0.76548674130E+02  0.79182621485E+02  0.00000000000E+00 0.  1.
         12    1    4    4    0    0 -0.32254557452E+02 -0.13061467396E+02 -0.11413984689E+04  0.11419288171E+04  0.00000000000E+00 0. -1.
        -11    1    3    3    0    0 -0.28772481291E+02  0.38622556135E+02 -0.14724452446E+03  0.15492097180E+03  0.00000000000E+00 0. -1.
         11    1    3    3    0    0  0.40646370593E+02 -0.20934603167E+02 -0.15072381021E+03  0.15750572058E+03  0.00000000000E+00 0.  1.
          3    1    1    2  501    0  0.17969639977E+02 -0.24735562561E+02 -0.91100095926E+02  0.96093618382E+02  0.00000000000E+00 0. -1.
<scales pt_clust_5="13000.00000" pt_clust_6="13000.00000" pt_clust_7="13000.00000" pt_clust_8="13000.00000" pt_clust_9="30.57380"></scales>
<clustering>
<clus scale="   30.574">  2  9  1 -1</clus>
<clus scale="   82.326">  5  6 -1 -1</clus>
<clus scale="   84.730">  2  5  1 -1</clus>
<clus scale="   91.496">  7  8 -1 -1</clus>
<clus scale="   30.574">  2  5  1 -1</clus>
</clustering>
</event>
<event>
 9    2  0.7820252E-005  0.1009362E+03  0.7546771E-02  0.1282149E+00
         -3   -1    0    0    0  501 -0.00000000000E+00  0.00000000000E+00  0.14705234951E+03  0.14705234951E+03  0.00000000000E+00 0.  1.
         21   -1    0    0  501  502  0.00000000000E+00 -0.00000000000E+00 -0.16129224940E+03  0.16129224940E+03  0.00000000000E+00 0. -1.
         23    2    1    2    0    0  0.18390619807E+02  0.46501307897E+02  0.96572604100E+02  0.14158176481E+03  0.90656173155E+02 0.  0.
         24    2    1    2    0    0 -0.24079152988E+01 -0.26654357368E+02 -0.48773925483E+02  0.99694708198E+02  0.82727783802E+02 0.  0.
        -11    1    4    4    0    0 -0.24684816163E+02 -0.87404829045E+01  0.14735886418E+02  0.30048003910E+02  0.00000000000E+00 0.  1.
         12    1    4    4    0    0  0.22276900865E+02 -0.17913874464E+02 -0.63509811901E+02  0.69646704288E+02  0.00000000000E+00 0. -1.
        -13    1    3    3    0    0 -0.11930885800E+02  0.55594912996E+02  0.22722098275E+02  0.61232623143E+02  0.00000000000E+00 0. -1.
         13    1    3    3    0    0  0.30321505607E+02 -0.90936050989E+01  0.73850505824E+02  0.80349141666E+02  0.00000000000E+00 0.  1.
         -4    1    1    2    0  502 -0.15982704508E+02 -0.19846950529E+02 -0.62038578510E+02  0.67068125904E+02  0.00000000000E+00 0.  1.
<scales pt_clust_5="13000.00000" pt_clust_6="13000.00000" pt_clust_7="13000.00000" pt_clust_8="13000.00000" pt_clust_9="25.48231"></scales>
<clustering>
<clus scale="   25.482">  2  9  1 -1</clus>
<clus scale="   82.728">  5  6 -1 -1</clus>
<clus scale="   90.656">  7  8 -1 -1</clus>
<clus scale="   93.880">  2  5  1 -1</clus>
<clus scale="   25.482">  2  5  1 -1</clus>
</clustering>
</event>
<event>
 9    2  0.7820252E-005  0.1523475E+03  0.7546771E-02  0.1199564E+00
         -1   -1    0    0    0  501 -0.00000000000E+00  0.00000000000E+00  0.65683673955E+02  0.65683673955E+02  0.00000000000E+00 0.  1.
         21   -1    0    0  501  502  0.00000000000E+00 -0.00000000000E+00 -0.94092377048E+03  0.94092377048E+03  0.00000000000E+00 0. -1.
         23    2    1    2    0    0  0.11173055139E+03  0.84617449494E+02 -0.14555582459E+03  0.22067652903E+03  0.88700639904E+02 0.  0.
         24    2    1    2    0    0 -0.71591640894E+02 -0.84278070569E+01 -0.67650831928E+03  0.68471987011E+03  0.77339533805E+02 0.  0.
        -11    1    4    4    0    0 -0.65861035333E+02  0.12938915398E+02 -0.29365946987E+03  0.30123242812E+03  0.00000000000E+00 0.  1.
         12    1    4    4    0    0 -0.57306055616E+01 -0.21366722455E+02 -0.38284884941E+03  0.38348744198E+03  0.00000000000E+00 0. -1.
        -11    1    3    3    0    0  0.33974748343E+02 -0.16668892359E+02 -0.27567610254E+02  0.46819959767E+02  0.00000000000E+00 0. -1.
         11    1    3    3    0    0  0.77755803042E+02  0.10128634185E+03 -0.11798821434E+03  0.17385656926E+03  0.00000000000E+00 0.  1.
         -2    1    1    2    0  502 -0.40138910491E+02 -0.76189642437E+02 -0.53175952656E+02  0.10121104530E+03  0.00000000000E+00 0.  1.
<scales pt_clust_5="13000.00000" pt_clust_6="13000.00000" pt_clust_7="13000.00000" pt_clust_8="13000.00000" pt_clust_9="86.11621"></scales>
<clustering>
<clus scale="   77.340">  5  6 -1 -1</clus>
<clus scale="   86.116">  2  9  1 -1</clus>
<clus scale="   88.701">  7  8 -1 -1</clus>
<clus scale="  146.025">  2  5  1 -1</clus>
<clus scale="   86.116">  2  5  1 -1</clus>
</clustering>
</event>
<event>
 9    2  0.7820252E-005  0.7602432E+02  0.7546771E-02  0.1343319E+00
          2   -1    0    0  502    0 -0.00000000000E+00  0.00000000000E+00  0.26195811659E+03  0.26195811659E+03  0.00000000000E+00 0. -1.
         21   -1    0    0  501  502  0.00000000000E+00 -0.00000000000E+00 -0.63612030476E+02  0.63612030476E+02  0.00000000000E+00 0.  1.
         24    2    1    2    0    0  0.34028122382E+02  0.12000558707E+02  0.92563948228E+02  0.12382398653E+03  0.73907838599E+02 0.  0.
         23    2    1    2    0    0  0.21665341208E+02  0.25974479793E+02  0.22566979939E+01  0.78209193839E+02  0.70480669016E+02 0.  0.
        -13    1    3    3    0    0  0.40898520501E+02 -0.20029232501E+02  0.34409318248E+02  0.57077669154E+02  0.00000000000E+00 0.  1.
         14    1    3    3    0    0 -0.68703981188E+01  0.32029791208E+02  0.58154629979E+02  0.66746317376E+02  0.00000000000E+00 0. -1.
        -13    1    4    4    0    0  0.23347929614E+02  0.49252997619E+02 -0.17185985820E+01  0.54533816782E+02  0.00000000000E+00 0.  1.
         13    1    4    4    0    0 -0.16825884059E+01 -0.23278517826E+02  0.39752965760E+01  0.23675377057E+02  0.00000000000E+00 0. -1.
          1    1    1    2  501    0 -0.55693463590E+02 -0.37975038500E+02  0.10352543989E+03  0.12353696670E+03  0.00000000000E+00 0. -1.
<scales pt_clust_5="13000.00000" pt_clust_6="13000.00000" pt_clust_7="13000.00000" pt_clust_8="13000.00000" pt_clust_9="67.40823"></scales>
<clustering>
<clus scale="   67.408">  2  9  1 -1</clus>
<clus scale="   70.481">  7  8 -1 -1</clus>
<clus scale="   72.697">  2  7  1 -1</clus>
<clus scale="   73.908">  5  6 -1 -1</clus>
<clus scale="   67.408">  2  5  1 -1</clus>
</clustering>
</event>
<event>
 9    2  0.7820252E-005  0.1128461E+03  0.7546771E-02  0.1260068E+00
          2   -1    0    0  502    0 -0.00000000000E+00  0.00000000000E+00  0.72412376684E+02  0.72412376684E+02  0.00000000000E+00 0. -1.
         21   -1    0    0  501  502  0.00000000000E+00 -0.00000000000E+00 -0.22189963996E+03  0.22189963996E+03  0.00000000000E+00 0. -1.
         24    2    1    2    0    0  0.24444550898E+01 -0.58244036632E+02 -0.48010519643E+02  0.10928424199E+03  0.78991723535E+02 0.  0.
         23    2    1    2    0    0 -0.21738086725E+02  0.76731170723E+02 -0.10155759182E+03  0.15830653058E+03  0.91579452894E+02 0.  0.
        -13    1    3    3    0    0  0.39597006564E+02 -0.35322549932E+02 -0.16936240739E+02  0.55699566541E+02  0.00000000000E+00 0.  1.
         14    1    3    3    0    0 -0.37152551474E+02 -0.22921486700E+02 -0.31074278904E+02  0.53584675449E+02  0.00000000000E+00 0. -1.
        -11    1    4    4    0    0 -0.49748796454E+02  0.77176114039E+02 -0.66204302722E+02  0.11319940382E+03  0.00000000000E+00 0. -1.
         11    1    4    4    0    0  0.28010709730E+02 -0.44494331614E+00 -0.35353289094E+02  0.45107126753E+02  0.00000000000E+00 0.  1.
          1    1    1    2  501    0  0.19293631635E+02 -0.18487134091E+02  0.80848185595E-01  0.26721244077E+02  0.00000000000E+00 0. -1.
<scales pt_clust_5="13000.00000" pt_clust_6="13000.00000" pt_clust_7="13000.00000" pt_clust_8="13000.00000" pt_clust_9="26.72114"></scales>
<clustering>
<clus scale="   26.721">  2  9  1 -1</clus>
<clus scale="   78.992">  5  6 -1 -1</clus>
<clus scale="   91.579">  7  8 -1 -1</clus>
<clus scale="  102.894">  1  5  2 -1</clus>
<clus scale="   26.721">  2  5  1 -1</clus>
</clustering>
</event>
<event>
 9    2  0.7820252E-005  0.1022118E+03  0.7546771E-02  0.1282233E+00
         21   -1    0    0  501  502  0.00000000000E+00  0.00000000000E+00  0.15986558381E+03  0.15986558381E+03  0.00000000000E+00 0.  1.
         -3   -1    0    0    0  501 -0.00000000000E+00 -0.00000000000E+00 -0.11582068044E+03  0.11582068044E+03  0.00000000000E+00 0.  1.
         24    2    1    2    0    0 -0.22998831889E+02 -0.21636551528E+02  0.99204731494E+01  0.85092454164E+02  0.78391474905E+02 0.  0.
         23    2    1    2    0    0  0.74860357536E+02 -0.19866948662E+02  0.12954332003E+02  0.12087773282E+03  0.91895825771E+02 0.  0.
        -11    1    3    3    0    0 -0.48870371784E+02 -0.27813690208E+02 -0.12463705167E+01  0.56244715669E+02  0.00000000000E+00 0.  1.
         12    1    3    3    0    0  0.25871539895E+02  0.61771386801E+01  0.11166843666E+02  0.28847738495E+02  0.00000000000E+00 0. -1.
        -13    1    4    4    0    0  0.64897488285E+01 -0.36634313097E+02 -0.20997926265E+02  0.42721220060E+02  0.00000000000E+00 0.  1.
         13    1    4    4    0    0  0.68370608707E+02  0.16767364435E+02  0.33952258268E+02  0.78156512759E+02  0.00000000000E+00 0. -1.
         -4    1    1    2    0  502 -0.51861525647E+02  0.41503500190E+02  0.21170098222E+02  0.69716077264E+02  0.00000000000E+00 0.  1.
<scales pt_clust_5="13000.00000" pt_clust_6="13000.00000" pt_clust_7="13000.00000" pt_clust_8="13000.00000" pt_clust_9="66.42408"></scales>
<clustering>
<clus scale="   66.424">  1  9  2 -1</clus>
<clus scale="   78.391">  5  6 -1 -1</clus>
<clus scale="   90.264">  2  5  1 -1</clus>
<clus scale="   91.896">  7  8 -1 -1</clus>
<clus scale="   66.424">  1  5  2 -1</clus>
</clustering>
</event>
<event>
 9    2  0.7820252E-005  0.1499717E+03  0.7546771E-02  0.1219264E+00
         21   -1    0    0  501  502  0.00000000000E+00  0.00000000000E+00  0.35500750664E+02  0.35500750664E+02  0.00000000000E+00 0. -1.
          2   -1    0    0  502    0 -0.00000000000E+00 -0.00000000000E+00 -0.10898368141E+04  0.10898368141E+04  0.00000000000E+00 0. -1.
         24    2    1    2    0    0 -0.82873287785E+00 -0.31112087526E+02 -0.39606015700E+03  0.40860435365E+03  0.95526022998E+02 0.  0.
         23    2    1    2    0    0 -0.98828978878E+02 -0.45782863617E+02 -0.46596204088E+03  0.48688735863E+03  0.89863445200E+02 0.  0.
        -13    1    3    3    0    0  0.41805002232E+02 -0.38189055195E+02 -0.24690885843E+03  0.25331807381E+03  0.00000000000E+00 0.  1.
         14    1    3    3    0    0 -0.42633735109E+02  0.70769676689E+01 -0.14915129857E+03  0.15528627984E+03  0.00000000000E+00 0. -1.
        -13    1    4    4    0    0 -0.10569256566E+03 -0.11999742409E+02 -0.36624963177E+03  0.38138393389E+03  0.00000000000E+00 0.  1.
         13    1    4    4    0    0  0.68635867801E+01 -0.33783121208E+02 -0.99712409106E+02  0.10550342474E+03  0.00000000000E+00 0. -1.
          1    1    1    2  501    0  0.99657711756E+02  0.76894951143E+02 -0.19231386560E+03  0.22984585253E+03  0.00000000000E+00 0. -1.
<scales pt_clust_5="13000.00000" pt_clust_6="13000.00000" pt_clust_7="13000.00000" pt_clust_8="13000.00000" pt_clust_9="120.06692"></scales>
<clustering>
<clus scale="   89.863">  7  8 -1 -1</clus>
<clus scale="   95.526">  5  6 -1 -1</clus>
<clus scale="  100.468">  2  5  1 -1</clus>
<clus scale="  120.067">  1  9  2 -1</clus>
<clus scale="  120.067">  1  5  2 -1</clus>
</clustering>
</event>
<event>
 9    2  0.7820252E-005  0.1242964E+03  0.7546771E-02  0.1239136E+00
         21   -1    0    0  501  502  0.00000000000E+00  0.00000000000E+00  0.69523962012E+02  0.69523962012E+02  0.00000000000E+00 0.  1.
         -1   -1    0    0    0  501 -0.00000000000E+00 -0.00000000000E+00 -0.60496693744E+03  0.60496693744E+03  0.00000000000E+00 0.  1.
         24    2    1    2    0    0  0.38967986360E+02  0.68254336542E+02 -0.30563493286E+03  0.32593154942E+03  0.81495425057E+02 0.  0.
         23    2    1    2    0    0 -0.31042356669E+02 -0.87227216488E+02 -0.27201906706E+03  0.30160664652E+03  0.91651411226E+02 0.  0.
        -13    1    3    3    0    0 -0.25461082233E+02  0.15662415789E+02 -0.73411059015E+02  0.79263872997E+02  0.00000000000E+00 0.  1.
         14    1    3    3    0    0  0.64429068593E+02  0.52591920753E+02 -0.23222387384E+03  0.24666767642E+03  0.00000000000E+00 0. -1.
        -13    1    4    4    0    0  0.42516141101E+01 -0.75569684170E+02 -0.98884094986E+02  0.12452677475E+03  0.00000000000E+00 0.  1.
         13    1    4    4    0    0 -0.35293970779E+02 -0.11657532317E+02 -0.17313497207E+03  0.17707987177E+03  0.00000000000E+00 0. -1.
         -2    1    1    2    0  502 -0.79256296911E+01  0.18972879946E+02  0.42211024484E+02  0.46952703516E+02  0.00000000000E+00 0.  1.
<scales pt_clust_5="13000.00000" pt_clust_6="13000.00000" pt_clust_7="13000.00000" pt_clust_8="13000.00000" pt_clust_9="20.56176"></scales>
<clustering>
<clus scale="   20.562">  1  9  2 -1</clus>
<clus scale="   81.495">  5  6 -1 -1</clus>
<clus scale="   91.651">  7  8 -1 -1</clus>
<clus scale="  117.009">  2  5  1 -1</clus>
<clus scale="   20.562">  1  5  2 -1</clus>
</clustering>
</event>
<event>
 9    2  0.7820252E-005  0.1665136E+03  0.7546771E-02  0.1208826E+00
         21   -1    0    0  501  502  0.00000000000E+00  0.00000000000E+00  0.15638888909E+03  0.15638888909E+03  0.00000000000E+00 0. -1.
          2   -1    0    0  502    0 -0.00000000000E+00 -0.00000000000E+00 -0.92266215269E+03  0.92266215269E+03  0.00000000000E+00 0. -1.
         24    2    1    2    0    0  0.14979688429E+02 -0.31424146363E+02 -0.31386954390E+03  0.32696000344E+03  0.84716499118E+02 0.  0.
         23    2    1    2    0    0  0.18361179768E+02 -0.10539303854E+03 -0.55833356974E+03  0.57587614480E+03  0.91935485859E+02 0.  0.
        -13    1    3    3    0    0  0.27127371240E+01 -0.57448729918E+02 -0.15126141565E+03  0.16182623822E+03  0.00000000000E+00 0.  1.
         14    1    3    3    0    0  0.12266951305E+02  0.26024583555E+02 -0.16260812825E+03  0.16513376522E+03  0.00000000000E+00 0. -1.
        -13    1    4    4    0    0  0.49335280412E+02 -0.80506687474E+02 -0.46411466581E+03  0.47362191634E+03  0.00000000000E+00 0. -1.
         13    1    4    4    0    0 -0.30974100645E+02 -0.24886351063E+02 -0.94218903927E+02  0.10225422846E+03  0.00000000000E+00 0.  1.
          1    1    1    2  501    0 -0.33340868197E+02  0.13681718490E+03  0.10592985004E+03  0.17621489354E+03  0.00000000000E+00 0. -1.
<scales pt_clust_5="13000.00000" pt_clust_6="13000.00000" pt_clust_7="13000.00000" pt_clust_8="13000.00000" pt_clust_9="138.83314"></scales>
<clustering>
<clus scale="   84.716">  5  6 -1 -1</clus>
<clus scale="   91.590">  2  5  1 -1</clus>
<clus scale="   91.935">  7  8 -1 -1</clus>
<clus scale="  138.833">  1  9  2 -1</clus>
<clus scale="  138.833">  1  5  2 -1</clus>
</clustering>
</event>
<event>
 9    2  0.7820252E-005  0.1031958E+03  0.7546771E-02  0.1281373E+00
         21   -1    0    0  501  502  0.00000000000E+00  0.00000000000E+00  0.24656562902E+03  0.24656562902E+03  0.00000000000E+00 0. -1.
          2   -1    0    0  502    0 -0.00000000000E+00 -0.00000000000E+00 -0.14450820436E+03  0.14450820436E+03  0.00000000000E+00 0. -1.
         24    2    1    2    0    0 -0.36199461430E+02 -0.81195136859E+01 -0.75604975983E+02  0.11453208222E+03  0.77621890948E+02 0.  0.
         23    2    1    2    0    0  0.65585620178E+02  0.18290550747E+02  0.21834634160E+02  0.11764150216E+03  0.93417096732E+02 0.  0.
        -13    1    3    3    0    0 -0.21122065518E+02 -0.36425141318E+02 -0.12793676731E+02  0.44006939635E+02  0.00000000000E+00 0.  1.
         14    1    3    3    0    0 -0.15077395913E+02  0.28305627632E+02 -0.62811299252E+02  0.70525142587E+02  0.00000000000E+00 0. -1.
        -13    1    4    4    0    0 -0.20028677801E+02 -0.82466322601E+01 -0.81258310916E+01  0.23134044372E+02  0.00000000000E+00 0. -1.
         13    1    4    4    0    0  0.85614297978E+02  0.26537183007E+02  0.29960465252E+02  0.94507457792E+02  0.00000000000E+00 0.  1.
          1    1    1    2  501    0 -0.29386158747E+02 -0.10171037061E+02  0.15582776649E+03  0.15890024899E+03  0.00000000000E+00 0. -1.
<scales pt_clust_5="13000.00000" pt_clust_6="13000.00000" pt_clust_7="13000.00000" pt_clust_8="13000.00000" pt_clust_9="31.09656"></scales>
<clustering>
<clus scale="   31.097">  1  9  2 -1</clus>
<clus scale="   77.622">  5  6 -1 -1</clus>
<clus scale="   89.150">  2  5  1 -1</clus>
<clus scale="   93.417">  7  8 -1 -1</clus>
<clus scale="   31.097">  1  5  2 -1</clus>
</clustering>
</event>
<event>
 9    2  0.1248693E-004  0.9493511E+02  0.7546771E-02  0.1299622E+00
         21   -1    0    0  501  502  0.00000000000E+00  0.00000000000E+00  0.12071270872E+03  0.12071270872E+03  0.00000000000E+00 0. -1.
          2   -1    0    0  502    0 -0.00000000000E+00 -0.00000000000E+00 -0.38126726803E+03  0.38126726803E+03  0.00000000000E+00 0. -1.
         23    2    1    2    0    0  0.19336139646E+02 -0.22342360141E+01 -0.33896291306E+03  0.35201267891E+03  0.92941872025E+02 0.  0.
         24    2    1    2    0    0 -0.14055971923E+02  0.24195931324E+02  0.91298842281E+02  0.12396035786E+03  0.79042256296E+02 0.  0.
        -13    1    4    4    0    0  0.26082308824E+02 -0.95634702218E+01  0.15579663367E+02  0.31850788168E+02  0.00000000000E+00 0.  1.
         14    1    4    4    0    0 -0.40138280747E+02  0.33759401545E+02  0.75719178914E+02  0.92109569695E+02  0.00000000000E+00 0. -1.
        -11    1    3    3    0    0 -0.23385093525E+02  0.32170579556E+02 -0.12810254660E+03  0.13413452663E+03  0.00000000000E+00 0. -1.
         11    1    3    3    0    0  0.42721233171E+02 -0.34404815570E+02 -0.21086036646E+03  0.21787815229E+03  0.00000000000E+00 0.  1.
          1    1    1    2  501    0 -0.52801677233E+01 -0.21961695309E+02 -0.12890488531E+02  0.26006939970E+02  0.00000000000E+00 0. -1.
<scales pt_clust_5="13000.00000" pt_clust_6="13000.00000" pt_clust_7="13000.00000" pt_clust_8="13000.00000" pt_clust_9="22.58752"></scales>
<clustering>
<clus scale="   22.588">  1  9  2 -1</clus>
<clus scale="   79.042">  5  6 -1 -1</clus>
<clus scale="   81.377">  1  5  2 -1</clus>
<clus scale="   92.942">  7  8 -1 -1</clus>
<clus scale="   22.588">  1  5  2 -1</clus>
</clustering>
</event>
<event>
 9    2  0.7820252E-005  0.1261779E+03  0.7546771E-02  0.1235444E+00
          2   -1    0    0  502    0 -0.00000000000E+00  0.00000000000E+00  0.73792830876E+03  0.73792830876E+03  0.00000000000E+00 0. -1.
         21   -1    0    0  501  502  0.00000000000E+00 -0.00000000000E+00 -0.27668147924E+02  0.27668147924E+02  0.00000000000E+00 0.  1.
         24    2    1    2    0    0 -0.14026652693E+02  0.97721762776E+02  0.44024686661E+03  0.45842045588E+03  0.81152454717E+02 0.  0.
         23    2    1    2    0    0  0.36500820996E+01 -0.72167029857E+02  0.18434052786E+03  0.21717299813E+03  0.89225991783E+02 0.  0.
        -11    1    3    3    0    0  0.20555038433E+02  0.95491512184E+01  0.31270037748E+02  0.38620087451E+02  0.00000000000E+00 0.  1.
         12    1    3    3    0    0 -0.34581691126E+02  0.88172611558E+02  0.40897682886E+03  0.41980036843E+03  0.00000000000E+00 0. -1.
        -13    1    4    4    0    0 -0.38943444625E+02 -0.49003917095E+02  0.75855536126E+02  0.98346520685E+02  0.00000000000E+00 0.  1.
         13    1    4    4    0    0  0.42593526725E+02 -0.23163112762E+02  0.10848499173E+03  0.11882647745E+03  0.00000000000E+00 0. -1.
          1    1    1    2  501    0  0.10376570594E+02 -0.25554732919E+02  0.85672766369E+02  0.90003002667E+02  0.00000000000E+00 0. -1.
<scales pt_clust_5="13000.00000" pt_clust_6="13000.00000" pt_clust_7="13000.00000" pt_clust_8="13000.00000" pt_clust_9="27.58112"></scales>
<clustering>
<clus scale="   27.581">  2  9  1 -1</clus>
<clus scale="   81.152">  5  6 -1 -1</clus>
<clus scale="   89.226">  7  8 -1 -1</clus>
<clus scale="  120.604">  1  5  2 -1</clus>
<clus scale="   27.581">  2  5  1 -1</clus>
</clustering>
</event>
<event>
 9    2  0.7820252E-005  0.1100581E+03  0.7546771E-02  0.1269938E+00
          2   -1    0    0  502    0 -0.00000000000E+00  0.00000000000E+00  0.27759382659E+03  0.27759382659E+03  0.00000000000E+00 0. -1.
         21   -1    0    0  501  502  0.00000000000E+00 -0.00000000000E+00 -0.21388928455E+03  0.21388928455E+03  0.00000000000E+00 0. -1.
         24    2    1    2    0    0  0.15934173659E+02 -0.39160409781E+02  0.24346557622E+03  0.26016715851E+03  0.81388131686E+02 0.  0.
         23    2    1    2    0    0  0.17325069185E+02  0.42390427408E+02 -0.12967895779E+03  0.17110943617E+03  0.10180717409E+03 0.  0.
        -13    1    3    3    0    0 -0.27583141091E+02 -0.83166428492E+00  0.39974740282E+02  0.48574697102E+02  0.00000000000E+00 0.  1.
         14    1    3    3    0    0  0.43517314751E+02 -0.38328745496E+02  0.20349083594E+03  0.21159246141E+03  0.00000000000E+00 0. -1.
        -11    1    4    4    0    0 -0.34515517363E+02  0.47387129087E+02 -0.79591921845E+02  0.98852086295E+02  0.00000000000E+00 0.  1.
         11    1    4    4    0    0  0.51840586548E+02 -0.49967016792E+01 -0.50087035945E+02  0.72257349876E+02  0.00000000000E+00 0. -1.
          1    1    1    2  501    0 -0.33259242845E+02 -0.32300176274E+01 -0.50082076393E+02  0.60206516461E+02  0.00000000000E+00 0. -1.
<scales pt_clust_5="13000.00000" pt_clust_6="13000.00000" pt_clust_7="13000.00000" pt_clust_8="13000.00000" pt_clust_9="33.41572"></scales>
<clustering>
<clus scale="   33.416">  2  9  1 -1</clus>
<clus scale="   81.388">  5  6 -1 -1</clus>
<clus scale="   91.499">  1  5  2 -1</clus>
<clus scale="  101.807">  7  8 -1 -1</clus>
<clus scale="   33.416">  2  5  1 -1</clus>
</clustering>
</event>
<event>
 9    2  0.7820252E-005  0.1499138E+03  0.7546771E-02  0.1203113E+00
          2   -1    0    0  502    0 -0.00000000000E+00  0.00000000000E+00  0.11940371694E+04  0.11940371694E+04  0.00000000000E+00 0. -1.
         21   -1    0    0  501  502  0.00000000000E+00 -0.00000000000E+00 -0.26175095348E+02  0.26175095348E+02  0.00000000000E+00 0.  1.
         24    2    1    2    0    0  0.20180199881E+02 -0.11165504237E+03  0.72423436587E+03  0.73738094920E+03  0.79631391958E+02 0.  0.
         23    2    1    2    0    0  0.29814928784E+01  0.12980353472E+03  0.35146477530E+03  0.38608505989E+03  0.93146863975E+02 0.  0.
        -13    1    3    3    0    0 -0.29565426887E+02 -0.27447109672E+02  0.24022601767E+03  0.24358981478E+03  0.00000000000E+00 0.  1.
         14    1    3    3    0    0  0.49745626768E+02 -0.84207932696E+02  0.48400834820E+03  0.49379113442E+03  0.00000000000E+00 0. -1.
        -13    1    4    4    0    0 -0.28968913838E+02  0.10386253650E+03  0.18065679742E+03  0.21038893248E+03  0.00000000000E+00 0.  1.
         13    1    4    4    0    0  0.31950406717E+02  0.25940998213E+02  0.17080797788E+03  0.17569612740E+03  0.00000000000E+00 0. -1.
          1    1    1    2  501    0 -0.23161692760E+02 -0.18148492348E+02  0.92162932850E+02  0.96746255625E+02  0.00000000000E+00 0. -1.
<scales pt_clust_5="13000.00000" pt_clust_6="13000.00000" pt_clust_7="13000.00000" pt_clust_8="13000.00000" pt_clust_9="29.42502"></scales>
<clustering>
<clus scale="   29.425">  2  9  1 -1</clus>
<clus scale="   79.631">  5  6 -1 -1</clus>
<clus scale="   93.147">  7  8 -1 -1</clus>
<clus scale="  141.912">  1  5  2 -1</clus>
<clus scale="   29.425">  2  5  1 -1</clus>
</clustering>
</event>
<event>
 9    2  0.7820252E-005  0.1098347E+03  0.7546771E-02  0.1264078E+00
          2   -1    0    0  502    0 -0.00000000000E+00  0.00000000000E+00  0.57266545079E+03  0.57266545079E+03  0.00000000000E+00 0. -1.
         21   -1    0    0  501  502  0.00000000000E+00 -0.00000000000E+00 -0.59826974236E+02  0.59826974236E+02  0.00000000000E+00 0. -1.
         24    2    1    2    0    0 -0.54738649432E+02 -0.11722867389E+02  0.30256866152E+03  0.31818534425E+03  0.80996129521E+02 0.  0.
         23    2    1    2    0    0  0.70093384205E+02  0.38637019212E+02  0.24191403157E+03  0.27001830241E+03  0.89339706732E+02 0.  0.
        -11    1    3    3    0    0 -0.66128824454E+02  0.49564748630E+01  0.14643496604E+03  0.16075069937E+03  0.00000000000E+00 0.  1.
         12    1    3    3    0    0  0.11390175022E+02 -0.16679342252E+02  0.15613369548E+03  0.15743464488E+03  0.00000000000E+00 0. -1.
        -11    1    4    4    0    0  0.41245162736E+02  0.66056650044E+02  0.13382650275E+03  0.15483596902E+03  0.00000000000E+00 0.  1.
         11    1    4    4    0    0  0.28848221469E+02 -0.27419630832E+02  0.10808752882E+03  0.11518233338E+03  0.00000000000E+00 0. -1.
          1    1    1    2  501    0 -0.15354734773E+02 -0.26914151823E+02 -0.31644216547E+02  0.44288778366E+02  0.00000000000E+00 0. -1.
<scales pt_clust_5="13000.00000" pt_clust_6="13000.00000" pt_clust_7="13000.00000" pt_clust_8="13000.00000" pt_clust_9="30.98612"></scales>
<clustering>
<clus scale="   30.986">  2  9  1 -1</clus>
<clus scale="   80.996">  5  6 -1 -1</clus>
<clus scale="   89.340">  7  8 -1 -1</clus>
<clus scale="  103.162">  1  5  2 -1</clus>
<clus scale="   30.986">  2  5  1 -1</clus>
</clustering>
</event>
<event>
 9    2  0.7820252E-005  0.1827740E+03  0.7546771E-02  0.1177267E+00
         21   -1    0    0  501  502  0.00000000000E+00  0.00000000000E+00  0.21709089972E+03  0.21709089972E+03  0.00000000000E+00 0. -1.
          2   -1    0    0  502    0 -0.00000000000E+00 -0.00000000000E+00 -0.47278325291E+03  0.47278325291E+03  0.00000000000E+00 0. -1.
         23    2    1    2    0    0  0.99489346131E+02  0.21894426573E+02 -0.21322148413E+02  0.14022553219E+03  0.93973772699E+02 0.  0.
         24    2    1    2    0    0 -0.66063896951E+02 -0.18209952837E+03 -0.30611316862E+03  0.37095897846E+03  0.79878751771E+02 0.  0.
        -13    1    4    4    0    0 -0.27438422537E+02 -0.67615612061E+02 -0.52060259967E+02  0.89638210008E+02  0.00000000000E+00 0.  1.
         14    1    4    4    0    0 -0.38625474414E+02 -0.11448391631E+03 -0.25405290865E+03  0.28132076845E+03  0.00000000000E+00 0. -1.
        -11    1    3    3    0    0 -0.45664200031E+01 -0.22496474191E+02  0.62383875493E+01  0.23787833484E+02  0.00000000000E+00 0.  1.
         11    1    3    3    0    0  0.10405576613E+03  0.44390900764E+02 -0.27560535962E+02  0.11643769870E+03  0.00000000000E+00 0. -1.
          1    1    1    2  501    0 -0.33425449180E+02  0.16020510180E+03  0.71742963840E+02  0.17868964199E+03  0.00000000000E+00 0. -1.
<scales pt_clust_5="13000.00000" pt_clust_6="13000.00000" pt_clust_7="13000.00000" pt_clust_8="13000.00000" pt_clust_9="164.39501"></scales>
<clustering>
<clus scale="   79.879">  5  6 -1 -1</clus>
<clus scale="   93.974">  7  8 -1 -1</clus>
<clus scale="  138.595">  2  7  1 -1</clus>
<clus scale="  164.395">  1  9  2 -1</clus>
<clus scale="  164.395">  1  5  2 -1</clus>
</clustering>
</event>
<event>
 9    2  0.7820252E-005  0.9205754E+02  0.7546771E-02  0.1304978E+00
          2   -1    0    0  502    0 -0.00000000000E+00  0.00000000000E+00  0.66202780400E+03  0.66202780400E+03  0.00000000000E+00 0. -1.
         21   -1    0    0  501  502  0.00000000000E+00 -0.00000000000E+00 -0.68305264312E+02  0.68305264312E+02  0.00000000000E+00 0. -1.
         24    2    1    2    0    0 -0.69067510527E+01 -0.10369861016E+02  0.54718781715E+03  0.55315194998E+03  0.80045832531E+02 0.  0.
         23    2    1    2    0    0 -0.52621108683E+02  0.23157350038E+02  0.16075723922E+02  0.10910148440E+03  0.91320649680E+02 0.  0.
        -11    1    3    3    0    0  0.19192418947E+02 -0.60564684162E+01  0.35711057555E+02  0.40991577018E+02  0.00000000000E+00 0.  1.
         12    1    3    3    0    0 -0.26099170000E+02 -0.43133926003E+01  0.51147675959E+03  0.51216037296E+03  0.00000000000E+00 0. -1.
        -11    1    4    4    0    0 -0.58529658969E+02 -0.58655179329E+01 -0.20268769129E+02  0.62216945293E+02  0.00000000000E+00 0. -1.
         11    1    4    4    0    0  0.59085502864E+01  0.29022867971E+02  0.36344493051E+02  0.46884539102E+02  0.00000000000E+00 0.  1.
          1    1    1    2  501    0  0.59527859735E+02 -0.12787489021E+02  0.30458998620E+02  0.68079633937E+02  0.00000000000E+00 0. -1.
<scales pt_clust_5="13000.00000" pt_clust_6="13000.00000" pt_clust_7="13000.00000" pt_clust_8="13000.00000" pt_clust_9="60.88584"></scales>
<clustering>
<clus scale="   60.886">  2  9  1 -1</clus>
<clus scale="   80.046">  5  6 -1 -1</clus>
<clus scale="   80.886">  1  5  2 -1</clus>
<clus scale="   91.321">  7  8 -1 -1</clus>
<clus scale="   60.886">  2  5  1 -1</clus>
</clustering>
</event>
<event>
 9    2  0.7820252E-005  0.9276931E+02  0.7546771E-02  0.1299154E+00
          2   -1    0    0  502    0 -0.00000000000E+00  0.00000000000E+00  0.58492877943E+03  0.58492877943E+03  0.00000000000E+00 0. -1.
         21   -1    0    0  501  502  0.00000000000E+00 -0.00000000000E+00 -0.29708931600E+02  0.29708931600E+02  0.00000000000E+00 0. -1.
         24    2    1    2    0    0  0.20480973196E+01  0.30249916273E+02  0.42988652790E+03  0.43913794856E+03  0.84382811394E+02 0.  0.
         23    2    1    2    0    0 -0.15432713044E+02 -0.10291591336E+01  0.92876366495E+02  0.12982203910E+03  0.89378490601E+02 0.  0.
        -13    1    3    3    0    0 -0.28438207177E+02 -0.77424725434E+01  0.69742383779E+02  0.75714447787E+02  0.00000000000E+00 0.  1.
         14    1    3    3    0    0  0.30486304496E+02  0.37992388816E+02  0.36014414412E+03  0.36342350077E+03  0.00000000000E+00 0. -1.
        -11    1    4    4    0    0  0.58165022692E+01 -0.42723969150E+02  0.36021540495E+02  0.56184700926E+02  0.00000000000E+00 0.  1.
         11    1    4    4    0    0 -0.21249215313E+02  0.41694810016E+02  0.56854826000E+02  0.73637338173E+02  0.00000000000E+00 0. -1.
          1    1    1    2  501    0  0.13384615725E+02 -0.29220757139E+02  0.32456953434E+02  0.45677723368E+02  0.00000000000E+00 0. -1.
<scales pt_clust_5="13000.00000" pt_clust_6="13000.00000" pt_clust_7="13000.00000" pt_clust_8="13000.00000" pt_clust_9="32.14033"></scales>
<clustering>
<clus scale="   32.140">  2  9  1 -1</clus>
<clus scale="   84.383">  5  6 -1 -1</clus>
<clus scale="   87.966">  1  5  2 -1</clus>
<clus scale="   89.378">  7  8 -1 -1</clus>
<clus scale="   32.140">  2  5  1 -1</clus>
</clustering>
</event>
<event>
 9    2  0.7820252E-005  0.1637164E+03  0.7546771E-02  0.1215570E+00
         21   -1    0    0  501  502  0.00000000000E+00  0.00000000000E+00  0.49477884643E+03  0.49477884643E+03  0.00000000000E+00 0. -1.
          2   -1    0    0  502    0 -0.00000000000E+00 -0.00000000000E+00 -0.89772924580E+02  0.89772924580E+02  0.00000000000E+00 0. -1.
         24    2    1    2    0    0  0.60330941976E+01  0.21820916155E+02  0.74552559673E+01  0.83817315265E+02  0.80356772517E+02 0.  0.
         23    2    1    2    0    0 -0.57361499566E+02  0.11456721640E+03  0.23196790465E+03  0.28015798665E+03  0.90903245214E+02 0.  0.
        -13    1    3    3    0    0  0.21818751001E+02 -0.23852440185E+02  0.13664274560E+02  0.35095714799E+02  0.00000000000E+00 0.  1.
         14    1    3    3    0    0 -0.15785656804E+02  0.45673356340E+02 -0.62090185923E+01  0.48721600466E+02  0.00000000000E+00 0. -1.
        -11    1    4    4    0    0 -0.35903099328E+02  0.87537348290E-01  0.87542656052E+02  0.94619008834E+02  0.00000000000E+00 0.  1.
         11    1    4    4    0    0 -0.21458400239E+02  0.11447967905E+03  0.14442524860E+03  0.18553897782E+03  0.00000000000E+00 0. -1.
          1    1    1    2  501    0  0.51328405369E+02 -0.13638813256E+03  0.16558276123E+03  0.22057646909E+03  0.00000000000E+00 0. -1.
<scales pt_clust_5="13000.00000" pt_clust_6="13000.00000" pt_clust_7="13000.00000" pt_clust_8="13000.00000" pt_clust_9="136.16048"></scales>
<clustering>
<clus scale="   80.357">  5  6 -1 -1</clus>
<clus scale="   83.485">  2  5  1 -1</clus>
<clus scale="   90.903">  7  8 -1 -1</clus>
<clus scale="  136.160">  1  9  2 -1</clus>
<clus scale="  136.160">  1  5  2 -1</clus>
</clustering>
</event>
<event>
 9    2  0.7820252E-005  0.1166844E+03  0.7546771E-02  0.1252430E+00
          2   -1    0    0  502    0 -0.00000000000E+00  0.00000000000E+00  0.89435444033E+03  0.89435444033E+03  0.00000000000E+00 0. -1.
         21   -1    0    0  501  502  0.00000000000E+00 -0.00000000000E+00 -0.20951296836E+02  0.20951296836E+02  0.00000000000E+00 0.  1.
         24    2    1    2    0    0  0.72463362817E+02 -0.10519791482E+02  0.43586856092E+03  0.44909578822E+03  0.79649354241E+02 0.  0.
         23    2    1    2    0    0 -0.74325780323E+02 -0.12830039629E+02  0.42177295447E+03  0.43797677462E+03  0.90787105086E+02 0.  0.
        -11    1    3    3    0    0  0.58530209241E+02  0.12258389218E+02  0.14283180107E+03  0.15484500927E+03  0.00000000000E+00 0.  1.
         12    1    3    3    0    0  0.13933153576E+02 -0.22778180700E+02  0.29303675985E+03  0.29425077895E+03  0.00000000000E+00 0. -1.
        -13    1    4    4    0    0 -0.15952080319E+02 -0.36615255008E+02  0.69926268777E+02  0.80528434922E+02  0.00000000000E+00 0.  1.
         13    1    4    4    0    0 -0.58373700004E+02  0.23785215379E+02  0.35184668569E+03  0.35744833970E+03  0.00000000000E+00 0. -1.
          1    1    1    2  501    0  0.18624175059E+01  0.23349831111E+02  0.15761628097E+02  0.28233174319E+02  0.00000000000E+00 0. -1.
<scales pt_clust_5="13000.00000" pt_clust_6="13000.00000" pt_clust_7="13000.00000" pt_clust_8="13000.00000" pt_clust_9="23.42399"></scales>
<clustering>
<clus scale="   23.424">  2  9  1 -1</clus>
<clus scale="   79.649">  5  6 -1 -1</clus>
<clus scale="   90.787">  7  8 -1 -1</clus>
<clus scale="  108.245">  1  5  2 -1</clus>
<clus scale="   23.424">  2  5  1 -1</clus>
</clustering>
</event>
<event>
 9    2  0.7820252E-005  0.1108315E+03  0.7546771E-02  0.1264539E+00
         21   -1    0    0  501  502  0.00000000000E+00  0.00000000000E+00  0.30215518624E+02  0.30215518624E+02  0.00000000000E+00 0.  1.
         -3   -1    0    0    0  501 -0.00000000000E+00 -0.00000000000E+00 -0.57253075220E+03  0.57253075220E+03  0.00000000000E+00 0.  1.
         24    2    1    2    0    0 -0.24189519429E+02  0.41079597774E+02 -0.16548017249E+03  0.18991759273E+03  0.80077077470E+02 0.  0.
         23    2    1    2    0    0 -0.29689812830E+01 -0.77396997253E+02 -0.24746473210E+03  0.27574031357E+03  0.93780684913E+02 0.  0.
        -11    1    3    3    0    0 -0.47491872256E+02  0.76356861250E+01 -0.11747453417E+03  0.12694111947E+03  0.00000000000E+00 0.  1.
         12    1    3    3    0    0  0.23302352827E+02  0.33443911649E+02 -0.48005638317E+02  0.62976473256E+02  0.00000000000E+00 0. -1.
        -11    1    4    4    0    0  0.15674821496E+02 -0.86588638052E+02 -0.13347888286E+03  0.15987465227E+03  0.00000000000E+00 0.  1.
         11    1    4    4    0    0 -0.18643802779E+02  0.91916407997E+01 -0.11398584924E+03  0.11586566130E+03  0.00000000000E+00 0. -1.
         -4    1    1    2    0  502  0.27158500712E+02  0.36317399479E+02 -0.12937032899E+03  0.13708836452E+03  0.00000000000E+00 0.  1.
<scales pt_clust_5="13000.00000" pt_clust_6="13000.00000" pt_clust_7="13000.00000" pt_clust_8="13000.00000" pt_clust_9="45.34909"></scales>
<clustering>
<clus scale="   45.349">  1  9  2 -1</clus>
<clus scale="   80.077">  5  6 -1 -1</clus>
<clus scale="   93.781">  7  8 -1 -1</clus>
<clus scale="   99.505">  2  5  1 -1</clus>
<clus scale="   45.349">  1  5  2 -1</clus>
</clustering>
</event>
<event>
 9    2  0.7820252E-005  0.1103434E+03  0.7546771E-02  0.1264312E+00
          2   -1    0    0  502    0 -0.00000000000E+00  0.00000000000E+00  0.10400381502E+04  0.10400381502E+04  0.00000000000E+00 0. -1.
         21   -1    0    0  501  502  0.00000000000E+00 -0.00000000000E+00 -0.64523988799E+02  0.64523988799E+02  0.00000000000E+00 0.  1.
         24    2    1    2    0    0 -0.48030615297E+02  0.41361109029E+02  0.95969793760E+03  0.96509150640E+03  0.79773447651E+02 0.  0.
         23    2    1    2    0    0  0.24294568418E+02 -0.35151559317E+02 -0.13278333944E+02  0.10141210241E+03  0.91006824945E+02 0.  0.
        -11    1    3    3    0    0 -0.23792671026E+02  0.29543557653E+02  0.14291241267E+03  0.14786098433E+03  0.00000000000E+00 0.  1.
         12    1    3    3    0    0 -0.24237944271E+02  0.11817551376E+02  0.81678552493E+03  0.81723052207E+03  0.00000000000E+00 0. -1.
        -11    1    4    4    0    0  0.51112827801E+02 -0.45494827674E+02  0.27857965695E+01  0.68484021300E+02  0.00000000000E+00 0.  1.
         11    1    4    4    0    0 -0.26818259383E+02  0.10343268357E+02 -0.16064130514E+02  0.32928081114E+02  0.00000000000E+00 0. -1.
          1    1    1    2  501    0  0.23736046879E+02 -0.62095497127E+01  0.29094557729E+02  0.38058530168E+02  0.00000000000E+00 0. -1.
<scales pt_clust_5="13000.00000" pt_clust_6="13000.00000" pt_clust_7="13000.00000" pt_clust_8="13000.00000" pt_clust_9="24.53484"></scales>
<clustering>
<clus scale="   24.535">  2  9  1 -1</clus>
<clus scale="   79.773">  5  6 -1 -1</clus>
<clus scale="   91.007">  7  8 -1 -1</clus>
<clus scale="  101.278">  1  5  2 -1</clus>
<clus scale="   24.535">  2  5  1 -1</clus>
</clustering>
</event>
<event>
 9    2  0.7820252E-005  0.4246764E+03  0.7546771E-02  0.1068704E+00
          2   -1    0    0  502    0 -0.00000000000E+00  0.00000000000E+00  0.24376464229E+04  0.24376464229E+04  0.00000000000E+00 0. -1.
         21   -1    0    0  501  502  0.00000000000E+00 -0.00000000000E+00 -0.17365622076E+03  0.17365622076E+03  0.00000000000E+00 0. -1.
         24    2    1    2    0    0 -0.42713070234E+02  0.13823686624E+03  0.57771870889E+03  0.60096736974E+03  0.80430313507E+02 0.  0.
         23    2    1    2    0    0 -0.23922985652E+03  0.30779410057E+03  0.22973749813E+03  0.46116558786E+03  0.89029482627E+02 0.  0.
        -11    1    3    3    0    0  0.78822314723E+01  0.67046206965E+02  0.15101687194E+03  0.16541891987E+03  0.00000000000E+00 0.  1.
         12    1    3    3    0    0 -0.50595301706E+02  0.71190659273E+02  0.42670183695E+03  0.43554844987E+03  0.00000000000E+00 0. -1.
        -13    1    4    4    0    0 -0.19049596428E+03  0.17714914875E+03  0.14108953790E+03  0.29593376120E+03  0.00000000000E+00 0. -1.
         13    1    4    4    0    0 -0.48733892245E+02  0.13064495182E+03  0.88647960228E+02  0.16523182666E+03  0.00000000000E+00 0.  1.
          1    1    1    2  501    0  0.28194292676E+03 -0.44603096681E+03  0.14565339952E+04  0.15491696861E+04  0.00000000000E+00 0. -1.
<scales pt_clust_5="13000.00000" pt_clust_6="13000.00000" pt_clust_7="13000.00000" pt_clust_8="13000.00000" pt_clust_9="415.23967"></scales>
<clustering>
<clus scale="   80.430">  5  6 -1 -1</clus>
<clus scale="   89.029">  7  8 -1 -1</clus>
<clus scale="  165.538">  1  5  2 -1</clus>
<clus scale="  415.240">  2  9  1 -1</clus>
<clus scale="  415.240">  2  5  1 -1</clus>
</clustering>
</event>
<event>
 9    2  0.7820252E-005  0.1434414E+03  0.7546771E-02  0.1232099E+00
         21   -1    0    0  501  502  0.00000000000E+00  0.00000000000E+00  0.43249584345E+03  0.43249584345E+03  0.00000000000E+00 0. -1.
          2   -1    0    0  502    0 -0.00000000000E+00 -0.00000000000E+00 -0.10879232506E+03  0.10879232506E+03  0.00000000000E+00 0. -1.
         24    2    1    2    0    0  0.21459280139E+02 -0.27411914895E+02 -0.17111546598E+02  0.89570922750E+02  0.80735564611E+02 0.  0.
         23    2    1    2    0    0  0.63923006259E+02 -0.49123436483E+02  0.40848600356E+02  0.13058226675E+03  0.94254217405E+02 0.  0.
        -11    1    3    3    0    0  0.24566182730E+02  0.18616464804E+02  0.14075786924E+02  0.33885068589E+02  0.00000000000E+00 0.  1.
         12    1    3    3    0    0 -0.31069025908E+01 -0.46028379699E+02 -0.31187333522E+02  0.55685854161E+02  0.00000000000E+00 0. -1.
        -13    1    4    4    0    0  0.55542849281E+02 -0.75623674013E+02  0.41920132561E+02  0.10276792151E+03  0.00000000000E+00 0. -1.
         13    1    4    4    0    0  0.83801569778E+01  0.26500237530E+02 -0.10715322052E+01  0.27814345245E+02  0.00000000000E+00 0.  1.
          1    1    1    2  501    0 -0.85382286398E+02  0.76535351378E+02  0.29996646463E+03  0.32113497901E+03  0.00000000000E+00 0. -1.
<scales pt_clust_5="13000.00000" pt_clust_6="13000.00000" pt_clust_7="13000.00000" pt_clust_8="13000.00000" pt_clust_9="108.12762"></scales>
<clustering>
<clus scale="   80.736">  5  6 -1 -1</clus>
<clus scale="   87.921">  2  5  1 -1</clus>
<clus scale="   94.254">  7  8 -1 -1</clus>
<clus scale="  108.128">  1  9  2 -1</clus>
<clus scale="  108.128">  1  5  2 -1</clus>
</clustering>
</event>
<event>
 9    2  0.7820252E-005  0.1231262E+03  0.7546771E-02  0.1241445E+00
         21   -1    0    0  501  502  0.00000000000E+00  0.00000000000E+00  0.52494806331E+02  0.52494806331E+02  0.00000000000E+00 0.  1.
          2   -1    0    0  502    0 -0.00000000000E+00 -0.00000000000E+00 -0.97887322850E+03  0.97887322850E+03  0.00000000000E+00 0. -1.
         24    2    1    2    0    0 -0.23732548891E+02 -0.74743438265E+02 -0.57138434961E+03  0.58246631704E+03  0.81468521927E+02 0.  0.
         23    2    1    2    0    0  0.10015257208E+03  0.68866603485E+02 -0.10013123192E+03  0.18276336154E+03  0.92752552239E+02 0.  0.
        -13    1    3    3    0    0 -0.12853450238E+02  0.15629828467E+02 -0.69164901087E+02  0.72064459086E+02  0.00000000000E+00 0.  1.
         14    1    3    3    0    0 -0.10879098653E+02 -0.90373266732E+02 -0.50221944853E+03  0.51040185796E+03  0.00000000000E+00 0. -1.
        -11    1    4    4    0    0  0.77004802100E+02  0.59812174807E+02 -0.20893231712E+02  0.99718418224E+02  0.00000000000E+00 0.  1.
         11    1    4    4    0    0  0.23147769975E+02  0.90544286773E+01 -0.79238000208E+02  0.83044943317E+02  0.00000000000E+00 0. -1.
          1    1    1    2  501    0 -0.76420023184E+02  0.58768347801E+01 -0.25486284063E+03  0.26613835625E+03  0.00000000000E+00 0. -1.
<scales pt_clust_5="13000.00000" pt_clust_6="13000.00000" pt_clust_7="13000.00000" pt_clust_8="13000.00000" pt_clust_9="76.64570"></scales>
<clustering>
<clus scale="   76.646">  1  9  2 -1</clus>
<clus scale="   81.469">  5  6 -1 -1</clus>
<clus scale="   92.753">  7  8 -1 -1</clus>
<clus scale="  114.866">  2  5  1 -1</clus>
<clus scale="   76.646">  1  5  2 -1</clus>
</clustering>
</event>
<event>
 9    2  0.7820252E-005  0.1041997E+03  0.7546771E-02  0.1275950E+00
         -1   -1    0    0    0  501 -0.00000000000E+00  0.00000000000E+00  0.42626443312E+03  0.42626443312E+03  0.00000000000E+00 0.  1.
         21   -1    0    0  501  502  0.00000000000E+00 -0.00000000000E+00 -0.33794209881E+02  0.33794209881E+02  0.00000000000E+00 0. -1.
         24    2    1    2    0    0  0.43106844396E+02 -0.72648415475E-01  0.21402181317E+03  0.23331768593E+03  0.82301887841E+02 0.  0.
         23    2    1    2    0    0 -0.63035397097E+02  0.14286283554E+02  0.12504634291E+03  0.16799612399E+03  0.91698149475E+02 0.  0.
        -13    1    3    3    0    0  0.59475745293E+02  0.13463667331E+02  0.98419006707E+02  0.11577968517E+03  0.00000000000E+00 0.  1.
         14    1    3    3    0    0 -0.16368900897E+02 -0.13536315746E+02  0.11560280646E+03  0.11753800076E+03  0.00000000000E+00 0. -1.
        -11    1    4    4    0    0 -0.26487298826E+02 -0.11349222438E+02  0.11960025121E+03  0.12302277000E+03  0.00000000000E+00 0.  1.
         11    1    4    4    0    0 -0.36548098271E+02  0.25635505992E+02  0.54460916982E+01  0.44973353994E+02  0.00000000000E+00 0. -1.
         -2    1    1    2    0  502  0.19928552701E+02 -0.14213635139E+02  0.53402067165E+02  0.58744833084E+02  0.00000000000E+00 0.  1.
<scales pt_clust_5="13000.00000" pt_clust_6="13000.00000" pt_clust_7="13000.00000" pt_clust_8="13000.00000" pt_clust_9="24.47806"></scales>
<clustering>
<clus scale="   24.478">  2  9  1 -1</clus>
<clus scale="   82.302">  5  6 -1 -1</clus>
<clus scale="   91.698">  7  8 -1 -1</clus>
<clus scale="   96.035">  1  5  2 -1</clus>
<clus scale="   24.478">  2  5  1 -1</clus>
</clustering>
</event>
<event>
 9    2  0.7820252E-005  0.9989651E+02  0.7546771E-02  0.1285488E+00
         21   -1    0    0  501  502  0.00000000000E+00  0.00000000000E+00  0.11914258119E+03  0.11914258119E+03  0.00000000000E+00 0.  1.
          2   -1    0    0  502    0 -0.00000000000E+00 -0.00000000000E+00 -0.29293112604E+03  0.29293112604E+03  0.00000000000E+00 0. -1.
         24    2    1    2    0    0 -0.21523364441E+02  0.33335107020E+02 -0.23800469686E+03  0.25451867162E+03  0.80987862664E+02 0.  0.
         23    2    1    2    0    0  0.49608657094E+02 -0.32909825383E+02  0.28996765630E+02  0.11250650950E+03  0.90955081204E+02 0.  0.
        -11    1    3    3    0    0  0.87446838067E+01  0.49023728799E+02 -0.92277671936E+02  0.10485687492E+03  0.00000000000E+00 0.  1.
         12    1    3    3    0    0 -0.30268048247E+02 -0.15688621779E+02 -0.14572702492E+03  0.14966179670E+03  0.00000000000E+00 0. -1.
        -11    1    4    4    0    0  0.67811583927E+02 -0.64926505663E+01 -0.16468565670E+01  0.68141599355E+02  0.00000000000E+00 0.  1.
         11    1    4    4    0    0 -0.18202926834E+02 -0.26417174816E+02  0.30643622197E+02  0.44364910142E+02  0.00000000000E+00 0. -1.
          1    1    1    2  501    0 -0.28085292653E+02 -0.42528163744E+00  0.35219386386E+02  0.45048526117E+02  0.00000000000E+00 0. -1.
<scales pt_clust_5="13000.00000" pt_clust_6="13000.00000" pt_clust_7="13000.00000" pt_clust_8="13000.00000" pt_clust_9="28.08851"></scales>
<clustering>
<clus scale="   28.089">  1  9  2 -1</clus>
<clus scale="   80.988">  5  6 -1 -1</clus>
<clus scale="   90.915">  2  5  1 -1</clus>
<clus scale="   90.955">  7  8 -1 -1</clus>
<clus scale="   28.089">  1  5  2 -1</clus>
</clustering>
</event>
<event>
 9    2  0.7820252E-005  0.9297265E+02  0.7546771E-02  0.1301966E+00
          4   -1    0    0  502    0 -0.00000000000E+00  0.00000000000E+00  0.55700717036E+03  0.55700717036E+03  0.00000000000E+00 0. -1.
         21   -1    0    0  501  502  0.00000000000E+00 -0.00000000000E+00 -0.27763388769E+02  0.27763388769E+02  0.00000000000E+00 0.  1.
         23    2    1    2    0    0 -0.41031315961E+01  0.24028524797E+02  0.39495718082E+03  0.40582621240E+03  0.90052952733E+02 0.  0.
         24    2    1    2    0    0  0.22023964296E+02 -0.14273443578E+02  0.13451680554E+03  0.15853917953E+03  0.79693878539E+02 0.  0.
        -13    1    4    4    0    0  0.50020711003E+02  0.20636895474E+01  0.66938023097E+02  0.83588451833E+02  0.00000000000E+00 0.  1.
         14    1    4    4    0    0 -0.27996746706E+02 -0.16337133126E+02  0.67578782445E+02  0.74950727693E+02  0.00000000000E+00 0. -1.
        -11    1    3    3    0    0 -0.12916933034E+02 -0.32603313249E+02  0.12337450634E+03  0.12826181040E+03  0.00000000000E+00 0. -1.
         11    1    3    3    0    0  0.88138014381E+01  0.56631838046E+02  0.27158267449E+03  0.27756440200E+03  0.00000000000E+00 0.  1.
          3    1    1    2  501    0 -0.17920832700E+02 -0.97550812189E+01 -0.23020477500E+00  0.20405167201E+02  0.00000000000E+00 0. -1.
<scales pt_clust_5="13000.00000" pt_clust_6="13000.00000" pt_clust_7="13000.00000" pt_clust_8="13000.00000" pt_clust_9="20.40387"></scales>
<clustering>
<clus scale="   20.404">  2  9  1 -1</clus>
<clus scale="   79.694">  5  6 -1 -1</clus>
<clus scale="   82.979">  2  5  1 -1</clus>
<clus scale="   90.053">  7  8 -1 -1</clus>
<clus scale="   20.404">  2  5  1 -1</clus>
</clustering>
</event>
<event>
 9    2  0.7820252E-005  0.3600103E+03  0.7546771E-02  0.1108545E+00
         21   -1    0    0  501  502  0.00000000000E+00  0.00000000000E+00  0.11078090513E+04  0.11078090513E+04  0.00000000000E+00 0.  1.
         -3   -1    0    0    0  501 -0.00000000000E+00 -0.00000000000E+00 -0.18845013878E+03  0.18845013878E+03  0.00000000000E+00 0.  1.
         24    2    1    2    0    0 -0.18194051874E+01  0.53088220343E+02 -0.39935163097E+02  0.10258119350E+03  0.78143551449E+02 0.  0.
         23    2    1    2    0    0  0.10681393046E+03 -0.35875318534E+03  0.56588185564E+03  0.68453352200E+03  0.90833938946E+02 0.  0.
        -11    1    3    3    0    0 -0.18172177059E+02  0.20366663259E+02 -0.56253756331E+02  0.62526107289E+02  0.00000000000E+00 0.  1.
         12    1    3    3    0    0  0.16352771872E+02  0.32721557084E+02  0.16318593234E+02  0.40055086207E+02  0.00000000000E+00 0. -1.
        -13    1    4    4    0    0  0.79744080752E+02 -0.15467838967E+03  0.31623031908E+03  0.36095171056E+03  0.00000000000E+00 0. -1.
         13    1    4    4    0    0  0.27069849708E+02 -0.20407479567E+03  0.24965153655E+03  0.32358181144E+03  0.00000000000E+00 0.  1.
         -4    1    1    2    0  502 -0.10499452527E+03  0.30566496500E+03  0.39341221995E+03  0.50914447456E+03  0.00000000000E+00 0.  1.
<scales pt_clust_5="13000.00000" pt_clust_6="13000.00000" pt_clust_7="13000.00000" pt_clust_8="13000.00000" pt_clust_9="348.36293"></scales>
<clustering>
<clus scale="   78.144">  5  6 -1 -1</clus>
<clus scale="   90.834">  7  8 -1 -1</clus>
<clus scale="   94.489">  2  5  1 -1</clus>
<clus scale="  348.363">  1  9  2 -1</clus>
<clus scale="  348.363">  1  5  2 -1</clus>
</clustering>
</event>
<event>
 9    2  0.7820252E-005  0.9456304E+02  0.7546771E-02  0.1296572E+00
         21   -1    0    0  501  502  0.00000000000E+00  0.00000000000E+00  0.62547392754E+02  0.62547392754E+02  0.00000000000E+00 0. -1.
          2   -1    0    0  502    0 -0.00000000000E+00 -0.00000000000E+00 -0.40828034968E+03  0.40828034968E+03  0.00000000000E+00 0. -1.
         24    2    1    2    0    0 -0.25852050200E+02 -0.16450663274E+02 -0.28517343226E+03  0.29858103557E+03  0.82992743739E+02 0.  0.
         23    2    1    2    0    0  0.18872108992E+02 -0.39290007026E+01 -0.94242587897E+02  0.13226422281E+03  0.90777561747E+02 0.  0.
        -13    1    3    3    0    0 -0.16423460428E+02  0.24675801658E+02 -0.39903311994E+02  0.49708143679E+02  0.00000000000E+00 0.  1.
         14    1    3    3    0    0 -0.94285897718E+01 -0.41126464932E+02 -0.24527012026E+03  0.24887289189E+03  0.00000000000E+00 0. -1.
        -11    1    4    4    0    0 -0.24591722290E+02 -0.21079492173E+02 -0.75068217476E+02  0.81757782935E+02  0.00000000000E+00 0. -1.
         11    1    4    4    0    0  0.43463831282E+02  0.17150491470E+02 -0.19174370421E+02  0.50506439871E+02  0.00000000000E+00 0.  1.
          1    1    1    2  501    0  0.69799412080E+01  0.20379663977E+02  0.33683063229E+02  0.39982484060E+02  0.00000000000E+00 0. -1.
<scales pt_clust_5="13000.00000" pt_clust_6="13000.00000" pt_clust_7="13000.00000" pt_clust_8="13000.00000" pt_clust_9="21.54183"></scales>
<clustering>
<clus scale="   21.542">  1  9  2 -1</clus>
<clus scale="   82.993">  5  6 -1 -1</clus>
<clus scale="   87.117">  2  5  1 -1</clus>
<clus scale="   90.778">  7  8 -1 -1</clus>
<clus scale="   21.542">  1  5  2 -1</clus>
</clustering>
</event>
<event>
 9    2  0.7820252E-005  0.1487351E+03  0.7546771E-02  0.1220925E+00
         21   -1    0    0  501  502  0.00000000000E+00  0.00000000000E+00  0.17766248046E+03  0.17766248046E+03  0.00000000000E+00 0. -1.
          2   -1    0    0  502    0 -0.00000000000E+00 -0.00000000000E+00 -0.37396613410E+03  0.37396613410E+03  0.00000000000E+00 0. -1.
         24    2    1    2    0    0 -0.58161821276E+02  0.28858629185E+01 -0.23745487119E+03  0.25744528496E+03  0.80635806183E+02 0.  0.
         23    2    1    2    0    0 -0.73271885832E+02 -0.17269178669E+02 -0.54767969645E+02  0.13083649123E+03  0.91932927468E+02 0.  0.
        -13    1    3    3    0    0 -0.13212322360E+02  0.36724648489E+02 -0.62683568355E+02  0.73841011711E+02  0.00000000000E+00 0.  1.
         14    1    3    3    0    0 -0.44949498916E+02 -0.33838785571E+02 -0.17477130283E+03  0.18360427325E+03  0.00000000000E+00 0. -1.
        -11    1    4    4    0    0 -0.23231759638E+02  0.34159579846E+01  0.25082472475E+02  0.34358606641E+02  0.00000000000E+00 0.  1.
         11    1    4    4    0    0 -0.50040126194E+02 -0.20685136654E+02 -0.79850442120E+02  0.96477884588E+02  0.00000000000E+00 0. -1.
          1    1    1    2  501    0  0.13143370711E+03  0.14383315751E+02  0.95919187183E+02  0.16334683837E+03  0.00000000000E+00 0. -1.
<scales pt_clust_5="13000.00000" pt_clust_6="13000.00000" pt_clust_7="13000.00000" pt_clust_8="13000.00000" pt_clust_9="116.92081"></scales>
<clustering>
<clus scale="   80.636">  5  6 -1 -1</clus>
<clus scale="   91.933">  7  8 -1 -1</clus>
<clus scale="   99.465">  2  5  1 -1</clus>
<clus scale="  116.921">  1  9  2 -1</clus>
<clus scale="  116.921">  1  5  2 -1</clus>
</clustering>
</event>
<event>
 9    2  0.7820252E-005  0.1416136E+03  0.7546771E-02  0.1230504E+00
         -3   -1    0    0    0  501 -0.00000000000E+00  0.00000000000E+00  0.22914433563E+03  0.22914433563E+03  0.00000000000E+00 0.  1.
         21   -1    0    0  501  502  0.00000000000E+00 -0.00000000000E+00 -0.15148015113E+03  0.15148015113E+03  0.00000000000E+00 0.  1.
         24    2    1    2    0    0  0.24714266102E+02  0.43679577082E+02  0.17898684541E+02  0.96104738942E+02  0.79981607484E+02 0.  0.
         23    2    1    2    0    0 -0.78172455347E+02  0.36505064814E+02  0.10984560123E+03  0.17591325014E+03  0.10693859422E+03 0.  0.
        -13    1    3    3    0    0  0.47730773151E+02  0.29321216169E+02 -0.10321128795E+02  0.56960390824E+02  0.00000000000E+00 0.  1.
         14    1    3    3    0    0 -0.23016507050E+02  0.14358360913E+02  0.28219813336E+02  0.39144348118E+02  0.00000000000E+00 0. -1.
        -13    1    4    4    0    0  0.21014964505E+02 -0.60613004578E+01  0.44903564004E+02  0.49946953427E+02  0.00000000000E+00 0. -1.
         13    1    4    4    0    0 -0.99187419852E+02  0.42566365272E+02  0.64942037227E+02  0.12596629672E+03  0.00000000000E+00 0.  1.
         -4    1    1    2    0  502  0.53458189245E+02 -0.80184641896E+02 -0.50080101273E+02  0.10860649767E+03  0.00000000000E+00 0.  1.
<scales pt_clust_5="13000.00000" pt_clust_6="13000.00000" pt_clust_7="13000.00000" pt_clust_8="13000.00000" pt_clust_9="92.83610"></scales>
<clustering>
<clus scale="   79.982">  5  6 -1 -1</clus>
<clus scale="   94.423">  1  5  2 -1</clus>
<clus scale="   92.836">  2  9  1 -1</clus>
<clus scale="  106.939">  7  8 -1 -1</clus>
<clus scale="   92.836">  2  5  1 -1</clus>
</clustering>
</event>
<event>
 9    2  0.7820252E-005  0.1005345E+03  0.7546771E-02  0.1283688E+00
          2   -1    0    0  502    0 -0.00000000000E+00  0.00000000000E+00  0.24328820458E+03  0.24328820458E+03  0.00000000000E+00 0. -1.
         21   -1    0    0  501  502  0.00000000000E+00 -0.00000000000E+00 -0.12883907501E+03  0.12883907501E+03  0.00000000000E+00 0.  1.
         23    2    1    2    0    0 -0.13494230294E+02  0.31721097601E+02  0.38868710518E+02  0.10462011569E+03  0.90808973488E+02 0.  0.
         24    2    1    2    0    0  0.77609476975E+02 -0.25749803129E+02 -0.50402770359E+02  0.12602152777E+03  0.81576362537E+02 0.  0.
        -13    1    4    4    0    0  0.37628830595E+02  0.40640018995E+01 -0.63977473493E+02  0.74334124855E+02  0.00000000000E+00 0.  1.
         14    1    4    4    0    0  0.39980646379E+02 -0.29813805029E+02  0.13574703134E+02  0.51687402918E+02  0.00000000000E+00 0. -1.
        -11    1    3    3    0    0 -0.33713616038E+02  0.44088774170E+02  0.53234244346E+02  0.76904568689E+02  0.00000000000E+00 0. -1.
         11    1    3    3    0    0  0.20219385744E+02 -0.12367676568E+02 -0.14365533827E+02  0.27715547004E+02  0.00000000000E+00 0.  1.
          1    1    1    2  501    0 -0.64115246681E+02 -0.59712944721E+01  0.12598318941E+03  0.14148563612E+03  0.00000000000E+00 0. -1.
<scales pt_clust_5="13000.00000" pt_clust_6="13000.00000" pt_clust_7="13000.00000" pt_clust_8="13000.00000" pt_clust_9="64.39274"></scales>
<clustering>
<clus scale="   64.393">  2  9  1 -1</clus>
<clus scale="   81.576">  5  6 -1 -1</clus>
<clus scale="   90.809">  7  8 -1 -1</clus>
<clus scale="   92.280">  2  5  1 -1</clus>
<clus scale="   64.393">  2  5  1 -1</clus>
</clustering>
</event>
<event>
 9    2  0.7820252E-005  0.9341482E+02  0.7546771E-02  0.1305067E+00
         21   -1    0    0  501  502  0.00000000000E+00  0.00000000000E+00  0.89225976098E+02  0.89225976098E+02  0.00000000000E+00 0.  1.
          2   -1    0    0  502    0 -0.00000000000E+00 -0.00000000000E+00 -0.26152810927E+03  0.26152810927E+03  0.00000000000E+00 0. -1.
         24    2    1    2    0    0  0.62115154417E+01 -0.22962217370E+02 -0.21119259785E+03  0.22492172324E+03  0.73631663340E+02 0.  0.
         23    2    1    2    0    0  0.17527879366E+02  0.24984644838E+02  0.26822560150E+02  0.99124996134E+02  0.90414910788E+02 0.  0.
        -11    1    3    3    0    0  0.16672343126E+02  0.12036919309E+02 -0.15244588682E+02  0.25597889284E+02  0.00000000000E+00 0.  1.
         12    1    3    3    0    0 -0.10460827684E+02 -0.34999136679E+02 -0.19594800917E+03  0.19932383396E+03  0.00000000000E+00 0. -1.
        -11    1    4    4    0    0 -0.16591376852E+02  0.49293512656E+02  0.60408758061E+01  0.52360446487E+02  0.00000000000E+00 0.  1.
         11    1    4    4    0    0  0.34119256218E+02 -0.24308867819E+02  0.20781684344E+02  0.46764549647E+02  0.00000000000E+00 0. -1.
          1    1    1    2  501    0 -0.23739394808E+02 -0.20224274680E+01  0.12067904530E+02  0.26707365996E+02  0.00000000000E+00 0. -1.
<scales pt_clust_5="13000.00000" pt_clust_6="13000.00000" pt_clust_7="13000.00000" pt_clust_8="13000.00000" pt_clust_9="23.82539"></scales>
<clustering>
<clus scale="   23.825">  1  9  2 -1</clus>
<clus scale="   73.632">  5  6 -1 -1</clus>
<clus scale="   77.286">  2  5  1 -1</clus>
<clus scale="   90.415">  7  8 -1 -1</clus>
<clus scale="   23.825">  1  5  2 -1</clus>
</clustering>
</event>
<event>
 9    2  0.7820252E-005  0.1263274E+03  0.7546771E-02  0.1252182E+00
         21   -1    0    0  501  502  0.00000000000E+00  0.00000000000E+00  0.10901930341E+03  0.10901930341E+03  0.00000000000E+00 0.  1.
          2   -1    0    0  502    0 -0.00000000000E+00 -0.00000000000E+00 -0.41084247968E+03  0.41084247968E+03  0.00000000000E+00 0. -1.
         24    2    1    2    0    0  0.26498984481E+02 -0.12948415763E+02 -0.19312420192E+03  0.21129479947E+03  0.80490230894E+02 0.  0.
         23    2    1    2    0    0  0.27835197134E+02  0.82262274455E+02  0.42434086600E+02  0.13364466825E+03  0.92294992548E+02 0.  0.
        -13    1    3    3    0    0  0.22582958347E+02  0.26854119240E+02 -0.40823272016E+02  0.53830040553E+02  0.00000000000E+00 0.  1.
         14    1    3    3    0    0  0.39160261337E+01 -0.39802535002E+02 -0.15230092990E+03  0.15746475892E+03  0.00000000000E+00 0. -1.
        -13    1    4    4    0    0  0.24112950551E+02  0.14221313684E+01 -0.20059224141E+02  0.31397918961E+02  0.00000000000E+00 0. -1.
         13    1    4    4    0    0  0.37222465832E+01  0.80840143087E+02  0.62493310741E+02  0.10224674929E+03  0.00000000000E+00 0.  1.
          1    1    1    2  501    0 -0.54334181615E+02 -0.69313858692E+02 -0.15113306096E+03  0.17492231536E+03  0.00000000000E+00 0. -1.
<scales pt_clust_5="13000.00000" pt_clust_6="13000.00000" pt_clust_7="13000.00000" pt_clust_8="13000.00000" pt_clust_9="86.25687"></scales>
<clustering>
<clus scale="   80.490">  5  6 -1 -1</clus>
<clus scale="   85.724">  2  5  1 -1</clus>
<clus scale="   86.257">  1  9  2 -1</clus>
<clus scale="   92.295">  7  8 -1 -1</clus>
<clus scale="   86.257">  1  5  2 -1</clus>
</clustering>
</event>
<event>
 9    2  0.7820252E-005  0.1348915E+03  0.7546771E-02  0.1223102E+00
          2   -1    0    0  502    0 -0.00000000000E+00  0.00000000000E+00  0.10479726022E+03  0.10479726022E+03  0.00000000000E+00 0. -1.
         21   -1    0    0  501  502  0.00000000000E+00 -0.00000000000E+00 -0.27888897235E+03  0.27888897235E+03  0.00000000000E+00 0. -1.
         23    2    1    2    0    0 -0.79542951501E+02  0.69315660945E+02 -0.11410197062E+02  0.13996855706E+03  0.91264792680E+02 0.  0.
         24    2    1    2    0    0  0.38531611269E+02 -0.87913337852E+02 -0.76250581936E+02  0.14625942899E+03  0.79776119760E+02 0.  0.
        -13    1    4    4    0    0 -0.24264670151E+02 -0.23441219435E+02 -0.12548758814E+02  0.35996337785E+02  0.00000000000E+00 0.  1.
         14    1    4    4    0    0  0.62796281420E+02 -0.64472118417E+02 -0.63701823122E+02  0.11026309121E+03  0.00000000000E+00 0. -1.
        -13    1    3    3    0    0 -0.64290222551E+02  0.13320738818E+02  0.26333095064E+02  0.70739710870E+02  0.00000000000E+00 0. -1.
         13    1    3    3    0    0 -0.15252728950E+02  0.55994922126E+02 -0.37743292126E+02  0.69228846190E+02  0.00000000000E+00 0.  1.
          1    1    1    2  501    0  0.41011340232E+02  0.18597676908E+02 -0.86430933127E+02  0.97458246522E+02  0.00000000000E+00 0. -1.
<scales pt_clust_5="13000.00000" pt_clust_6="13000.00000" pt_clust_7="13000.00000" pt_clust_8="13000.00000" pt_clust_9="45.03114"></scales>
<clustering>
<clus scale="   45.031">  2  9  1 -1</clus>
<clus scale="   79.776">  5  6 -1 -1</clus>
<clus scale="   91.265">  7  8 -1 -1</clus>
<clus scale="  127.400">  2  5  1 -1</clus>
<clus scale="   45.031">  2  5  1 -1</clus>
</clustering>
</event>
<event>
 9    2  0.7820252E-005  0.9907659E+02  0.7546771E-02  0.1283498E+00
         21   -1    0    0  501  502  0.00000000000E+00  0.00000000000E+00  0.17072116968E+03  0.17072116968E+03  0.00000000000E+00 0.  1.
          4   -1    0    0  502    0 -0.00000000000E+00 -0.00000000000E+00 -0.75041615882E+02  0.75041615882E+02  0.00000000000E+00 0. -1.
         24    2    1    2    0    0  0.27380436737E+02 -0.38847983610E+02  0.70311485617E+01  0.10033431560E+03  0.88083390551E+02 0.  0.
         23    2    1    2    0    0 -0.14507463088E+02  0.22573774122E+02  0.71501231371E+02  0.11851028063E+03  0.90621293111E+02 0.  0.
        -11    1    3    3    0    0  0.31299230189E+02  0.17701530429E+02  0.21415947164E+02  0.41852464478E+02  0.00000000000E+00 0.  1.
         12    1    3    3    0    0 -0.39187934522E+01 -0.56549514039E+02 -0.14384798602E+02  0.58481851125E+02  0.00000000000E+00 0. -1.
        -11    1    4    4    0    0 -0.35573609508E+02  0.29000848533E+02  0.23730541290E+01  0.45958266884E+02  0.00000000000E+00 0. -1.
         11    1    4    4    0    0  0.21066146420E+02 -0.64270744110E+01  0.69128177242E+02  0.72552013751E+02  0.00000000000E+00 0.  1.
          3    1    1    2  501    0 -0.12872973649E+02  0.16274209488E+02  0.17147173867E+02  0.26918189327E+02  0.00000000000E+00 0. -1.
<scales pt_clust_5="13000.00000" pt_clust_6="13000.00000" pt_clust_7="13000.00000" pt_clust_8="13000.00000" pt_clust_9="20.75002"></scales>
<clustering>
<clus scale="   20.750">  1  9  2 -1</clus>
<clus scale="   88.083">  5  6 -1 -1</clus>
<clus scale="   90.621">  7  8 -1 -1</clus>
<clus scale="   96.761">  2  5  1 -1</clus>
<clus scale="   20.750">  1  5  2 -1</clus>
</clustering>
</event>
<event>
 9    2  0.7820252E-005  0.1636168E+03  0.7546771E-02  0.1186044E+00
         21   -1    0    0  501  502  0.00000000000E+00  0.00000000000E+00  0.57565846167E+03  0.57565846167E+03  0.00000000000E+00 0. -1.
         -1   -1    0    0    0  501 -0.00000000000E+00 -0.00000000000E+00 -0.10476254810E+03  0.10476254810E+03  0.00000000000E+00 0.  1.
         23    2    1    2    0    0 -0.61651886965E+02 -0.12919968017E+03 -0.67154847372E+01  0.16918816988E+03  0.89922336323E+02 0.  0.
         24    2    1    2    0    0  0.21886924126E+02  0.10890872649E+03  0.34466455516E+03  0.37099076999E+03  0.80624733658E+02 0.  0.
        -13    1    4    4    0    0 -0.20296342369E+02  0.28253378728E+01  0.83255893891E+02  0.85740701625E+02  0.00000000000E+00 0.  1.
         14    1    4    4    0    0  0.42183266495E+02  0.10608338862E+03  0.26140866127E+03  0.28525006836E+03  0.00000000000E+00 0. -1.
        -13    1    3    3    0    0  0.14206026768E+01 -0.85719501390E+02 -0.27104917278E+02  0.89914000974E+02  0.00000000000E+00 0.  1.
         13    1    3    3    0    0 -0.63072489642E+02 -0.43480178778E+02  0.20389432541E+02  0.79274168905E+02  0.00000000000E+00 0. -1.
         -2    1    1    2    0  502  0.39764962839E+02  0.20290953676E+02  0.13294684314E+03  0.14024206991E+03  0.00000000000E+00 0.  1.
<scales pt_clust_5="13000.00000" pt_clust_6="13000.00000" pt_clust_7="13000.00000" pt_clust_8="13000.00000" pt_clust_9="44.64275"></scales>
<clustering>
<clus scale="   44.643">  1  9  2 -1</clus>
<clus scale="   80.625">  5  6 -1 -1</clus>
<clus scale="   89.922">  7  8 -1 -1</clus>
<clus scale="  158.697">  1  5  2 -1</clus>
<clus scale="   44.643">  1  5  2 -1</clus>
</clustering>
</event>
<event>
 9    2  0.7820252E-005  0.9137469E+02  0.7546771E-02  0.1300476E+00
         21   -1    0    0  501  502  0.00000000000E+00  0.00000000000E+00  0.75798810594E+02  0.75798810594E+02  0.00000000000E+00 0.  1.
          2   -1    0    0  502    0 -0.00000000000E+00 -0.00000000000E+00 -0.41083872040E+03  0.41083872040E+03  0.00000000000E+00 0. -1.
         24    2    1    2    0    0  0.33603501317E+02  0.18782483432E+02 -0.30110529277E+03  0.31396070390E+03  0.80155781295E+02 0.  0.
         23    2    1    2    0    0 -0.64216851539E+02 -0.10299834008E+02  0.23383045284E+02  0.10714479701E+03  0.81873989259E+02 0.  0.
        -11    1    3    3    0    0  0.81099546202E+00  0.40076555641E+02 -0.22345554333E+03  0.22702239508E+03  0.00000000000E+00 0.  1.
         12    1    3    3    0    0  0.32792505855E+02 -0.21294072209E+02 -0.77649749447E+02  0.86938308821E+02  0.00000000000E+00 0. -1.
        -11    1    4    4    0    0 -0.40318473548E+02 -0.12573427540E+02 -0.27834094330E+02  0.50580699842E+02  0.00000000000E+00 0. -1.
         11    1    4    4    0    0 -0.23898377991E+02  0.22735935327E+01  0.51217139613E+02  0.56564097167E+02  0.00000000000E+00 0.  1.
          1    1    1    2  501    0  0.30613350222E+02 -0.84826494239E+01 -0.57317662313E+02  0.65532030078E+02  0.00000000000E+00 0. -1.
<scales pt_clust_5="13000.00000" pt_clust_6="13000.00000" pt_clust_7="13000.00000" pt_clust_8="13000.00000" pt_clust_9="31.76686"></scales>
<clustering>
<clus scale="   31.767">  1  9  2 -1</clus>
<clus scale="   80.156">  5  6 -1 -1</clus>
<clus scale="   81.874">  7  8 -1 -1</clus>
<clus scale="   89.838">  2  5  1 -1</clus>
<clus scale="   31.767">  1  5  2 -1</clus>
</clustering>
</event>
<event>
 9    2  0.7820252E-005  0.2042567E+03  0.7546771E-02  0.1182173E+00
          2   -1    0    0  502    0 -0.00000000000E+00  0.00000000000E+00  0.17185544305E+04  0.17185544305E+04  0.00000000000E+00 0. -1.
         21   -1    0    0  501  502  0.00000000000E+00 -0.00000000000E+00 -0.36051028262E+02  0.36051028262E+02  0.00000000000E+00 0. -1.
         24    2    1    2    0    0 -0.32728986580E+02  0.73365930703E+00  0.51323409955E+03  0.52088171559E+03  0.82684919307E+02 0.  0.
         23    2    1    2    0    0 -0.14579453034E+03 -0.92431941851E+02  0.63601310854E+03  0.66395063946E+03  0.80734555508E+02 0.  0.
        -11    1    3    3    0    0 -0.11034858401E+02 -0.22458258040E+02  0.44339870686E+02  0.50913314433E+02  0.00000000000E+00 0.  1.
         12    1    3    3    0    0 -0.21694128179E+02  0.23191917347E+02  0.46889422886E+03  0.46996840116E+03  0.00000000000E+00 0. -1.
        -11    1    4    4    0    0 -0.15232810821E+03 -0.71280990656E+02  0.57239580203E+03  0.59659180883E+03  0.00000000000E+00 0. -1.
         11    1    4    4    0    0  0.65335778739E+01 -0.21150951195E+02  0.63617306508E+02  0.67358830628E+02  0.00000000000E+00 0.  1.
          1    1    1    2  501    0  0.17852351692E+03  0.91698282544E+02  0.53325619420E+03  0.56977310376E+03  0.00000000000E+00 0. -1.
<scales pt_clust_5="13000.00000" pt_clust_6="13000.00000" pt_clust_7="13000.00000" pt_clust_8="13000.00000" pt_clust_9="187.62396"></scales>
<clustering>
<clus scale="   80.735">  7  8 -1 -1</clus>
<clus scale="   82.685">  5  6 -1 -1</clus>
<clus scale="   88.930">  1  5  2 -1</clus>
<clus scale="  187.624">  2  9  1 -1</clus>
<clus scale="  187.624">  2  5  1 -1</clus>
</clustering>
</event>
<event>
 9    2  0.7820252E-005  0.1586397E+03  0.7546771E-02  0.1207515E+00
         21   -1    0    0  501  502  0.00000000000E+00  0.00000000000E+00  0.87323586782E+03  0.87323586782E+03  0.00000000000E+00 0. -1.
          2   -1    0    0  502    0 -0.00000000000E+00 -0.00000000000E+00 -0.74992857255E+02  0.74992857255E+02  0.00000000000E+00 0. -1.
         23    2    1    2    0    0  0.11306277771E+01 -0.57926049471E+02  0.79922067736E+02  0.13510601901E+03  0.92246376266E+02 0.  0.
         24    2    1    2    0    0  0.12868264583E+03  0.64489971889E+01  0.10730891490E+03  0.18635554740E+03  0.81316504628E+02 0.  0.
        -13    1    4    4    0    0  0.46884594459E+02 -0.25413011251E+02  0.81935931845E+01  0.53954808013E+02  0.00000000000E+00 0.  1.
         14    1    4    4    0    0  0.81798051373E+02  0.31862008440E+02  0.99115321715E+02  0.13240073938E+03  0.00000000000E+00 0. -1.
        -13    1    3    3    0    0  0.19848858998E+02 -0.42894166042E+02 -0.43665347180E+01  0.47465285309E+02  0.00000000000E+00 0. -1.
         13    1    3    3    0    0 -0.18718231221E+02 -0.15031883429E+02  0.84288602454E+02  0.87640733698E+02  0.00000000000E+00 0.  1.
          1    1    1    2  501    0 -0.12981327361E+03  0.51477052282E+02  0.61101202793E+03  0.62676715867E+03  0.00000000000E+00 0. -1.
<scales pt_clust_5="13000.00000" pt_clust_6="13000.00000" pt_clust_7="13000.00000" pt_clust_8="13000.00000" pt_clust_9="136.21375"></scales>
<clustering>
<clus scale="   81.317">  5  6 -1 -1</clus>
<clus scale="   92.246">  7  8 -1 -1</clus>
<clus scale="  108.932">  2  7  1 -1</clus>
<clus scale="  136.214">  1  9  2 -1</clus>
<clus scale="  136.214">  1  5  2 -1</clus>
</clustering>
</event>
<event>
 9    2  0.7820252E-005  0.9437241E+02  0.7546771E-02  0.1300149E+00
          2   -1    0    0  502    0 -0.00000000000E+00  0.00000000000E+00  0.73579863068E+03  0.73579863068E+03  0.00000000000E+00 0. -1.
         21   -1    0    0  501  502  0.00000000000E+00 -0.00000000000E+00 -0.48534524626E+02  0.48534524626E+02  0.00000000000E+00 0.  1.
         24    2    1    2    0    0  0.14302336152E+02 -0.11123924491E+02  0.62974305579E+03  0.63510462998E+03  0.80332286075E+02 0.  0.
         23    2    1    2    0    0 -0.35549910935E+01 -0.15360701648E+02  0.11316133659E+02  0.94897731427E+02  0.92892063343E+02 0.  0.
        -13    1    3    3    0    0 -0.18303266058E+02 -0.28564718753E+02  0.14342300559E+03  0.14738083742E+03  0.00000000000E+00 0.  1.
         14    1    3    3    0    0  0.32605602210E+02  0.17440794262E+02  0.48632005021E+03  0.48772379256E+03  0.00000000000E+00 0. -1.
        -11    1    4    4    0    0  0.19700608952E+01  0.39265378121E+02  0.49446925105E+01  0.39624500539E+02  0.00000000000E+00 0.  1.
         11    1    4    4    0    0 -0.55250519887E+01 -0.54626079770E+02  0.63714411484E+01  0.55273230888E+02  0.00000000000E+00 0. -1.
          1    1    1    2  501    0 -0.10747345058E+02  0.26484626139E+02  0.46204916597E+02  0.54330793895E+02  0.00000000000E+00 0. -1.
<scales pt_clust_5="13000.00000" pt_clust_6="13000.00000" pt_clust_7="13000.00000" pt_clust_8="13000.00000" pt_clust_9="28.58218"></scales>
<clustering>
<clus scale="   28.582">  2  9  1 -1</clus>
<clus scale="   80.332">  5  6 -1 -1</clus>
<clus scale="   82.040">  1  5  2 -1</clus>
<clus scale="   92.892">  7  8 -1 -1</clus>
<clus scale="   28.582">  2  5  1 -1</clus>
</clustering>
</event>
<event>
 9    2  0.7820252E-005  0.1332849E+03  0.7546771E-02  0.1234579E+00
          2   -1    0    0  502    0 -0.00000000000E+00  0.00000000000E+00  0.80441535151E+03  0.80441535151E+03  0.00000000000E+00 0. -1.
         21   -1    0    0  501  502  0.00000000000E+00 -0.00000000000E+00 -0.39433630295E+02  0.39433630295E+02  0.00000000000E+00 0. -1.
         23    2    1    2    0    0  0.16472061455E+02  0.55878760356E+02  0.29668296409E+03  0.31443301095E+03  0.86334075113E+02 0.  0.
         24    2    1    2    0    0 -0.72377219465E+02  0.55451725387E+02  0.23869057996E+03  0.26818852443E+03  0.81477211086E+02 0.  0.
        -11    1    4    4    0    0 -0.11782283947E+02 -0.21186265201E+02  0.39898101792E+02  0.46685528537E+02  0.00000000000E+00 0.  1.
         12    1    4    4    0    0 -0.60594935517E+02  0.76637990588E+02  0.19879247817E+03  0.22150299589E+03  0.00000000000E+00 0. -1.
        -13    1    3    3    0    0  0.12696588502E+02 -0.16851400774E+02  0.22938651874E+02  0.31166565699E+02  0.00000000000E+00 0. -1.
         13    1    3    3    0    0  0.37754729531E+01  0.72730161131E+02  0.27374431221E+03  0.28326644525E+03  0.00000000000E+00 0.  1.
          1    1    1    2  501    0  0.55905158009E+02 -0.11133048574E+03  0.22960817717E+03  0.26122744644E+03  0.00000000000E+00 0. -1.
<scales pt_clust_5="13000.00000" pt_clust_6="13000.00000" pt_clust_7="13000.00000" pt_clust_8="13000.00000" pt_clust_9="105.48147"></scales>
<clustering>
<clus scale="   81.477">  5  6 -1 -1</clus>
<clus scale="   86.334">  7  8 -1 -1</clus>
<clus scale="  104.151">  1  7  2 -1</clus>
<clus scale="  105.481">  2  9  1 -1</clus>
<clus scale="  105.481">  2  5  1 -1</clus>
</clustering>
</event>
<event>
 9    2  0.7820252E-005  0.1093927E+03  0.7546771E-02  0.1265658E+00
          2   -1    0    0  502    0 -0.00000000000E+00  0.00000000000E+00  0.10928922882E+04  0.10928922882E+04  0.00000000000E+00 0. -1.
         21   -1    0    0  501  502  0.00000000000E+00 -0.00000000000E+00 -0.35802045184E+02  0.35802045184E+02  0.00000000000E+00 0.  1.
         24    2    1    2    0    0 -0.16358693360E+02 -0.74530129463E+02  0.70087441335E+03  0.70974796627E+03  0.81822278700E+02 0.  0.
         23    2    1    2    0    0  0.57926468213E+02 -0.25315286595E+02  0.16102348254E+03  0.19579386457E+03  0.91707884165E+02 0.  0.
        -13    1    3    3    0    0 -0.16031747187E+02  0.12685424407E+02  0.71706157894E+02  0.74563462836E+02  0.00000000000E+00 0.  1.
         14    1    3    3    0    0 -0.32694617284E+00 -0.87215553870E+02  0.62916825546E+03  0.63518450343E+03  0.00000000000E+00 0. -1.
        -13    1    4    4    0    0 -0.14920184319E+01  0.29345577230E+02  0.56871657181E+02  0.64013861097E+02  0.00000000000E+00 0. -1.
         13    1    4    4    0    0  0.59418486645E+02 -0.54660863825E+02  0.10415182536E+03  0.13178000347E+03  0.00000000000E+00 0.  1.
          1    1    1    2  501    0 -0.41567774854E+02  0.99845416058E+02  0.19519234710E+03  0.22315250252E+03  0.00000000000E+00 0. -1.
<scales pt_clust_5="13000.00000" pt_clust_6="13000.00000" pt_clust_7="13000.00000" pt_clust_8="13000.00000" pt_clust_9="108.15261"></scales>
<clustering>
<clus scale="   81.822">  5  6 -1 -1</clus>
<clus scale="   91.708">  7  8 -1 -1</clus>
<clus scale="  108.153">  2  9  1 -1</clus>
<clus scale="  101.249">  1  5  2 -1</clus>
<clus scale="  108.153">  2  5  1 -1</clus>
</clustering>
</event>
<event>
 9    2  0.7820252E-005  0.1586361E+03  0.7546771E-02  0.1197370E+00
          2   -1    0    0  502    0 -0.00000000000E+00  0.00000000000E+00  0.15370032721E+04  0.15370032721E+04  0.00000000000E+00 0. -1.
         21   -1    0    0  501  502  0.00000000000E+00 -0.00000000000E+00 -0.64072327461E+02  0.64072327461E+02  0.00000000000E+00 0.  1.
         23    2    1    2    0    0 -0.59441428744E+02 -0.81693792165E+02  0.51802752913E+02  0.14522210711E+03  0.90547093024E+02 0.  0.
         24    2    1    2    0    0  0.13374387121E+03 -0.53295603726E+02  0.76895594729E+03  0.78572542531E+03  0.73098225969E+02 0.  0.
        -13    1    4    4    0    0  0.11299486531E+02 -0.19822302963E+02  0.42259012621E+02  0.48025266666E+02  0.00000000000E+00 0.  1.
         14    1    4    4    0    0  0.12244438468E+03 -0.33473300763E+02  0.72669693467E+03  0.73770015864E+03  0.00000000000E+00 0. -1.
        -13    1    3    3    0    0 -0.47121328492E+02 -0.18238926816E+02  0.61785948388E+02  0.79815922400E+02  0.00000000000E+00 0. -1.
         13    1    3    3    0    0 -0.12320100251E+02 -0.63454865349E+02 -0.99831954753E+01  0.65406184712E+02  0.00000000000E+00 0.  1.
          1    1    1    2  501    0 -0.74302442463E+02  0.13498939589E+03  0.65217224442E+03  0.67012806713E+03  0.00000000000E+00 0. -1.
<scales pt_clust_5="13000.00000" pt_clust_6="13000.00000" pt_clust_7="13000.00000" pt_clust_8="13000.00000" pt_clust_9="140.79079"></scales>
<clustering>
<clus scale="   73.098">  5  6 -1 -1</clus>
<clus scale="   90.547">  7  8 -1 -1</clus>
<clus scale="  135.669">  1  7  2 -1</clus>
<clus scale="  140.791">  2  9  1 -1</clus>
<clus scale="  140.791">  2  5  1 -1</clus>
</clustering>
</event>
<event>
 9    2  0.7820252E-005  0.1540198E+03  0.7546771E-02  0.1197277E+00
         21   -1    0    0  501  502  0.00000000000E+00  0.00000000000E+00  0.56865103144E+02  0.56865103144E+02  0.00000000000E+00 0.  1.
         -1   -1    0    0    0  501 -0.00000000000E+00 -0.00000000000E+00 -0.65694876548E+03  0.65694876548E+03  0.00000000000E+00 0.  1.
         23    2    1    2    0    0  0.14422840826E+03  0.42359427195E+02 -0.42193442593E+03  0.45685843439E+03  0.89971186857E+02 0.  0.
         24    2    1    2    0    0 -0.81353681540E+02 -0.41078247335E+02 -0.12889145219E+03  0.17707300820E+03  0.80224683751E+02 0.  0.
        -11    1    4    4    0    0 -0.93745789106E+02 -0.47762728522E+02 -0.10107576166E+03  0.14589674707E+03  0.00000000000E+00 0.  1.
         12    1    4    4    0    0  0.12392107566E+02  0.66844811864E+01 -0.27815690528E+02  0.31176261133E+02  0.00000000000E+00 0. -1.
        -13    1    3    3    0    0  0.94717917642E+02  0.61963581653E+02 -0.21254037772E+03  0.24079946332E+03  0.00000000000E+00 0.  1.
         13    1    3    3    0    0  0.49510490623E+02 -0.19604154458E+02 -0.20939404821E+03  0.21605897107E+03  0.00000000000E+00 0. -1.
         -2    1    1    2    0  502 -0.62874726724E+02 -0.12811798596E+01 -0.49257784215E+02  0.79882426029E+02  0.00000000000E+00 0.  1.
<scales pt_clust_5="13000.00000" pt_clust_6="13000.00000" pt_clust_7="13000.00000" pt_clust_8="13000.00000" pt_clust_9="62.88778"></scales>
<clustering>
<clus scale="   62.888">  1  9  2 -1</clus>
<clus scale="   80.225">  5  6 -1 -1</clus>
<clus scale="   89.971">  7  8 -1 -1</clus>
<clus scale="  148.537">  1  5  2 -1</clus>
<clus scale="   62.888">  1  5  2 -1</clus>
</clustering>
</event>
<event>
 9    2  0.7820252E-005  0.1528585E+03  0.7546771E-02  0.1201170E+00
          2   -1    0    0  502    0 -0.00000000000E+00  0.00000000000E+00  0.12328330842E+04  0.12328330842E+04  0.00000000000E+00 0. -1.
         21   -1    0    0  501  502  0.00000000000E+00 -0.00000000000E+00 -0.28426377254E+02  0.28426377254E+02  0.00000000000E+00 0.  1.
         24    2    1    2    0    0  0.10371078361E+03  0.52757021886E+01  0.55000453415E+03  0.56522300623E+03  0.78665745554E+02 0.  0.
         23    2    1    2    0    0 -0.13826385281E+03 -0.45548057500E+02  0.41975726876E+03  0.45546628212E+03  0.10030877796E+03 0.  0.
        -11    1    3    3    0    0 -0.30597985128E+01  0.20989948188E+02  0.65681226225E+02  0.69021473255E+02  0.00000000000E+00 0.  1.
         12    1    3    3    0    0  0.10677058212E+03 -0.15714246000E+02  0.48432330792E+03  0.49620153298E+03  0.00000000000E+00 0. -1.
        -11    1    4    4    0    0 -0.10764895728E+03 -0.61710636240E+02  0.39176569304E+03  0.41094629683E+03  0.00000000000E+00 0. -1.
         11    1    4    4    0    0 -0.30614895526E+02  0.16162578740E+02  0.27991575717E+02  0.44519985295E+02  0.00000000000E+00 0.  1.
          1    1    1    2  501    0  0.34553069200E+02  0.40272355312E+02  0.23464490408E+03  0.24057017314E+03  0.00000000000E+00 0. -1.
<scales pt_clust_5="13000.00000" pt_clust_6="13000.00000" pt_clust_7="13000.00000" pt_clust_8="13000.00000" pt_clust_9="53.06392"></scales>
<clustering>
<clus scale="   53.064">  2  9  1 -1</clus>
<clus scale="   78.666">  5  6 -1 -1</clus>
<clus scale="  100.309">  7  8 -1 -1</clus>
<clus scale="  139.614">  1  5  2 -1</clus>
<clus scale="   53.064">  2  5  1 -1</clus>
</clustering>
</event>
<event>
 9    2  0.7820252E-005  0.9747346E+02  0.7546771E-02  0.1294402E+00
          2   -1    0    0  502    0 -0.00000000000E+00  0.00000000000E+00  0.69787243590E+03  0.69787243590E+03  0.00000000000E+00 0. -1.
         21   -1    0    0  501  502  0.00000000000E+00 -0.00000000000E+00 -0.55005488000E+03  0.55005488000E+03  0.00000000000E+00 0. -1.
         24    2    1    2    0    0 -0.11531603751E+02 -0.16697240753E+02  0.66507049318E+03  0.67019784525E+03  0.80216052945E+02 0.  0.
         23    2    1    2    0    0  0.48208339155E+02  0.62523885121E+02 -0.50208177848E+03  0.51710415982E+03  0.95274968582E+02 0.  0.
        -11    1    3    3    0    0 -0.15590221871E+02  0.23933994394E+02  0.11070764257E+03  0.11433316767E+03  0.00000000000E+00 0.  1.
         12    1    3    3    0    0  0.40586181206E+01 -0.40631235147E+02  0.55436285061E+03  0.55586467758E+03  0.00000000000E+00 0. -1.
        -11    1    4    4    0    0 -0.13987809635E+02  0.46638054704E+02 -0.11729446055E+03  0.12699904504E+03  0.00000000000E+00 0.  1.
         11    1    4    4    0    0  0.62196148790E+02  0.15885830416E+02 -0.38478731794E+03  0.39010511478E+03  0.00000000000E+00 0. -1.
          1    1    1    2  501    0 -0.36676735404E+02 -0.45826644368E+02 -0.15171158799E+02  0.60625310830E+02  0.00000000000E+00 0. -1.
<scales pt_clust_5="13000.00000" pt_clust_6="13000.00000" pt_clust_7="13000.00000" pt_clust_8="13000.00000" pt_clust_9="58.69637"></scales>
<clustering>
<clus scale="   58.696">  2  9  1 -1</clus>
<clus scale="   80.216">  5  6 -1 -1</clus>
<clus scale="   82.815">  1  5  2 -1</clus>
<clus scale="   95.275">  7  8 -1 -1</clus>
<clus scale="   58.696">  2  5  1 -1</clus>
</clustering>
</event>
<event>
 9    2  0.7820252E-005  0.1224921E+03  0.7546771E-02  0.1240076E+00
         21   -1    0    0  501  502  0.00000000000E+00  0.00000000000E+00  0.64439541674E+02  0.64439541674E+02  0.00000000000E+00 0. -1.
          2   -1    0    0  502    0 -0.00000000000E+00 -0.00000000000E+00 -0.72528250324E+03  0.72528250324E+03  0.00000000000E+00 0. -1.
         24    2    1    2    0    0  0.75364435797E+02  0.65772979576E+02 -0.52441193562E+03  0.53981075754E+03  0.79886749263E+02 0.  0.
         23    2    1    2    0    0 -0.29956933377E+01 -0.79835630356E+02 -0.13277018231E+03  0.17609804460E+03  0.83665392777E+02 0.  0.
        -11    1    3    3    0    0  0.12815122621E+02  0.54037611979E+02 -0.14840432313E+03  0.15845546378E+03  0.00000000000E+00 0.  1.
         12    1    3    3    0    0  0.62549313177E+02  0.11735367597E+02 -0.37600761249E+03  0.38135529376E+03  0.00000000000E+00 0. -1.
        -11    1    4    4    0    0 -0.32546102695E+02 -0.32163706082E+02 -0.10275803065E+03  0.11248540196E+03  0.00000000000E+00 0.  1.
         11    1    4    4    0    0  0.29550409357E+02 -0.47671924274E+02 -0.30012151658E+02  0.63612642645E+02  0.00000000000E+00 0. -1.
          1    1    1    2  501    0 -0.72368742460E+02  0.14062650780E+02 -0.36608436310E+01  0.73813242770E+02  0.00000000000E+00 0. -1.
<scales pt_clust_5="13000.00000" pt_clust_6="13000.00000" pt_clust_7="13000.00000" pt_clust_8="13000.00000" pt_clust_9="73.72241"></scales>
<clustering>
<clus scale="   73.722">  1  9  2 -1</clus>
<clus scale="   79.887">  5  6 -1 -1</clus>
<clus scale="   83.665">  7  8 -1 -1</clus>
<clus scale="  119.943">  2  5  1 -1</clus>
<clus scale="   73.722">  1  5  2 -1</clus>
</clustering>
</event>
<event>
 9    2  0.7820252E-005  0.1128609E+03  0.7546771E-02  0.1268226E+00
          4   -1    0    0  502    0 -0.00000000000E+00  0.00000000000E+00  0.33268202521E+03  0.33268202521E+03  0.00000000000E+00 0. -1.
         21   -1    0    0  501  502  0.00000000000E+00 -0.00000000000E+00 -0.10255575533E+03  0.10255575533E+03  0.00000000000E+00 0.  1.
         24    2    1    2    0    0  0.39641960882E+02 -0.28573152650E+01  0.34566286646E+02  0.94275715686E+02  0.78188445966E+02 0.  0.
         23    2    1    2    0    0  0.51238808935E+02  0.29555690982E+02 -0.14570400618E+02  0.11046934087E+03  0.92153265200E+02 0.  0.
        -11    1    3    3    0    0  0.61637948401E+02  0.96768192984E+01  0.24414132452E+02  0.66999458044E+02  0.00000000000E+00 0.  1.
         12    1    3    3    0    0 -0.21995987519E+02 -0.12534134563E+02  0.10152154193E+02  0.27276257642E+02  0.00000000000E+00 0. -1.
        -11    1    4    4    0    0  0.17106968726E+02  0.44065228023E+02 -0.42872868102E+02  0.63815950349E+02  0.00000000000E+00 0.  1.
         11    1    4    4    0    0  0.34131840209E+02 -0.14509537041E+02  0.28302467484E+02  0.46653390518E+02  0.00000000000E+00 0. -1.
          3    1    1    2  501    0 -0.90880769817E+02 -0.26698375717E+02  0.21013038385E+03  0.23049272398E+03  0.00000000000E+00 0. -1.
<scales pt_clust_5="13000.00000" pt_clust_6="13000.00000" pt_clust_7="13000.00000" pt_clust_8="13000.00000" pt_clust_9="65.15643"></scales>
<clustering>
<clus scale="   78.188">  5  6 -1 -1</clus>
<clus scale="   87.710">  1  5  2 -1</clus>
<clus scale="   65.156">  2  9  1 -1</clus>
<clus scale="   92.153">  7  8 -1 -1</clus>
<clus scale="   65.156">  2  5  1 -1</clus>
</clustering>
</event>
<event>
 9    2  0.7820252E-005  0.1870679E+03  0.7546771E-02  0.1181986E+00
         21   -1    0    0  501  502  0.00000000000E+00  0.00000000000E+00  0.44221967100E+03  0.44221967100E+03  0.00000000000E+00 0. -1.
         -1   -1    0    0    0  501 -0.00000000000E+00 -0.00000000000E+00 -0.25314637724E+03  0.25314637724E+03  0.00000000000E+00 0.  1.
         24    2    1    2    0    0 -0.56997697524E+02  0.64125646913E+02  0.17727770564E+03  0.21199337107E+03  0.78440858918E+02 0.  0.
         23    2    1    2    0    0  0.15254690125E+03  0.72704050319E+02 -0.15602714581E+03  0.24669465453E+03  0.89203959179E+02 0.  0.
        -13    1    3    3    0    0 -0.53775677038E+02  0.79476677310E+02  0.12606346603E+03  0.15843094125E+03  0.00000000000E+00 0.  1.
         14    1    3    3    0    0 -0.32220204859E+01 -0.15351030397E+02  0.51214239602E+02  0.53562429821E+02  0.00000000000E+00 0. -1.
        -13    1    4    4    0    0  0.14385643648E+03  0.52266606444E+02 -0.16282501626E+03  0.22346914415E+03  0.00000000000E+00 0. -1.
         13    1    4    4    0    0  0.86904647695E+01  0.20437443875E+02  0.67978704522E+01  0.23225510387E+02  0.00000000000E+00 0.  1.
         -2    1    1    2    0  502 -0.95549203724E+02 -0.13682969723E+03  0.16782273392E+03  0.23667802264E+03  0.00000000000E+00 0.  1.
<scales pt_clust_5="13000.00000" pt_clust_6="13000.00000" pt_clust_7="13000.00000" pt_clust_8="13000.00000" pt_clust_9="164.42942"></scales>
<clustering>
<clus scale="   78.441">  5  6 -1 -1</clus>
<clus scale="   89.204">  7  8 -1 -1</clus>
<clus scale="  116.249">  2  5  1 -1</clus>
<clus scale="  164.429">  1  9  2 -1</clus>
<clus scale="  164.429">  1  5  2 -1</clus>
</clustering>
</event>
<event>
 9    2  0.7820252E-005  0.9129079E+02  0.7546771E-02  0.1300143E+00
         21   -1    0    0  501  502  0.00000000000E+00  0.00000000000E+00  0.65522769204E+02  0.65522769204E+02  0.00000000000E+00 0. -1.
          2   -1    0    0  502    0 -0.00000000000E+00 -0.00000000000E+00 -0.19670967993E+03  0.19670967993E+03  0.00000000000E+00 0. -1.
         23    2    1    2    0    0 -0.27772805749E+01 -0.16350160768E+02 -0.60627577703E+02  0.11078692859E+03  0.91230473662E+02 0.  0.
         24    2    1    2    0    0 -0.82630391691E+01 -0.22244915527E+02 -0.53345071318E+02  0.10776715770E+03  0.90581176640E+02 0.  0.
        -11    1    4    4    0    0 -0.31174075485E+02 -0.30382193032E+02  0.57096492780E+01  0.43903311158E+02  0.00000000000E+00 0.  1.
         12    1    4    4    0    0  0.22911036316E+02  0.81372775045E+01 -0.59054720597E+02  0.63863846541E+02  0.00000000000E+00 0. -1.
        -11    1    3    3    0    0  0.14858502477E+02 -0.48007978442E+02 -0.54323700245E+02  0.74004091091E+02  0.00000000000E+00 0. -1.
         11    1    3    3    0    0 -0.17635783052E+02  0.31657817674E+02 -0.63038774575E+01  0.36782837502E+02  0.00000000000E+00 0.  1.
          1    1    1    2  501    0  0.11040319744E+02  0.38595076295E+02 -0.17214261700E+02  0.43678362837E+02  0.00000000000E+00 0. -1.
<scales pt_clust_5="13000.00000" pt_clust_6="13000.00000" pt_clust_7="13000.00000" pt_clust_8="13000.00000" pt_clust_9="40.14310"></scales>
<clustering>
<clus scale="   40.143">  1  9  2 -1</clus>
<clus scale="   90.581">  5  6 -1 -1</clus>
<clus scale="   90.642">  1  5  2 -1</clus>
<clus scale="   91.230">  7  8 -1 -1</clus>
<clus scale="   40.143">  1  5  2 -1</clus>
</clustering>
</event>
<event>
 9    2  0.7820252E-005  0.9590136E+02  0.7546771E-02  0.1299749E+00
         21   -1    0    0  501  502  0.00000000000E+00  0.00000000000E+00  0.90122563162E+02  0.90122563162E+02  0.00000000000E+00 0. -1.
         -3   -1    0    0    0  501 -0.00000000000E+00 -0.00000000000E+00 -0.19153509434E+03  0.19153509434E+03  0.00000000000E+00 0.  1.
         24    2    1    2    0    0  0.20014267044E+02  0.13475955830E+02 -0.12133738268E+03  0.14529174837E+03  0.76188971889E+02 0.  0.
         23    2    1    2    0    0  0.24719612438E+01 -0.12443076906E+02 -0.13963841594E+02  0.95682487188E+02  0.93804097604E+02 0.  0.
        -11    1    3    3    0    0  0.12794991413E+02  0.34201094602E+02 -0.11746020099E+03  0.12300538807E+03  0.00000000000E+00 0.  1.
         12    1    3    3    0    0  0.72192756307E+01 -0.20725138771E+02 -0.38771816945E+01  0.22286360304E+02  0.00000000000E+00 0. -1.
        -13    1    4    4    0    0  0.20203955053E+02  0.12460446534E+02 -0.45774367508E+02  0.51563119071E+02  0.00000000000E+00 0.  1.
         13    1    4    4    0    0 -0.17731993809E+02 -0.24903523440E+02  0.31810525914E+02  0.44119368117E+02  0.00000000000E+00 0. -1.
         -4    1    1    2    0  502 -0.22486228287E+02 -0.10328789244E+01  0.33888693096E+02  0.40683421946E+02  0.00000000000E+00 0.  1.
<scales pt_clust_5="13000.00000" pt_clust_6="13000.00000" pt_clust_7="13000.00000" pt_clust_8="13000.00000" pt_clust_9="22.50994"></scales>
<clustering>
<clus scale="   22.510">  1  9  2 -1</clus>
<clus scale="   76.189">  5  6 -1 -1</clus>
<clus scale="   78.757">  2  5  1 -1</clus>
<clus scale="   93.804">  7  8 -1 -1</clus>
<clus scale="   22.510">  1  5  2 -1</clus>
</clustering>
</event>
<event>
 9    2  0.7820252E-005  0.9535102E+02  0.7546771E-02  0.1296251E+00
         21   -1    0    0  501  502  0.00000000000E+00  0.00000000000E+00  0.16877994133E+03  0.16877994133E+03  0.00000000000E+00 0.  1.
          2   -1    0    0  502    0 -0.00000000000E+00 -0.00000000000E+00 -0.40141669074E+03  0.40141669074E+03  0.00000000000E+00 0. -1.
         24    2    1    2    0    0  0.14163575590E+02  0.23413681430E+02 -0.35545240495E+03  0.36550567339E+03  0.80617477909E+02 0.  0.
         23    2    1    2    0    0 -0.37300296179E+02 -0.47772714319E+02  0.13047010926E+03  0.17023430497E+03  0.91014970466E+02 0.  0.
        -11    1    3    3    0    0 -0.12528219966E+01 -0.29023446723E+02 -0.93377204020E+02  0.97791780090E+02  0.00000000000E+00 0.  1.
         12    1    3    3    0    0  0.15416397586E+02  0.52437128153E+02 -0.26207520093E+03  0.26771389330E+03  0.00000000000E+00 0. -1.
        -13    1    4    4    0    0  0.20498784478E+02  0.12413941766E+02  0.16988768730E+02  0.29375574517E+02  0.00000000000E+00 0. -1.
         13    1    4    4    0    0 -0.57799080657E+02 -0.60186656086E+02  0.11348134053E+03  0.14085873045E+03  0.00000000000E+00 0.  1.
          1    1    1    2  501    0  0.23136720590E+02  0.24359032890E+02 -0.76544537327E+01  0.34456653711E+02  0.00000000000E+00 0. -1.
<scales pt_clust_5="13000.00000" pt_clust_6="13000.00000" pt_clust_7="13000.00000" pt_clust_8="13000.00000" pt_clust_9="33.59569"></scales>
<clustering>
<clus scale="   33.596">  1  9  2 -1</clus>
<clus scale="   80.617">  5  6 -1 -1</clus>
<clus scale="   85.483">  2  5  1 -1</clus>
<clus scale="   91.015">  7  8 -1 -1</clus>
<clus scale="   33.596">  1  5  2 -1</clus>
</clustering>
</event>
<event>
 9    2  0.7820252E-005  0.1325580E+03  0.7546771E-02  0.1225699E+00
         21   -1    0    0  501  502  0.00000000000E+00  0.00000000000E+00  0.65308516694E+02  0.65308516694E+02  0.00000000000E+00 0.  1.
          2   -1    0    0  502    0 -0.00000000000E+00 -0.00000000000E+00 -0.56930794529E+03  0.56930794529E+03  0.00000000000E+00 0. -1.
         24    2    1    2    0    0  0.21563356502E+01 -0.10299879450E+03 -0.22403581510E+03  0.26020770833E+03  0.83081908816E+02 0.  0.
         23    2    1    2    0    0 -0.91487846241E+02  0.66712338497E+02 -0.12398098404E+03  0.19103098411E+03  0.91109770980E+02 0.  0.
        -11    1    3    3    0    0  0.19445446443E+02 -0.23841706873E+02 -0.11660483006E+02  0.32901660109E+02  0.00000000000E+00 0.  1.
         12    1    3    3    0    0 -0.17289110793E+02 -0.79157087628E+02 -0.21237533210E+03  0.22730604822E+03  0.00000000000E+00 0. -1.
        -11    1    4    4    0    0 -0.79621897605E+00  0.35552853723E+02 -0.16585651101E+01  0.35600424306E+02  0.00000000000E+00 0. -1.
         11    1    4    4    0    0 -0.90691627265E+02  0.31159484773E+02 -0.12232241893E+03  0.15543055980E+03  0.00000000000E+00 0.  1.
          1    1    1    2  501    0  0.89331510591E+02  0.36286456004E+02 -0.15598262945E+03  0.18337776955E+03  0.00000000000E+00 0. -1.
<scales pt_clust_5="13000.00000" pt_clust_6="13000.00000" pt_clust_7="13000.00000" pt_clust_8="13000.00000" pt_clust_9="96.42010"></scales>
<clustering>
<clus scale="   83.082">  5  6 -1 -1</clus>
<clus scale="   91.110">  7  8 -1 -1</clus>
<clus scale="   96.420">  1  9  2 -1</clus>
<clus scale="  127.174">  2  5  1 -1</clus>
<clus scale="   96.420">  1  5  2 -1</clus>
</clustering>
</event>
<event>
 9    2  0.7820252E-005  0.1334115E+03  0.7546771E-02  0.1234192E+00
          2   -1    0    0  502    0 -0.00000000000E+00  0.00000000000E+00  0.32007771786E+03  0.32007771786E+03  0.00000000000E+00 0. -1.
         21   -1    0    0  501  502  0.00000000000E+00 -0.00000000000E+00 -0.21326613913E+03  0.21326613913E+03  0.00000000000E+00 0. -1.
         24    2    1    2    0    0 -0.57498608774E+02 -0.32360056954E+02  0.26961711995E+03  0.28888447820E+03  0.80047405202E+02 0.  0.
         23    2    1    2    0    0  0.71617527892E+02  0.62344774292E+02 -0.13393817493E+03  0.20050767817E+03  0.11509975290E+03 0.  0.
        -13    1    3    3    0    0  0.14684575538E+02 -0.17940154365E+02  0.28264028508E+02  0.36556000942E+02  0.00000000000E+00 0.  1.
         14    1    3    3    0    0 -0.72183184312E+02 -0.14419902589E+02  0.24135309144E+03  0.25232847726E+03  0.00000000000E+00 0. -1.
        -13    1    4    4    0    0  0.33410200082E+02  0.33157616139E+02  0.10542465558E+02  0.48237045490E+02  0.00000000000E+00 0.  1.
         13    1    4    4    0    0  0.38207327809E+02  0.29187158153E+02 -0.14448064049E+03  0.15227063268E+03  0.00000000000E+00 0. -1.
          1    1    1    2  501    0 -0.14118919118E+02 -0.29984717338E+02 -0.28867366283E+02  0.43951700616E+02  0.00000000000E+00 0. -1.
<scales pt_clust_5="13000.00000" pt_clust_6="13000.00000" pt_clust_7="13000.00000" pt_clust_8="13000.00000" pt_clust_9="33.14253"></scales>
<clustering>
<clus scale="   33.143">  2  9  1 -1</clus>
<clus scale="   80.047">  5  6 -1 -1</clus>
<clus scale="  104.682">  1  5  2 -1</clus>
<clus scale="  115.100">  7  8 -1 -1</clus>
<clus scale="   33.143">  2  5  1 -1</clus>
</clustering>
</event>
<event>
 9    2  0.7820252E-005  0.1169631E+03  0.7546771E-02  0.1251323E+00
         21   -1    0    0  501  502  0.00000000000E+00  0.00000000000E+00  0.50606341088E+03  0.50606341088E+03  0.00000000000E+00 0.  1.
         -3   -1    0    0    0  501 -0.00000000000E+00 -0.00000000000E+00 -0.18035373368E+03  0.18035373368E+03  0.00000000000E+00 0.  1.
         23    2    1    2    0    0  0.15300859359E+02  0.74510118519E+02 -0.14767457225E+03  0.18961147945E+03  0.91426800187E+02 0.  0.
         24    2    1    2    0    0 -0.18679961819E+02 -0.39600565037E+02  0.19347846001E+03  0.21471109547E+03  0.82157131785E+02 0.  0.
        -13    1    4    4    0    0 -0.13200144623E+02 -0.54364485145E+02  0.19067861780E+03  0.19871606968E+03  0.00000000000E+00 0.  1.
         14    1    4    4    0    0 -0.54798171955E+01  0.14763920107E+02  0.27998422094E+01  0.15995025784E+02  0.00000000000E+00 0. -1.
        -13    1    3    3    0    0  0.22315096661E+02  0.10892661974E+02  0.38460656189E+01  0.25127790285E+02  0.00000000000E+00 0. -1.
         13    1    3    3    0    0 -0.70142373024E+01  0.63617456545E+02 -0.15152063787E+03  0.16448368917E+03  0.00000000000E+00 0.  1.
         -4    1    1    2    0  502  0.33791024597E+01 -0.34909553481E+02  0.27990578944E+03  0.28209456964E+03  0.00000000000E+00 0.  1.
<scales pt_clust_5="13000.00000" pt_clust_6="13000.00000" pt_clust_7="13000.00000" pt_clust_8="13000.00000" pt_clust_9="35.07271"></scales>
<clustering>
<clus scale="   35.073">  1  9  2 -1</clus>
<clus scale="   82.157">  5  6 -1 -1</clus>
<clus scale="   91.427">  7  8 -1 -1</clus>
<clus scale="  109.869">  1  5  2 -1</clus>
<clus scale="   35.073">  1  5  2 -1</clus>
</clustering>
</event>
<event>
 9    2  0.7820252E-005  0.9954634E+02  0.7546771E-02  0.1286639E+00
          2   -1    0    0  502    0 -0.00000000000E+00  0.00000000000E+00  0.60121822258E+03  0.60121822258E+03  0.00000000000E+00 0. -1.
         21   -1    0    0  501  502  0.00000000000E+00 -0.00000000000E+00 -0.29126197568E+02  0.29126197568E+02  0.00000000000E+00 0.  1.
         24    2    1    2    0    0  0.16080463393E+02  0.27006243000E+02  0.20235085656E+03  0.21989969308E+03  0.80137927359E+02 0.  0.
         23    2    1    2    0    0  0.12445980945E+02 -0.66555137059E+02  0.16614057981E+03  0.20108600921E+03  0.90820714213E+02 0.  0.
        -13    1    3    3    0    0  0.21823459424E+02  0.53126319065E+02  0.11496690008E+03  0.12851481344E+03  0.00000000000E+00 0.  1.
         14    1    3    3    0    0 -0.57429960302E+01 -0.26120076064E+02  0.87383956482E+02  0.91384879644E+02  0.00000000000E+00 0. -1.
        -11    1    4    4    0    0  0.18836507829E+02 -0.88454201282E+02  0.13071981089E+03  0.15895480084E+03  0.00000000000E+00 0.  1.
         11    1    4    4    0    0 -0.63905268842E+01  0.21899064223E+02  0.35420768920E+02  0.42131208368E+02  0.00000000000E+00 0. -1.
          1    1    1    2  501    0 -0.28526444339E+02  0.39548894059E+02  0.20360058865E+03  0.20935871786E+03  0.00000000000E+00 0. -1.
<scales pt_clust_5="13000.00000" pt_clust_6="13000.00000" pt_clust_7="13000.00000" pt_clust_8="13000.00000" pt_clust_9="48.76346"></scales>
<clustering>
<clus scale="   48.763">  2  9  1 -1</clus>
<clus scale="   80.138">  5  6 -1 -1</clus>
<clus scale="   89.906">  1  5  2 -1</clus>
<clus scale="   90.821">  7  8 -1 -1</clus>
<clus scale="   48.763">  2  5  1 -1</clus>
</clustering>
</event>
<event>
 9    2  0.7820252E-005  0.2267225E+03  0.7546771E-02  0.1129970E+00
         21   -1    0    0  501  502  0.00000000000E+00  0.00000000000E+00  0.87924412216E+03  0.87924412216E+03  0.00000000000E+00 0. -1.
          2   -1    0    0  502    0 -0.00000000000E+00 -0.00000000000E+00 -0.15438945717E+03  0.15438945717E+03  0.00000000000E+00 0. -1.
         23    2    1    2    0    0 -0.51748085759E+02 -0.20493759113E+03 -0.32927426184E+02  0.23343819819E+03  0.93444616433E+02 0.  0.
         24    2    1    2    0    0  0.59149130584E+02  0.16220347823E+03  0.71297333055E+03  0.73783509811E+03  0.79126948248E+02 0.  0.
        -11    1    4    4    0    0  0.16777865100E+02  0.14181402092E+03  0.54626872149E+03  0.56462574274E+03  0.00000000000E+00 0.  1.
         12    1    4    4    0    0  0.42371265485E+02  0.20389457310E+02  0.16670460906E+03  0.17320935537E+03  0.00000000000E+00 0. -1.
        -13    1    3    3    0    0 -0.66353665541E+01 -0.72051532376E+02 -0.55642016044E+02  0.91276970570E+02  0.00000000000E+00 0.  1.
         13    1    3    3    0    0 -0.45112719205E+02 -0.13288605875E+03  0.22714589860E+02  0.14216122762E+03  0.00000000000E+00 0. -1.
          1    1    1    2  501    0 -0.74010448248E+01  0.42734112901E+02  0.44808760626E+02  0.62360283023E+02  0.00000000000E+00 0. -1.
<scales pt_clust_5="13000.00000" pt_clust_6="13000.00000" pt_clust_7="13000.00000" pt_clust_8="13000.00000" pt_clust_9="43.37026"></scales>
<clustering>
<clus scale="   43.370">  1  9  2 -1</clus>
<clus scale="   79.127">  5  6 -1 -1</clus>
<clus scale="   93.445">  7  8 -1 -1</clus>
<clus scale="  221.206">  1  5  2 -1</clus>
<clus scale="   43.370">  1  5  2 -1</clus>
</clustering>
</event>
<event>
 9    2  0.7820252E-005  0.1080539E+03  0.7546771E-02  0.1269061E+00
         21   -1    0    0  501  502  0.00000000000E+00  0.00000000000E+00  0.44298782728E+03  0.44298782728E+03  0.00000000000E+00 0.  1.
          4   -1    0    0  502    0 -0.00000000000E+00 -0.00000000000E+00 -0.40944034867E+02  0.40944034867E+02  0.00000000000E+00 0. -1.
         24    2    1    2    0    0 -0.22378502247E+02  0.47206365994E+02  0.65775945956E+02  0.11521299866E+03  0.78856335451E+02 0.  0.
         23    2    1    2    0    0  0.47520886641E+02 -0.62358834301E+02  0.24333108670E+03  0.27125616240E+03  0.90680918628E+02 0.  0.
        -11    1    3    3    0    0 -0.43437740184E+02  0.35667023336E+02  0.13675067314E+02  0.57844457746E+02  0.00000000000E+00 0.  1.
         12    1    3    3    0    0  0.21059237936E+02  0.11539342658E+02  0.52100878641E+02  0.57368540914E+02  0.00000000000E+00 0. -1.
        -11    1    4    4    0    0  0.65569189085E+02 -0.50485329364E+02  0.11829150084E+03  0.14436400593E+03  0.00000000000E+00 0. -1.
         11    1    4    4    0    0 -0.18048302444E+02 -0.11873504936E+02  0.12503958586E+03  0.12689215647E+03  0.00000000000E+00 0.  1.
          3    1    1    2  501    0 -0.25142384394E+02  0.15152468307E+02  0.92936759752E+02  0.97462701081E+02  0.00000000000E+00 0. -1.
<scales pt_clust_5="13000.00000" pt_clust_6="13000.00000" pt_clust_7="13000.00000" pt_clust_8="13000.00000" pt_clust_9="29.35535"></scales>
<clustering>
<clus scale="   29.355">  1  9  2 -1</clus>
<clus scale="   78.856">  5  6 -1 -1</clus>
<clus scale="   90.681">  7  8 -1 -1</clus>
<clus scale="   98.341">  2  5  1 -1</clus>
<clus scale="   29.355">  1  5  2 -1</clus>
</clustering>
</event>
<event>
 9    2  0.7820252E-005  0.1075767E+03  0.7546771E-02  0.1270405E+00
          4   -1    0    0  502    0 -0.00000000000E+00  0.00000000000E+00  0.17236837472E+03  0.17236837472E+03  0.00000000000E+00 0. -1.
         21   -1    0    0  501  502  0.00000000000E+00 -0.00000000000E+00 -0.88159157630E+02  0.88159157630E+02  0.00000000000E+00 0.  1.
         23    2    1    2    0    0 -0.40738699527E+02 -0.65324194462E+00  0.54480133430E+02  0.11579150314E+03  0.93699086959E+02 0.  0.
         24    2    1    2    0    0  0.66723939281E+02 -0.15188124403E+02  0.38384704123E+02  0.11309584371E+03  0.81452569986E+02 0.  0.
        -13    1    4    4    0    0 -0.12077365863E+01 -0.22868711476E+02 -0.14112998772E+02  0.26900061832E+02  0.00000000000E+00 0.  1.
         14    1    4    4    0    0  0.67931675867E+02  0.76805870730E+01  0.52497702895E+02  0.86195781876E+02  0.00000000000E+00 0. -1.
        -13    1    3    3    0    0 -0.68388979382E+02  0.39733297993E+01  0.20023436542E+02  0.71370707307E+02  0.00000000000E+00 0.  1.
         13    1    3    3    0    0  0.27650279854E+02 -0.46265717439E+01  0.34456696888E+02  0.44420795835E+02  0.00000000000E+00 0. -1.
          3    1    1    2  501    0 -0.25985239754E+02  0.15841366347E+02 -0.86556204646E+01  0.31640185499E+02  0.00000000000E+00 0. -1.
<scales pt_clust_5="13000.00000" pt_clust_6="13000.00000" pt_clust_7="13000.00000" pt_clust_8="13000.00000" pt_clust_9="30.43323"></scales>
<clustering>
<clus scale="   30.433">  2  9  1 -1</clus>
<clus scale="   81.453">  5  6 -1 -1</clus>
<clus scale="   93.699">  7  8 -1 -1</clus>
<clus scale="   97.097">  2  5  1 -1</clus>
<clus scale="   30.433">  2  5  1 -1</clus>
</clustering>
</event>
<event>
 9    2  0.7820252E-005  0.1264521E+03  0.7546771E-02  0.1236640E+00
         21   -1    0    0  501  502  0.00000000000E+00  0.00000000000E+00  0.38405939713E+03  0.38405939713E+03  0.00000000000E+00 0. -1.
          4   -1    0    0  502    0 -0.00000000000E+00 -0.00000000000E+00 -0.87854993716E+02  0.87854993716E+02  0.00000000000E+00 0. -1.
         24    2    1    2    0    0 -0.61561127690E+02  0.51537243968E+02 -0.48567263356E+01  0.11464919515E+03  0.81700613209E+02 0.  0.
         23    2    1    2    0    0  0.94161989033E+02 -0.32758126703E+02  0.15883039441E+03  0.21014261592E+03  0.94832746422E+02 0.  0.
        -11    1    3    3    0    0 -0.21348816128E+02  0.26838652311E+02  0.37798205830E+02  0.51037139143E+02  0.00000000000E+00 0.  1.
         12    1    3    3    0    0 -0.40212311562E+02  0.24698591656E+02 -0.42654932165E+02  0.63612056003E+02  0.00000000000E+00 0. -1.
        -11    1    4    4    0    0  0.61101712642E+02 -0.66188873834E+02  0.11267646477E+03  0.14425800505E+03  0.00000000000E+00 0.  1.
         11    1    4    4    0    0  0.33060276390E+02  0.33430747131E+02  0.46153929639E+02  0.65884610873E+02  0.00000000000E+00 0. -1.
          3    1    1    2  501    0 -0.32600861343E+02 -0.18779117265E+02  0.14223073534E+03  0.14712257978E+03  0.00000000000E+00 0. -1.
<scales pt_clust_5="13000.00000" pt_clust_6="13000.00000" pt_clust_7="13000.00000" pt_clust_8="13000.00000" pt_clust_9="37.62275"></scales>
<clustering>
<clus scale="   37.623">  1  9  2 -1</clus>
<clus scale="   81.701">  5  6 -1 -1</clus>
<clus scale="   94.833">  7  8 -1 -1</clus>
<clus scale="  116.927">  2  5  1 -1</clus>
<clus scale="   37.623">  1  5  2 -1</clus>
</clustering>
</event>
<event>
 9    2  0.7820252E-005  0.1029041E+03  0.7546771E-02  0.1285961E+00
         21   -1    0    0  501  502  0.00000000000E+00  0.00000000000E+00  0.39028375057E+02  0.39028375057E+02  0.00000000000E+00 0.  1.
          2   -1    0    0  502    0 -0.00000000000E+00 -0.00000000000E+00 -0.51226456032E+03  0.51226456032E+03  0.00000000000E+00 0. -1.
         23    2    1    2    0    0  0.21682969990E+02  0.13072720261E+02 -0.35333272923E+03  0.36856321646E+03  0.10175352463E+03 0.  0.
         24    2    1    2    0    0  0.79005351485E+01  0.22948613144E+02 -0.48549285613E+02  0.97499807080E+02  0.80994579734E+02 0.  0.
        -13    1    4    4    0    0 -0.25895578647E+02 -0.65231074440E+01  0.55061474247E+01  0.27266271906E+02  0.00000000000E+00 0.  1.
         14    1    4    4    0    0  0.33796113796E+02  0.29471720588E+02 -0.54055433038E+02  0.70233535174E+02  0.00000000000E+00 0. -1.
        -11    1    3    3    0    0 -0.31453406880E-01 -0.43870281325E+02 -0.14269777192E+03  0.14928917135E+03  0.00000000000E+00 0.  1.
         11    1    3    3    0    0  0.21714423397E+02  0.56943001586E+02 -0.21063495732E+03  0.21927404511E+03  0.00000000000E+00 0. -1.
          1    1    1    2  501    0 -0.29583505139E+02 -0.36021333405E+02 -0.71354170421E+02  0.85229911844E+02  0.00000000000E+00 0. -1.
<scales pt_clust_5="13000.00000" pt_clust_6="13000.00000" pt_clust_7="13000.00000" pt_clust_8="13000.00000" pt_clust_9="46.61245"></scales>
<clustering>
<clus scale="   46.612">  1  9  2 -1</clus>
<clus scale="   80.995">  5  6 -1 -1</clus>
<clus scale="   82.435">  1  5  2 -1</clus>
<clus scale="  101.754">  7  8 -1 -1</clus>
<clus scale="   46.612">  1  5  2 -1</clus>
</clustering>
</event>
<event>
 9    2  0.7820252E-005  0.1447691E+03  0.7546771E-02  0.1208766E+00
          2   -1    0    0  502    0 -0.00000000000E+00  0.00000000000E+00  0.60271713623E+03  0.60271713623E+03  0.00000000000E+00 0. -1.
         21   -1    0    0  501  502  0.00000000000E+00 -0.00000000000E+00 -0.12923313600E+03  0.12923313600E+03  0.00000000000E+00 0. -1.
         24    2    1    2    0    0  0.52629849380E+02 -0.12337027321E+03  0.46173582963E+03  0.48753962457E+03  0.80652239923E+02 0.  0.
         23    2    1    2    0    0 -0.76733970481E+02  0.19962241111E+02  0.52728349848E+02  0.13059674320E+03  0.89379176332E+02 0.  0.
        -13    1    3    3    0    0  0.55173169002E+02 -0.39388399020E+02  0.14868733508E+03  0.16341189726E+03  0.00000000000E+00 0.  1.
         14    1    3    3    0    0 -0.25433196221E+01 -0.83981874192E+02  0.31304849455E+03  0.32412772730E+03  0.00000000000E+00 0. -1.
        -11    1    4    4    0    0 -0.15361045568E+02  0.31389504724E+02  0.58246296965E+02  0.67925649337E+02  0.00000000000E+00 0.  1.
         11    1    4    4    0    0 -0.61372924913E+02 -0.11427263613E+02 -0.55179471167E+01  0.62671093867E+02  0.00000000000E+00 0. -1.
          1    1    1    2  501    0  0.24104121101E+02  0.10340803210E+03 -0.40980179243E+02  0.11381390446E+03  0.00000000000E+00 0. -1.
<scales pt_clust_5="13000.00000" pt_clust_6="13000.00000" pt_clust_7="13000.00000" pt_clust_8="13000.00000" pt_clust_9="106.18018"></scales>
<clustering>
<clus scale="   80.652">  5  6 -1 -1</clus>
<clus scale="   89.379">  7  8 -1 -1</clus>
<clus scale="  106.180">  2  9  1 -1</clus>
<clus scale="  139.550">  1  5  2 -1</clus>
<clus scale="  106.180">  2  5  1 -1</clus>
</clustering>
</event>
<event>
 9    2  0.7820252E-005  0.1583012E+03  0.7546771E-02  0.1207994E+00
         21   -1    0    0  501  502  0.00000000000E+00  0.00000000000E+00  0.11689687863E+03  0.11689687863E+03  0.00000000000E+00 0. -1.
          2   -1    0    0  502    0 -0.00000000000E+00 -0.00000000000E+00 -0.43821710075E+03  0.43821710075E+03  0.00000000000E+00 0. -1.
         24    2    1    2    0    0  0.41972911808E+02 -0.57180698997E+02 -0.19911039582E+03  0.22675957970E+03  0.82119422791E+02 0.  0.
         23    2    1    2    0    0  0.62569174845E+02  0.13151251838E+03 -0.99563170980E+02  0.19809643159E+03  0.90105088993E+02 0.  0.
        -11    1    3    3    0    0  0.16803184844E+02 -0.42962772347E+02 -0.29621642325E+02  0.54823248013E+02  0.00000000000E+00 0.  1.
         12    1    3    3    0    0  0.25169726964E+02 -0.14217926651E+02 -0.16948875349E+03  0.17193633169E+03  0.00000000000E+00 0. -1.
        -11    1    4    4    0    0 -0.20828609082E+02  0.12946891487E+02 -0.25249005419E+02  0.35198937912E+02  0.00000000000E+00 0.  1.
         11    1    4    4    0    0  0.83397783927E+02  0.11856562689E+03 -0.74314165561E+02  0.16289749368E+03  0.00000000000E+00 0. -1.
          1    1    1    2  501    0 -0.10454208665E+03 -0.74331819380E+02 -0.22646655329E+02  0.13025796809E+03  0.00000000000E+00 0. -1.
<scales pt_clust_5="13000.00000" pt_clust_6="13000.00000" pt_clust_7="13000.00000" pt_clust_8="13000.00000" pt_clust_9="130.15501"></scales>
<clustering>
<clus scale="   82.119">  5  6 -1 -1</clus>
<clus scale="   90.105">  7  8 -1 -1</clus>
<clus scale="  108.512">  2  5  1 -1</clus>
<clus scale="  130.155">  1  9  2 -1</clus>
<clus scale="  130.155">  1  5  2 -1</clus>
</clustering>
</event>
<event>
 9    2  0.7820252E-005  0.9531884E+02  0.7546771E-02  0.1296002E+00
          2   -1    0    0  502    0 -0.00000000000E+00  0.00000000000E+00  0.16366134833E+03  0.16366134833E+03  0.00000000000E+00 0. -1.
         21   -1    0    0  501  502  0.00000000000E+00 -0.00000000000E+00 -0.83880233303E+02  0.83880233303E+02  0.00000000000E+00 0. -1.
         24    2    1    2    0    0 -0.34371979074E+01 -0.57755104085E+01  0.35104487318E+02  0.90173181709E+02  0.82787117475E+02 0.  0.
         23    2    1    2    0    0  0.62136511935E+00  0.50000871222E+02  0.21257495212E+02  0.10724587784E+03  0.92462554548E+02 0.  0.
        -11    1    3    3    0    0 -0.40736779030E+02 -0.85550955482E+01  0.32258616447E+02  0.52662065670E+02  0.00000000000E+00 0.  1.
         12    1    3    3    0    0  0.37299581123E+02  0.27795851397E+01  0.28458708713E+01  0.37511116039E+02  0.00000000000E+00 0. -1.
        -11    1    4    4    0    0 -0.20321616288E+02  0.15882464045E+02 -0.31695147967E+02  0.40863224999E+02  0.00000000000E+00 0. -1.
         11    1    4    4    0    0  0.20942981407E+02  0.34118407177E+02  0.52952643180E+02  0.66382652841E+02  0.00000000000E+00 0.  1.
          1    1    1    2  501    0  0.28158327881E+01 -0.44225360813E+02  0.23419132499E+02  0.50122522087E+02  0.00000000000E+00 0. -1.
<scales pt_clust_5="13000.00000" pt_clust_6="13000.00000" pt_clust_7="13000.00000" pt_clust_8="13000.00000" pt_clust_9="44.31493"></scales>
<clustering>
<clus scale="   44.315">  2  9  1 -1</clus>
<clus scale="   82.787">  5  6 -1 -1</clus>
<clus scale="   85.965">  1  5  2 -1</clus>
<clus scale="   92.463">  7  8 -1 -1</clus>
<clus scale="   44.315">  2  5  1 -1</clus>
</clustering>
</event>
<event>
 9    2  0.7820252E-005  0.1289429E+03  0.7546771E-02  0.1230549E+00
         -1   -1    0    0    0  501 -0.00000000000E+00  0.00000000000E+00  0.11812593723E+03  0.11812593723E+03  0.00000000000E+00 0.  1.
         21   -1    0    0  501  502  0.00000000000E+00 -0.00000000000E+00 -0.23300021828E+03  0.23300021828E+03  0.00000000000E+00 0.  1.
         24    2    1    2    0    0  0.54326402689E+02 -0.81911352174E+02 -0.60809949914E+02  0.14241408860E+03  0.83205137933E+02 0.  0.
         23    2    1    2    0    0 -0.41925559702E+01  0.94902801117E+02 -0.77857701481E+02  0.15171816545E+03  0.89064363585E+02 0.  0.
        -11    1    3    3    0    0 -0.44431457011E+01 -0.67415309930E+02 -0.24726614434E+02  0.71944221576E+02  0.00000000000E+00 0.  1.
         12    1    3    3    0    0  0.58769548390E+02 -0.14496042243E+02 -0.36083335480E+02  0.70469867022E+02  0.00000000000E+00 0. -1.
        -13    1    4    4    0    0  0.16741954277E+02  0.10294180150E+03 -0.76327899553E+02  0.12924107621E+03  0.00000000000E+00 0.  1.
         13    1    4    4    0    0 -0.20934510247E+02 -0.80390003874E+01 -0.15298019284E+01  0.22477089234E+02  0.00000000000E+00 0. -1.
         -2    1    1    2    0  502 -0.50133846719E+02 -0.12991448944E+02  0.23793370337E+02  0.56993901468E+02  0.00000000000E+00 0.  1.
<scales pt_clust_5="13000.00000" pt_clust_6="13000.00000" pt_clust_7="13000.00000" pt_clust_8="13000.00000" pt_clust_9="51.78980"></scales>
<clustering>
<clus scale="   51.790">  2  9  1 -1</clus>
<clus scale="   83.205">  5  6 -1 -1</clus>
<clus scale="   89.064">  7  8 -1 -1</clus>
<clus scale="  124.968">  1  5  2 -1</clus>
<clus scale="   51.790">  2  5  1 -1</clus>
</clustering>
</event>
<event>
 9    2  0.7820252E-005  0.1142081E+03  0.7546771E-02  0.1256346E+00
          2   -1    0    0  502    0 -0.00000000000E+00  0.00000000000E+00  0.24380358348E+03  0.24380358348E+03  0.00000000000E+00 0. -1.
         21   -1    0    0  501  502  0.00000000000E+00 -0.00000000000E+00 -0.96059203533E+02  0.96059203533E+02  0.00000000000E+00 0.  1.
         24    2    1    2    0    0  0.10565797854E+02  0.70785123887E+02  0.12020910293E+03  0.16175536750E+03  0.81193599748E+02 0.  0.
         23    2    1    2    0    0 -0.38034425243E+02 -0.55575910826E+02 -0.26111690376E+02  0.11594760321E+03  0.90701306206E+02 0.  0.
        -13    1    3    3    0    0 -0.33268348515E+02  0.34243498678E+02  0.75194638222E+02  0.89070948305E+02  0.00000000000E+00 0.  1.
         14    1    3    3    0    0  0.43834146369E+02  0.36541625209E+02  0.45014464706E+02  0.72684419194E+02  0.00000000000E+00 0. -1.
        -11    1    4    4    0    0 -0.20160989553E+02  0.28197938542E+01  0.27820040329E+02  0.34472762887E+02  0.00000000000E+00 0. -1.
         11    1    4    4    0    0 -0.17873435690E+02 -0.58395704680E+02 -0.53931730705E+02  0.81474840321E+02  0.00000000000E+00 0.  1.
          1    1    1    2  501    0  0.27468627388E+02 -0.15209213061E+02  0.53646967396E+02  0.62159816307E+02  0.00000000000E+00 0. -1.
<scales pt_clust_5="13000.00000" pt_clust_6="13000.00000" pt_clust_7="13000.00000" pt_clust_8="13000.00000" pt_clust_9="31.39819"></scales>
<clustering>
<clus scale="   31.398">  2  9  1 -1</clus>
<clus scale="   81.194">  5  6 -1 -1</clus>
<clus scale="   90.701">  7  8 -1 -1</clus>
<clus scale="  106.814">  1  5  2 -1</clus>
<clus scale="   31.398">  2  5  1 -1</clus>
</clustering>
</event>
<event>
 9    2  0.7820252E-005  0.9982577E+02  0.7546771E-02  0.1285439E+00
          2   -1    0    0  502    0 -0.00000000000E+00  0.00000000000E+00  0.30422846988E+02  0.30422846988E+02  0.00000000000E+00 0. -1.
         21   -1    0    0  501  502  0.00000000000E+00 -0.00000000000E+00 -0.73605507577E+03  0.73605507577E+03  0.00000000000E+00 0.  1.
         23    2    1    2    0    0  0.25512329953E+02  0.18337414490E+02 -0.26791867435E+03  0.28432107391E+03  0.89838283897E+02 0.  0.
         24    2    1    2    0    0  0.18764787969E+02 -0.75613303272E+02 -0.35528985501E+03  0.37245426532E+03  0.80136195201E+02 0.  0.
        -13    1    4    4    0    0  0.35503450989E+02 -0.74586479245E+02 -0.20182157690E+03  0.21807243480E+03  0.00000000000E+00 0.  1.
         14    1    4    4    0    0 -0.16738663020E+02 -0.10268240276E+01 -0.15346827811E+03  0.15438183051E+03  0.00000000000E+00 0. -1.
        -13    1    3    3    0    0  0.30867739242E+02  0.48331211835E+02 -0.22144648056E+03  0.22875154014E+03  0.00000000000E+00 0.  1.
         13    1    3    3    0    0 -0.53554092890E+01 -0.29993797345E+02 -0.46472193790E+02  0.55569533771E+02  0.00000000000E+00 0. -1.
          1    1    1    2  501    0 -0.44277117922E+02  0.57275888782E+02 -0.82423699428E+02  0.10970258354E+03  0.00000000000E+00 0. -1.
<scales pt_clust_5="13000.00000" pt_clust_6="13000.00000" pt_clust_7="13000.00000" pt_clust_8="13000.00000" pt_clust_9="72.39472"></scales>
<clustering>
<clus scale="   72.395">  2  9  1 -1</clus>
<clus scale="   80.136">  5  6 -1 -1</clus>
<clus scale="   89.838">  7  8 -1 -1</clus>
<clus scale="   91.193">  2  5  1 -1</clus>
<clus scale="   72.395">  2  5  1 -1</clus>
</clustering>
</event>
<event>
 9    2  0.7820252E-005  0.2558960E+03  0.7546771E-02  0.1109634E+00
         21   -1    0    0  501  502  0.00000000000E+00  0.00000000000E+00  0.10401572707E+03  0.10401572707E+03  0.00000000000E+00 0. -1.
          2   -1    0    0  502    0 -0.00000000000E+00 -0.00000000000E+00 -0.41028884282E+03  0.41028884282E+03  0.00000000000E+00 0. -1.
         24    2    1    2    0    0 -0.12304527388E+03 -0.18330058311E+02 -0.13196499295E+03  0.19899018458E+03  0.81891414283E+02 0.  0.
         23    2    1    2    0    0 -0.27624589849E+02 -0.25807015698E+02 -0.48806405044E+02  0.11431644925E+03  0.96213644421E+02 0.  0.
        -13    1    3    3    0    0 -0.41253829293E+02  0.17881620906E+02 -0.72949784709E+01  0.45550494053E+02  0.00000000000E+00 0.  1.
         14    1    3    3    0    0 -0.81791444590E+02 -0.36211679218E+02 -0.12467001448E+03  0.15343969053E+03  0.00000000000E+00 0. -1.
        -11    1    4    4    0    0  0.48412040379E+01 -0.34476305268E+02  0.18252592607E+02  0.39309159471E+02  0.00000000000E+00 0. -1.
         11    1    4    4    0    0 -0.32465793887E+02  0.86692895694E+01 -0.67058997651E+02  0.75007289781E+02  0.00000000000E+00 0.  1.
          1    1    1    2  501    0  0.15066986373E+03  0.44137074010E+02 -0.12550171776E+03  0.20099793606E+03  0.00000000000E+00 0. -1.
<scales pt_clust_5="13000.00000" pt_clust_6="13000.00000" pt_clust_7="13000.00000" pt_clust_8="13000.00000" pt_clust_9="157.00164"></scales>
<clustering>
<clus scale="   81.891">  5  6 -1 -1</clus>
<clus scale="   96.214">  7  8 -1 -1</clus>
<clus scale="  102.780">  5  7 -1 -1</clus>
<clus scale="  157.002">  1  9  2 -1</clus>
<clus scale="  157.002">  1  5  2 -1</clus>
</clustering>
</event>
<event>
 9    2  0.7820252E-005  0.1377802E+03  0.7546771E-02  0.1226977E+00
          4   -1    0    0  502    0 -0.00000000000E+00  0.00000000000E+00  0.23723771133E+03  0.23723771133E+03  0.00000000000E+00 0. -1.
         21   -1    0    0  501  502  0.00000000000E+00 -0.00000000000E+00 -0.17202523175E+03  0.17202523175E+03  0.00000000000E+00 0.  1.
         24    2    1    2    0    0  0.23116505436E+02 -0.70820450450E+02  0.79889433014E+02  0.13618248429E+03  0.81323050202E+02 0.  0.
         23    2    1    2    0    0 -0.13502484571E+02 -0.75412593768E+02 -0.32719723560E+02  0.12542520432E+03  0.93763133381E+02 0.  0.
        -11    1    3    3    0    0  0.24246174288E+02  0.48220399112E+01 -0.18713888744E+01  0.24791755340E+02  0.00000000000E+00 0.  1.
         12    1    3    3    0    0 -0.11296688521E+01 -0.75642490361E+02  0.81760821889E+02  0.11139072895E+03  0.00000000000E+00 0. -1.
        -11    1    4    4    0    0 -0.44929743484E+02 -0.60872335941E+02 -0.45763771314E+02  0.88421976325E+02  0.00000000000E+00 0.  1.
         11    1    4    4    0    0  0.31427258914E+02 -0.14540257827E+02  0.13044047753E+02  0.37003227998E+02  0.00000000000E+00 0. -1.
          3    1    1    2  501    0 -0.96140208657E+01  0.14623304422E+03  0.18042770133E+02  0.14765525447E+03  0.00000000000E+00 0. -1.
<scales pt_clust_5="13000.00000" pt_clust_6="13000.00000" pt_clust_7="13000.00000" pt_clust_8="13000.00000" pt_clust_9="100.95485"></scales>
<clustering>
<clus scale="   81.323">  5  6 -1 -1</clus>
<clus scale="   93.763">  7  8 -1 -1</clus>
<clus scale="  110.288">  1  5  2 -1</clus>
<clus scale="  100.955">  2  9  1 -1</clus>
<clus scale="  100.955">  2  5  1 -1</clus>
</clustering>
</event>
<event>
 9    2  0.7820252E-005  0.1346328E+03  0.7546771E-02  0.1233931E+00
         21   -1    0    0  501  502  0.00000000000E+00  0.00000000000E+00  0.57912336509E+02  0.57912336509E+02  0.00000000000E+00 0. -1.
          2   -1    0    0  502    0 -0.00000000000E+00 -0.00000000000E+00 -0.70160389520E+03  0.70160389520E+03  0.00000000000E+00 0. -1.
         23    2    1    2    0    0  0.35984990306E+02  0.27622588536E+02 -0.90833919532E+02  0.13688515812E+03  0.91808597920E+02 0.  0.
         24    2    1    2    0    0  0.37136477269E+01 -0.12749878384E+03 -0.44947197264E+03  0.47350082082E+03  0.76865090021E+02 0.  0.
        -11    1    4    4    0    0  0.71428402939E+01 -0.43317575068E+02 -0.56251722399E+02  0.71356070170E+02  0.00000000000E+00 0.  1.
         12    1    4    4    0    0 -0.34291925671E+01 -0.84181208768E+02 -0.39322025025E+03  0.40214475065E+03  0.00000000000E+00 0. -1.
        -13    1    3    3    0    0  0.60840185220E+02  0.39157151749E+02 -0.50932959772E+02  0.88481506892E+02  0.00000000000E+00 0. -1.
         13    1    3    3    0    0 -0.24855194914E+02 -0.11534563213E+02 -0.39900959760E+02  0.48403651232E+02  0.00000000000E+00 0.  1.
          1    1    1    2  501    0 -0.39698638033E+02  0.99876195301E+02 -0.10338566651E+03  0.14913025276E+03  0.00000000000E+00 0. -1.
<scales pt_clust_5="13000.00000" pt_clust_6="13000.00000" pt_clust_7="13000.00000" pt_clust_8="13000.00000" pt_clust_9="110.53389"></scales>
<clustering>
<clus scale="   76.865">  5  6 -1 -1</clus>
<clus scale="   91.809">  7  8 -1 -1</clus>
<clus scale="  102.405">  2  7  1 -1</clus>
<clus scale="  110.534">  1  9  2 -1</clus>
<clus scale="  110.534">  1  5  2 -1</clus>
</clustering>
</event>
<event>
 9    2  0.7820252E-005  0.9734063E+02  0.7546771E-02  0.1290384E+00
          2   -1    0    0  502    0 -0.00000000000E+00  0.00000000000E+00  0.91792363887E+03  0.91792363887E+03  0.00000000000E+00 0. -1.
         21   -1    0    0  501  502  0.00000000000E+00 -0.00000000000E+00 -0.29856609795E+02  0.29856609795E+02  0.00000000000E+00 0. -1.
         24    2    1    2    0    0  0.95023697395E+00 -0.45372242128E+02  0.59126729918E+03  0.59874190168E+03  0.82675887898E+02 0.  0.
         23    2    1    2    0    0 -0.46245125390E+02 -0.19091876978E+02  0.14993962264E+03  0.18237959182E+03  0.90979743286E+02 0.  0.
        -11    1    3    3    0    0  0.34046143810E+02 -0.13402725962E+02  0.12601133274E+03  0.13121596302E+03  0.00000000000E+00 0.  1.
         12    1    3    3    0    0 -0.33095906836E+02 -0.31969516165E+02  0.46525596644E+03  0.46752593866E+03  0.00000000000E+00 0. -1.
        -11    1    4    4    0    0 -0.11502115858E+02 -0.38663976621E+02  0.17329165477E+02  0.43903322579E+02  0.00000000000E+00 0. -1.
         11    1    4    4    0    0 -0.34743009532E+02  0.19572099643E+02  0.13261045716E+03  0.13847626924E+03  0.00000000000E+00 0.  1.
          1    1    1    2  501    0  0.45294888416E+02  0.64464119105E+02  0.14686010726E+03  0.16665875517E+03  0.00000000000E+00 0. -1.
<scales pt_clust_5="13000.00000" pt_clust_6="13000.00000" pt_clust_7="13000.00000" pt_clust_8="13000.00000" pt_clust_9="78.78610"></scales>
<clustering>
<clus scale="   78.786">  2  9  1 -1</clus>
<clus scale="   82.676">  5  6 -1 -1</clus>
<clus scale="   89.628">  1  5  2 -1</clus>
<clus scale="   90.980">  7  8 -1 -1</clus>
<clus scale="   78.786">  2  5  1 -1</clus>
</clustering>
</event>
<event>
 9    2  0.7820252E-005  0.9347304E+02  0.7546771E-02  0.1298923E+00
          2   -1    0    0  502    0 -0.00000000000E+00  0.00000000000E+00  0.41061347730E+03  0.41061347730E+03  0.00000000000E+00 0. -1.
         21   -1    0    0  501  502  0.00000000000E+00 -0.00000000000E+00 -0.67980584222E+02  0.67980584222E+02  0.00000000000E+00 0. -1.
         24    2    1    2    0    0  0.57385168800E+02 -0.29955494952E+02  0.20449712709E+03  0.22929004432E+03  0.81021356200E+02 0.  0.
         23    2    1    2    0    0  0.61692729357E+00 -0.24488553838E+02  0.14258531187E+03  0.16962844968E+03  0.88561672936E+02 0.  0.
        -13    1    3    3    0    0  0.53454921131E+02  0.16913086078E+02  0.98777128662E+02  0.11357993758E+03  0.00000000000E+00 0.  1.
         14    1    3    3    0    0  0.39302476696E+01 -0.46868581030E+02  0.10571999843E+03  0.11571010674E+03  0.00000000000E+00 0. -1.
        -11    1    4    4    0    0 -0.17469994608E+02  0.24830047384E+02  0.91295025217E+02  0.96210776913E+02  0.00000000000E+00 0.  1.
         11    1    4    4    0    0  0.18086921902E+02 -0.49318601222E+02  0.51290286651E+02  0.73417672771E+02  0.00000000000E+00 0. -1.
          1    1    1    2  501    0 -0.58002096094E+02  0.54444048790E+02 -0.44495458857E+01  0.79675567513E+02  0.00000000000E+00 0. -1.
<scales pt_clust_5="13000.00000" pt_clust_6="13000.00000" pt_clust_7="13000.00000" pt_clust_8="13000.00000" pt_clust_9="79.55123"></scales>
<clustering>
<clus scale="   79.551">  2  9  1 -1</clus>
<clus scale="   81.021">  5  6 -1 -1</clus>
<clus scale="   86.363">  1  5  2 -1</clus>
<clus scale="   88.562">  7  8 -1 -1</clus>
<clus scale="   79.551">  2  5  1 -1</clus>
</clustering>
</event>
<event>
 9    2  0.7820252E-005  0.2305456E+03  0.7546771E-02  0.1165384E+00
         -3   -1    0    0    0  501 -0.00000000000E+00  0.00000000000E+00  0.95974928202E+02  0.95974928202E+02  0.00000000000E+00 0.  1.
         21   -1    0    0  501  502  0.00000000000E+00 -0.00000000000E+00 -0.12269340495E+04  0.12269340495E+04  0.00000000000E+00 0.  1.
         24    2    1    2    0    0 -0.45962261088E+02  0.25304869031E+01 -0.23921394645E+03  0.25578600237E+03  0.78001500127E+02 0.  0.
         23    2    1    2    0    0 -0.15424625576E+03 -0.89879969936E+02 -0.62961986828E+02  0.21003782487E+03  0.91001976238E+02 0.  0.
        -11    1    3    3    0    0 -0.56551495803E+02  0.27647903607E+02 -0.15600945811E+03  0.16823028642E+03  0.00000000000E+00 0.  1.
         12    1    3    3    0    0  0.10589234715E+02 -0.25117416704E+02 -0.83204488341E+02  0.87555715941E+02  0.00000000000E+00 0. -1.
        -13    1    4    4    0    0 -0.90155216734E+02 -0.61558232265E+02  0.90752479067E+01  0.10954332106E+03  0.00000000000E+00 0.  1.
         13    1    4    4    0    0 -0.64091039026E+02 -0.28321737671E+02 -0.72037234735E+02  0.10049450381E+03  0.00000000000E+00 0. -1.
         -4    1    1    2    0  502  0.20020851685E+03  0.87349483033E+02 -0.82878318802E+03  0.85708515047E+03  0.00000000000E+00 0.  1.
<scales pt_clust_5="13000.00000" pt_clust_6="13000.00000" pt_clust_7="13000.00000" pt_clust_8="13000.00000" pt_clust_9="211.82519"></scales>
<clustering>
<clus scale="   78.002">  5  6 -1 -1</clus>
<clus scale="   90.571">  1  5  2 -1</clus>
<clus scale="   91.002">  7  8 -1 -1</clus>
<clus scale="  211.825">  2  9  1 -1</clus>
<clus scale="  211.825">  2  5  1 -1</clus>
</clustering>
</event>
<event>
 9    2  0.7820252E-005  0.2054809E+03  0.7546771E-02  0.1175690E+00
         21   -1    0    0  501  502  0.00000000000E+00  0.00000000000E+00  0.40750933813E+02  0.40750933813E+02  0.00000000000E+00 0. -1.
          2   -1    0    0  502    0 -0.00000000000E+00 -0.00000000000E+00 -0.20010234573E+04  0.20010234573E+04  0.00000000000E+00 0. -1.
         23    2    1    2    0    0 -0.44643613649E+02  0.59747598669E+01 -0.21003972817E+03  0.23309592352E+03  0.90489072028E+02 0.  0.
         24    2    1    2    0    0 -0.57129092474E+02  0.16188355231E+03 -0.13471842576E+04  0.13603680612E+04  0.78903868342E+02 0.  0.
        -13    1    4    4    0    0 -0.55207812614E+02  0.51813293252E+02 -0.43177747821E+03  0.43836549889E+03  0.00000000000E+00 0.  1.
         14    1    4    4    0    0 -0.19212798605E+01  0.11007025906E+03 -0.91540677934E+03  0.92200256231E+03  0.00000000000E+00 0. -1.
        -13    1    3    3    0    0  0.15366220060E+02  0.19837833928E+02 -0.16597678141E+02  0.30085599438E+02  0.00000000000E+00 0. -1.
         13    1    3    3    0    0 -0.60009833709E+02 -0.13863074061E+02 -0.19344205003E+03  0.20301032409E+03  0.00000000000E+00 0.  1.
          1    1    1    2  501    0  0.10177270612E+03 -0.16785831218E+03 -0.40304853777E+03  0.44831040639E+03  0.00000000000E+00 0. -1.
<scales pt_clust_5="13000.00000" pt_clust_6="13000.00000" pt_clust_7="13000.00000" pt_clust_8="13000.00000" pt_clust_9="189.72764"></scales>
<clustering>
<clus scale="   78.904">  5  6 -1 -1</clus>
<clus scale="   90.489">  7  8 -1 -1</clus>
<clus scale="  101.079">  2  7  1 -1</clus>
<clus scale="  189.728">  1  9  2 -1</clus>
<clus scale="  189.728">  1  5  2 -1</clus>
</clustering>
</event>
<event>
 9    2  0.7820252E-005  0.9345926E+02  0.7546771E-02  0.1299470E+00
         21   -1    0    0  501  502  0.00000000000E+00  0.00000000000E+00  0.91106307074E+02  0.91106307074E+02  0.00000000000E+00 0. -1.
         -3   -1    0    0    0  501 -0.00000000000E+00 -0.00000000000E+00 -0.14377198165E+03  0.14377198165E+03  0.00000000000E+00 0.  1.
         23    2    1    2    0    0  0.12447816979E+02  0.33759605711E+02 -0.21561160179E+02  0.98495223041E+02  0.89116587729E+02 0.  0.
         24    2    1    2    0    0 -0.32193127769E+02 -0.71731430986E-01 -0.78826863778E+00  0.86948007992E+02  0.80764671147E+02 0.  0.
        -11    1    4    4    0    0  0.26666653956E+02 -0.36117050118E+01 -0.65656901560E+01  0.27699515041E+02  0.00000000000E+00 0.  1.
         12    1    4    4    0    0 -0.58859781725E+02  0.35399735808E+01  0.57774215182E+01  0.59248492951E+02  0.00000000000E+00 0. -1.
        -11    1    3    3    0    0 -0.45959595474E+00 -0.20519034027E+02  0.20205735906E+02  0.28801280342E+02  0.00000000000E+00 0.  1.
         11    1    3    3    0    0  0.12907412933E+02  0.54278639737E+02 -0.41766896086E+02  0.69693942699E+02  0.00000000000E+00 0. -1.
         -4    1    1    2    0  502  0.19745310790E+02 -0.33687874280E+02 -0.30316245754E+02  0.49435057685E+02  0.00000000000E+00 0.  1.
<scales pt_clust_5="13000.00000" pt_clust_6="13000.00000" pt_clust_7="13000.00000" pt_clust_8="13000.00000" pt_clust_9="39.04807"></scales>
<clustering>
<clus scale="   39.048">  1  9  2 -1</clus>
<clus scale="   80.765">  5  6 -1 -1</clus>
<clus scale="   85.532">  1  5  2 -1</clus>
<clus scale="   89.117">  7  8 -1 -1</clus>
<clus scale="   39.048">  1  5  2 -1</clus>
</clustering>
</event>
<event>
 9    2  0.7820252E-005  0.1177406E+03  0.7546771E-02  0.1250424E+00
         21   -1    0    0  501  502  0.00000000000E+00  0.00000000000E+00  0.41805661778E+02  0.41805661778E+02  0.00000000000E+00 0.  1.
          2   -1    0    0  502    0 -0.00000000000E+00 -0.00000000000E+00 -0.60724446057E+03  0.60724446057E+03  0.00000000000E+00 0. -1.
         24    2    1    2    0    0  0.18369809122E+02  0.71333079979E+02 -0.37960109560E+03  0.39496705862E+03  0.80474389870E+02 0.  0.
         23    2    1    2    0    0  0.63479501717E+01 -0.79060133576E+02 -0.19254616771E+03  0.22733089600E+03  0.91183926138E+02 0.  0.
        -13    1    3    3    0    0  0.60237592503E+01  0.64423202960E+02 -0.13243420692E+03  0.14739556954E+03  0.00000000000E+00 0.  1.
         14    1    3    3    0    0  0.12346049872E+02  0.69098770186E+01 -0.24716688868E+03  0.24757148908E+03  0.00000000000E+00 0. -1.
        -11    1    4    4    0    0 -0.35953750904E+02 -0.50803854785E+02 -0.64896579465E+02  0.89918128824E+02  0.00000000000E+00 0.  1.
         11    1    4    4    0    0  0.42301701075E+02 -0.28256278791E+02 -0.12764958824E+03  0.13741276718E+03  0.00000000000E+00 0. -1.
          1    1    1    2  501    0 -0.24717759294E+02  0.77270535970E+01  0.67084645196E+01  0.26752167726E+02  0.00000000000E+00 0. -1.
<scales pt_clust_5="13000.00000" pt_clust_6="13000.00000" pt_clust_7="13000.00000" pt_clust_8="13000.00000" pt_clust_9="25.89739"></scales>
<clustering>
<clus scale="   25.897">  1  9  2 -1</clus>
<clus scale="   80.474">  5  6 -1 -1</clus>
<clus scale="   91.184">  7  8 -1 -1</clus>
<clus scale="  109.656">  2  5  1 -1</clus>
<clus scale="   25.897">  1  5  2 -1</clus>
</clustering>
</event>
<event>
 9    2  0.7820252E-005  0.1340235E+03  0.7546771E-02  0.1246531E+00
         -1   -1    0    0    0  501 -0.00000000000E+00  0.00000000000E+00  0.55103115553E+02  0.55103115553E+02  0.00000000000E+00 0.  1.
         21   -1    0    0  501  502  0.00000000000E+00 -0.00000000000E+00 -0.52784586532E+03  0.52784586532E+03  0.00000000000E+00 0. -1.
         24    2    1    2    0    0 -0.15868198350E+02  0.15546847300E+02 -0.34433921207E+02  0.87442155142E+02  0.77245915014E+02 0.  0.
         23    2    1    2    0    0  0.84345006170E+02  0.50553577145E+02 -0.26710474385E+03  0.29962630617E+03  0.93601468659E+02 0.  0.
        -11    1    3    3    0    0 -0.11356990486E+02 -0.31304865050E+02 -0.13693734239E+02  0.36006862764E+02  0.00000000000E+00 0.  1.
         12    1    3    3    0    0 -0.45112078643E+01  0.46851712350E+02 -0.20740186968E+02  0.51435292378E+02  0.00000000000E+00 0. -1.
        -11    1    4    4    0    0  0.41488472709E+02  0.61698094198E+02 -0.88365245323E+02  0.11548317963E+03  0.00000000000E+00 0.  1.
         11    1    4    4    0    0  0.42856533461E+02 -0.11144517053E+02 -0.17873949853E+03  0.18414312655E+03  0.00000000000E+00 0. -1.
         -2    1    1    2    0  502 -0.68476807820E+02 -0.66100424445E+02 -0.17120408471E+03  0.19588051956E+03  0.00000000000E+00 0.  1.
<scales pt_clust_5="13000.00000" pt_clust_6="13000.00000" pt_clust_7="13000.00000" pt_clust_8="13000.00000" pt_clust_9="95.92219"></scales>
<clustering>
<clus scale="   77.246">  5  6 -1 -1</clus>
<clus scale="   80.377">  1  5  2 -1</clus>
<clus scale="   93.601">  7  8 -1 -1</clus>
<clus scale="   95.922">  2  9  1 -1</clus>
<clus scale="   95.922">  2  5  1 -1</clus>
</clustering>
</event>
<event>
 9    2  0.7820252E-005  0.9933266E+02  0.7546771E-02  0.1291180E+00
          2   -1    0    0  502    0 -0.00000000000E+00  0.00000000000E+00  0.53087563080E+03  0.53087563080E+03  0.00000000000E+00 0. -1.
         21   -1    0    0  501  502  0.00000000000E+00 -0.00000000000E+00 -0.31112129144E+02  0.31112129144E+02  0.00000000000E+00 0.  1.
         24    2    1    2    0    0  0.32959483511E+02  0.25645913651E+01  0.32797550820E+03  0.33811537205E+03  0.75240721364E+02 0.  0.
         23    2    1    2    0    0 -0.43579540156E+02  0.31157283176E+02  0.11719955729E+03  0.15883510790E+03  0.92859585719E+02 0.  0.
        -13    1    3    3    0    0  0.40365509020E+02 -0.18972963458E+02  0.10637082055E+03  0.11534339654E+03  0.00000000000E+00 0.  1.
         14    1    3    3    0    0 -0.74060255082E+01  0.21537554823E+02  0.22160468766E+03  0.22277197551E+03  0.00000000000E+00 0. -1.
        -13    1    4    4    0    0  0.51505235723E+01 -0.27683240864E+02  0.17217932806E+02  0.33005256065E+02  0.00000000000E+00 0. -1.
         13    1    4    4    0    0 -0.48730063728E+02  0.58840524040E+02  0.99981624481E+02  0.12582985184E+03  0.00000000000E+00 0.  1.
          1    1    1    2  501    0  0.10620056644E+02 -0.33721874541E+02  0.54588436165E+02  0.65037279991E+02  0.00000000000E+00 0. -1.
<scales pt_clust_5="13000.00000" pt_clust_6="13000.00000" pt_clust_7="13000.00000" pt_clust_8="13000.00000" pt_clust_9="35.35464"></scales>
<clustering>
<clus scale="   35.355">  2  9  1 -1</clus>
<clus scale="   75.241">  5  6 -1 -1</clus>
<clus scale="   83.098">  1  5  2 -1</clus>
<clus scale="   92.860">  7  8 -1 -1</clus>
<clus scale="   35.355">  2  5  1 -1</clus>
</clustering>
</event>
<event>
 9    2  0.7820252E-005  0.1124255E+03  0.7546771E-02  0.1260012E+00
         -3   -1    0    0    0  501 -0.00000000000E+00  0.00000000000E+00  0.60583602549E+02  0.60583602549E+02  0.00000000000E+00 0.  1.
         21   -1    0    0  501  502  0.00000000000E+00 -0.00000000000E+00 -0.11869185445E+04  0.11869185445E+04  0.00000000000E+00 0.  1.
         24    2    1    2    0    0 -0.64247003077E+02 -0.62825816409E+01 -0.50052804934E+01  0.10327097430E+03  0.80453048810E+02 0.  0.
         23    2    1    2    0    0  0.73481437978E+02  0.85389622230E+02 -0.62428739212E+03  0.64084839974E+03  0.90890121440E+02 0.  0.
        -13    1    3    3    0    0 -0.73896953105E+02 -0.18958773447E+02  0.14944927234E+02  0.77740244526E+02  0.00000000000E+00 0.  1.
         14    1    3    3    0    0  0.96499500286E+01  0.12676191807E+02 -0.19950207727E+02  0.25530729771E+02  0.00000000000E+00 0. -1.
        -11    1    4    4    0    0  0.49262161614E+02 -0.33003892653E+01 -0.15618434284E+03  0.16380232625E+03  0.00000000000E+00 0. -1.
         11    1    4    4    0    0  0.24219276364E+02  0.88690011495E+02 -0.46810304928E+03  0.47704607349E+03  0.00000000000E+00 0.  1.
         -4    1    1    2    0  502 -0.92344349014E+01 -0.79107040589E+02 -0.49704226934E+03  0.50338277301E+03  0.00000000000E+00 0.  1.
<scales pt_clust_5="13000.00000" pt_clust_6="13000.00000" pt_clust_7="13000.00000" pt_clust_8="13000.00000" pt_clust_9="79.64420"></scales>
<clustering>
<clus scale="   79.644">  2  9  1 -1</clus>
<clus scale="   80.453">  5  6 -1 -1</clus>
<clus scale="   90.890">  7  8 -1 -1</clus>
<clus scale="  104.169">  1  5  2 -1</clus>
<clus scale="   79.644">  2  5  1 -1</clus>
</clustering>
</event>
<event>
 9    2  0.7820252E-005  0.1829445E+03  0.7546771E-02  0.1168268E+00
          2   -1    0    0  502    0 -0.00000000000E+00  0.00000000000E+00  0.95371344413E+03  0.95371344413E+03  0.00000000000E+00 0. -1.
         21   -1    0    0  501  502  0.00000000000E+00 -0.00000000000E+00 -0.55685063235E+02  0.55685063235E+02  0.00000000000E+00 0.  1.
         23    2    1    2    0    0 -0.38824859755E+02  0.15009653199E+03  0.75409303587E+03  0.77692574188E+03  0.10450341139E+03 0.  0.
         24    2    1    2    0    0  0.28878390322E+02 -0.13233254999E+03  0.14285578786E+03  0.21208510367E+03  0.78907856765E+02 0.  0.
        -13    1    4    4    0    0  0.50444105071E+02 -0.12350470956E+03  0.11980190338E+03  0.17930565265E+03  0.00000000000E+00 0.  1.
         14    1    4    4    0    0 -0.21565714749E+02 -0.88278404276E+01  0.23053884487E+02  0.32779451020E+02  0.00000000000E+00 0. -1.
        -13    1    3    3    0    0  0.27326810290E+02  0.26332453807E+02  0.82248003121E+02  0.90580829658E+02  0.00000000000E+00 0.  1.
         13    1    3    3    0    0 -0.66151670045E+02  0.12376407818E+03  0.67184503275E+03  0.68634491222E+03  0.00000000000E+00 0. -1.
          1    1    1    2  501    0  0.99464694324E+01 -0.17763982003E+02  0.10795571613E+01  0.20387661818E+02  0.00000000000E+00 0. -1.
<scales pt_clust_5="13000.00000" pt_clust_6="13000.00000" pt_clust_7="13000.00000" pt_clust_8="13000.00000" pt_clust_9="20.35906"></scales>
<clustering>
<clus scale="   20.359">  2  9  1 -1</clus>
<clus scale="   78.908">  5  6 -1 -1</clus>
<clus scale="  104.503">  7  8 -1 -1</clus>
<clus scale="  169.629">  2  5  1 -1</clus>
<clus scale="   20.359">  2  5  1 -1</clus>
</clustering>
</event>
<event>
 9    2  0.7820252E-005  0.8847655E+02  0.7546771E-02  0.1311035E+00
          2   -1    0    0  502    0 -0.00000000000E+00  0.00000000000E+00  0.52103165880E+03  0.52103165880E+03  0.00000000000E+00 0. -1.
         21   -1    0    0  501  502  0.00000000000E+00 -0.00000000000E+00 -0.56784841037E+02  0.56784841037E+02  0.00000000000E+00 0. -1.
         23    2    1    2    0    0 -0.54448612005E+01  0.34674103987E+02  0.11454207430E+03  0.14849876967E+03  0.87749973259E+02 0.  0.
         24    2    1    2    0    0  0.81091348710E+01  0.43050774184E+02  0.24759696951E+02  0.95195689153E+02  0.80808721151E+02 0.  0.
        -11    1    4    4    0    0  0.13398508926E+02  0.58780455540E+02  0.40253953049E+02  0.72491673529E+02  0.00000000000E+00 0.  1.
         12    1    4    4    0    0 -0.52893740554E+01 -0.15729681356E+02 -0.15494256098E+02  0.22704015625E+02  0.00000000000E+00 0. -1.
        -13    1    3    3    0    0  0.72093072420E+01  0.62105430221E+02  0.89952485272E+02  0.10954683099E+03  0.00000000000E+00 0. -1.
         13    1    3    3    0    0 -0.12654168443E+02 -0.27431326234E+02  0.24589589028E+02  0.38951938675E+02  0.00000000000E+00 0.  1.
          1    1    1    2  501    0 -0.26642736706E+01 -0.77724878171E+02  0.32494504651E+03  0.33412204101E+03  0.00000000000E+00 0. -1.
<scales pt_clust_5="13000.00000" pt_clust_6="13000.00000" pt_clust_7="13000.00000" pt_clust_8="13000.00000" pt_clust_9="77.77057"></scales>
<clustering>
<clus scale="   77.771">  2  9  1 -1</clus>
<clus scale="   80.809">  5  6 -1 -1</clus>
<clus scale="   81.597">  2  5  1 -1</clus>
<clus scale="   87.750">  7  8 -1 -1</clus>
<clus scale="   77.771">  2  5  1 -1</clus>
</clustering>
</event>
<event>
 9    2  0.7820252E-005  0.2390327E+03  0.7546771E-02  0.1120840E+00
          2   -1    0    0  502    0 -0.00000000000E+00  0.00000000000E+00  0.14516891234E+04  0.14516891234E+04  0.00000000000E+00 0. -1.
         21   -1    0    0  501  502  0.00000000000E+00 -0.00000000000E+00 -0.79387352072E+02  0.79387352072E+02  0.00000000000E+00 0.  1.
         24    2    1    2    0    0 -0.52640266625E+01 -0.22571074810E+03  0.11949204844E+04  0.12186904448E+04  0.79989901506E+02 0.  0.
         23    2    1    2    0    0  0.24070872746E+02  0.20579811750E+03  0.13550407761E+03  0.26234693622E+03  0.86788753947E+02 0.  0.
        -13    1    3    3    0    0 -0.10292972926E+02 -0.11979974011E+03  0.43142602714E+03  0.44786866369E+03  0.00000000000E+00 0.  1.
         14    1    3    3    0    0  0.50289462635E+01 -0.10591100799E+03  0.76349445728E+03  0.77082178110E+03  0.00000000000E+00 0. -1.
        -11    1    4    4    0    0 -0.24597791994E+02  0.32072213917E+02  0.74318828706E+01  0.41096364310E+02  0.00000000000E+00 0. -1.
         11    1    4    4    0    0  0.48668664740E+02  0.17372590359E+03  0.12807219474E+03  0.22125057191E+03  0.00000000000E+00 0.  1.
          1    1    1    2  501    0 -0.18806846083E+02  0.19912630596E+02  0.41877209338E+02  0.50039094504E+02  0.00000000000E+00 0. -1.
<scales pt_clust_5="13000.00000" pt_clust_6="13000.00000" pt_clust_7="13000.00000" pt_clust_8="13000.00000" pt_clust_9="27.38997"></scales>
<clustering>
<clus scale="   27.390">  2  9  1 -1</clus>
<clus scale="   79.990">  5  6 -1 -1</clus>
<clus scale="   86.789">  7  8 -1 -1</clus>
<clus scale="  236.649">  1  5  2 -1</clus>
<clus scale="   27.390">  2  5  1 -1</clus>
</clustering>
</event>
<event>
 9    2  0.7820252E-005  0.9167004E+02  0.7546771E-02  0.1300321E+00
         21   -1    0    0  501  502  0.00000000000E+00  0.00000000000E+00  0.88673972915E+03  0.88673972915E+03  0.00000000000E+00 0.  1.
         -1   -1    0    0    0  501 -0.00000000000E+00 -0.00000000000E+00 -0.39204086326E+02  0.39204086326E+02  0.00000000000E+00 0.  1.
         23    2    1    2    0    0 -0.81486973778E+00  0.40044813012E+02  0.59093186933E+02  0.11377793294E+03  0.88595497749E+02 0.  0.
         24    2    1    2    0    0 -0.37877202172E+02  0.40357166412E+02  0.29573570798E+03  0.31144490817E+03  0.80467002726E+02 0.  0.
        -11    1    4    4    0    0 -0.42199554894E+02  0.14919866975E+02  0.62988890458E+02  0.77272279538E+02  0.00000000000E+00 0.  1.
         12    1    4    4    0    0  0.43223527225E+01  0.25437299438E+02  0.23274681752E+03  0.23417262863E+03  0.00000000000E+00 0. -1.
        -13    1    3    3    0    0 -0.91364318699E+01  0.66346819634E+02  0.53289428167E+02  0.85587020145E+02  0.00000000000E+00 0.  1.
         13    1    3    3    0    0  0.83215621321E+01 -0.26302006622E+02  0.58037587660E+01  0.28190912800E+02  0.00000000000E+00 0. -1.
         -2    1    1    2    0  502  0.38692071909E+02 -0.80401979424E+02  0.49270674791E+03  0.50072097435E+03  0.00000000000E+00 0.  1.
<scales pt_clust_5="13000.00000" pt_clust_6="13000.00000" pt_clust_7="13000.00000" pt_clust_8="13000.00000" pt_clust_9="89.22754"></scales>
<clustering>
<clus scale="   80.467">  5  6 -1 -1</clus>
<clus scale="   88.595">  7  8 -1 -1</clus>
<clus scale="   89.228">  1  9  2 -1</clus>
<clus scale="   89.228">  1  5  2 -1</clus>
<clus scale="   89.228">  1  5  2 -1</clus>
</clustering>
</event>
<event>
 9    2  0.7820252E-005  0.1234142E+03  0.7546771E-02  0.1241483E+00
          2   -1    0    0  502    0 -0.00000000000E+00  0.00000000000E+00  0.38646173634E+03  0.38646173634E+03  0.00000000000E+00 0. -1.
         21   -1    0    0  501  502  0.00000000000E+00 -0.00000000000E+00 -0.66296203345E+02  0.66296203345E+02  0.00000000000E+00 0. -1.
         23    2    1    2    0    0 -0.84123014464E+02 -0.23704216575E+02  0.10258635928E+03  0.16411000808E+03  0.93645940623E+02 0.  0.
         24    2    1    2    0    0  0.57981509526E+02  0.50535640004E+02  0.59981731133E+02  0.12665948303E+03  0.80802909693E+02 0.  0.
        -13    1    4    4    0    0  0.60066188312E+02  0.58782651305E+02  0.72857517735E+02  0.11122753689E+03  0.00000000000E+00 0.  1.
         14    1    4    4    0    0 -0.20846787863E+01 -0.82470113009E+01 -0.12875786602E+02  0.15431946140E+02  0.00000000000E+00 0. -1.
        -13    1    3    3    0    0 -0.23581755318E+02 -0.54947256398E+02  0.43708747837E+02  0.74065881531E+02  0.00000000000E+00 0.  1.
         13    1    3    3    0    0 -0.60541259146E+02  0.31243039823E+02  0.58877611447E+02  0.90044126550E+02  0.00000000000E+00 0. -1.
          1    1    1    2  501    0  0.26141504938E+02 -0.26831423429E+02  0.15759744257E+03  0.16198844857E+03  0.00000000000E+00 0. -1.
<scales pt_clust_5="13000.00000" pt_clust_6="13000.00000" pt_clust_7="13000.00000" pt_clust_8="13000.00000" pt_clust_9="37.46071"></scales>
<clustering>
<clus scale="   37.461">  2  9  1 -1</clus>
<clus scale="   80.803">  5  6 -1 -1</clus>
<clus scale="   93.646">  7  8 -1 -1</clus>
<clus scale="  113.976">  2  5  1 -1</clus>
<clus scale="   37.461">  2  5  1 -1</clus>
</clustering>
</event>
<event>
 9    2  0.7820252E-005  0.9553473E+02  0.7546771E-02  0.1293815E+00
         21   -1    0    0  501  502  0.00000000000E+00  0.00000000000E+00  0.16942684767E+02  0.16942684767E+02  0.00000000000E+00 0. -1.
          2   -1    0    0  502    0 -0.00000000000E+00 -0.00000000000E+00 -0.95347540466E+03  0.95347540466E+03  0.00000000000E+00 0. -1.
         24    2    1    2    0    0  0.23938132540E+02  0.33815576582E+01 -0.61488445546E+03  0.62120332986E+03  0.85007142860E+02 0.  0.
         23    2    1    2    0    0 -0.34549100879E+02  0.20228222649E+02 -0.18770988044E+03  0.21279809973E+03  0.91897827346E+02 0.  0.
        -11    1    3    3    0    0 -0.20211710217E+01 -0.33361582170E+02 -0.12968524488E+03  0.13392289960E+03  0.00000000000E+00 0.  1.
         12    1    3    3    0    0  0.25959303561E+02  0.36743139828E+02 -0.48519921058E+03  0.48728043026E+03  0.00000000000E+00 0. -1.
        -13    1    4    4    0    0 -0.54534052822E+02  0.31704039927E+02 -0.17597009549E+03  0.18693470403E+03  0.00000000000E+00 0.  1.
         13    1    4    4    0    0  0.19984951943E+02 -0.11475817278E+02 -0.11739784951E+02  0.25863395698E+02  0.00000000000E+00 0. -1.
          1    1    1    2  501    0  0.10610968340E+02 -0.23609780307E+02 -0.13393838398E+03  0.13641665983E+03  0.00000000000E+00 0. -1.
<scales pt_clust_5="13000.00000" pt_clust_6="13000.00000" pt_clust_7="13000.00000" pt_clust_8="13000.00000" pt_clust_9="25.88465"></scales>
<clustering>
<clus scale="   25.885">  1  9  2 -1</clus>
<clus scale="   85.007">  5  6 -1 -1</clus>
<clus scale="   88.926">  2  5  1 -1</clus>
<clus scale="   91.898">  7  8 -1 -1</clus>
<clus scale="   25.885">  1  5  2 -1</clus>
</clustering>
</event>
<event>
 9    2  0.7820252E-005  0.1051738E+03  0.7546771E-02  0.1274526E+00
         21   -1    0    0  501  502  0.00000000000E+00  0.00000000000E+00  0.35564960650E+02  0.35564960650E+02  0.00000000000E+00 0. -1.
          2   -1    0    0  502    0 -0.00000000000E+00 -0.00000000000E+00 -0.10445678587E+04  0.10445678587E+04  0.00000000000E+00 0. -1.
         24    2    1    2    0    0 -0.20993019303E+02 -0.40833566823E+02 -0.79374850709E+03  0.79960020498E+03  0.84945325085E+02 0.  0.
         23    2    1    2    0    0 -0.15590939868E+02  0.42503850469E+02 -0.60607056143E+02  0.12160818553E+03  0.95213868860E+02 0.  0.
        -11    1    3    3    0    0 -0.22234472701E+02  0.63646457834E+00 -0.50345825648E+02  0.55040703335E+02  0.00000000000E+00 0.  1.
         12    1    3    3    0    0  0.12414533980E+01 -0.41470031401E+02 -0.74340268144E+03  0.74455950164E+03  0.00000000000E+00 0. -1.
        -11    1    4    4    0    0  0.23317221406E+02 -0.76610092814E+01 -0.52053370997E+02  0.57549433616E+02  0.00000000000E+00 0.  1.
         11    1    4    4    0    0 -0.38908161273E+02  0.50164859750E+02 -0.85536851456E+01  0.64058751916E+02  0.00000000000E+00 0. -1.
          1    1    1    2  501    0  0.36583959171E+02 -0.16702836461E+01 -0.15464733481E+03  0.15892442884E+03  0.00000000000E+00 0. -1.
<scales pt_clust_5="13000.00000" pt_clust_6="13000.00000" pt_clust_7="13000.00000" pt_clust_8="13000.00000" pt_clust_9="36.62209"></scales>
<clustering>
<clus scale="   36.622">  1  9  2 -1</clus>
<clus scale="   84.945">  5  6 -1 -1</clus>
<clus scale="   95.214">  7  8 -1 -1</clus>
<clus scale="   95.977">  2  5  1 -1</clus>
<clus scale="   36.622">  1  5  2 -1</clus>
</clustering>
</event>
<event>
 9    2  0.7820252E-005  0.1673359E+03  0.7546771E-02  0.1198437E+00
         21   -1    0    0  501  502  0.00000000000E+00  0.00000000000E+00  0.16053743083E+04  0.16053743083E+04  0.00000000000E+00 0. -1.
         -1   -1    0    0    0  501 -0.00000000000E+00 -0.00000000000E+00 -0.30294290498E+02  0.30294290498E+02  0.00000000000E+00 0.  1.
         23    2    1    2    0    0 -0.47592786264E+02 -0.48404595661E+02  0.53344565762E+03  0.54526871437E+03  0.90253105527E+02 0.  0.
         24    2    1    2    0    0  0.16435961671E+03 -0.25096008427E+02  0.62890623308E+03  0.65522022222E+03  0.78400231860E+02 0.  0.
        -11    1    4    4    0    0  0.47383065196E+02  0.12207561212E+02  0.89350927631E+02  0.10187132907E+03  0.00000000000E+00 0.  1.
         12    1    4    4    0    0  0.11697655152E+03 -0.37303569639E+02  0.53955530545E+03  0.55334889315E+03  0.00000000000E+00 0. -1.
        -13    1    3    3    0    0 -0.66632863052E+02 -0.92084380397E+01  0.37268782755E+03  0.37870958606E+03  0.00000000000E+00 0. -1.
         13    1    3    3    0    0  0.19040076788E+02 -0.39196157621E+02  0.16075783007E+03  0.16655912832E+03  0.00000000000E+00 0.  1.
         -2    1    1    2    0  502 -0.11676683045E+03  0.73500604088E+02  0.41272812711E+03  0.43517966221E+03  0.00000000000E+00 0.  1.
<scales pt_clust_5="13000.00000" pt_clust_6="13000.00000" pt_clust_7="13000.00000" pt_clust_8="13000.00000" pt_clust_9="147.83339"></scales>
<clustering>
<clus scale="   78.400">  5  6 -1 -1</clus>
<clus scale="   90.253">  7  8 -1 -1</clus>
<clus scale="  112.932">  2  7  1 -1</clus>
<clus scale="  147.833">  1  9  2 -1</clus>
<clus scale="  147.833">  1  5  2 -1</clus>
</clustering>
</event>
<event>
 9    2  0.7820252E-005  0.1022244E+03  0.7546771E-02  0.1280889E+00
          2   -1    0    0  502    0 -0.00000000000E+00  0.00000000000E+00  0.14542118380E+03  0.14542118380E+03  0.00000000000E+00 0. -1.
         21   -1    0    0  501  502  0.00000000000E+00 -0.00000000000E+00 -0.99275425925E+02  0.99275425925E+02  0.00000000000E+00 0.  1.
         24    2    1    2    0    0  0.20327371450E+02  0.43272867962E+02  0.49532590061E+02  0.10607228346E+03  0.80697637565E+02 0.  0.
         23    2    1    2    0    0  0.29559007040E+01 -0.43457591505E+02 -0.27497871957E+02  0.10510586682E+03  0.91617742105E+02 0.  0.
        -11    1    3    3    0    0 -0.30791413603E+02  0.14034313885E+02  0.10536300457E+02  0.35441314101E+02  0.00000000000E+00 0.  1.
         12    1    3    3    0    0  0.51118785053E+02  0.29238554077E+02  0.38996289605E+02  0.70630969360E+02  0.00000000000E+00 0. -1.
        -13    1    4    4    0    0 -0.38799011317E+02 -0.15935766690E+02 -0.34883385929E+02  0.54554216638E+02  0.00000000000E+00 0.  1.
         13    1    4    4    0    0  0.41754912021E+02 -0.27521824815E+02  0.73855139713E+01  0.50551650177E+02  0.00000000000E+00 0. -1.
          1    1    1    2  501    0 -0.23283272154E+02  0.18472354260E+00  0.24111039770E+02  0.33518459448E+02  0.00000000000E+00 0. -1.
<scales pt_clust_5="13000.00000" pt_clust_6="13000.00000" pt_clust_7="13000.00000" pt_clust_8="13000.00000" pt_clust_9="23.28402"></scales>
<clustering>
<clus scale="   23.284">  2  9  1 -1</clus>
<clus scale="   80.698">  5  6 -1 -1</clus>
<clus scale="   91.618">  7  8 -1 -1</clus>
<clus scale="   92.564">  1  5  2 -1</clus>
<clus scale="   23.284">  2  5  1 -1</clus>
</clustering>
</event>
<event>
 9    2  0.7820252E-005  0.1172431E+03  0.7546771E-02  0.1252081E+00
         -1   -1    0    0    0  501 -0.00000000000E+00  0.00000000000E+00  0.15378862018E+03  0.15378862018E+03  0.00000000000E+00 0.  1.
         21   -1    0    0  501  502  0.00000000000E+00 -0.00000000000E+00 -0.40827073731E+03  0.40827073731E+03  0.00000000000E+00 0.  1.
         24    2    1    2    0    0  0.13963881395E+02 -0.78951682811E+02  0.10530491421E+03  0.15332253298E+03  0.77397131487E+02 0.  0.
         23    2    1    2    0    0 -0.51802325874E+02  0.30188507990E+02 -0.12309030689E+03  0.16412502090E+03  0.90503988058E+02 0.  0.
        -11    1    3    3    0    0  0.39251874591E+02 -0.70947846003E+02  0.94923214346E+02  0.12483878858E+03  0.00000000000E+00 0.  1.
         12    1    3    3    0    0 -0.25287993196E+02 -0.80038368081E+01  0.10381699859E+02  0.28483744408E+02  0.00000000000E+00 0. -1.
        -11    1    4    4    0    0 -0.63031344985E+02 -0.44827448310E+01 -0.43876596373E+02  0.76929845711E+02  0.00000000000E+00 0.  1.
         11    1    4    4    0    0  0.11229019110E+02  0.34671252821E+02 -0.79213710519E+02  0.87195175191E+02  0.00000000000E+00 0. -1.
         -2    1    1    2    0  502  0.37838444479E+02  0.48763174820E+02 -0.23669672444E+03  0.24461180360E+03  0.00000000000E+00 0.  1.
<scales pt_clust_5="13000.00000" pt_clust_6="13000.00000" pt_clust_7="13000.00000" pt_clust_8="13000.00000" pt_clust_9="61.72192"></scales>
<clustering>
<clus scale="   61.722">  2  9  1 -1</clus>
<clus scale="   77.397">  5  6 -1 -1</clus>
<clus scale="   90.504">  7  8 -1 -1</clus>
<clus scale="  107.449">  1  5  2 -1</clus>
<clus scale="   61.722">  2  5  1 -1</clus>
</clustering>
</event>
<event>
 9    2  0.7820252E-005  0.1223600E+03  0.7546771E-02  0.1242374E+00
         21   -1    0    0  501  502  0.00000000000E+00  0.00000000000E+00  0.11431864271E+03  0.11431864271E+03  0.00000000000E+00 0. -1.
          2   -1    0    0  502    0 -0.00000000000E+00 -0.00000000000E+00 -0.36159013671E+03  0.36159013671E+03  0.00000000000E+00 0. -1.
         23    2    1    2    0    0  0.34921791538E+02 -0.62040911127E+02 -0.21424723523E+03  0.24334557429E+03  0.90810707224E+02 0.  0.
         24    2    1    2    0    0 -0.74495491838E+02  0.83609904540E+02 -0.86402226361E+02  0.16270258204E+03  0.80415116996E+02 0.  0.
        -13    1    4    4    0    0 -0.45981718387E+02 -0.26035383226E+01 -0.20013575833E+02  0.50215934276E+02  0.00000000000E+00 0.  1.
         14    1    4    4    0    0 -0.28513773451E+02  0.86213442862E+02 -0.66388650528E+02  0.11248664777E+03  0.00000000000E+00 0. -1.
        -11    1    3    3    0    0 -0.27489372508E+02 -0.29735229627E+02 -0.11351116809E+03  0.12051819267E+03  0.00000000000E+00 0.  1.
         11    1    3    3    0    0  0.62411164046E+02 -0.32305681500E+02 -0.10073606714E+03  0.12282738163E+03  0.00000000000E+00 0. -1.
          1    1    1    2  501    0  0.39573700300E+02 -0.21568993412E+02  0.53377967592E+02  0.69860623076E+02  0.00000000000E+00 0. -1.
<scales pt_clust_5="13000.00000" pt_clust_6="13000.00000" pt_clust_7="13000.00000" pt_clust_8="13000.00000" pt_clust_9="45.06994"></scales>
<clustering>
<clus scale="   45.070">  1  9  2 -1</clus>
<clus scale="   80.415">  5  6 -1 -1</clus>
<clus scale="   90.811">  7  8 -1 -1</clus>
<clus scale="  114.856">  1  5  2 -1</clus>
<clus scale="   45.070">  1  5  2 -1</clus>
</clustering>
</event>
<event>
 9    2  0.7820252E-005  0.1611145E+03  0.7546771E-02  0.1210992E+00
         -1   -1    0    0    0  501 -0.00000000000E+00  0.00000000000E+00  0.68070221516E+02  0.68070221516E+02  0.00000000000E+00 0.  1.
         21   -1    0    0  501  502  0.00000000000E+00 -0.00000000000E+00 -0.91420929042E+03  0.91420929042E+03  0.00000000000E+00 0.  1.
         24    2    1    2    0    0 -0.25959868964E+02 -0.46330511039E+02 -0.20037546920E+02  0.98596604335E+02  0.80618583776E+02 0.  0.
         23    2    1    2    0    0 -0.78041058544E+02 -0.61445277278E+02 -0.20479817056E+03  0.24458223638E+03  0.89511176775E+02 0.  0.
        -13    1    3    3    0    0 -0.45722865824E+02 -0.37960013125E+02  0.11420732455E+02  0.60514264314E+02  0.00000000000E+00 0.  1.
         14    1    3    3    0    0  0.19762996861E+02 -0.83704979140E+01 -0.31458279375E+02  0.38082340021E+02  0.00000000000E+00 0. -1.
        -13    1    4    4    0    0 -0.23534069507E+02 -0.42789524062E+02 -0.23200841090E+02  0.54065467947E+02  0.00000000000E+00 0.  1.
         13    1    4    4    0    0 -0.54506989037E+02 -0.18655753217E+02 -0.18159732947E+03  0.19051676843E+03  0.00000000000E+00 0. -1.
         -2    1    1    2    0  502  0.10400092751E+03  0.10777578832E+03 -0.62130335142E+03  0.63910067122E+03  0.00000000000E+00 0.  1.
<scales pt_clust_5="13000.00000" pt_clust_6="13000.00000" pt_clust_7="13000.00000" pt_clust_8="13000.00000" pt_clust_9="133.96131"></scales>
<clustering>
<clus scale="   80.619">  5  6 -1 -1</clus>
<clus scale="   89.511">  7  8 -1 -1</clus>
<clus scale="   96.539">  1  5  2 -1</clus>
<clus scale="  133.961">  2  9  1 -1</clus>
<clus scale="  133.961">  2  5  1 -1</clus>
</clustering>
</event>
<event>
 9    2  0.7820252E-005  0.9875443E+02  0.7546771E-02  0.1288743E+00
          2   -1    0    0  502    0 -0.00000000000E+00  0.00000000000E+00  0.52543565497E+03  0.52543565497E+03  0.00000000000E+00 0. -1.
         21   -1    0    0  501  502  0.00000000000E+00 -0.00000000000E+00 -0.61766793955E+02  0.61766793955E+02  0.00000000000E+00 0. -1.
         23    2    1    2    0    0 -0.19624230189E+02 -0.15191829230E+02  0.24419428508E+03  0.26103427772E+03  0.88837735189E+02 0.  0.
         24    2    1    2    0    0 -0.12078272632E+02  0.97835421637E+02  0.20087157829E+03  0.23571882863E+03  0.74137175627E+02 0.  0.
        -13    1    4    4    0    0  0.94923186645E+01  0.30135687757E+02  0.11782554043E+02  0.33720800258E+02  0.00000000000E+00 0.  1.
         14    1    4    4    0    0 -0.21570591297E+02  0.67699733880E+02  0.18908902425E+03  0.20199802838E+03  0.00000000000E+00 0. -1.
        -11    1    3    3    0    0 -0.12810120741E+02  0.37004708600E+02  0.11694014943E+03  0.12332252917E+03  0.00000000000E+00 0. -1.
         11    1    3    3    0    0 -0.68141094479E+01 -0.52196537830E+02  0.12725413565E+03  0.13771174855E+03  0.00000000000E+00 0.  1.
          1    1    1    2  501    0  0.31702502821E+02 -0.82643592407E+02  0.18602997647E+02  0.90449342577E+02  0.00000000000E+00 0. -1.
<scales pt_clust_5="13000.00000" pt_clust_6="13000.00000" pt_clust_7="13000.00000" pt_clust_8="13000.00000" pt_clust_9="88.51560"></scales>
<clustering>
<clus scale="   74.137">  5  6 -1 -1</clus>
<clus scale="   88.516">  2  9  1 -1</clus>
<clus scale="   88.516">  2  5  1 -1</clus>
<clus scale="   88.838">  7  8 -1 -1</clus>
<clus scale="   88.516">  2  5  1 -1</clus>
</clustering>
</event>
<event>
 9    2  0.7820252E-005  0.1213195E+03  0.7546771E-02  0.1244485E+00
         21   -1    0    0  501  502  0.00000000000E+00  0.00000000000E+00  0.71796141721E+03  0.71796141721E+03  0.00000000000E+00 0.  1.
          2   -1    0    0  502    0 -0.00000000000E+00 -0.00000000000E+00 -0.30306684518E+02  0.30306684518E+02  0.00000000000E+00 0. -1.
         23    2    1    2    0    0 -0.70055359771E+02  0.20305796972E+02  0.22600424393E+03  0.25505703661E+03  0.93038136425E+02 0.  0.
         24    2    1    2    0    0  0.60622470387E+02 -0.68449412570E+02  0.29500053633E+03  0.31949004229E+03  0.81781200101E+02 0.  0.
        -13    1    4    4    0    0  0.14142294468E+02 -0.50050687157E+02  0.23825653561E+03  0.24386728468E+03  0.00000000000E+00 0.  1.
         14    1    4    4    0    0  0.46480175920E+02 -0.18398725414E+02  0.56744000722E+02  0.75622757609E+02  0.00000000000E+00 0. -1.
        -13    1    3    3    0    0 -0.37796050907E+02  0.57568834177E+02  0.12748570003E+03  0.14489760469E+03  0.00000000000E+00 0. -1.
         13    1    3    3    0    0 -0.32259308864E+02 -0.37263037204E+02  0.98518543897E+02  0.11015943192E+03  0.00000000000E+00 0.  1.
          1    1    1    2  501    0  0.94328893839E+01  0.48143615598E+02  0.16664995243E+03  0.17372102282E+03  0.00000000000E+00 0. -1.
<scales pt_clust_5="13000.00000" pt_clust_6="13000.00000" pt_clust_7="13000.00000" pt_clust_8="13000.00000" pt_clust_9="49.05902"></scales>
<clustering>
<clus scale="   49.059">  1  9  2 -1</clus>
<clus scale="   81.781">  5  6 -1 -1</clus>
<clus scale="   93.038">  7  8 -1 -1</clus>
<clus scale="  112.918">  1  5  2 -1</clus>
<clus scale="   49.059">  1  5  2 -1</clus>
</clustering>
</event>
<event>
 9    2  0.7820252E-005  0.1198463E+03  0.7546771E-02  0.1246635E+00
         21   -1    0    0  501  502  0.00000000000E+00  0.00000000000E+00  0.13297967568E+03  0.13297967568E+03  0.00000000000E+00 0. -1.
          2   -1    0    0  502    0 -0.00000000000E+00 -0.00000000000E+00 -0.40523149266E+03  0.40523149266E+03  0.00000000000E+00 0. -1.
         24    2    1    2    0    0  0.31190721490E+02  0.74924264038E+02 -0.32802782555E+03  0.34706724455E+03  0.79163826670E+02 0.  0.
         23    2    1    2    0    0  0.19826403549E+02 -0.79710802057E+02  0.93312599400E+01  0.12198633079E+03  0.89703368086E+02 0.  0.
        -13    1    3    3    0    0 -0.20758185279E+02  0.21196145925E+02 -0.41898773309E+02  0.51338933208E+02  0.00000000000E+00 0.  1.
         14    1    3    3    0    0  0.51948906769E+02  0.53728118113E+02 -0.28612905224E+03  0.29572831134E+03  0.00000000000E+00 0. -1.
        -13    1    4    4    0    0 -0.29181832011E+02 -0.14130324342E+01  0.87117862326E+00  0.29229008406E+02  0.00000000000E+00 0.  1.
         13    1    4    4    0    0  0.49008235560E+02 -0.78297769623E+02  0.84600813168E+01  0.92757322388E+02  0.00000000000E+00 0. -1.
          1    1    1    2  501    0 -0.51017125039E+02  0.47865380187E+01  0.46444748635E+02  0.69157592997E+02  0.00000000000E+00 0. -1.
<scales pt_clust_5="13000.00000" pt_clust_6="13000.00000" pt_clust_7="13000.00000" pt_clust_8="13000.00000" pt_clust_9="51.24117"></scales>
<clustering>
<clus scale="   51.241">  1  9  2 -1</clus>
<clus scale="   79.164">  5  6 -1 -1</clus>
<clus scale="   89.703">  7  8 -1 -1</clus>
<clus scale="  112.176">  2  5  1 -1</clus>
<clus scale="   51.241">  1  5  2 -1</clus>
</clustering>
</event>
<event>
 9    2  0.7820252E-005  0.1130242E+03  0.7546771E-02  0.1258489E+00
         -3   -1    0    0    0  501 -0.00000000000E+00  0.00000000000E+00  0.33713295592E+02  0.33713295592E+02  0.00000000000E+00 0.  1.
         21   -1    0    0  501  502  0.00000000000E+00 -0.00000000000E+00 -0.65397008062E+03  0.65397008062E+03  0.00000000000E+00 0. -1.
         23    2    1    2    0    0 -0.44310840012E+02  0.34749627402E+02 -0.14112107684E+03  0.17788862963E+03  0.92510643051E+02 0.  0.
         24    2    1    2    0    0  0.69737049585E+02 -0.56198355572E+02 -0.44738813902E+03  0.46381161683E+03  0.83328012789E+02 0.  0.
        -13    1    4    4    0    0  0.43323258513E+02  0.76348661403E+01 -0.94664416339E+02  0.10438652993E+03  0.00000000000E+00 0.  1.
         14    1    4    4    0    0  0.26413791072E+02 -0.63833221712E+02 -0.35272372268E+03  0.35942508691E+03  0.00000000000E+00 0. -1.
        -13    1    3    3    0    0 -0.36915551368E+02  0.63387363482E+02 -0.72365388188E+02  0.10304108496E+03  0.00000000000E+00 0.  1.
         13    1    3    3    0    0 -0.73952886439E+01 -0.28637736081E+02 -0.68755688649E+02  0.74847544673E+02  0.00000000000E+00 0. -1.
         -4    1    1    2    0  502 -0.25426209573E+02  0.21448728170E+02 -0.31747569166E+02  0.45983129747E+02  0.00000000000E+00 0.  1.
<scales pt_clust_5="13000.00000" pt_clust_6="13000.00000" pt_clust_7="13000.00000" pt_clust_8="13000.00000" pt_clust_9="33.26471"></scales>
<clustering>
<clus scale="   33.265">  2  9  1 -1</clus>
<clus scale="   83.328">  5  6 -1 -1</clus>
<clus scale="   92.511">  7  8 -1 -1</clus>
<clus scale="  105.640">  2  5  1 -1</clus>
<clus scale="   33.265">  2  5  1 -1</clus>
</clustering>
</event>
<event>
 9    2  0.7820252E-005  0.1635140E+03  0.7546771E-02  0.1185887E+00
          2   -1    0    0  502    0 -0.00000000000E+00  0.00000000000E+00  0.14025492775E+04  0.14025492775E+04  0.00000000000E+00 0. -1.
         21   -1    0    0  501  502  0.00000000000E+00 -0.00000000000E+00 -0.31537155608E+02  0.31537155608E+02  0.00000000000E+00 0. -1.
         24    2    1    2    0    0  0.12529472456E+03  0.35903224759E+01  0.65627053128E+03  0.67334727896E+03  0.83629477150E+02 0.  0.
         23    2    1    2    0    0 -0.14566626443E+03 -0.51129656705E+02  0.66595517532E+03  0.68963991188E+03  0.90961585982E+02 0.  0.
        -13    1    3    3    0    0  0.61770641126E+02 -0.11984769989E+02  0.14709429399E+03  0.15998743120E+03  0.00000000000E+00 0.  1.
         14    1    3    3    0    0  0.63524083430E+02  0.15575092465E+02  0.50917623729E+03  0.51335984777E+03  0.00000000000E+00 0. -1.
        -13    1    4    4    0    0 -0.96098509008E+02  0.28982288997E+01  0.26196719308E+03  0.27905220553E+03  0.00000000000E+00 0. -1.
         13    1    4    4    0    0 -0.49567755424E+02 -0.54027885604E+02  0.40398798224E+03  0.41058770634E+03  0.00000000000E+00 0.  1.
          1    1    1    2  501    0  0.20371539877E+02  0.47539334229E+02  0.48786415330E+02  0.71099242307E+02  0.00000000000E+00 0. -1.
<scales pt_clust_5="13000.00000" pt_clust_6="13000.00000" pt_clust_7="13000.00000" pt_clust_8="13000.00000" pt_clust_9="51.72029"></scales>
<clustering>
<clus scale="   51.720">  2  9  1 -1</clus>
<clus scale="   83.629">  5  6 -1 -1</clus>
<clus scale="   90.962">  7  8 -1 -1</clus>
<clus scale="  159.552">  1  5  2 -1</clus>
<clus scale="   51.720">  2  5  1 -1</clus>
</clustering>
</event>
<event>
 9    2  0.7820252E-005  0.9790791E+02  0.7546771E-02  0.1290707E+00
         21   -1    0    0  501  502  0.00000000000E+00  0.00000000000E+00  0.20348712336E+03  0.20348712336E+03  0.00000000000E+00 0. -1.
          2   -1    0    0  502    0 -0.00000000000E+00 -0.00000000000E+00 -0.26887432023E+03  0.26887432023E+03  0.00000000000E+00 0. -1.
         23    2    1    2    0    0  0.11488567660E+01  0.22830249293E+02 -0.93303052608E+02  0.13218946433E+03  0.90807789867E+02 0.  0.
         24    2    1    2    0    0  0.66796858956E+02 -0.50602693007E+01 -0.13051492976E+03  0.16687250935E+03  0.79528993412E+02 0.  0.
        -13    1    4    4    0    0  0.68923665377E+02  0.88875033498E+01 -0.51215673366E+02  0.86327889834E+02  0.00000000000E+00 0.  1.
         14    1    4    4    0    0 -0.21268064216E+01 -0.13947772651E+02 -0.79299256397E+02  0.80544619513E+02  0.00000000000E+00 0. -1.
        -11    1    3    3    0    0 -0.20358847610E+02 -0.18798718246E+02 -0.78191035664E+02  0.82956088034E+02  0.00000000000E+00 0.  1.
         11    1    3    3    0    0  0.21507704376E+02  0.41628967539E+02 -0.15112016944E+02  0.49233376301E+02  0.00000000000E+00 0. -1.
          1    1    1    2  501    0 -0.67945715722E+02 -0.17769979992E+02  0.15843078551E+03  0.17329946991E+03  0.00000000000E+00 0. -1.
<scales pt_clust_5="13000.00000" pt_clust_6="13000.00000" pt_clust_7="13000.00000" pt_clust_8="13000.00000" pt_clust_9="70.23099"></scales>
<clustering>
<clus scale="   70.231">  1  9  2 -1</clus>
<clus scale="   79.529">  5  6 -1 -1</clus>
<clus scale="   87.549">  1  5  2 -1</clus>
<clus scale="   90.808">  7  8 -1 -1</clus>
<clus scale="   70.231">  1  5  2 -1</clus>
</clustering>
</event>
<event>
 9    2  0.7820252E-005  0.1013597E+03  0.7546771E-02  0.1277526E+00
          2   -1    0    0  502    0 -0.00000000000E+00  0.00000000000E+00  0.49344997151E+03  0.49344997151E+03  0.00000000000E+00 0. -1.
         21   -1    0    0  501  502  0.00000000000E+00 -0.00000000000E+00 -0.80711013543E+02  0.80711013543E+02  0.00000000000E+00 0. -1.
         23    2    1    2    0    0  0.40044164329E+02  0.40000658410E+02  0.23514308973E+03  0.25856994770E+03  0.91447019815E+02 0.  0.
         24    2    1    2    0    0 -0.23506336443E+02  0.60063589927E+02 -0.85875210833E+01  0.10357545301E+03  0.80585025040E+02 0.  0.
        -13    1    4    4    0    0  0.19313043314E+02  0.46619051448E+02 -0.24321869007E+02  0.56016809191E+02  0.00000000000E+00 0.  1.
         14    1    4    4    0    0 -0.42819379756E+02  0.13444538479E+02  0.15734347923E+02  0.47558643822E+02  0.00000000000E+00 0. -1.
        -11    1    3    3    0    0 -0.20398095603E+02 -0.15447059973E+01  0.12221162630E+03  0.12391186394E+03  0.00000000000E+00 0.  1.
         11    1    3    3    0    0  0.60442259932E+02  0.41545364407E+02  0.11293146343E+03  0.13465808376E+03  0.00000000000E+00 0. -1.
          1    1    1    2  501    0 -0.16537827886E+02 -0.10006424834E+03  0.18618338932E+03  0.21201558435E+03  0.00000000000E+00 0. -1.
<scales pt_clust_5="13000.00000" pt_clust_6="13000.00000" pt_clust_7="13000.00000" pt_clust_8="13000.00000" pt_clust_9="101.42171"></scales>
<clustering>
<clus scale="   80.585">  5  6 -1 -1</clus>
<clus scale="   91.447">  7  8 -1 -1</clus>
<clus scale="  101.422">  2  9  1 -1</clus>
<clus scale="  101.422">  2  5  1 -1</clus>
<clus scale="  101.360">  2  5  1 -1</clus>
</clustering>
</event>
<event>
 9    2  0.7820252E-005  0.1045489E+03  0.7546771E-02  0.1275405E+00
          2   -1    0    0  502    0 -0.00000000000E+00  0.00000000000E+00  0.39842792478E+03  0.39842792478E+03  0.00000000000E+00 0. -1.
         21   -1    0    0  501  502  0.00000000000E+00 -0.00000000000E+00 -0.62453010902E+02  0.62453010902E+02  0.00000000000E+00 0.  1.
         23    2    1    2    0    0  0.73428675952E+02  0.44174813086E+02  0.13207391333E+03  0.18158676824E+03  0.90482325640E+02 0.  0.
         24    2    1    2    0    0  0.17062269762E+02 -0.44910378822E+02  0.67268961405E+02  0.11541168994E+03  0.80539939351E+02 0.  0.
        -13    1    4    4    0    0  0.28893969313E+02 -0.45219379602E+02  0.81075760245E+02  0.97226193248E+02  0.00000000000E+00 0.  1.
         14    1    4    4    0    0 -0.11831699550E+02  0.30900078003E+00 -0.13806798839E+02  0.18185496691E+02  0.00000000000E+00 0. -1.
        -13    1    3    3    0    0  0.50635416216E+02  0.29301187342E+02  0.13647304893E+02  0.60072904756E+02  0.00000000000E+00 0.  1.
         13    1    3    3    0    0  0.22793259736E+02  0.14873625743E+02  0.11842660844E+03  0.12151386348E+03  0.00000000000E+00 0. -1.
          1    1    1    2  501    0 -0.90490945714E+02  0.73556573658E+00  0.13663203914E+03  0.16388247750E+03  0.00000000000E+00 0. -1.
<scales pt_clust_5="13000.00000" pt_clust_6="13000.00000" pt_clust_7="13000.00000" pt_clust_8="13000.00000" pt_clust_9="90.49398"></scales>
<clustering>
<clus scale="   80.540">  5  6 -1 -1</clus>
<clus scale="   90.482">  7  8 -1 -1</clus>
<clus scale="   90.494">  2  9  1 -1</clus>
<clus scale="   96.073">  2  5  1 -1</clus>
<clus scale="   90.494">  2  5  1 -1</clus>
</clustering>
</event>
<event>
 9    2  0.7820252E-005  0.1413830E+03  0.7546771E-02  0.1213168E+00
         21   -1    0    0  501  502  0.00000000000E+00  0.00000000000E+00  0.44617571900E+02  0.44617571900E+02  0.00000000000E+00 0. -1.
          2   -1    0    0  502    0 -0.00000000000E+00 -0.00000000000E+00 -0.87575436787E+03  0.87575436787E+03  0.00000000000E+00 0. -1.
         24    2    1    2    0    0  0.79613332744E+02 -0.12381191889E+02 -0.23665895754E+03  0.26273212528E+03  0.80803037090E+02 0.  0.
         23    2    1    2    0    0 -0.16536288052E+03  0.11615823296E+02 -0.33312872540E+03  0.38258176678E+03  0.88962076081E+02 0.  0.
        -11    1    3    3    0    0  0.73200466546E+02 -0.32166764981E+02 -0.11976558452E+03  0.14400279271E+03  0.00000000000E+00 0.  1.
         12    1    3    3    0    0  0.64128661978E+01  0.19785573093E+02 -0.11689337302E+03  0.11872933257E+03  0.00000000000E+00 0. -1.
        -11    1    4    4    0    0 -0.46478937830E+02  0.43071911757E+02 -0.89323171046E+02  0.10951762475E+03  0.00000000000E+00 0.  1.
         11    1    4    4    0    0 -0.11888394269E+03 -0.31456088461E+02 -0.24380555435E+03  0.27306414203E+03  0.00000000000E+00 0. -1.
          1    1    1    2  501    0  0.85749547778E+02  0.76536859285E+00 -0.26134911303E+03  0.27505804772E+03  0.00000000000E+00 0. -1.
<scales pt_clust_5="13000.00000" pt_clust_6="13000.00000" pt_clust_7="13000.00000" pt_clust_8="13000.00000" pt_clust_9="85.75301"></scales>
<clustering>
<clus scale="   80.803">  5  6 -1 -1</clus>
<clus scale="   85.753">  1  9  2 -1</clus>
<clus scale="   88.962">  7  8 -1 -1</clus>
<clus scale="  136.397">  2  5  1 -1</clus>
<clus scale="   85.753">  1  5  2 -1</clus>
</clustering>
</event>
<event>
 9    2  0.7820252E-005  0.1376603E+03  0.7546771E-02  0.1218922E+00
         -1   -1    0    0    0  501 -0.00000000000E+00  0.00000000000E+00  0.75049879006E+02  0.75049879006E+02  0.00000000000E+00 0.  1.
         21   -1    0    0  501  502  0.00000000000E+00 -0.00000000000E+00 -0.62322736990E+03  0.62322736990E+03  0.00000000000E+00 0.  1.
         24    2    1    2    0    0 -0.10567530574E+03  0.74448505429E+02 -0.16219326355E+03  0.22232795391E+03  0.80082545830E+02 0.  0.
         23    2    1    2    0    0  0.96506441668E+02  0.56321666149E+02 -0.23884810153E+03  0.27888599206E+03  0.90792938066E+02 0.  0.
        -13    1    3    3    0    0 -0.87123949172E+02  0.55217268153E+02 -0.65914861966E+02  0.12241036823E+03  0.00000000000E+00 0.  1.
         14    1    3    3    0    0 -0.18551356566E+02  0.19231237276E+02 -0.96278401585E+02  0.99917585686E+02  0.00000000000E+00 0. -1.
        -13    1    4    4    0    0  0.15604404519E+02  0.46312721474E+02 -0.15248968812E+03  0.16012954316E+03  0.00000000000E+00 0.  1.
         13    1    4    4    0    0  0.80902037149E+02  0.10008944675E+02 -0.86358413409E+02  0.11875644890E+03  0.00000000000E+00 0. -1.
         -2    1    1    2    0  502  0.91688640706E+01 -0.13077017158E+03 -0.14713612582E+03  0.19706330293E+03  0.00000000000E+00 0.  1.
<scales pt_clust_5="13000.00000" pt_clust_6="13000.00000" pt_clust_7="13000.00000" pt_clust_8="13000.00000" pt_clust_9="131.09128"></scales>
<clustering>
<clus scale="   80.083">  5  6 -1 -1</clus>
<clus scale="   90.793">  7  8 -1 -1</clus>
<clus scale="  131.091">  2  9  1 -1</clus>
<clus scale="  130.844">  1  5  2 -1</clus>
<clus scale="  131.091">  2  5  1 -1</clus>
</clustering>
</event>
<event>
 9    2  0.7820252E-005  0.9294934E+02  0.7546771E-02  0.1303797E+00
          2   -1    0    0  502    0 -0.00000000000E+00  0.00000000000E+00  0.24603482177E+03  0.24603482177E+03  0.00000000000E+00 0. -1.
         21   -1    0    0  501  502  0.00000000000E+00 -0.00000000000E+00 -0.59020981631E+02  0.59020981631E+02  0.00000000000E+00 0. -1.
         24    2    1    2    0    0  0.34386224430E+01  0.58058787630E+01  0.12596787380E+03  0.14922203634E+03  0.79710592431E+02 0.  0.
         23    2    1    2    0    0  0.19782186108E+02 -0.13862600106E+02  0.80142927353E+02  0.12470804412E+03  0.92442960224E+02 0.  0.
        -13    1    3    3    0    0 -0.20118360867E+02  0.33636673857E+02  0.40792238208E+02  0.56570142038E+02  0.00000000000E+00 0.  1.
         14    1    3    3    0    0  0.23556983310E+02 -0.27830795094E+02  0.85175635595E+02  0.92651894300E+02  0.00000000000E+00 0. -1.
        -13    1    4    4    0    0 -0.26051775006E+02  0.21705278643E+02  0.46800465656E+02  0.57793578255E+02  0.00000000000E+00 0.  1.
         13    1    4    4    0    0  0.45833961114E+02 -0.35567878749E+02  0.33342461697E+02  0.66914465866E+02  0.00000000000E+00 0. -1.
          1    1    1    2  501    0 -0.23220808551E+02  0.80567213429E+01 -0.19096961017E+02  0.31125722941E+02  0.00000000000E+00 0. -1.
<scales pt_clust_5="13000.00000" pt_clust_6="13000.00000" pt_clust_7="13000.00000" pt_clust_8="13000.00000" pt_clust_9="24.57879"></scales>
<clustering>
<clus scale="   24.579">  2  9  1 -1</clus>
<clus scale="   79.711">  5  6 -1 -1</clus>
<clus scale="   80.297">  1  5  2 -1</clus>
<clus scale="   92.443">  7  8 -1 -1</clus>
<clus scale="   24.579">  2  5  1 -1</clus>
</clustering>
</event>
<event>
 9    2  0.7820252E-005  0.9567220E+02  0.7546771E-02  0.1298464E+00
          2   -1    0    0  502    0 -0.00000000000E+00  0.00000000000E+00  0.43911024375E+03  0.43911024375E+03  0.00000000000E+00 0. -1.
         21   -1    0    0  501  502  0.00000000000E+00 -0.00000000000E+00 -0.32507576470E+02  0.32507576470E+02  0.00000000000E+00 0.  1.
         23    2    1    2    0    0 -0.91090570904E+01  0.40026412916E+02  0.18864908825E+03  0.21479386465E+03  0.94142642507E+02 0.  0.
         24    2    1    2    0    0 -0.12431483853E+02  0.72751950617E+01  0.10459820912E+03  0.13212080041E+03  0.79420717045E+02 0.  0.
        -11    1    4    4    0    0  0.24137042019E+02 -0.83686909864E+01  0.66396896201E+01  0.26395402336E+02  0.00000000000E+00 0.  1.
         12    1    4    4    0    0 -0.36568525872E+02  0.15643886048E+02  0.97958519502E+02  0.10572539808E+03  0.00000000000E+00 0. -1.
        -11    1    3    3    0    0  0.41788743005E+02  0.13542270092E+02  0.64628718441E+02  0.78144503124E+02  0.00000000000E+00 0. -1.
         11    1    3    3    0    0 -0.50897800095E+02  0.26484142824E+02  0.12402036981E+03  0.13664936152E+03  0.00000000000E+00 0.  1.
          1    1    1    2  501    0  0.21540540943E+02 -0.47301607978E+02  0.11335536990E+03  0.12470315516E+03  0.00000000000E+00 0. -1.
<scales pt_clust_5="13000.00000" pt_clust_6="13000.00000" pt_clust_7="13000.00000" pt_clust_8="13000.00000" pt_clust_9="51.97538"></scales>
<clustering>
<clus scale="   51.975">  2  9  1 -1</clus>
<clus scale="   79.421">  5  6 -1 -1</clus>
<clus scale="   81.228">  2  5  1 -1</clus>
<clus scale="   94.143">  7  8 -1 -1</clus>
<clus scale="   51.975">  2  5  1 -1</clus>
</clustering>
</event>
<event>
 9    2  0.7820252E-005  0.9688697E+02  0.7546771E-02  0.1296900E+00
         21   -1    0    0  501  502  0.00000000000E+00  0.00000000000E+00  0.41574323240E+02  0.41574323240E+02  0.00000000000E+00 0. -1.
          2   -1    0    0  502    0 -0.00000000000E+00 -0.00000000000E+00 -0.31206620952E+03  0.31206620952E+03  0.00000000000E+00 0. -1.
         23    2    1    2    0    0  0.25863418364E+02  0.69134619717E+01 -0.20232724127E+03  0.22500650613E+03  0.94735964019E+02 0.  0.
         24    2    1    2    0    0 -0.10536555619E+02  0.15158547584E+02 -0.61475091266E+02  0.10094221454E+03  0.77905989888E+02 0.  0.
        -13    1    4    4    0    0 -0.13928043388E+02 -0.30446310182E+02 -0.33340475892E+02  0.47249926233E+02  0.00000000000E+00 0.  1.
         14    1    4    4    0    0  0.33914877687E+01  0.45604857766E+02 -0.28134615374E+02  0.53692288305E+02  0.00000000000E+00 0. -1.
        -11    1    3    3    0    0  0.53886198019E+02  0.29583736027E+02 -0.14193875836E+03  0.15467879913E+03  0.00000000000E+00 0. -1.
         11    1    3    3    0    0 -0.28022779656E+02 -0.22670274055E+02 -0.60388482902E+02  0.70327707004E+02  0.00000000000E+00 0.  1.
          1    1    1    2  501    0 -0.15326862744E+02 -0.22072009556E+02 -0.66895537486E+01  0.27691812089E+02  0.00000000000E+00 0. -1.
<scales pt_clust_5="13000.00000" pt_clust_6="13000.00000" pt_clust_7="13000.00000" pt_clust_8="13000.00000" pt_clust_9="26.87166"></scales>
<clustering>
<clus scale="   26.872">  1  9  2 -1</clus>
<clus scale="   77.906">  5  6 -1 -1</clus>
<clus scale="   80.508">  1  5  2 -1</clus>
<clus scale="   94.736">  7  8 -1 -1</clus>
<clus scale="   26.872">  1  5  2 -1</clus>
</clustering>
</event>
<event>
 9    2  0.7820252E-005  0.9537114E+02  0.7546771E-02  0.1296631E+00
         21   -1    0    0  501  502  0.00000000000E+00  0.00000000000E+00  0.32599795758E+02  0.32599795758E+02  0.00000000000E+00 0.  1.
          2   -1    0    0  502    0 -0.00000000000E+00 -0.00000000000E+00 -0.80258578729E+03  0.80258578729E+03  0.00000000000E+00 0. -1.
         24    2    1    2    0    0  0.26217145540E+02 -0.65491179221E+01 -0.55793430313E+03  0.56438081625E+03  0.80652275098E+02 0.  0.
         23    2    1    2    0    0 -0.25962994342E+02 -0.52619975063E+02 -0.14631279368E+03  0.18235902955E+03  0.91675750411E+02 0.  0.
        -13    1    3    3    0    0 -0.15592643724E+02  0.26004868503E+02 -0.15128547515E+03  0.15429413053E+03  0.00000000000E+00 0.  1.
         14    1    3    3    0    0  0.41809789264E+02 -0.32553986425E+02 -0.40664882798E+03  0.41008668572E+03  0.00000000000E+00 0. -1.
        -13    1    4    4    0    0  0.32097223991E+02 -0.25240403623E+02 -0.81395881215E+02  0.91063709796E+02  0.00000000000E+00 0. -1.
         13    1    4    4    0    0 -0.58060218333E+02 -0.27379571441E+02 -0.64916912461E+02  0.91295319752E+02  0.00000000000E+00 0.  1.
          1    1    1    2  501    0 -0.25415119853E+00  0.59169092986E+02 -0.65738894729E+02  0.88445737250E+02  0.00000000000E+00 0. -1.
<scales pt_clust_5="13000.00000" pt_clust_6="13000.00000" pt_clust_7="13000.00000" pt_clust_8="13000.00000" pt_clust_9="59.16964"></scales>
<clustering>
<clus scale="   59.170">  1  9  2 -1</clus>
<clus scale="   80.652">  5  6 -1 -1</clus>
<clus scale="   84.829">  2  5  1 -1</clus>
<clus scale="   91.676">  7  8 -1 -1</clus>
<clus scale="   59.170">  1  5  2 -1</clus>
</clustering>
</event>
<event>
 9    2  0.7820252E-005  0.2584235E+03  0.7546771E-02  0.1144177E+00
         21   -1    0    0  501  502  0.00000000000E+00  0.00000000000E+00  0.19514957850E+03  0.19514957850E+03  0.00000000000E+00 0. -1.
         -1   -1    0    0    0  501 -0.00000000000E+00 -0.00000000000E+00 -0.59637739810E+03  0.59637739810E+03  0.00000000000E+00 0.  1.
         24    2    1    2    0    0  0.22501203096E+02 -0.21420662050E+02 -0.86293820094E+02  0.13656435564E+03  0.10118325425E+03 0.  0.
         23    2    1    2    0    0 -0.15207563317E+03  0.19793408233E+03  0.63051951106E+01  0.26619387142E+03  0.92274170515E+02 0.  0.
        -13    1    3    3    0    0 -0.21467423232E+02 -0.56189189697E+01 -0.87052507375E+02  0.89836304192E+02  0.00000000000E+00 0.  1.
         14    1    3    3    0    0  0.43968626328E+02 -0.15801743080E+02  0.75868728086E+00  0.46728051446E+02  0.00000000000E+00 0. -1.
        -11    1    4    4    0    0 -0.13504156132E+03  0.10485568606E+03  0.12055399105E+02  0.17139507236E+03  0.00000000000E+00 0.  1.
         11    1    4    4    0    0 -0.17034071845E+02  0.93078396271E+02 -0.57502039949E+01  0.94798799054E+02  0.00000000000E+00 0. -1.
         -2    1    1    2    0  502  0.12957443007E+03 -0.17651342028E+03 -0.32123919462E+03  0.38876874955E+03  0.00000000000E+00 0.  1.
<scales pt_clust_5="13000.00000" pt_clust_6="13000.00000" pt_clust_7="13000.00000" pt_clust_8="13000.00000" pt_clust_9="241.38815"></scales>
<clustering>
<clus scale="   92.274">  7  8 -1 -1</clus>
<clus scale="  101.183">  5  6 -1 -1</clus>
<clus scale="  105.845">  2  5  1 -1</clus>
<clus scale="  241.388">  1  9  2 -1</clus>
<clus scale="  241.388">  1  5  2 -1</clus>
</clustering>
</event>
<event>
 9    2  0.7820252E-005  0.9603819E+02  0.7546771E-02  0.1296912E+00
         21   -1    0    0  501  502  0.00000000000E+00  0.00000000000E+00  0.62202253840E+02  0.62202253840E+02  0.00000000000E+00 0. -1.
          2   -1    0    0  502    0 -0.00000000000E+00 -0.00000000000E+00 -0.57191913483E+03  0.57191913483E+03  0.00000000000E+00 0. -1.
         24    2    1    2    0    0 -0.14363797694E+02  0.30615561564E+02 -0.49051204626E+03  0.49764470902E+03  0.76841119139E+02 0.  0.
         23    2    1    2    0    0  0.10158058041E+01 -0.13469521053E+01 -0.38561211059E+02  0.98933508617E+02  0.91093501346E+02 0.  0.
        -13    1    3    3    0    0  0.11220821734E+02  0.33439501907E+02 -0.95677134773E+02  0.10197166884E+03  0.00000000000E+00 0.  1.
         14    1    3    3    0    0 -0.25584619428E+02 -0.28239403429E+01 -0.39483491149E+03  0.39567304017E+03  0.00000000000E+00 0. -1.
        -11    1    4    4    0    0 -0.21998213512E+02  0.15591496005E+02 -0.58279839887E+02  0.64214919471E+02  0.00000000000E+00 0. -1.
         11    1    4    4    0    0  0.23014019316E+02 -0.16938448110E+02  0.19718628828E+02  0.34718589146E+02  0.00000000000E+00 0.  1.
          1    1    1    2  501    0  0.13347991890E+02 -0.29268609459E+02  0.19356376328E+02  0.37543171039E+02  0.00000000000E+00 0. -1.
<scales pt_clust_5="13000.00000" pt_clust_6="13000.00000" pt_clust_7="13000.00000" pt_clust_8="13000.00000" pt_clust_9="32.16862"></scales>
<clustering>
<clus scale="   32.169">  1  9  2 -1</clus>
<clus scale="   76.841">  5  6 -1 -1</clus>
<clus scale="   82.643">  2  5  1 -1</clus>
<clus scale="   91.094">  7  8 -1 -1</clus>
<clus scale="   32.169">  1  5  2 -1</clus>
</clustering>
</event>
<event>
 9    2  0.7820252E-005  0.1390803E+03  0.7546771E-02  0.1227951E+00
          2   -1    0    0  502    0 -0.00000000000E+00  0.00000000000E+00  0.25714640421E+04  0.25714640421E+04  0.00000000000E+00 0. -1.
         21   -1    0    0  501  502  0.00000000000E+00 -0.00000000000E+00 -0.22078777041E+02  0.22078777041E+02  0.00000000000E+00 0. -1.
         23    2    1    2    0    0  0.32519493233E+02  0.17116790314E+02  0.49993474358E+03  0.51085833436E+03  0.98442815848E+02 0.  0.
         24    2    1    2    0    0  0.64265824352E+02 -0.79467873809E+02  0.18320604823E+04  0.18366895978E+04  0.80856839749E+02 0.  0.
        -13    1    4    4    0    0  0.15582780741E+02 -0.24977407004E+02  0.14047740033E+03  0.14352906995E+03  0.00000000000E+00 0.  1.
         14    1    4    4    0    0  0.48683043611E+02 -0.54490466805E+02  0.16915830820E+04  0.16931605278E+04  0.00000000000E+00 0. -1.
        -13    1    3    3    0    0  0.28083288648E+02  0.57276081029E+02  0.33737546636E+03  0.34335320861E+03  0.00000000000E+00 0. -1.
         13    1    3    3    0    0  0.44362045857E+01 -0.40159290715E+02  0.16255927722E+03  0.16750512575E+03  0.00000000000E+00 0.  1.
          1    1    1    2  501    0 -0.96785317586E+02  0.62351083495E+02  0.21739003919E+03  0.24599488704E+03  0.00000000000E+00 0. -1.
<scales pt_clust_5="13000.00000" pt_clust_6="13000.00000" pt_clust_7="13000.00000" pt_clust_8="13000.00000" pt_clust_9="113.16136"></scales>
<clustering>
<clus scale="   80.857">  5  6 -1 -1</clus>
<clus scale="   98.443">  7  8 -1 -1</clus>
<clus scale="  105.079">  1  7  2 -1</clus>
<clus scale="  113.161">  2  9  1 -1</clus>
<clus scale="  113.161">  2  5  1 -1</clus>
</clustering>
</event>
<event>
 9    2  0.7820252E-005  0.1060993E+03  0.7546771E-02  0.1273275E+00
         -1   -1    0    0    0  501 -0.00000000000E+00  0.00000000000E+00  0.36536414651E+03  0.36536414651E+03  0.00000000000E+00 0.  1.
         21   -1    0    0  501  502  0.00000000000E+00 -0.00000000000E+00 -0.96639105680E+02  0.96639105680E+02  0.00000000000E+00 0. -1.
         23    2    1    2    0    0 -0.56015673436E+01 -0.24117828774E+02  0.87496016325E+02  0.13431707147E+03  0.98855832374E+02 0.  0.
         24    2    1    2    0    0 -0.35060618754E+02  0.78803895107E+02 -0.11251852555E+02  0.12349786748E+03  0.87668798412E+02 0.  0.
        -13    1    4    4    0    0  0.27483320005E+02  0.83763714538E+01 -0.43012826824E+01  0.29051635237E+02  0.00000000000E+00 0.  1.
         14    1    4    4    0    0 -0.62543938760E+02  0.70427523653E+02 -0.69505698728E+01  0.94446232243E+02  0.00000000000E+00 0. -1.
        -13    1    3    3    0    0 -0.42877262291E+02  0.13507491421E+02  0.58997901039E+02  0.74173204549E+02  0.00000000000E+00 0. -1.
         13    1    3    3    0    0  0.37275694947E+02 -0.37625320195E+02  0.28498115286E+02  0.60143866923E+02  0.00000000000E+00 0.  1.
         -2    1    1    2    0  502  0.40662186098E+02 -0.54686066333E+02  0.19248087706E+03  0.20418831323E+03  0.00000000000E+00 0.  1.
<scales pt_clust_5="13000.00000" pt_clust_6="13000.00000" pt_clust_7="13000.00000" pt_clust_8="13000.00000" pt_clust_9="68.14678"></scales>
<clustering>
<clus scale="   68.147">  2  9  1 -1</clus>
<clus scale="   87.669">  5  6 -1 -1</clus>
<clus scale="   95.762">  2  5  1 -1</clus>
<clus scale="   98.856">  7  8 -1 -1</clus>
<clus scale="   68.147">  2  5  1 -1</clus>
</clustering>
</event>
<event>
 9    2  0.7820252E-005  0.1057685E+03  0.7546771E-02  0.1279654E+00
         21   -1    0    0  501  502  0.00000000000E+00  0.00000000000E+00  0.20049034263E+03  0.20049034263E+03  0.00000000000E+00 0. -1.
          2   -1    0    0  502    0 -0.00000000000E+00 -0.00000000000E+00 -0.15706255927E+03  0.15706255927E+03  0.00000000000E+00 0. -1.
         23    2    1    2    0    0 -0.15887947779E+02  0.20647352429E+02 -0.10033127108E+03  0.14548505059E+03  0.10208229984E+03 0.  0.
         24    2    1    2    0    0  0.48161004564E+02 -0.98972506971E+01  0.15008212969E+03  0.17746877384E+03  0.80951109327E+02 0.  0.
        -11    1    4    4    0    0  0.47698403517E+02  0.22402708072E+01  0.29186163739E+02  0.55964173050E+02  0.00000000000E+00 0.  1.
         12    1    4    4    0    0  0.46260104679E+00 -0.12137521504E+02  0.12089596595E+03  0.12150460079E+03  0.00000000000E+00 0. -1.
        -11    1    3    3    0    0 -0.36623572550E+02  0.50728473660E+02 -0.85745006411E+02  0.10614551442E+03  0.00000000000E+00 0.  1.
         11    1    3    3    0    0  0.20735624771E+02 -0.30081121231E+02 -0.14586264670E+02  0.39339536171E+02  0.00000000000E+00 0. -1.
          1    1    1    2  501    0 -0.32273056784E+02 -0.10750101732E+02 -0.63230752585E+01  0.34599077476E+02  0.00000000000E+00 0. -1.
<scales pt_clust_5="13000.00000" pt_clust_6="13000.00000" pt_clust_7="13000.00000" pt_clust_8="13000.00000" pt_clust_9="34.01641"></scales>
<clustering>
<clus scale="   34.016">  1  9  2 -1</clus>
<clus scale="   80.951">  5  6 -1 -1</clus>
<clus scale="   85.553">  1  5  2 -1</clus>
<clus scale="  102.082">  7  8 -1 -1</clus>
<clus scale="   34.016">  1  5  2 -1</clus>
</clustering>
</event>
<event>
 9    2  0.7820252E-005  0.9413750E+02  0.7546771E-02  0.1300583E+00
          2   -1    0    0  502    0 -0.00000000000E+00  0.00000000000E+00  0.40267140876E+03  0.40267140876E+03  0.00000000000E+00 0. -1.
         21   -1    0    0  501  502  0.00000000000E+00 -0.00000000000E+00 -0.10184874169E+03  0.10184874169E+03  0.00000000000E+00 0. -1.
         24    2    1    2    0    0  0.29207437657E+02 -0.40690576405E+01  0.32985897017E+03  0.34017588624E+03  0.77737132264E+02 0.  0.
         23    2    1    2    0    0 -0.34548274915E+01  0.99595954854E+01  0.33046869029E+02  0.96874155051E+02  0.90450964555E+02 0.  0.
        -11    1    3    3    0    0 -0.84429515466E+01 -0.33998810632E+02  0.14209166778E+03  0.14634631737E+03  0.00000000000E+00 0.  1.
         12    1    3    3    0    0  0.37650389204E+02  0.29929752992E+02  0.18776730239E+03  0.19382956887E+03  0.00000000000E+00 0. -1.
        -11    1    4    4    0    0  0.39186192205E+02  0.12256663097E+02  0.35250456398E+02  0.54114490907E+02  0.00000000000E+00 0. -1.
         11    1    4    4    0    0 -0.42641019697E+02 -0.22970676118E+01 -0.22035873688E+01  0.42759664144E+02  0.00000000000E+00 0.  1.
          1    1    1    2  501    0 -0.25752610166E+02 -0.58905378449E+01 -0.62083172135E+02  0.67470109151E+02  0.00000000000E+00 0. -1.
<scales pt_clust_5="13000.00000" pt_clust_6="13000.00000" pt_clust_7="13000.00000" pt_clust_8="13000.00000" pt_clust_9="26.41771"></scales>
<clustering>
<clus scale="   26.418">  2  9  1 -1</clus>
<clus scale="   77.737">  5  6 -1 -1</clus>
<clus scale="   81.997">  1  5  2 -1</clus>
<clus scale="   90.451">  7  8 -1 -1</clus>
<clus scale="   26.418">  2  5  1 -1</clus>
</clustering>
</event>
<event>
 9    2  0.7820252E-005  0.1667562E+03  0.7546771E-02  0.1182489E+00
         21   -1    0    0  501  502  0.00000000000E+00  0.00000000000E+00  0.10094440672E+03  0.10094440672E+03  0.00000000000E+00 0.  1.
          2   -1    0    0  502    0 -0.00000000000E+00 -0.00000000000E+00 -0.71423040034E+03  0.71423040034E+03  0.00000000000E+00 0. -1.
         24    2    1    2    0    0  0.41473683877E+02  0.12585578929E+03 -0.36381117916E+03  0.39538102544E+03  0.80048954035E+02 0.  0.
         23    2    1    2    0    0 -0.10657134334E+03 -0.12391498069E+03 -0.28895007007E+03  0.34363757497E+03  0.88782128155E+02 0.  0.
        -13    1    3    3    0    0 -0.22042618616E+02  0.31276214597E+02 -0.62891359713E+02  0.73616586185E+02  0.00000000000E+00 0.  1.
         14    1    3    3    0    0  0.63516302493E+02  0.94579574696E+02 -0.30091981945E+03  0.32176443926E+03  0.00000000000E+00 0. -1.
        -13    1    4    4    0    0 -0.88062355278E+02 -0.13397500616E+03 -0.22478245686E+03  0.27610040493E+03  0.00000000000E+00 0.  1.
         13    1    4    4    0    0 -0.18508988062E+02  0.10060025474E+02 -0.64167613213E+02  0.67537170040E+02  0.00000000000E+00 0. -1.
          1    1    1    2  501    0  0.65097659463E+02 -0.19408086058E+01  0.39475255606E+02  0.76156206647E+02  0.00000000000E+00 0. -1.
<scales pt_clust_5="13000.00000" pt_clust_6="13000.00000" pt_clust_7="13000.00000" pt_clust_8="13000.00000" pt_clust_9="65.12658"></scales>
<clustering>
<clus scale="   65.127">  1  9  2 -1</clus>
<clus scale="   80.049">  5  6 -1 -1</clus>
<clus scale="   88.782">  7  8 -1 -1</clus>
<clus scale="  162.275">  2  5  1 -1</clus>
<clus scale="   65.127">  1  5  2 -1</clus>
</clustering>
</event>
<event>
 9    2  0.7820252E-005  0.1131209E+03  0.7546771E-02  0.1259070E+00
         21   -1    0    0  501  502  0.00000000000E+00  0.00000000000E+00  0.23633752138E+03  0.23633752138E+03  0.00000000000E+00 0. -1.
         -1   -1    0    0    0  501 -0.00000000000E+00 -0.00000000000E+00 -0.16845024781E+03  0.16845024781E+03  0.00000000000E+00 0.  1.
         24    2    1    2    0    0  0.63099510752E+02  0.27046828116E+02 -0.11826019982E+03  0.15841716829E+03  0.79984030781E+02 0.  0.
         23    2    1    2    0    0 -0.30352509112E+02 -0.60206012485E+02  0.11736531772E+03  0.16328701309E+03  0.91334506566E+02 0.  0.
        -13    1    3    3    0    0  0.27394153983E+02  0.30241662753E+02 -0.11546204469E+03  0.12246012250E+03  0.00000000000E+00 0.  1.
         14    1    3    3    0    0  0.35705356769E+02 -0.31948346375E+01 -0.27981551356E+01  0.35957045798E+02  0.00000000000E+00 0. -1.
        -13    1    4    4    0    0 -0.39255628264E+02 -0.33891356877E+02  0.12427365644E+03  0.13466094500E+03  0.00000000000E+00 0. -1.
         13    1    4    4    0    0  0.89031191517E+01 -0.26314655608E+02 -0.69083387206E+01  0.28626068090E+02  0.00000000000E+00 0.  1.
         -2    1    1    2    0  502 -0.32747001640E+02  0.33159184369E+02  0.68782155668E+02  0.83083587806E+02  0.00000000000E+00 0.  1.
<scales pt_clust_5="13000.00000" pt_clust_6="13000.00000" pt_clust_7="13000.00000" pt_clust_8="13000.00000" pt_clust_9="46.60362"></scales>
<clustering>
<clus scale="   46.604">  1  9  2 -1</clus>
<clus scale="   79.984">  5  6 -1 -1</clus>
<clus scale="   91.335">  7  8 -1 -1</clus>
<clus scale="  104.172">  2  5  1 -1</clus>
<clus scale="   46.604">  1  5  2 -1</clus>
</clustering>
</event>
<event>
 9    2  0.7820252E-005  0.1044011E+03  0.7546771E-02  0.1275491E+00
          2   -1    0    0  502    0 -0.00000000000E+00  0.00000000000E+00  0.46607103401E+03  0.46607103401E+03  0.00000000000E+00 0. -1.
         21   -1    0    0  501  502  0.00000000000E+00 -0.00000000000E+00 -0.10300459816E+03  0.10300459816E+03  0.00000000000E+00 0. -1.
         23    2    1    2    0    0 -0.48515881129E+02  0.20371282646E+02  0.40350332168E+03  0.41739124796E+03  0.92907176194E+02 0.  0.
         24    2    1    2    0    0 -0.30288196356E+00  0.71398881223E+01 -0.45250741531E+02  0.95441079241E+02  0.83727535839E+02 0.  0.
        -13    1    4    4    0    0 -0.21397651064E+02  0.34431865132E+02 -0.26490034733E+01  0.40625484944E+02  0.00000000000E+00 0.  1.
         14    1    4    4    0    0  0.21094769101E+02 -0.27291977010E+02 -0.42601738058E+02  0.54815594297E+02  0.00000000000E+00 0. -1.
        -11    1    3    3    0    0 -0.93612903774E+01 -0.35825426955E+02  0.17345973567E+03  0.17736790824E+03  0.00000000000E+00 0.  1.
         11    1    3    3    0    0 -0.39154590751E+02  0.56196709601E+02  0.23004358600E+03  0.24002333971E+03  0.00000000000E+00 0. -1.
          1    1    1    2  501    0  0.48818763092E+02 -0.27511170768E+02  0.48138557056E+01  0.56243304967E+02  0.00000000000E+00 0. -1.
<scales pt_clust_5="13000.00000" pt_clust_6="13000.00000" pt_clust_7="13000.00000" pt_clust_8="13000.00000" pt_clust_9="56.03692"></scales>
<clustering>
<clus scale="   56.037">  2  9  1 -1</clus>
<clus scale="   83.728">  5  6 -1 -1</clus>
<clus scale="   92.907">  7  8 -1 -1</clus>
<clus scale="   96.323">  2  5  1 -1</clus>
<clus scale="   56.037">  2  5  1 -1</clus>
</clustering>
</event>
<event>
 9    2  0.7820252E-005  0.1746676E+03  0.7546771E-02  0.1174366E+00
         21   -1    0    0  501  502  0.00000000000E+00  0.00000000000E+00  0.89826827524E+02  0.89826827524E+02  0.00000000000E+00 0. -1.
          2   -1    0    0  502    0 -0.00000000000E+00 -0.00000000000E+00 -0.65641880090E+03  0.65641880090E+03  0.00000000000E+00 0. -1.
         23    2    1    2    0    0  0.10282621636E+03  0.11202216899E+03 -0.51580593375E+03  0.54525769303E+03  0.90155384756E+02 0.  0.
         24    2    1    2    0    0 -0.78008028358E+02 -0.11820916889E+03 -0.60704604829E+02  0.17355439099E+03  0.79858734574E+02 0.  0.
        -13    1    4    4    0    0 -0.26061841783E+02 -0.35227124827E+02  0.18560622746E+02  0.47588513713E+02  0.00000000000E+00 0.  1.
         14    1    4    4    0    0 -0.51946186576E+02 -0.82982044060E+02 -0.79265227575E+02  0.12596587728E+03  0.00000000000E+00 0. -1.
        -13    1    3    3    0    0  0.65515592080E+02  0.29016812389E+02 -0.33804483940E+03  0.34555546827E+03  0.00000000000E+00 0. -1.
         13    1    3    3    0    0  0.37310624276E+02  0.83005356606E+02 -0.17776109434E+03  0.19970222475E+03  0.00000000000E+00 0.  1.
          1    1    1    2  501    0 -0.24818187998E+02  0.61869998918E+01  0.99185651974E+01  0.27433544407E+02  0.00000000000E+00 0. -1.
<scales pt_clust_5="13000.00000" pt_clust_6="13000.00000" pt_clust_7="13000.00000" pt_clust_8="13000.00000" pt_clust_9="25.57775"></scales>
<clustering>
<clus scale="   25.578">  1  9  2 -1</clus>
<clus scale="   79.859">  5  6 -1 -1</clus>
<clus scale="   90.155">  7  8 -1 -1</clus>
<clus scale="  169.582">  1  5  2 -1</clus>
<clus scale="   25.578">  1  5  2 -1</clus>
</clustering>
</event>
<event>
 9    2  0.7820252E-005  0.1377361E+03  0.7546771E-02  0.1216959E+00
         -1   -1    0    0    0  501 -0.00000000000E+00  0.00000000000E+00  0.19669035761E+03  0.19669035761E+03  0.00000000000E+00 0.  1.
         21   -1    0    0  501  502  0.00000000000E+00 -0.00000000000E+00 -0.20831395141E+03  0.20831395141E+03  0.00000000000E+00 0.  1.
         24    2    1    2    0    0 -0.11144947284E+03  0.92584072800E+01  0.13173246353E+03  0.19071935047E+03  0.80707655104E+02 0.  0.
         23    2    1    2    0    0  0.99901326497E+02  0.16383384447E+02 -0.11867834429E+03  0.17687038001E+03  0.83366009856E+02 0.  0.
        -11    1    3    3    0    0 -0.11951127922E+03 -0.70378241253E+01  0.11530365522E+03  0.16621495040E+03  0.00000000000E+00 0.  1.
         12    1    3    3    0    0  0.80618063786E+01  0.16296231405E+02  0.16428808315E+02  0.24504400069E+02  0.00000000000E+00 0. -1.
        -13    1    4    4    0    0  0.31120047044E+02 -0.16013763548E+02  0.10815747883E+01  0.35015250320E+02  0.00000000000E+00 0. -1.
         13    1    4    4    0    0  0.68781279453E+02  0.32397147995E+02 -0.11975991908E+03  0.14185512969E+03  0.00000000000E+00 0.  1.
         -2    1    1    2    0  502  0.11548146347E+02 -0.25641791727E+02 -0.24677713041E+02  0.37414578548E+02  0.00000000000E+00 0.  1.
<scales pt_clust_5="13000.00000" pt_clust_6="13000.00000" pt_clust_7="13000.00000" pt_clust_8="13000.00000" pt_clust_9="28.12225"></scales>
<clustering>
<clus scale="   28.122">  2  9  1 -1</clus>
<clus scale="   80.708">  5  6 -1 -1</clus>
<clus scale="   83.366">  7  8 -1 -1</clus>
<clus scale="  136.144">  1  5  2 -1</clus>
<clus scale="   28.122">  2  5  1 -1</clus>
</clustering>
</event>
<event>
 9    2  0.7820252E-005  0.1178707E+03  0.7546771E-02  0.1250272E+00
         21   -1    0    0  501  502  0.00000000000E+00  0.00000000000E+00  0.64232933702E+02  0.64232933702E+02  0.00000000000E+00 0.  1.
          2   -1    0    0  502    0 -0.00000000000E+00 -0.00000000000E+00 -0.31872046668E+03  0.31872046668E+03  0.00000000000E+00 0. -1.
         23    2    1    2    0    0 -0.57613644572E+02  0.22335857162E+02 -0.11957429687E+03  0.16287400143E+03  0.91715349387E+02 0.  0.
         24    2    1    2    0    0  0.95673516311E+02 -0.12532511708E+02 -0.69571741919E+02  0.14382869219E+03  0.80845407109E+02 0.  0.
        -11    1    4    4    0    0  0.67169338551E+02 -0.80879072312E+01 -0.86934736120E+02  0.11015798940E+03  0.00000000000E+00 0.  1.
         12    1    4    4    0    0  0.28504177761E+02 -0.44446044764E+01  0.17362994201E+02  0.33670702790E+02  0.00000000000E+00 0. -1.
        -13    1    3    3    0    0 -0.38054833828E+02 -0.33514070270E+02 -0.64390815278E+02  0.81960602584E+02  0.00000000000E+00 0.  1.
         13    1    3    3    0    0 -0.19558810744E+02  0.55849927432E+02 -0.55183481591E+02  0.80913398843E+02  0.00000000000E+00 0. -1.
          1    1    1    2  501    0 -0.38059871740E+02 -0.98033454541E+01 -0.65341494191E+02  0.76250706765E+02  0.00000000000E+00 0. -1.
<scales pt_clust_5="13000.00000" pt_clust_6="13000.00000" pt_clust_7="13000.00000" pt_clust_8="13000.00000" pt_clust_9="39.30218"></scales>
<clustering>
<clus scale="   39.302">  1  9  2 -1</clus>
<clus scale="   80.845">  5  6 -1 -1</clus>
<clus scale="   91.715">  7  8 -1 -1</clus>
<clus scale="  109.626">  1  5  2 -1</clus>
<clus scale="   39.302">  1  5  2 -1</clus>
</clustering>
</event>
<event>
 9    2  0.7820252E-005  0.9052977E+02  0.7546771E-02  0.1309810E+00
          2   -1    0    0  502    0 -0.00000000000E+00  0.00000000000E+00  0.25298768680E+03  0.25298768680E+03  0.00000000000E+00 0. -1.
         21   -1    0    0  501  502  0.00000000000E+00 -0.00000000000E+00 -0.87480280136E+02  0.87480280136E+02  0.00000000000E+00 0. -1.
         23    2    1    2    0    0  0.35580201074E+02 -0.16795535736E+01  0.12286012001E+03  0.15641058402E+03  0.90004944851E+02 0.  0.
         24    2    1    2    0    0  0.20311160515E+02  0.10894685280E+02  0.82061402299E+02  0.11504843085E+03  0.77271147816E+02 0.  0.
        -13    1    4    4    0    0 -0.21670427171E+02 -0.18583477816E+02  0.37277594490E+02  0.46952871185E+02  0.00000000000E+00 0.  1.
         14    1    4    4    0    0  0.41981587686E+02  0.29478163096E+02  0.44783807808E+02  0.68095559664E+02  0.00000000000E+00 0. -1.
        -13    1    3    3    0    0 -0.16610538836E+01  0.40495344204E+02  0.50774075036E+02  0.64966442861E+02  0.00000000000E+00 0.  1.
         13    1    3    3    0    0  0.37241254957E+02 -0.42174897778E+02  0.72086044972E+02  0.91444141163E+02  0.00000000000E+00 0. -1.
          1    1    1    2  501    0 -0.55891361589E+02 -0.92151317062E+01 -0.39414115644E+02  0.69008952061E+02  0.00000000000E+00 0. -1.
<scales pt_clust_5="13000.00000" pt_clust_6="13000.00000" pt_clust_7="13000.00000" pt_clust_8="13000.00000" pt_clust_9="56.64594"></scales>
<clustering>
<clus scale="   56.646">  2  9  1 -1</clus>
<clus scale="   77.271">  5  6 -1 -1</clus>
<clus scale="   77.882">  2  5  1 -1</clus>
<clus scale="   90.005">  7  8 -1 -1</clus>
<clus scale="   56.646">  2  5  1 -1</clus>
</clustering>
</event>
<event>
 9    2  0.7820252E-005  0.1020174E+03  0.7546771E-02  0.1276543E+00
          2   -1    0    0  502    0 -0.00000000000E+00  0.00000000000E+00  0.57668689017E+02  0.57668689017E+02  0.00000000000E+00 0. -1.
         21   -1    0    0  501  502  0.00000000000E+00 -0.00000000000E+00 -0.41571677959E+03  0.41571677959E+03  0.00000000000E+00 0. -1.
         24    2    1    2    0    0 -0.66142396886E+02 -0.30828086658E+01 -0.13821469433E+02  0.10449959555E+03  0.79654328677E+02 0.  0.
         23    2    1    2    0    0  0.48879064138E+02  0.14231189759E+02 -0.18332897460E+03  0.20668118225E+03  0.80721177492E+02 0.  0.
        -13    1    3    3    0    0 -0.20551685928E+02  0.22895482766E+02 -0.36153277930E+02  0.47472459707E+02  0.00000000000E+00 0.  1.
         14    1    3    3    0    0 -0.45590710958E+02 -0.25978291432E+02  0.22331808496E+02  0.57027135840E+02  0.00000000000E+00 0. -1.
        -13    1    4    4    0    0  0.58359571134E+02 -0.77764279843E+01 -0.73017201614E+02  0.93796716929E+02  0.00000000000E+00 0.  1.
         13    1    4    4    0    0 -0.94805069959E+01  0.22007617743E+02 -0.11031177299E+03  0.11288446532E+03  0.00000000000E+00 0. -1.
          1    1    1    2  501    0  0.17263332747E+02 -0.11148381093E+02 -0.16089764654E+03  0.16220469081E+03  0.00000000000E+00 0. -1.
<scales pt_clust_5="13000.00000" pt_clust_6="13000.00000" pt_clust_7="13000.00000" pt_clust_8="13000.00000" pt_clust_9="20.55016"></scales>
<clustering>
<clus scale="   20.550">  2  9  1 -1</clus>
<clus scale="   79.654">  5  6 -1 -1</clus>
<clus scale="   80.721">  7  8 -1 -1</clus>
<clus scale="  101.175">  1  5  2 -1</clus>
<clus scale="   20.550">  2  5  1 -1</clus>
</clustering>
</event>
<event>
 9    2  0.7820252E-005  0.1135359E+03  0.7546771E-02  0.1258688E+00
          2   -1    0    0  502    0 -0.00000000000E+00  0.00000000000E+00  0.73296886251E+03  0.73296886251E+03  0.00000000000E+00 0. -1.
         21   -1    0    0  501  502  0.00000000000E+00 -0.00000000000E+00 -0.31088844571E+02  0.31088844571E+02  0.00000000000E+00 0.  1.
         24    2    1    2    0    0 -0.35293790176E+02 -0.79037495880E+02  0.46643057019E+03  0.48109210917E+03  0.79997270683E+02 0.  0.
         23    2    1    2    0    0  0.20572943689E+02  0.23031233538E+02  0.16729586618E+03  0.19353229638E+03  0.92266782592E+02 0.  0.
        -13    1    3    3    0    0  0.37158155710E+00 -0.60938424491E+02  0.14646764423E+03  0.15863921476E+03  0.00000000000E+00 0.  1.
         14    1    3    3    0    0 -0.35665371733E+02 -0.18099071388E+02  0.31996292596E+03  0.32245289441E+03  0.00000000000E+00 0. -1.
        -13    1    4    4    0    0  0.62068054245E+01 -0.26838991720E+02  0.12064114029E+03  0.12374627525E+03  0.00000000000E+00 0. -1.
         13    1    4    4    0    0  0.14366138265E+02  0.49870225257E+02  0.46654725897E+02  0.69786021125E+02  0.00000000000E+00 0.  1.
          1    1    1    2  501    0  0.14720846487E+02  0.56006262342E+02  0.68153581568E+02  0.89433301534E+02  0.00000000000E+00 0. -1.
<scales pt_clust_5="13000.00000" pt_clust_6="13000.00000" pt_clust_7="13000.00000" pt_clust_8="13000.00000" pt_clust_9="57.90859"></scales>
<clustering>
<clus scale="   57.909">  2  9  1 -1</clus>
<clus scale="   79.997">  5  6 -1 -1</clus>
<clus scale="   92.267">  7  8 -1 -1</clus>
<clus scale="  103.811">  1  5  2 -1</clus>
<clus scale="   57.909">  2  5  1 -1</clus>
</clustering>
</event>
<event>
 9    2  0.7820252E-005  0.1160621E+03  0.7546771E-02  0.1250567E+00
         21   -1    0    0  501  502  0.00000000000E+00  0.00000000000E+00  0.56122238935E+02  0.56122238935E+02  0.00000000000E+00 0. -1.
          4   -1    0    0  502    0 -0.00000000000E+00 -0.00000000000E+00 -0.57650104942E+03  0.57650104942E+03  0.00000000000E+00 0. -1.
         24    2    1    2    0    0  0.10072099036E+03 -0.10063892049E+02 -0.32227313448E+03  0.34887245411E+03  0.87212477343E+02 0.  0.
         23    2    1    2    0    0 -0.17130580004E+02 -0.38278929151E+02 -0.61826592189E+02  0.11672875861E+03  0.89690258089E+02 0.  0.
        -13    1    3    3    0    0  0.20970160743E+02 -0.42516841971E+02 -0.12107265034E+03  0.13002313700E+03  0.00000000000E+00 0.  1.
         14    1    3    3    0    0  0.79750829620E+02  0.32452949922E+02 -0.20120048413E+03  0.21884931711E+03  0.00000000000E+00 0. -1.
        -13    1    4    4    0    0  0.28994624614E+02 -0.28760140675E+02 -0.55945743161E+02  0.69265865518E+02  0.00000000000E+00 0.  1.
         13    1    4    4    0    0 -0.46125204618E+02 -0.95187884763E+01 -0.58808490278E+01  0.47462893089E+02  0.00000000000E+00 0. -1.
          3    1    1    2  501    0 -0.83590410358E+02  0.48342821200E+02 -0.13627908381E+03  0.16702207564E+03  0.00000000000E+00 0. -1.
<scales pt_clust_5="13000.00000" pt_clust_6="13000.00000" pt_clust_7="13000.00000" pt_clust_8="13000.00000" pt_clust_9="96.56286"></scales>
<clustering>
<clus scale="   87.212">  5  6 -1 -1</clus>
<clus scale="   89.690">  7  8 -1 -1</clus>
<clus scale="   96.563">  1  9  2 -1</clus>
<clus scale="  114.158">  2  5  1 -1</clus>
<clus scale="   96.563">  1  5  2 -1</clus>
</clustering>
</event>
<event>
 9    2  0.7820252E-005  0.1411153E+03  0.7546771E-02  0.1229139E+00
          2   -1    0    0  502    0 -0.00000000000E+00  0.00000000000E+00  0.83230292555E+03  0.83230292555E+03  0.00000000000E+00 0. -1.
         21   -1    0    0  501  502  0.00000000000E+00 -0.00000000000E+00 -0.62674038029E+02  0.62674038029E+02  0.00000000000E+00 0.  1.
         24    2    1    2    0    0  0.57306326718E+02  0.12105171225E+02  0.20889449602E+02  0.10035325265E+03  0.78764560304E+02 0.  0.
         23    2    1    2    0    0 -0.29264841797E+02  0.10414539392E+03  0.31631694428E+03  0.34597046869E+03  0.89086822395E+02 0.  0.
        -13    1    3    3    0    0  0.71678779117E+02  0.27741288592E+02  0.14949317313E+02  0.78300118496E+02  0.00000000000E+00 0.  1.
         14    1    3    3    0    0 -0.14372452399E+02 -0.15636117367E+02  0.59401322889E+01  0.22053134151E+02  0.00000000000E+00 0. -1.
        -11    1    4    4    0    0  0.15175235554E+02  0.68470607124E+02  0.24410804393E+03  0.25398277289E+03  0.00000000000E+00 0. -1.
         11    1    4    4    0    0 -0.44440077351E+02  0.35674786796E+02  0.72208900345E+02  0.91987695791E+02  0.00000000000E+00 0.  1.
          1    1    1    2  501    0 -0.28041484921E+02 -0.11625056515E+03  0.43242249364E+03  0.44865324225E+03  0.00000000000E+00 0. -1.
<scales pt_clust_5="13000.00000" pt_clust_6="13000.00000" pt_clust_7="13000.00000" pt_clust_8="13000.00000" pt_clust_9="109.43985"></scales>
<clustering>
<clus scale="   78.765">  5  6 -1 -1</clus>
<clus scale="   89.087">  7  8 -1 -1</clus>
<clus scale="   98.155">  1  5  2 -1</clus>
<clus scale="  109.440">  2  9  1 -1</clus>
<clus scale="  109.440">  2  5  1 -1</clus>
</clustering>
</event>
<event>
 9    2  0.7820252E-005  0.9232413E+02  0.7546771E-02  0.1303232E+00
          2   -1    0    0  502    0 -0.00000000000E+00  0.00000000000E+00  0.26760663039E+03  0.26760663039E+03  0.00000000000E+00 0. -1.
         21   -1    0    0  501  502  0.00000000000E+00 -0.00000000000E+00 -0.43398460531E+02  0.43398460531E+02  0.00000000000E+00 0. -1.
         23    2    1    2    0    0 -0.29151879428E+02 -0.61069296531E+01  0.15342449608E+03  0.18037397847E+03  0.90047595463E+02 0.  0.
         24    2    1    2    0    0  0.48549338963E+01 -0.80597921572E+01  0.45038469757E+02  0.92501686815E+02  0.80246916906E+02 0.  0.
        -13    1    4    4    0    0  0.58104274986E+01  0.33715156255E+02  0.49010425094E+01  0.34561438724E+02  0.00000000000E+00 0.  1.
         14    1    4    4    0    0 -0.95549360231E+00 -0.41774948412E+02  0.40137427248E+02  0.57940248091E+02  0.00000000000E+00 0. -1.
        -13    1    3    3    0    0 -0.19204120936E+02  0.19186061048E+02  0.15062461873E+03  0.15305122988E+03  0.00000000000E+00 0. -1.
         13    1    3    3    0    0 -0.99477584916E+01 -0.25292990701E+02  0.27998773499E+01  0.27322748595E+02  0.00000000000E+00 0.  1.
          1    1    1    2  501    0  0.24296945532E+02  0.14166721810E+02  0.25745204023E+02  0.38129425634E+02  0.00000000000E+00 0. -1.
<scales pt_clust_5="13000.00000" pt_clust_6="13000.00000" pt_clust_7="13000.00000" pt_clust_8="13000.00000" pt_clust_9="28.12539"></scales>
<clustering>
<clus scale="   28.125">  2  9  1 -1</clus>
<clus scale="   80.247">  5  6 -1 -1</clus>
<clus scale="   82.793">  2  5  1 -1</clus>
<clus scale="   90.048">  7  8 -1 -1</clus>
<clus scale="   28.125">  2  5  1 -1</clus>
</clustering>
</event>
<event>
 9    2  0.7820252E-005  0.9933152E+02  0.7546771E-02  0.1289577E+00
         -1   -1    0    0    0  501 -0.00000000000E+00  0.00000000000E+00  0.39072101829E+03  0.39072101829E+03  0.00000000000E+00 0.  1.
         21   -1    0    0  501  502  0.00000000000E+00 -0.00000000000E+00 -0.52324336016E+02  0.52324336016E+02  0.00000000000E+00 0. -1.
         23    2    1    2    0    0  0.27258415157E+01 -0.21570003672E+02  0.16704881841E+03  0.19082370605E+03  0.89641975601E+02 0.  0.
         24    2    1    2    0    0 -0.11752973678E+02  0.63754876183E+02  0.18274135312E+03  0.20760254717E+03  0.74172763360E+02 0.  0.
        -11    1    4    4    0    0 -0.20823933766E+02  0.77245396789E+02  0.16596779334E+03  0.18424384920E+03  0.00000000000E+00 0.  1.
         12    1    4    4    0    0  0.90709600883E+01 -0.13490520606E+02  0.16773559781E+02  0.23358697970E+02  0.00000000000E+00 0. -1.
        -11    1    3    3    0    0  0.11110978182E+02 -0.46020843964E+02  0.42500181965E+02  0.63621045122E+02  0.00000000000E+00 0.  1.
         11    1    3    3    0    0 -0.83851366663E+01  0.24450840292E+02  0.12454863645E+03  0.12720266093E+03  0.00000000000E+00 0. -1.
         -2    1    1    2    0  502  0.90271321624E+01 -0.42184872512E+02 -0.11393489256E+02  0.44619101082E+02  0.00000000000E+00 0.  1.
<scales pt_clust_5="13000.00000" pt_clust_6="13000.00000" pt_clust_7="13000.00000" pt_clust_8="13000.00000" pt_clust_9="43.13992"></scales>
<clustering>
<clus scale="   43.140">  2  9  1 -1</clus>
<clus scale="   74.173">  5  6 -1 -1</clus>
<clus scale="   85.631">  2  5  1 -1</clus>
<clus scale="   89.642">  7  8 -1 -1</clus>
<clus scale="   43.140">  2  5  1 -1</clus>
</clustering>
</event>
<event>
 9    2  0.7820252E-005  0.1343978E+03  0.7546771E-02  0.1223640E+00
         21   -1    0    0  501  502  0.00000000000E+00  0.00000000000E+00  0.15337772050E+03  0.15337772050E+03  0.00000000000E+00 0. -1.
         -1   -1    0    0    0  501 -0.00000000000E+00 -0.00000000000E+00 -0.38851626405E+03  0.38851626405E+03  0.00000000000E+00 0.  1.
         24    2    1    2    0    0 -0.21419434667E+02  0.94700451777E+02 -0.28053871243E+03  0.30816712994E+03  0.82692460679E+02 0.  0.
         23    2    1    2    0    0 -0.32630349392E+02 -0.10312819396E+03  0.85049103877E+02  0.16616618527E+03  0.93154103331E+02 0.  0.
        -13    1    3    3    0    0 -0.25407472212E+02  0.31704558938E+02 -0.20834565276E+03  0.21227018096E+03  0.00000000000E+00 0.  1.
         14    1    3    3    0    0  0.39880375444E+01  0.62995892839E+02 -0.72193059669E+02  0.95896948973E+02  0.00000000000E+00 0. -1.
        -11    1    4    4    0    0  0.14821737686E+02 -0.68952592569E+02  0.81213022461E+02  0.10756253505E+03  0.00000000000E+00 0. -1.
         11    1    4    4    0    0 -0.47452087078E+02 -0.34175601389E+02  0.38360814155E+01  0.58603650219E+02  0.00000000000E+00 0.  1.
         -2    1    1    2    0  502  0.54049784059E+02  0.84277421812E+01 -0.39648935004E+02  0.67560669343E+02  0.00000000000E+00 0.  1.
<scales pt_clust_5="13000.00000" pt_clust_6="13000.00000" pt_clust_7="13000.00000" pt_clust_8="13000.00000" pt_clust_9="54.70292"></scales>
<clustering>
<clus scale="   54.703">  1  9  2 -1</clus>
<clus scale="   82.692">  5  6 -1 -1</clus>
<clus scale="   93.154">  7  8 -1 -1</clus>
<clus scale="  127.370">  2  5  1 -1</clus>
<clus scale="   54.703">  1  5  2 -1</clus>
</clustering>
</event>
<event>
 9    2  0.8582120E-005  0.2014503E+03  0.7546771E-02  0.1169917E+00
         21   -1    0    0  501  502  0.00000000000E+00  0.00000000000E+00  0.11243886407E+03  0.11243886407E+03  0.00000000000E+00 0. -1.
          2   -1    0    0  502    0 -0.00000000000E+00 -0.00000000000E+00 -0.65118595094E+03  0.65118595094E+03  0.00000000000E+00 0. -1.
         24    2    1    2    0    0  0.11964599695E+02 -0.91638116260E+02 -0.39454247660E+02  0.12853831507E+03  0.80154630470E+02 0.  0.
         23    2    1    2    0    0  0.69853058646E+02 -0.11242565521E+03 -0.29009292655E+03  0.33160543710E+03  0.91045494827E+02 0.  0.
        -13    1    3    3    0    0  0.28039641407E+02 -0.43244840095E+02 -0.54856201262E+02  0.75269784788E+02  0.00000000000E+00 0.  1.
         14    1    3    3    0    0 -0.16075041711E+02 -0.48393276165E+02  0.15401953602E+02  0.53268530285E+02  0.00000000000E+00 0. -1.
        -11    1    4    4    0    0 -0.18460189362E+02 -0.97680804143E+01 -0.17572569021E+02  0.27294489705E+02  0.00000000000E+00 0.  1.
         11    1    4    4    0    0  0.88313248008E+02 -0.10265757480E+03 -0.27252035753E+03  0.30431094740E+03  0.00000000000E+00 0. -1.
          1    1    1    2  501    0 -0.81817658342E+02  0.20406377147E+03 -0.20919991266E+03  0.30348106284E+03  0.00000000000E+00 0. -1.
<scales pt_clust_5="13000.00000" pt_clust_6="13000.00000" pt_clust_7="13000.00000" pt_clust_8="13000.00000" pt_clust_9="179.70232"></scales>
<clustering>
<clus scale="   80.155">  5  6 -1 -1</clus>
<clus scale="   91.045">  7  8 -1 -1</clus>
<clus scale="  122.333">  2  5  1 -1</clus>
<clus scale="  179.702">  1  9  2 -1</clus>
<clus scale="  179.702">  1  5  2 -1</clus>
</clustering>
</event>
<event>
 9    2  0.1026200E-004  0.1405533E+03  0.7546771E-02  0.1227549E+00
         21   -1    0    0  501  502  0.00000000000E+00  0.00000000000E+00  0.55741240269E+02  0.55741240269E+02  0.00000000000E+00 0. -1.
          2   -1    0    0  502    0 -0.00000000000E+00 -0.00000000000E+00 -0.12878390194E+04  0.12878390194E+04  0.00000000000E+00 0. -1.
         24    2    1    2    0    0 -0.57809102063E+02 -0.26218887804E+02 -0.71670027630E+03  0.72401563531E+03  0.80684767809E+02 0.  0.
         23    2    1    2    0    0 -0.46489710883E+02  0.67764715362E+02 -0.48907560951E+03  0.50425139769E+03  0.91220449391E+02 0.  0.
        -11    1    3    3    0    0 -0.30081446522E+01 -0.23276414995E+02 -0.51971085367E+02  0.57024855489E+02  0.00000000000E+00 0.  1.
         12    1    3    3    0    0 -0.54800957410E+02 -0.29424728083E+01 -0.66472919093E+03  0.66699077982E+03  0.00000000000E+00 0. -1.
        -13    1    4    4    0    0  0.26109578165E+02  0.23207902652E+02 -0.19428302833E+03  0.19739861174E+03  0.00000000000E+00 0.  1.
         13    1    4    4    0    0 -0.72599289049E+02  0.44556812710E+02 -0.29479258118E+03  0.30685278595E+03  0.00000000000E+00 0. -1.
          1    1    1    2  501    0  0.10429881295E+03 -0.41545827559E+02 -0.26321893270E+02  0.11531322663E+03  0.00000000000E+00 0. -1.
<scales pt_clust_5="13000.00000" pt_clust_6="13000.00000" pt_clust_7="13000.00000" pt_clust_8="13000.00000" pt_clust_9="106.93017"></scales>
<clustering>
<clus scale="   80.685">  5  6 -1 -1</clus>
<clus scale="   91.220">  7  8 -1 -1</clus>
<clus scale="  102.661">  2  5  1 -1</clus>
<clus scale="  106.930">  1  9  2 -1</clus>
<clus scale="  106.930">  1  5  2 -1</clus>
</clustering>
</event>
<event>
 9    2  0.7820252E-005  0.1544924E+03  0.7546771E-02  0.1197439E+00
         21   -1    0    0  501  502  0.00000000000E+00  0.00000000000E+00  0.17145999086E+03  0.17145999086E+03  0.00000000000E+00 0.  1.
         -1   -1    0    0    0  501 -0.00000000000E+00 -0.00000000000E+00 -0.21652634916E+03  0.21652634916E+03  0.00000000000E+00 0.  1.
         23    2    1    2    0    0  0.68452344909E+01 -0.12603602899E+03 -0.32720380623E+02  0.15958985834E+03  0.92012834639E+02 0.  0.
         24    2    1    2    0    0  0.16884577645E+02  0.12082972315E+03  0.56404968328E+02  0.15547939052E+03  0.78149916612E+02 0.  0.
        -13    1    4    4    0    0 -0.14383562300E+02  0.77241529268E+02  0.63953454041E+02  0.10130737876E+03  0.00000000000E+00 0.  1.
         14    1    4    4    0    0  0.31268139946E+02  0.43588193882E+02 -0.75484857127E+01  0.54172011760E+02  0.00000000000E+00 0. -1.
        -11    1    3    3    0    0 -0.22266410920E+02 -0.35882395099E+02 -0.47664821455E+02  0.63681037505E+02  0.00000000000E+00 0. -1.
         11    1    3    3    0    0  0.29111645411E+02 -0.90153633894E+02  0.14944440833E+02  0.95908820839E+02  0.00000000000E+00 0.  1.
         -2    1    1    2    0  502 -0.23729812136E+02  0.52063058434E+01 -0.68750946010E+02  0.72917091150E+02  0.00000000000E+00 0.  1.
<scales pt_clust_5="13000.00000" pt_clust_6="13000.00000" pt_clust_7="13000.00000" pt_clust_8="13000.00000" pt_clust_9="24.29424"></scales>
<clustering>
<clus scale="   24.294">  1  9  2 -1</clus>
<clus scale="   78.150">  5  6 -1 -1</clus>
<clus scale="   92.013">  7  8 -1 -1</clus>
<clus scale="  146.659">  1  5  2 -1</clus>
<clus scale="   24.294">  1  5  2 -1</clus>
</clustering>
</event>
<event>
 9    2  0.7820252E-005  0.1001779E+03  0.7546771E-02  0.1283785E+00
         21   -1    0    0  501  502  0.00000000000E+00  0.00000000000E+00  0.13643871961E+03  0.13643871961E+03  0.00000000000E+00 0. -1.
          2   -1    0    0  502    0 -0.00000000000E+00 -0.00000000000E+00 -0.29745306721E+03  0.29745306721E+03  0.00000000000E+00 0. -1.
         24    2    1    2    0    0  0.27402373408E+02 -0.37084415665E+02 -0.14791930606E+03  0.17535431665E+03  0.82114988325E+02 0.  0.
         23    2    1    2    0    0  0.58424650450E+02  0.60100547804E+02 -0.80480618818E+02  0.14701690532E+03  0.90062893677E+02 0.  0.
        -13    1    3    3    0    0 -0.17287179855E+02 -0.32509813102E+02 -0.25058893939E+02  0.44538552971E+02  0.00000000000E+00 0.  1.
         14    1    3    3    0    0  0.44689553263E+02 -0.45746025620E+01 -0.12286041212E+03  0.13081576367E+03  0.00000000000E+00 0. -1.
        -11    1    4    4    0    0  0.79651784325E+02  0.63050997532E+02 -0.67297521642E+02  0.12185561725E+03  0.00000000000E+00 0. -1.
         11    1    4    4    0    0 -0.21227133875E+02 -0.29504497285E+01 -0.13183097176E+02  0.25161288069E+02  0.00000000000E+00 0.  1.
          1    1    1    2  501    0 -0.85827023858E+02 -0.23016132139E+02  0.67385577277E+02  0.11152056487E+03  0.00000000000E+00 0. -1.
<scales pt_clust_5="13000.00000" pt_clust_6="13000.00000" pt_clust_7="13000.00000" pt_clust_8="13000.00000" pt_clust_9="88.85955"></scales>
<clustering>
<clus scale="   82.115">  5  6 -1 -1</clus>
<clus scale="   88.860">  1  9  2 -1</clus>
<clus scale="   90.063">  7  8 -1 -1</clus>
<clus scale="   93.098">  2  5  1 -1</clus>
<clus scale="   88.860">  1  5  2 -1</clus>
</clustering>
</event>
<event>
 9    2  0.7820252E-005  0.9086813E+02  0.7546771E-02  0.1306551E+00
         21   -1    0    0  501  502  0.00000000000E+00  0.00000000000E+00  0.20216597144E+03  0.20216597144E+03  0.00000000000E+00 0. -1.
          2   -1    0    0  502    0 -0.00000000000E+00 -0.00000000000E+00 -0.50445177293E+03  0.50445177293E+03  0.00000000000E+00 0. -1.
         24    2    1    2    0    0 -0.12805382949E+02 -0.72671520873E+01 -0.46815535725E+03  0.47528769840E+03  0.80698007379E+02 0.  0.
         23    2    1    2    0    0 -0.25137912559E+02 -0.33824088441E+02  0.74359895375E+02  0.12408172820E+03  0.89949417037E+02 0.  0.
        -11    1    3    3    0    0 -0.14155196127E+02 -0.16225729266E+02 -0.29415400192E+02  0.36454212871E+02  0.00000000000E+00 0.  1.
         12    1    3    3    0    0  0.13498131777E+01  0.89585771788E+01 -0.43873995706E+03  0.43883348553E+03  0.00000000000E+00 0. -1.
        -11    1    4    4    0    0  0.17544224086E+02 -0.37682751531E+02  0.69458558842E+02  0.80946160861E+02  0.00000000000E+00 0.  1.
         11    1    4    4    0    0 -0.42682136646E+02  0.38586630903E+01  0.49013365327E+01  0.43135567335E+02  0.00000000000E+00 0. -1.
          1    1    1    2  501    0  0.37943295508E+02  0.41091240528E+02  0.91509660388E+02  0.10724831778E+03  0.00000000000E+00 0. -1.
<scales pt_clust_5="13000.00000" pt_clust_6="13000.00000" pt_clust_7="13000.00000" pt_clust_8="13000.00000" pt_clust_9="55.93017"></scales>
<clustering>
<clus scale="   55.930">  1  9  2 -1</clus>
<clus scale="   80.698">  5  6 -1 -1</clus>
<clus scale="   81.721">  2  5  1 -1</clus>
<clus scale="   89.949">  7  8 -1 -1</clus>
<clus scale="   55.930">  1  5  2 -1</clus>
</clustering>
</event>
<event>
 9    2  0.7820252E-005  0.1088208E+03  0.7546771E-02  0.1263964E+00
         21   -1    0    0  501  502  0.00000000000E+00  0.00000000000E+00  0.13857377836E+03  0.13857377836E+03  0.00000000000E+00 0. -1.
          2   -1    0    0  502    0 -0.00000000000E+00 -0.00000000000E+00 -0.26631332637E+03  0.26631332637E+03  0.00000000000E+00 0. -1.
         23    2    1    2    0    0 -0.28638339087E+02  0.39180370987E+02 -0.11156571881E+03  0.14921043817E+03  0.86380491488E+02 0.  0.
         24    2    1    2    0    0  0.87913703679E+02 -0.10933619908E+03 -0.53444997155E+01  0.16319594727E+03  0.83193327896E+02 0.  0.
        -13    1    4    4    0    0  0.37435847843E+01 -0.49380281964E+02  0.25023999336E+02  0.55485378404E+02  0.00000000000E+00 0.  1.
         14    1    4    4    0    0  0.84170118894E+02 -0.59955917112E+02 -0.30368499052E+02  0.10771056887E+03  0.00000000000E+00 0. -1.
        -11    1    3    3    0    0 -0.25575347399E+01  0.60930851118E+02 -0.90882909054E+02  0.10944776270E+03  0.00000000000E+00 0.  1.
         11    1    3    3    0    0 -0.26080804347E+02 -0.21750480131E+02 -0.20682809754E+02  0.39762675472E+02  0.00000000000E+00 0. -1.
          1    1    1    2  501    0 -0.59275364591E+02  0.70155828089E+02 -0.10829329485E+02  0.92480719285E+02  0.00000000000E+00 0. -1.
<scales pt_clust_5="13000.00000" pt_clust_6="13000.00000" pt_clust_7="13000.00000" pt_clust_8="13000.00000" pt_clust_9="91.84448"></scales>
<clustering>
<clus scale="   83.193">  5  6 -1 -1</clus>
<clus scale="   86.380">  7  8 -1 -1</clus>
<clus scale="   91.844">  1  9  2 -1</clus>
<clus scale="  106.309">  1  5  2 -1</clus>
<clus scale="   91.844">  1  5  2 -1</clus>
</clustering>
</event>
<event>
 9    2  0.7820252E-005  0.1706930E+03  0.7546771E-02  0.1209817E+00
          2   -1    0    0  502    0 -0.00000000000E+00  0.00000000000E+00  0.60733149491E+03  0.60733149491E+03  0.00000000000E+00 0. -1.
         21   -1    0    0  501  502  0.00000000000E+00 -0.00000000000E+00 -0.13100608787E+03  0.13100608787E+03  0.00000000000E+00 0. -1.
         24    2    1    2    0    0  0.18477248997E+02  0.70920461442E+01  0.33077001750E+03  0.34108401556E+03  0.80856634508E+02 0.  0.
         23    2    1    2    0    0  0.88706641990E+02 -0.10758768553E+03  0.18161948695E+03  0.24596450898E+03  0.89827185353E+02 0.  0.
        -13    1    3    3    0    0 -0.28995906885E+02  0.20837445310E+01  0.67087081660E+02  0.73114848923E+02  0.00000000000E+00 0.  1.
         14    1    3    3    0    0  0.47473155883E+02  0.50083016132E+01  0.26368293584E+03  0.26796916663E+03  0.00000000000E+00 0. -1.
        -13    1    4    4    0    0  0.23789205005E+02  0.87178297518E+01  0.61852678847E+02  0.66840711478E+02  0.00000000000E+00 0.  1.
         13    1    4    4    0    0  0.64917436985E+02 -0.11630551528E+03  0.11976680810E+03  0.17912379750E+03  0.00000000000E+00 0. -1.
          1    1    1    2  501    0 -0.10718389099E+03  0.10049563938E+03 -0.36064097410E+02  0.15128905824E+03  0.00000000000E+00 0. -1.
<scales pt_clust_5="13000.00000" pt_clust_6="13000.00000" pt_clust_7="13000.00000" pt_clust_8="13000.00000" pt_clust_9="145.14541"></scales>
<clustering>
<clus scale="   80.857">  5  6 -1 -1</clus>
<clus scale="   83.244">  1  5  2 -1</clus>
<clus scale="   89.827">  7  8 -1 -1</clus>
<clus scale="  145.145">  2  9  1 -1</clus>
<clus scale="  145.145">  2  5  1 -1</clus>
</clustering>
</event>
<event>
 9    2  0.7820252E-005  0.9148112E+02  0.7546771E-02  0.1302699E+00
         21   -1    0    0  501  502  0.00000000000E+00  0.00000000000E+00  0.38166216658E+03  0.38166216658E+03  0.00000000000E+00 0.  1.
         -1   -1    0    0    0  501 -0.00000000000E+00 -0.00000000000E+00 -0.25104522078E+03  0.25104522078E+03  0.00000000000E+00 0.  1.
         23    2    1    2    0    0  0.12238812609E+01  0.16092489102E+02 -0.19788120553E+03  0.21744377164E+03  0.88681205615E+02 0.  0.
         24    2    1    2    0    0  0.14930833840E+02 -0.71096485456E+02  0.34221230649E+02  0.11545480917E+03  0.82952277187E+02 0.  0.
        -13    1    4    4    0    0  0.24121658452E+02  0.11703427392E+02  0.57942870115E+01  0.27429881173E+02  0.00000000000E+00 0.  1.
         14    1    4    4    0    0 -0.91908246115E+01 -0.82799912848E+02  0.28426943638E+02  0.88024927999E+02  0.00000000000E+00 0. -1.
        -13    1    3    3    0    0 -0.24187732077E+02 -0.45023374736E+01 -0.97086097284E+01  0.26449471235E+02  0.00000000000E+00 0. -1.
         13    1    3    3    0    0  0.25411613337E+02  0.20594826576E+02 -0.18817259580E+03  0.19099430040E+03  0.00000000000E+00 0.  1.
         -2    1    1    2    0  502 -0.16154715101E+02  0.55003996354E+02  0.29427692069E+03  0.29980880655E+03  0.00000000000E+00 0.  1.
<scales pt_clust_5="13000.00000" pt_clust_6="13000.00000" pt_clust_7="13000.00000" pt_clust_8="13000.00000" pt_clust_9="57.32726"></scales>
<clustering>
<clus scale="   57.327">  1  9  2 -1</clus>
<clus scale="   82.952">  5  6 -1 -1</clus>
<clus scale="   85.939">  1  5  2 -1</clus>
<clus scale="   88.681">  7  8 -1 -1</clus>
<clus scale="   57.327">  1  5  2 -1</clus>
</clustering>
</event>
<event>
 9    2  0.7820252E-005  0.9160628E+02  0.7546771E-02  0.1305909E+00
          2   -1    0    0  502    0 -0.00000000000E+00  0.00000000000E+00  0.21849141020E+03  0.21849141020E+03  0.00000000000E+00 0. -1.
         21   -1    0    0  501  502  0.00000000000E+00 -0.00000000000E+00 -0.16506421415E+03  0.16506421415E+03  0.00000000000E+00 0.  1.
         24    2    1    2    0    0  0.51634421164E+01 -0.12724011400E+01  0.17940785281E+03  0.19664272003E+03  0.80329954264E+02 0.  0.
         23    2    1    2    0    0 -0.38131557915E+02  0.17949046010E+02 -0.99554438176E+02  0.14148876786E+03  0.91278701285E+02 0.  0.
        -11    1    3    3    0    0 -0.30060149931E+02 -0.19097712404E+02  0.12109800780E+03  0.12622623628E+03  0.00000000000E+00 0.  1.
         12    1    3    3    0    0  0.35223592048E+02  0.17825311264E+02  0.58309845014E+02  0.70416483752E+02  0.00000000000E+00 0. -1.
        -11    1    4    4    0    0 -0.59436865409E+01  0.51868060936E+02 -0.64868261860E+02  0.83267728153E+02  0.00000000000E+00 0. -1.
         11    1    4    4    0    0 -0.32187871374E+02 -0.33919014926E+02 -0.34686176316E+02  0.58221039707E+02  0.00000000000E+00 0.  1.
          1    1    1    2  501    0  0.32968115798E+02 -0.16676644870E+02 -0.26426218588E+02  0.45424136451E+02  0.00000000000E+00 0. -1.
<scales pt_clust_5="13000.00000" pt_clust_6="13000.00000" pt_clust_7="13000.00000" pt_clust_8="13000.00000" pt_clust_9="36.94600"></scales>
<clustering>
<clus scale="   36.946">  2  9  1 -1</clus>
<clus scale="   80.330">  5  6 -1 -1</clus>
<clus scale="   80.702">  1  5  2 -1</clus>
<clus scale="   91.279">  7  8 -1 -1</clus>
<clus scale="   36.946">  2  5  1 -1</clus>
</clustering>
</event>
<event>
 9    2  0.7820252E-005  0.2001296E+03  0.7546771E-02  0.1166631E+00
         -1   -1    0    0    0  501 -0.00000000000E+00  0.00000000000E+00  0.23467946652E+03  0.23467946652E+03  0.00000000000E+00 0.  1.
         21   -1    0    0  501  502  0.00000000000E+00 -0.00000000000E+00 -0.40151306537E+03  0.40151306537E+03  0.00000000000E+00 0.  1.
         23    2    1    2    0    0  0.89759101375E+02 -0.44680444047E+02  0.44189361275E+01  0.13461227467E+03  0.89710083805E+02 0.  0.
         24    2    1    2    0    0  0.10961812675E+03  0.63982431197E+02  0.87674966234E+02  0.17421609197E+03  0.80959630586E+02 0.  0.
        -11    1    4    4    0    0  0.56053130670E+02  0.39108291088E+02  0.92442418518E+02  0.11496526706E+03  0.00000000000E+00 0.  1.
         12    1    4    4    0    0  0.53564996078E+02  0.24874140109E+02 -0.47674522846E+01  0.59250824908E+02  0.00000000000E+00 0. -1.
        -11    1    3    3    0    0  0.63383552526E+02 -0.72087879281E+02 -0.21372115549E+01  0.96014086171E+02  0.00000000000E+00 0.  1.
         11    1    3    3    0    0  0.26375548849E+02  0.27407435234E+02  0.65561476824E+01  0.38598188502E+02  0.00000000000E+00 0. -1.
         -2    1    1    2    0  502 -0.19937722812E+03 -0.19301987150E+02 -0.25892750121E+03  0.32736416524E+03  0.00000000000E+00 0.  1.
<scales pt_clust_5="13000.00000" pt_clust_6="13000.00000" pt_clust_7="13000.00000" pt_clust_8="13000.00000" pt_clust_9="183.02299"></scales>
<clustering>
<clus scale="   80.960">  5  6 -1 -1</clus>
<clus scale="   89.710">  7  8 -1 -1</clus>
<clus scale="  134.540">  1  7  2 -1</clus>
<clus scale="  183.023">  2  9  1 -1</clus>
<clus scale="  183.023">  2  5  1 -1</clus>
</clustering>
</event>
<event>
 9    2  0.7820252E-005  0.9599607E+02  0.7546771E-02  0.1296411E+00
         -1   -1    0    0    0  501 -0.00000000000E+00  0.00000000000E+00  0.67340326000E+02  0.67340326000E+02  0.00000000000E+00 0.  1.
         21   -1    0    0  501  502  0.00000000000E+00 -0.00000000000E+00 -0.19440877770E+03  0.19440877770E+03  0.00000000000E+00 0.  1.
         23    2    1    2    0    0  0.12981392419E+02 -0.32091940603E+02 -0.52144933016E+01  0.98566133154E+02  0.92139472887E+02 0.  0.
         24    2    1    2    0    0  0.78075625375E+01  0.15304630182E+02 -0.81954961841E+02  0.11516292925E+03  0.79061335470E+02 0.  0.
        -13    1    4    4    0    0  0.16029241576E+02 -0.17384927481E+02 -0.77662948321E+02  0.81183162238E+02  0.00000000000E+00 0.  1.
         14    1    4    4    0    0 -0.82216790386E+01  0.32689557663E+02 -0.42920135195E+01  0.33979767016E+02  0.00000000000E+00 0. -1.
        -13    1    3    3    0    0 -0.32226703136E+02  0.89122680516E+01  0.11374527122E+02  0.35318108444E+02  0.00000000000E+00 0. -1.
         13    1    3    3    0    0  0.45208095555E+02 -0.41004208655E+02 -0.16589020424E+02  0.63248024710E+02  0.00000000000E+00 0.  1.
         -2    1    1    2    0  502 -0.20788954957E+02  0.16787310421E+02 -0.39898996558E+02  0.48020041292E+02  0.00000000000E+00 0.  1.
<scales pt_clust_5="13000.00000" pt_clust_6="13000.00000" pt_clust_7="13000.00000" pt_clust_8="13000.00000" pt_clust_9="26.72067"></scales>
<clustering>
<clus scale="   26.721">  2  9  1 -1</clus>
<clus scale="   79.061">  5  6 -1 -1</clus>
<clus scale="   83.524">  2  5  1 -1</clus>
<clus scale="   92.139">  7  8 -1 -1</clus>
<clus scale="   26.721">  2  5  1 -1</clus>
</clustering>
</event>
<event>
 9    2  0.7820252E-005  0.9589084E+02  0.7546771E-02  0.1295953E+00
          2   -1    0    0  502    0 -0.00000000000E+00  0.00000000000E+00  0.31680368246E+03  0.31680368246E+03  0.00000000000E+00 0. -1.
         21   -1    0    0  501  502  0.00000000000E+00 -0.00000000000E+00 -0.10371567050E+03  0.10371567050E+03  0.00000000000E+00 0. -1.
         24    2    1    2    0    0 -0.29179998228E+02 -0.64285543321E+01  0.26283364885E+03  0.27639399840E+03  0.80120638904E+02 0.  0.
         23    2    1    2    0    0  0.19939232050E+01 -0.23149348672E+02 -0.31676401764E+02  0.10007501654E+03  0.92042090552E+02 0.  0.
        -13    1    3    3    0    0  0.17106612052E+02  0.22136741470E+02  0.12762205053E+03  0.13065243695E+03  0.00000000000E+00 0.  1.
         14    1    3    3    0    0 -0.46286610281E+02 -0.28565295802E+02  0.13521159832E+03  0.14574156145E+03  0.00000000000E+00 0. -1.
        -11    1    4    4    0    0 -0.89755272868E+01  0.30480440891E+02  0.76383313484E+01  0.32679679815E+02  0.00000000000E+00 0.  1.
         11    1    4    4    0    0  0.10969450492E+02 -0.53629789563E+02 -0.39314733113E+02  0.67395336726E+02  0.00000000000E+00 0. -1.
          1    1    1    2  501    0  0.27186075023E+02  0.29577903004E+02 -0.18069235125E+02  0.44050338016E+02  0.00000000000E+00 0. -1.
<scales pt_clust_5="13000.00000" pt_clust_6="13000.00000" pt_clust_7="13000.00000" pt_clust_8="13000.00000" pt_clust_9="40.17381"></scales>
<clustering>
<clus scale="   40.174">  2  9  1 -1</clus>
<clus scale="   80.121">  5  6 -1 -1</clus>
<clus scale="   84.514">  1  5  2 -1</clus>
<clus scale="   92.042">  7  8 -1 -1</clus>
<clus scale="   40.174">  2  5  1 -1</clus>
</clustering>
</event>
<event>
 9    2  0.7820252E-005  0.1292702E+03  0.7546771E-02  0.1240885E+00
          2   -1    0    0  502    0 -0.00000000000E+00  0.00000000000E+00  0.13684806099E+03  0.13684806099E+03  0.00000000000E+00 0. -1.
         21   -1    0    0  501  502  0.00000000000E+00 -0.00000000000E+00 -0.21709727775E+03  0.21709727775E+03  0.00000000000E+00 0. -1.
         23    2    1    2    0    0 -0.74852183202E+02  0.57232827658E+02  0.74179048177E+02  0.15492825703E+03  0.98090711829E+02 0.  0.
         24    2    1    2    0    0  0.49919135997E+02 -0.19467469051E+02 -0.11922666879E+03  0.14168444244E+03  0.54667908210E+02 0.  0.
        -13    1    4    4    0    0  0.15469802363E+02 -0.34491095766E+02 -0.72083057266E+02  0.81393596905E+02  0.00000000000E+00 0.  1.
         14    1    4    4    0    0  0.34449333634E+02  0.15023626715E+02 -0.47143611527E+02  0.60290845535E+02  0.00000000000E+00 0. -1.
        -13    1    3    3    0    0 -0.86495946589E+02  0.22884559794E+02  0.23318444724E+02  0.92460811794E+02  0.00000000000E+00 0.  1.
         13    1    3    3    0    0  0.11643763387E+02  0.34348267863E+02  0.50860603453E+02  0.62467445239E+02  0.00000000000E+00 0. -1.
          1    1    1    2  501    0  0.24933047204E+02 -0.37765358607E+02 -0.35201596141E+02  0.57332639260E+02  0.00000000000E+00 0. -1.
<scales pt_clust_5="13000.00000" pt_clust_6="13000.00000" pt_clust_7="13000.00000" pt_clust_8="13000.00000" pt_clust_9="45.25350"></scales>
<clustering>
<clus scale="   45.253">  2  9  1 -1</clus>
<clus scale="   54.668">  5  6 -1 -1</clus>
<clus scale="   98.091">  7  8 -1 -1</clus>
<clus scale="  100.387">  2  5  1 -1</clus>
<clus scale="   45.253">  2  5  1 -1</clus>
</clustering>
</event>
<event>
 9    2  0.7820252E-005  0.1702152E+03  0.7546771E-02  0.1178801E+00
          2   -1    0    0  502    0 -0.00000000000E+00  0.00000000000E+00  0.29199525969E+03  0.29199525969E+03  0.00000000000E+00 0. -1.
         21   -1    0    0  501  502  0.00000000000E+00 -0.00000000000E+00 -0.26334718045E+03  0.26334718045E+03  0.00000000000E+00 0. -1.
         23    2    1    2    0    0  0.11992619898E+03  0.85760220693E+02  0.19005177507E+03  0.25699398158E+03  0.90493760585E+02 0.  0.
         24    2    1    2    0    0 -0.56028972845E+02 -0.13511694748E+03 -0.12839321628E+03  0.21112097581E+03  0.81801058332E+02 0.  0.
        -11    1    4    4    0    0  0.14964695755E+02 -0.15076216412E+02 -0.42002319201E+02  0.47068346461E+02  0.00000000000E+00 0.  1.
         12    1    4    4    0    0 -0.70993668600E+02 -0.12004073107E+03 -0.86390897075E+02  0.16405262934E+03  0.00000000000E+00 0. -1.
        -13    1    3    3    0    0  0.81835993639E+02  0.88295198595E+02  0.18162431235E+03  0.21790035059E+03  0.00000000000E+00 0. -1.
         13    1    3    3    0    0  0.38090205339E+02 -0.25349779015E+01  0.84274627144E+01  0.39093630984E+02  0.00000000000E+00 0.  1.
          1    1    1    2  501    0 -0.63897226134E+02  0.49356726790E+02 -0.33010479559E+02  0.87227482754E+02  0.00000000000E+00 0. -1.
<scales pt_clust_5="13000.00000" pt_clust_6="13000.00000" pt_clust_7="13000.00000" pt_clust_8="13000.00000" pt_clust_9="80.73997"></scales>
<clustering>
<clus scale="   80.740">  2  9  1 -1</clus>
<clus scale="   81.801">  5  6 -1 -1</clus>
<clus scale="   90.494">  7  8 -1 -1</clus>
<clus scale="  165.757">  2  5  1 -1</clus>
<clus scale="   80.740">  2  5  1 -1</clus>
</clustering>
</event>
<event>
 9    2  0.7820252E-005  0.1135293E+03  0.7546771E-02  0.1265182E+00
          2   -1    0    0  502    0 -0.00000000000E+00  0.00000000000E+00  0.62784410747E+03  0.62784410747E+03  0.00000000000E+00 0. -1.
         21   -1    0    0  501  502  0.00000000000E+00 -0.00000000000E+00 -0.12720604007E+03  0.12720604007E+03  0.00000000000E+00 0. -1.
         24    2    1    2    0    0 -0.29573985491E+02  0.36325319787E+02  0.49466337312E+03  0.50334010396E+03  0.80406828548E+02 0.  0.
         23    2    1    2    0    0  0.24323804793E+02 -0.13204464888E+02  0.10436010978E+03  0.15050812505E+03  0.10486018224E+03 0.  0.
        -11    1    3    3    0    0 -0.43899042278E+02  0.45533963191E+02  0.24284394726E+03  0.25094551289E+03  0.00000000000E+00 0.  1.
         12    1    3    3    0    0  0.14325056787E+02 -0.92086434040E+01  0.25181942586E+03  0.25239459108E+03  0.00000000000E+00 0. -1.
        -13    1    4    4    0    0 -0.67084743378E+01 -0.39208778156E+02  0.10253379182E+03  0.10997959073E+03  0.00000000000E+00 0.  1.
         13    1    4    4    0    0  0.31032279131E+02  0.26004313268E+02  0.18263179597E+01  0.40528534317E+02  0.00000000000E+00 0. -1.
          1    1    1    2  501    0  0.52501806976E+01 -0.23120854900E+02 -0.98385415504E+02  0.10120191852E+03  0.00000000000E+00 0. -1.
<scales pt_clust_5="13000.00000" pt_clust_6="13000.00000" pt_clust_7="13000.00000" pt_clust_8="13000.00000" pt_clust_9="23.70946"></scales>
<clustering>
<clus scale="   23.709">  2  9  1 -1</clus>
<clus scale="   80.407">  5  6 -1 -1</clus>
<clus scale="   91.425">  1  5  2 -1</clus>
<clus scale="  104.860">  7  8 -1 -1</clus>
<clus scale="   23.709">  2  5  1 -1</clus>
</clustering>
</event>
<event>
 9    2  0.7820252E-005  0.9972224E+02  0.7546771E-02  0.1281523E+00
          2   -1    0    0  502    0 -0.00000000000E+00  0.00000000000E+00  0.41757882360E+03  0.41757882360E+03  0.00000000000E+00 0. -1.
         21   -1    0    0  501  502  0.00000000000E+00 -0.00000000000E+00 -0.67786366566E+02  0.67786366566E+02  0.00000000000E+00 0.  1.
         23    2    1    2    0    0 -0.35365714645E+02  0.23054234668E+02  0.24814811567E+03  0.26799582969E+03  0.91989379368E+02 0.  0.
         24    2    1    2    0    0 -0.25713992927E+02 -0.33475817090E+02  0.49284623349E+01  0.10250726353E+03  0.93282418347E+02 0.  0.
        -11    1    4    4    0    0 -0.22518322419E+02 -0.40882710478E+02 -0.37155346837E+02  0.59657276665E+02  0.00000000000E+00 0.  1.
         12    1    4    4    0    0 -0.31956705081E+01  0.74068933873E+01  0.42083809171E+02  0.42849986861E+02  0.00000000000E+00 0. -1.
        -11    1    3    3    0    0  0.27663902083E+02  0.18204817199E+02  0.49703848364E+02  0.59725868683E+02  0.00000000000E+00 0.  1.
         11    1    3    3    0    0 -0.63029616729E+02  0.48494174690E+01  0.19844426730E+03  0.20826996101E+03  0.00000000000E+00 0. -1.
          1    1    1    2  501    0  0.61079707573E+02  0.10421582422E+02  0.96715879037E+02  0.11486209695E+03  0.00000000000E+00 0. -1.
<scales pt_clust_5="13000.00000" pt_clust_6="13000.00000" pt_clust_7="13000.00000" pt_clust_8="13000.00000" pt_clust_9="61.96244"></scales>
<clustering>
<clus scale="   61.962">  2  9  1 -1</clus>
<clus scale="   91.989">  7  8 -1 -1</clus>
<clus scale="   93.282">  5  6 -1 -1</clus>
<clus scale="   98.514">  1  7  2 -1</clus>
<clus scale="   61.962">  2  5  1 -1</clus>
</clustering>
</event>
<event>
 9    2  0.7820252E-005  0.1175950E+03  0.7546771E-02  0.1257511E+00
          2   -1    0    0  502    0 -0.00000000000E+00  0.00000000000E+00  0.71363335748E+03  0.71363335748E+03  0.00000000000E+00 0. -1.
         21   -1    0    0  501  502  0.00000000000E+00 -0.00000000000E+00 -0.38920831202E+02  0.38920831202E+02  0.00000000000E+00 0. -1.
         24    2    1    2    0    0  0.29980156546E+02  0.85439699434E+02  0.41750454345E+03  0.43136591248E+03  0.59730684061E+02 0.  0.
         23    2    1    2    0    0  0.41848677416E+02 -0.43103943218E+02  0.14111000626E+03  0.17825319372E+03  0.90845503363E+02 0.  0.
        -13    1    3    3    0    0  0.27676579306E+02  0.53308376240E+01  0.11872748254E+03  0.12202715264E+03  0.00000000000E+00 0.  1.
         14    1    3    3    0    0  0.23035772398E+01  0.80108861810E+02  0.29877706091E+03  0.30933875984E+03  0.00000000000E+00 0. -1.
        -13    1    4    4    0    0  0.49416354542E+02  0.12872183061E+02  0.53049748162E+02  0.73633857518E+02  0.00000000000E+00 0. -1.
         13    1    4    4    0    0 -0.75676771264E+01 -0.55976126279E+02  0.88060258102E+02  0.10461933620E+03  0.00000000000E+00 0.  1.
          1    1    1    2  501    0 -0.71828833962E+02 -0.42335756216E+02  0.11609797656E+03  0.14293508248E+03  0.00000000000E+00 0. -1.
<scales pt_clust_5="13000.00000" pt_clust_6="13000.00000" pt_clust_7="13000.00000" pt_clust_8="13000.00000" pt_clust_9="83.37684"></scales>
<clustering>
<clus scale="   59.731">  5  6 -1 -1</clus>
<clus scale="   83.377">  2  9  1 -1</clus>
<clus scale="   90.846">  7  8 -1 -1</clus>
<clus scale="   95.621">  1  5  2 -1</clus>
<clus scale="   83.377">  2  5  1 -1</clus>
</clustering>
</event>
<event>
 9    2  0.7820252E-005  0.1045358E+03  0.7546771E-02  0.1276064E+00
         21   -1    0    0  501  502  0.00000000000E+00  0.00000000000E+00  0.73208650682E+02  0.73208650682E+02  0.00000000000E+00 0.  1.
         -3   -1    0    0    0  501 -0.00000000000E+00 -0.00000000000E+00 -0.41447754967E+03  0.41447754967E+03  0.00000000000E+00 0.  1.
         23    2    1    2    0    0  0.70665706593E+01 -0.55826935918E+02 -0.33437323691E+03  0.35124037786E+03  0.91639283508E+02 0.  0.
         24    2    1    2    0    0  0.12526161472E+01  0.30992205200E+02 -0.39300074233E+02  0.94780265436E+02  0.80478053226E+02 0.  0.
        -11    1    4    4    0    0  0.19012044971E+02 -0.96574134927E+01 -0.45250381052E+02  0.50023199365E+02  0.00000000000E+00 0.  1.
         12    1    4    4    0    0 -0.17759428824E+02  0.40649618693E+02  0.59503068194E+01  0.44757066071E+02  0.00000000000E+00 0. -1.
        -11    1    3    3    0    0  0.14515106927E+02 -0.80440743785E+02 -0.24837931713E+03  0.26148362620E+03  0.00000000000E+00 0.  1.
         11    1    3    3    0    0 -0.74485362676E+01  0.24613807867E+02 -0.85993919772E+02  0.89756751657E+02  0.00000000000E+00 0. -1.
         -4    1    1    2    0  502 -0.83191868065E+01  0.24834730717E+02  0.32404412147E+02  0.41665557065E+02  0.00000000000E+00 0.  1.
<scales pt_clust_5="13000.00000" pt_clust_6="13000.00000" pt_clust_7="13000.00000" pt_clust_8="13000.00000" pt_clust_9="26.19108"></scales>
<clustering>
<clus scale="   26.191">  1  9  2 -1</clus>
<clus scale="   80.478">  5  6 -1 -1</clus>
<clus scale="   91.639">  7  8 -1 -1</clus>
<clus scale="   94.904">  1  5  2 -1</clus>
<clus scale="   26.191">  1  5  2 -1</clus>
</clustering>
</event>
<event>
 9    2  0.7820252E-005  0.1107403E+03  0.7546771E-02  0.1263716E+00
         21   -1    0    0  501  502  0.00000000000E+00  0.00000000000E+00  0.25331613829E+03  0.25331613829E+03  0.00000000000E+00 0. -1.
         -3   -1    0    0    0  501 -0.00000000000E+00 -0.00000000000E+00 -0.10506155876E+03  0.10506155876E+03  0.00000000000E+00 0.  1.
         24    2    1    2    0    0  0.17319777727E+02 -0.59931521122E+02 -0.45098908070E+02  0.11082183842E+03  0.79723311757E+02 0.  0.
         23    2    1    2    0    0  0.19080021221E+02  0.69960535444E+02  0.15140617965E+03  0.19111914066E+03  0.91346433759E+02 0.  0.
        -13    1    3    3    0    0  0.26570019200E+02 -0.59352963861E+02 -0.63077199851E+02  0.90595106823E+02  0.00000000000E+00 0.  1.
         14    1    3    3    0    0 -0.92502414726E+01 -0.57855726125E+00  0.17978291780E+02  0.20226731598E+02  0.00000000000E+00 0. -1.
        -11    1    4    4    0    0  0.39081111728E+02  0.67216919229E+02  0.61953786407E+02  0.99416895821E+02  0.00000000000E+00 0.  1.
         11    1    4    4    0    0 -0.20001090507E+02  0.27436162147E+01  0.89452393240E+02  0.91702244834E+02  0.00000000000E+00 0. -1.
         -4    1    1    2    0  502 -0.36399798949E+02 -0.10029014322E+02  0.41947307947E+02  0.56436717975E+02  0.00000000000E+00 0.  1.
<scales pt_clust_5="13000.00000" pt_clust_6="13000.00000" pt_clust_7="13000.00000" pt_clust_8="13000.00000" pt_clust_9="37.75615"></scales>
<clustering>
<clus scale="   37.756">  1  9  2 -1</clus>
<clus scale="   79.723">  5  6 -1 -1</clus>
<clus scale="   91.346">  7  8 -1 -1</clus>
<clus scale="  101.366">  2  5  1 -1</clus>
<clus scale="   37.756">  1  5  2 -1</clus>
</clustering>
</event>
<event>
 9    2  0.7820252E-005  0.1672042E+03  0.7546771E-02  0.1182246E+00
         21   -1    0    0  501  502  0.00000000000E+00  0.00000000000E+00  0.99401636559E+02  0.99401636559E+02  0.00000000000E+00 0.  1.
          2   -1    0    0  502    0 -0.00000000000E+00 -0.00000000000E+00 -0.97470367602E+03  0.97470367602E+03  0.00000000000E+00 0. -1.
         24    2    1    2    0    0 -0.58221914319E+02  0.12921611993E+03 -0.87560044928E+03  0.89057299644E+03  0.79734046992E+02 0.  0.
         23    2    1    2    0    0  0.35927758787E+02 -0.12813167223E+03 -0.42089487270E+01  0.16076124504E+03  0.90099574799E+02 0.  0.
        -13    1    3    3    0    0 -0.39113754256E+02  0.94711262266E+02 -0.38544794531E+03  0.39883609104E+03  0.00000000000E+00 0.  1.
         14    1    3    3    0    0 -0.19108160063E+02  0.34504857663E+02 -0.49015250397E+03  0.49173690540E+03  0.00000000000E+00 0. -1.
        -13    1    4    4    0    0  0.62554907340E+02 -0.56914663835E+02  0.64713133389E+00  0.84574311530E+02  0.00000000000E+00 0. -1.
         13    1    4    4    0    0 -0.26627148553E+02 -0.71217008393E+02 -0.48560800609E+01  0.76186933513E+02  0.00000000000E+00 0.  1.
          1    1    1    2  501    0  0.22294155532E+02 -0.10844477018E+01  0.45073585492E+01  0.22771071094E+02  0.00000000000E+00 0. -1.
<scales pt_clust_5="13000.00000" pt_clust_6="13000.00000" pt_clust_7="13000.00000" pt_clust_8="13000.00000" pt_clust_9="22.32052"></scales>
<clustering>
<clus scale="   22.321">  1  9  2 -1</clus>
<clus scale="   79.734">  5  6 -1 -1</clus>
<clus scale="   90.100">  7  8 -1 -1</clus>
<clus scale="  161.854">  2  5  1 -1</clus>
<clus scale="   22.321">  1  5  2 -1</clus>
</clustering>
</event>
<event>
 9    2  0.7820252E-005  0.1832678E+03  0.7546771E-02  0.1165837E+00
         21   -1    0    0  501  502  0.00000000000E+00  0.00000000000E+00  0.38932982416E+02  0.38932982416E+02  0.00000000000E+00 0. -1.
          2   -1    0    0  502    0 -0.00000000000E+00 -0.00000000000E+00 -0.12176790681E+04  0.12176790681E+04  0.00000000000E+00 0. -1.
         23    2    1    2    0    0  0.60760592503E+02 -0.12643100503E+03 -0.43222006507E+03  0.46337772840E+03  0.90708797191E+02 0.  0.
         24    2    1    2    0    0 -0.24527866979E+02  0.18267308209E+03 -0.57158103483E+03  0.60593314839E+03  0.80492420508E+02 0.  0.
        -11    1    4    4    0    0 -0.32353444816E+01  0.39215524055E+02 -0.45151209986E+02  0.59891205899E+02  0.00000000000E+00 0.  1.
         12    1    4    4    0    0 -0.21292522497E+02  0.14345755803E+03 -0.52642982485E+03  0.54604194249E+03  0.00000000000E+00 0. -1.
        -13    1    3    3    0    0  0.23553178312E+02 -0.65789323698E+02 -0.90544761702E+02  0.11437369100E+03  0.00000000000E+00 0.  1.
         13    1    3    3    0    0  0.37207414192E+02 -0.60641681331E+02 -0.34167530337E+03  0.34900403740E+03  0.00000000000E+00 0. -1.
          1    1    1    2  501    0 -0.36232725524E+02 -0.56242077058E+02 -0.17494498575E+03  0.18730117370E+03  0.00000000000E+00 0. -1.
<scales pt_clust_5="13000.00000" pt_clust_6="13000.00000" pt_clust_7="13000.00000" pt_clust_8="13000.00000" pt_clust_9="66.90278"></scales>
<clustering>
<clus scale="   66.903">  1  9  2 -1</clus>
<clus scale="   80.492">  5  6 -1 -1</clus>
<clus scale="   90.709">  7  8 -1 -1</clus>
<clus scale="  178.432">  1  5  2 -1</clus>
<clus scale="   66.903">  1  5  2 -1</clus>
</clustering>
</event>
<event>
 9    2  0.7820252E-005  0.1356099E+03  0.7546771E-02  0.1221674E+00
          2   -1    0    0  502    0 -0.00000000000E+00  0.00000000000E+00  0.49561931708E+03  0.49561931708E+03  0.00000000000E+00 0. -1.
         21   -1    0    0  501  502  0.00000000000E+00 -0.00000000000E+00 -0.10902366483E+03  0.10902366483E+03  0.00000000000E+00 0. -1.
         24    2    1    2    0    0 -0.58123219103E+02  0.10035455266E+03  0.38560521785E+03  0.41074382135E+03  0.81054043112E+02 0.  0.
         23    2    1    2    0    0 -0.32977945174E+01 -0.31952225056E+02 -0.22449330112E+02  0.99026393673E+02  0.90941927001E+02 0.  0.
        -11    1    3    3    0    0  0.35125638051E+00  0.29326752028E+02  0.24846206985E+02  0.38438467283E+02  0.00000000000E+00 0.  1.
         12    1    3    3    0    0 -0.58474475484E+02  0.71027800630E+02  0.36075901086E+03  0.37230535407E+03  0.00000000000E+00 0. -1.
        -11    1    4    4    0    0  0.26767038254E+02  0.12360363105E+02  0.15580861150E+02  0.33346906111E+02  0.00000000000E+00 0.  1.
         11    1    4    4    0    0 -0.30064832771E+02 -0.44312588161E+02 -0.38030191261E+02  0.65679487562E+02  0.00000000000E+00 0. -1.
          1    1    1    2  501    0  0.61421013621E+02 -0.68402327602E+02  0.23439764512E+02  0.94872766882E+02  0.00000000000E+00 0. -1.
<scales pt_clust_5="13000.00000" pt_clust_6="13000.00000" pt_clust_7="13000.00000" pt_clust_8="13000.00000" pt_clust_9="91.93160"></scales>
<clustering>
<clus scale="   81.054">  5  6 -1 -1</clus>
<clus scale="   90.942">  7  8 -1 -1</clus>
<clus scale="   91.932">  2  9  1 -1</clus>
<clus scale="  129.187">  1  5  2 -1</clus>
<clus scale="   91.932">  2  5  1 -1</clus>
</clustering>
</event>
<event>
 9    2  0.7820252E-005  0.1662693E+03  0.7546771E-02  0.1193906E+00
          4   -1    0    0  502    0 -0.00000000000E+00  0.00000000000E+00  0.44533707484E+03  0.44533707484E+03  0.00000000000E+00 0. -1.
         21   -1    0    0  501  502  0.00000000000E+00 -0.00000000000E+00 -0.21344564393E+03  0.21344564393E+03  0.00000000000E+00 0. -1.
         24    2    1    2    0    0  0.50507901442E+02  0.85148108465E+02  0.27799581868E+03  0.30567585242E+03  0.79717018658E+02 0.  0.
         23    2    1    2    0    0  0.90527867021E+02 -0.12461808045E+03  0.42713973723E+02  0.18182444457E+03  0.86664204894E+02 0.  0.
        -13    1    3    3    0    0 -0.16793839631E+02  0.44762272709E+02  0.88959416094E+02  0.10099243447E+03  0.00000000000E+00 0.  1.
         14    1    3    3    0    0  0.67301741072E+02  0.40385835756E+02  0.18903640259E+03  0.20468341795E+03  0.00000000000E+00 0. -1.
        -11    1    4    4    0    0  0.56232905674E+02 -0.19270474004E+02  0.38762091537E+02  0.70964713691E+02  0.00000000000E+00 0. -1.
         11    1    4    4    0    0  0.34294961347E+02 -0.10534760645E+03  0.39518821864E+01  0.11085973088E+03  0.00000000000E+00 0.  1.
          3    1    1    2  501    0 -0.14103576846E+03  0.39469971990E+02 -0.88818361488E+02  0.17128242178E+03  0.00000000000E+00 0. -1.
<scales pt_clust_5="13000.00000" pt_clust_6="13000.00000" pt_clust_7="13000.00000" pt_clust_8="13000.00000" pt_clust_9="141.89708"></scales>
<clustering>
<clus scale="   79.717">  5  6 -1 -1</clus>
<clus scale="   86.664">  7  8 -1 -1</clus>
<clus scale="  127.106">  1  5  2 -1</clus>
<clus scale="  141.897">  2  9  1 -1</clus>
<clus scale="  141.897">  2  5  1 -1</clus>
</clustering>
</event>
<event>
 9    2  0.7820252E-005  0.1292280E+03  0.7546771E-02  0.1241939E+00
         -1   -1    0    0    0  501 -0.00000000000E+00  0.00000000000E+00  0.88792154167E+03  0.88792154167E+03  0.00000000000E+00 0.  1.
         21   -1    0    0  501  502  0.00000000000E+00 -0.00000000000E+00 -0.21261987885E+02  0.21261987885E+02  0.00000000000E+00 0. -1.
         23    2    1    2    0    0 -0.93337525046E+01  0.59688168663E+02  0.63189828896E+03  0.64547319396E+03  0.11700598328E+03 0.  0.
         24    2    1    2    0    0 -0.12323705674E+02 -0.46627830123E+02  0.18380394279E+03  0.20682214168E+03  0.81642394867E+02 0.  0.
        -11    1    4    4    0    0 -0.33573561176E+02 -0.30221553892E-01  0.12210743291E+03  0.12663889645E+03  0.00000000000E+00 0.  1.
         12    1    4    4    0    0  0.21249855502E+02 -0.46597608570E+02  0.61696509883E+02  0.80183245226E+02  0.00000000000E+00 0. -1.
        -13    1    3    3    0    0 -0.59343496991E+02  0.53209498581E+02  0.43349683245E+03  0.44076343442E+03  0.00000000000E+00 0. -1.
         13    1    3    3    0    0  0.50009744487E+02  0.64786700818E+01  0.19840145651E+03  0.20470975955E+03  0.00000000000E+00 0.  1.
         -2    1    1    2    0  502  0.21657458178E+02 -0.13060338540E+02  0.50957322036E+02  0.56888193912E+02  0.00000000000E+00 0.  1.
<scales pt_clust_5="13000.00000" pt_clust_6="13000.00000" pt_clust_7="13000.00000" pt_clust_8="13000.00000" pt_clust_9="25.29067"></scales>
<clustering>
<clus scale="   25.291">  2  9  1 -1</clus>
<clus scale="   81.642">  5  6 -1 -1</clus>
<clus scale="   98.361">  2  5  1 -1</clus>
<clus scale="  117.006">  7  8 -1 -1</clus>
<clus scale="   25.291">  2  5  1 -1</clus>
</clustering>
</event>
<event>
 9    2  0.7820252E-005  0.1385834E+03  0.7546771E-02  0.1217214E+00
          2   -1    0    0  502    0 -0.00000000000E+00  0.00000000000E+00  0.81160343500E+03  0.81160343500E+03  0.00000000000E+00 0. -1.
         21   -1    0    0  501  502  0.00000000000E+00 -0.00000000000E+00 -0.52590916005E+02  0.52590916005E+02  0.00000000000E+00 0. -1.
         23    2    1    2    0    0  0.70796585174E+01 -0.11651408734E+03  0.52069472481E+03  0.54105492081E+03  0.89396738074E+02 0.  0.
         24    2    1    2    0    0  0.26223073291E+02  0.90304121524E+02  0.25021261769E+03  0.27912214858E+03  0.80376214417E+02 0.  0.
        -11    1    4    4    0    0 -0.14814595745E+02  0.62827594114E+02  0.19317454223E+03  0.20367420699E+03  0.00000000000E+00 0.  1.
         12    1    4    4    0    0  0.41037669037E+02  0.27476527409E+02  0.57038075460E+02  0.75447941593E+02  0.00000000000E+00 0. -1.
        -13    1    3    3    0    0  0.41446291048E+02 -0.38214901012E+02  0.28009086760E+03  0.28570801146E+03  0.00000000000E+00 0.  1.
         13    1    3    3    0    0 -0.34366632530E+02 -0.78299186323E+02  0.24060385721E+03  0.25534690935E+03  0.00000000000E+00 0. -1.
          1    1    1    2  501    0 -0.33302731809E+02  0.26209965811E+02 -0.11894823503E+02  0.44017281605E+02  0.00000000000E+00 0. -1.
<scales pt_clust_5="13000.00000" pt_clust_6="13000.00000" pt_clust_7="13000.00000" pt_clust_8="13000.00000" pt_clust_9="42.37964"></scales>
<clustering>
<clus scale="   42.380">  2  9  1 -1</clus>
<clus scale="   80.376">  5  6 -1 -1</clus>
<clus scale="   89.397">  7  8 -1 -1</clus>
<clus scale="  132.943">  2  5  1 -1</clus>
<clus scale="   42.380">  2  5  1 -1</clus>
</clustering>
</event>
<event>
 9    2  0.7820252E-005  0.1716635E+03  0.7546771E-02  0.1178932E+00
         21   -1    0    0  501  502  0.00000000000E+00  0.00000000000E+00  0.13411482269E+03  0.13411482269E+03  0.00000000000E+00 0.  1.
          2   -1    0    0  502    0 -0.00000000000E+00 -0.00000000000E+00 -0.81741531320E+03  0.81741531320E+03  0.00000000000E+00 0. -1.
         24    2    1    2    0    0 -0.10662772710E+03 -0.99012743754E+02 -0.58846106950E+03  0.61126254501E+03  0.78628703494E+02 0.  0.
         23    2    1    2    0    0  0.10007230708E+03  0.79838984736E+02 -0.18632234450E+03  0.24656736753E+03  0.98441457424E+02 0.  0.
        -11    1    3    3    0    0 -0.32599847011E+02  0.40819199313E+01 -0.67599955723E+02  0.75160934728E+02  0.00000000000E+00 0.  1.
         12    1    3    3    0    0 -0.74027880086E+02 -0.10309466369E+03 -0.52086111377E+03  0.53610161029E+03  0.00000000000E+00 0. -1.
        -13    1    4    4    0    0  0.42421810804E+02  0.65444614992E+02 -0.37940235596E+02  0.86729863025E+02  0.00000000000E+00 0.  1.
         13    1    4    4    0    0  0.57650496276E+02  0.14394369744E+02 -0.14838210891E+03  0.15983750450E+03  0.00000000000E+00 0. -1.
          1    1    1    2  501    0  0.65554200168E+01  0.19173759018E+02  0.91482923489E+02  0.93700223354E+02  0.00000000000E+00 0. -1.
<scales pt_clust_5="13000.00000" pt_clust_6="13000.00000" pt_clust_7="13000.00000" pt_clust_8="13000.00000" pt_clust_9="20.26343"></scales>
<clustering>
<clus scale="   20.263">  1  9  2 -1</clus>
<clus scale="   78.629">  5  6 -1 -1</clus>
<clus scale="   98.441">  7  8 -1 -1</clus>
<clus scale="  161.121">  2  5  1 -1</clus>
<clus scale="   20.263">  1  5  2 -1</clus>
</clustering>
</event>
<event>
 9    2  0.7820252E-005  0.1412898E+03  0.7546771E-02  0.1214246E+00
         -3   -1    0    0    0  501 -0.00000000000E+00  0.00000000000E+00  0.12896632897E+03  0.12896632897E+03  0.00000000000E+00 0.  1.
         21   -1    0    0  501  502  0.00000000000E+00 -0.00000000000E+00 -0.63141770711E+03  0.63141770711E+03  0.00000000000E+00 0.  1.
         24    2    1    2    0    0  0.18536794355E+02  0.99553537821E+02 -0.20439856342E+03  0.24160514694E+03  0.79622576330E+02 0.  0.
         23    2    1    2    0    0 -0.94920117346E+02 -0.91926484670E+02 -0.37622089570E+03  0.40922144824E+03  0.91976758370E+02 0.  0.
        -11    1    3    3    0    0 -0.27361414286E+02  0.67417335785E+02 -0.11807221760E+03  0.13868955521E+03  0.00000000000E+00 0.  1.
         12    1    3    3    0    0  0.45898208640E+02  0.32136202035E+02 -0.86326345823E+02  0.10291559173E+03  0.00000000000E+00 0. -1.
        -13    1    4    4    0    0 -0.67623616044E+02 -0.41912768874E+01 -0.18639580602E+03  0.19832780125E+03  0.00000000000E+00 0. -1.
         13    1    4    4    0    0 -0.27296501303E+02 -0.87735207783E+02 -0.18982508968E+03  0.21089364699E+03  0.00000000000E+00 0.  1.
         -4    1    1    2    0  502  0.76383322992E+02 -0.76270531505E+01  0.78168080980E+02  0.10955744089E+03  0.00000000000E+00 0.  1.
<scales pt_clust_5="13000.00000" pt_clust_6="13000.00000" pt_clust_7="13000.00000" pt_clust_8="13000.00000" pt_clust_9="76.76321"></scales>
<clustering>
<clus scale="   76.763">  2  9  1 -1</clus>
<clus scale="   79.623">  5  6 -1 -1</clus>
<clus scale="   91.977">  7  8 -1 -1</clus>
<clus scale="  133.577">  1  5  2 -1</clus>
<clus scale="   76.763">  2  5  1 -1</clus>
</clustering>
</event>
<event>
 9    2  0.7820252E-005  0.9868898E+02  0.7546771E-02  0.1288426E+00
         21   -1    0    0  501  502  0.00000000000E+00  0.00000000000E+00  0.27555251471E+02  0.27555251471E+02  0.00000000000E+00 0. -1.
          2   -1    0    0  502    0 -0.00000000000E+00 -0.00000000000E+00 -0.71384994556E+03  0.71384994556E+03  0.00000000000E+00 0. -1.
         24    2    1    2    0    0 -0.24711421205E+02 -0.89817384971E+01 -0.41921321040E+03  0.42824310370E+03  0.83433291476E+02 0.  0.
         23    2    1    2    0    0  0.44199563569E+02  0.35857813094E+00 -0.27225410242E+03  0.29123260241E+03  0.93490119406E+02 0.  0.
        -13    1    3    3    0    0 -0.45758609270E+02 -0.32031472717E+02 -0.24852983900E+03  0.25472916292E+03  0.00000000000E+00 0.  1.
         14    1    3    3    0    0  0.21047188065E+02  0.23049734220E+02 -0.17068337140E+03  0.17351394078E+03  0.00000000000E+00 0. -1.
        -11    1    4    4    0    0  0.12611300332E+02 -0.44746027819E+02 -0.97660370083E+02  0.10816099013E+03  0.00000000000E+00 0. -1.
         11    1    4    4    0    0  0.31588263237E+02  0.45104605950E+02 -0.17459373233E+03  0.18307161228E+03  0.00000000000E+00 0.  1.
          1    1    1    2  501    0 -0.19488142364E+02  0.86231603661E+01  0.51726187301E+01  0.21929490920E+02  0.00000000000E+00 0. -1.
<scales pt_clust_5="13000.00000" pt_clust_6="13000.00000" pt_clust_7="13000.00000" pt_clust_8="13000.00000" pt_clust_9="21.31072"></scales>
<clustering>
<clus scale="   21.311">  1  9  2 -1</clus>
<clus scale="   83.433">  5  6 -1 -1</clus>
<clus scale="   89.220">  2  5  1 -1</clus>
<clus scale="   93.490">  7  8 -1 -1</clus>
<clus scale="   21.311">  1  5  2 -1</clus>
</clustering>
</event>
<event>
 9    2  0.7820252E-005  0.9393798E+02  0.7546771E-02  0.1300543E+00
         21   -1    0    0  501  502  0.00000000000E+00  0.00000000000E+00  0.15135774389E+02  0.15135774389E+02  0.00000000000E+00 0.  1.
          4   -1    0    0  502    0 -0.00000000000E+00 -0.00000000000E+00 -0.13075119617E+04  0.13075119617E+04  0.00000000000E+00 0. -1.
         24    2    1    2    0    0  0.96572064880E+01 -0.28710949632E+02 -0.10332660651E+04  0.10365734120E+04  0.76994134847E+02 0.  0.
         23    2    1    2    0    0 -0.31543237483E+02  0.16462340310E+02 -0.19754660504E+03  0.21959806198E+03  0.89065499420E+02 0.  0.
        -13    1    3    3    0    0  0.27128815212E+02 -0.18872342806E+02 -0.17617220654E+03  0.17924503980E+03  0.00000000000E+00 0.  1.
         14    1    3    3    0    0 -0.17471608724E+02 -0.98386068263E+01 -0.85709385861E+03  0.85732837219E+03  0.00000000000E+00 0. -1.
        -13    1    4    4    0    0 -0.93680498463E+01  0.37876567024E+02 -0.29943151297E+02  0.49183198321E+02  0.00000000000E+00 0.  1.
         13    1    4    4    0    0 -0.22175187637E+02 -0.21414226714E+02 -0.16760345374E+03  0.17041486366E+03  0.00000000000E+00 0. -1.
          3    1    1    2  501    0  0.21886030995E+02  0.12248609322E+02 -0.61563517121E+02  0.66476262105E+02  0.00000000000E+00 0. -1.
<scales pt_clust_5="13000.00000" pt_clust_6="13000.00000" pt_clust_7="13000.00000" pt_clust_8="13000.00000" pt_clust_9="25.08041"></scales>
<clustering>
<clus scale="   25.080">  1  9  2 -1</clus>
<clus scale="   76.994">  5  6 -1 -1</clus>
<clus scale="   82.582">  2  5  1 -1</clus>
<clus scale="   89.065">  7  8 -1 -1</clus>
<clus scale="   25.080">  1  5  2 -1</clus>
</clustering>
</event>
<event>
 9    2  0.7820252E-005  0.9645115E+02  0.7546771E-02  0.1292811E+00
         21   -1    0    0  501  502  0.00000000000E+00  0.00000000000E+00  0.33550808860E+03  0.33550808860E+03  0.00000000000E+00 0.  1.
          2   -1    0    0  502    0 -0.00000000000E+00 -0.00000000000E+00 -0.45287600213E+02  0.45287600213E+02  0.00000000000E+00 0. -1.
         24    2    1    2    0    0 -0.13582201688E+02 -0.29658219115E+02  0.36530936508E+02  0.94478863914E+02  0.80793936905E+02 0.  0.
         23    2    1    2    0    0  0.42804612218E+02  0.23406043272E+02  0.18443266478E+03  0.21088768338E+03  0.89878414951E+02 0.  0.
        -11    1    3    3    0    0 -0.25067828711E+02  0.21695998799E+02  0.61590889372E+01  0.33720124209E+02  0.00000000000E+00 0.  1.
         12    1    3    3    0    0  0.11485627023E+02 -0.51354217914E+02  0.30371847571E+02  0.60758739705E+02  0.00000000000E+00 0. -1.
        -13    1    4    4    0    0  0.65947612046E+02  0.31802538848E+01  0.15435841441E+03  0.16788603768E+03  0.00000000000E+00 0.  1.
         13    1    4    4    0    0 -0.23142999827E+02  0.20225789387E+02  0.30074250373E+02  0.43001645699E+02  0.00000000000E+00 0. -1.
          1    1    1    2  501    0 -0.29222410530E+02  0.62521758430E+01  0.69256887090E+02  0.75429141513E+02  0.00000000000E+00 0. -1.
<scales pt_clust_5="13000.00000" pt_clust_6="13000.00000" pt_clust_7="13000.00000" pt_clust_8="13000.00000" pt_clust_9="29.88376"></scales>
<clustering>
<clus scale="   29.884">  1  9  2 -1</clus>
<clus scale="   80.794">  5  6 -1 -1</clus>
<clus scale="   88.047">  2  5  1 -1</clus>
<clus scale="   89.878">  7  8 -1 -1</clus>
<clus scale="   29.884">  1  5  2 -1</clus>
</clustering>
</event>
<event>
 9    2  0.7820252E-005  0.1223145E+03  0.7546771E-02  0.1242327E+00
          2   -1    0    0  502    0 -0.00000000000E+00  0.00000000000E+00  0.23498363225E+03  0.23498363225E+03  0.00000000000E+00 0. -1.
         21   -1    0    0  501  502  0.00000000000E+00 -0.00000000000E+00 -0.17842847313E+03  0.17842847313E+03  0.00000000000E+00 0.  1.
         23    2    1    2    0    0 -0.82956270585E+02  0.95547470358E+01  0.48478605763E+02  0.13375673765E+03  0.92561620714E+02 0.  0.
         24    2    1    2    0    0  0.56787605029E+02 -0.65556547096E+02 -0.99351215867E+02  0.15571293647E+03  0.82785032091E+02 0.  0.
        -11    1    4    4    0    0 -0.36637473182E+01 -0.50546468787E+02 -0.71113425531E+02  0.87324039314E+02  0.00000000000E+00 0.  1.
         12    1    4    4    0    0  0.60451352348E+02 -0.15010078309E+02 -0.28237790336E+02  0.68388897158E+02  0.00000000000E+00 0. -1.
        -11    1    3    3    0    0 -0.83935338619E+02  0.37046771370E+02  0.19493692789E+02  0.93795567041E+02  0.00000000000E+00 0. -1.
         11    1    3    3    0    0  0.97906803453E+00 -0.27492024334E+02  0.28984912973E+02  0.39961170607E+02  0.00000000000E+00 0.  1.
          1    1    1    2  501    0  0.26168665555E+02  0.56001800060E+02  0.10742776922E+03  0.12394243126E+03  0.00000000000E+00 0. -1.
<scales pt_clust_5="13000.00000" pt_clust_6="13000.00000" pt_clust_7="13000.00000" pt_clust_8="13000.00000" pt_clust_9="61.81427"></scales>
<clustering>
<clus scale="   61.814">  2  9  1 -1</clus>
<clus scale="   82.785">  5  6 -1 -1</clus>
<clus scale="   92.562">  7  8 -1 -1</clus>
<clus scale="  115.094">  2  5  1 -1</clus>
<clus scale="   61.814">  2  5  1 -1</clus>
</clustering>
</event>
<event>
 9    2  0.7820252E-005  0.9523049E+02  0.7546771E-02  0.1291921E+00
          2   -1    0    0  502    0 -0.00000000000E+00  0.00000000000E+00  0.25597116985E+03  0.25597116985E+03  0.00000000000E+00 0. -1.
         21   -1    0    0  501  502  0.00000000000E+00 -0.00000000000E+00 -0.57790033715E+02  0.57790033715E+02  0.00000000000E+00 0. -1.
         24    2    1    2    0    0  0.91286143731E+01 -0.19935313891E+02  0.73870276998E+02  0.11505035478E+03  0.85434290375E+02 0.  0.
         23    2    1    2    0    0 -0.82237948841E+01  0.59913168363E+02  0.58334144189E+02  0.12156180821E+03  0.87847494503E+02 0.  0.
        -13    1    3    3    0    0  0.32096124973E+02 -0.22148954864E+02  0.81825960233E+02  0.90643395832E+02  0.00000000000E+00 0.  1.
         14    1    3    3    0    0 -0.22967510600E+02  0.22136409727E+01 -0.79556832354E+01  0.24406958952E+02  0.00000000000E+00 0. -1.
        -13    1    4    4    0    0 -0.35240462971E+02 -0.38900481217E+01  0.92231303673E+01  0.36634530686E+02  0.00000000000E+00 0.  1.
         13    1    4    4    0    0  0.27016668087E+02  0.63803216485E+02  0.49111013822E+02  0.84927277520E+02  0.00000000000E+00 0. -1.
          1    1    1    2  501    0 -0.90481948905E+00 -0.39977854472E+02  0.65976714951E+02  0.77149040579E+02  0.00000000000E+00 0. -1.
<scales pt_clust_5="13000.00000" pt_clust_6="13000.00000" pt_clust_7="13000.00000" pt_clust_8="13000.00000" pt_clust_9="39.98811"></scales>
<clustering>
<clus scale="   39.988">  2  9  1 -1</clus>
<clus scale="   85.434">  5  6 -1 -1</clus>
<clus scale="   87.847">  7  8 -1 -1</clus>
<clus scale="   93.009">  1  5  2 -1</clus>
<clus scale="   39.988">  2  5  1 -1</clus>
</clustering>
</event>
<event>
 9    2  0.7820252E-005  0.1148177E+03  0.7546771E-02  0.1258313E+00
         21   -1    0    0  501  502  0.00000000000E+00  0.00000000000E+00  0.43544058778E+02  0.43544058778E+02  0.00000000000E+00 0. -1.
          2   -1    0    0  502    0 -0.00000000000E+00 -0.00000000000E+00 -0.47318127959E+03  0.47318127959E+03  0.00000000000E+00 0. -1.
         23    2    1    2    0    0  0.65875497714E+02  0.41037926346E+02 -0.21163599378E+03  0.24521644745E+03  0.96527817957E+02 0.  0.
         24    2    1    2    0    0 -0.48378233643E+02  0.53366142421E+01 -0.73893688936E+02  0.11911553542E+03  0.79745222871E+02 0.  0.
        -11    1    4    4    0    0 -0.10404658099E+02  0.39182607659E+02 -0.45183030421E+02  0.60704529412E+02  0.00000000000E+00 0.  1.
         12    1    4    4    0    0 -0.37973575544E+02 -0.33845993417E+02 -0.28710658515E+02  0.58411006003E+02  0.00000000000E+00 0. -1.
        -11    1    3    3    0    0  0.53067218981E+01 -0.28176390521E+02 -0.29287155263E+02  0.40985457707E+02  0.00000000000E+00 0.  1.
         11    1    3    3    0    0  0.60568775816E+02  0.69214316867E+02 -0.18234883852E+03  0.20423098974E+03  0.00000000000E+00 0. -1.
          1    1    1    2  501    0 -0.17497264071E+02 -0.46374540588E+02 -0.14410753810E+03  0.15239335550E+03  0.00000000000E+00 0. -1.
<scales pt_clust_5="13000.00000" pt_clust_6="13000.00000" pt_clust_7="13000.00000" pt_clust_8="13000.00000" pt_clust_9="49.56566"></scales>
<clustering>
<clus scale="   49.566">  1  9  2 -1</clus>
<clus scale="   79.745">  5  6 -1 -1</clus>
<clus scale="   96.528">  7  8 -1 -1</clus>
<clus scale="  101.118">  1  5  2 -1</clus>
<clus scale="   49.566">  1  5  2 -1</clus>
</clustering>
</event>
<event>
 9    2  0.7820252E-005  0.2177707E+03  0.7546771E-02  0.1136257E+00
         21   -1    0    0  501  502  0.00000000000E+00  0.00000000000E+00  0.13243211624E+03  0.13243211624E+03  0.00000000000E+00 0. -1.
          2   -1    0    0  502    0 -0.00000000000E+00 -0.00000000000E+00 -0.48734897184E+03  0.48734897184E+03  0.00000000000E+00 0. -1.
         23    2    1    2    0    0  0.19119570181E+03 -0.68686471503E+02 -0.26802192064E+03  0.34753787047E+03  0.87596767680E+02 0.  0.
         24    2    1    2    0    0 -0.17224820181E+03  0.90288115877E+02 -0.10881016143E+03  0.23610575857E+03  0.78005711979E+02 0.  0.
        -11    1    4    4    0    0 -0.24533821116E+02  0.26241775411E+02  0.84798428401E+01  0.36911338230E+02  0.00000000000E+00 0.  1.
         12    1    4    4    0    0 -0.14771438070E+03  0.64046340465E+02 -0.11729000427E+03  0.19919442034E+03  0.00000000000E+00 0. -1.
        -11    1    3    3    0    0  0.18522198085E+03 -0.43605084256E+02 -0.25630067951E+03  0.31921563853E+03  0.00000000000E+00 0. -1.
         11    1    3    3    0    0  0.59737209535E+01 -0.25081387247E+02 -0.11721241129E+02  0.28322231937E+02  0.00000000000E+00 0.  1.
          1    1    1    2  501    0 -0.18947499993E+02 -0.21601644374E+02  0.21915226465E+02  0.36137459051E+02  0.00000000000E+00 0. -1.
<scales pt_clust_5="13000.00000" pt_clust_6="13000.00000" pt_clust_7="13000.00000" pt_clust_8="13000.00000" pt_clust_9="28.73393"></scales>
<clustering>
<clus scale="   28.734">  1  9  2 -1</clus>
<clus scale="   78.006">  5  6 -1 -1</clus>
<clus scale="   87.597">  7  8 -1 -1</clus>
<clus scale="  214.093">  1  5  2 -1</clus>
<clus scale="   28.734">  1  5  2 -1</clus>
</clustering>
</event>
<event>
 9    2  0.7820252E-005  0.1059014E+03  0.7546771E-02  0.1274265E+00
         21   -1    0    0  501  502  0.00000000000E+00  0.00000000000E+00  0.59499715671E+02  0.59499715671E+02  0.00000000000E+00 0.  1.
          2   -1    0    0  502    0 -0.00000000000E+00 -0.00000000000E+00 -0.35929213268E+03  0.35929213268E+03  0.00000000000E+00 0. -1.
         24    2    1    2    0    0 -0.40569271754E+02 -0.24019933058E+02 -0.12764713591E+03  0.15881099362E+03  0.81879896159E+02 0.  0.
         23    2    1    2    0    0 -0.11398995007E+02 -0.58274132928E+02 -0.68704266235E+02  0.11794896534E+03  0.75271977324E+02 0.  0.
        -11    1    3    3    0    0 -0.58208755603E+02 -0.12083729716E+02 -0.48128373195E+02  0.76489319902E+02  0.00000000000E+00 0.  1.
         12    1    3    3    0    0  0.17639483849E+02 -0.11936203342E+02 -0.79518762712E+02  0.82321673719E+02  0.00000000000E+00 0. -1.
        -11    1    4    4    0    0 -0.15388475057E+02 -0.22081956546E+02 -0.76165307191E+02  0.80781012552E+02  0.00000000000E+00 0. -1.
         11    1    4    4    0    0  0.39894800500E+01 -0.36192176381E+02  0.74610409557E+01  0.37167952788E+02  0.00000000000E+00 0.  1.
          1    1    1    2  501    0  0.51968266761E+02  0.82294065986E+02 -0.10344101486E+03  0.14203188939E+03  0.00000000000E+00 0. -1.
<scales pt_clust_5="13000.00000" pt_clust_6="13000.00000" pt_clust_7="13000.00000" pt_clust_8="13000.00000" pt_clust_9="74.49330"></scales>
<clustering>
<clus scale="   75.272">  7  8 -1 -1</clus>
<clus scale="   81.880">  5  6 -1 -1</clus>
<clus scale="   94.484">  2  5  1 -1</clus>
<clus scale="   74.493">  1  9  2 -1</clus>
<clus scale="   74.493">  1  5  2 -1</clus>
</clustering>
</event>
<event>
 9    2  0.7820252E-005  0.9408439E+02  0.7546771E-02  0.1302078E+00
         21   -1    0    0  501  502  0.00000000000E+00  0.00000000000E+00  0.44510579706E+02  0.44510579706E+02  0.00000000000E+00 0. -1.
          2   -1    0    0  502    0 -0.00000000000E+00 -0.00000000000E+00 -0.43977706137E+03  0.43977706137E+03  0.00000000000E+00 0. -1.
         24    2    1    2    0    0 -0.11436822279E+02  0.31190533009E+02 -0.16546953771E+03  0.18670379309E+03  0.79840391958E+02 0.  0.
         23    2    1    2    0    0 -0.94712996210E+01  0.47205492448E+02 -0.15256038611E+03  0.18556343808E+03  0.94026879719E+02 0.  0.
        -13    1    3    3    0    0  0.14333562288E+02  0.26331042937E+02 -0.15594908999E+03  0.15880457644E+03  0.00000000000E+00 0.  1.
         14    1    3    3    0    0 -0.25770384567E+02  0.48594900723E+01 -0.95204477244E+01  0.27899216644E+02  0.00000000000E+00 0. -1.
        -11    1    4    4    0    0 -0.19978622839E+02  0.74108133433E+02 -0.11047571141E+03  0.13452153591E+03  0.00000000000E+00 0. -1.
         11    1    4    4    0    0  0.10507323218E+02 -0.26902640985E+02 -0.42084674696E+02  0.51041902173E+02  0.00000000000E+00 0.  1.
          1    1    1    2  501    0  0.20908121900E+02 -0.78396025457E+02 -0.77236557843E+02  0.11202040991E+03  0.00000000000E+00 0. -1.
<scales pt_clust_5="13000.00000" pt_clust_6="13000.00000" pt_clust_7="13000.00000" pt_clust_8="13000.00000" pt_clust_9="81.13622"></scales>
<clustering>
<clus scale="   79.840">  5  6 -1 -1</clus>
<clus scale="   81.136">  1  9  2 -1</clus>
<clus scale="   79.908">  2  5  1 -1</clus>
<clus scale="   94.027">  7  8 -1 -1</clus>
<clus scale="   81.136">  1  5  2 -1</clus>
</clustering>
</event>
<event>
 9    2  0.7820252E-005  0.1792382E+03  0.7546771E-02  0.1171105E+00
          4   -1    0    0  502    0 -0.00000000000E+00  0.00000000000E+00  0.15195933855E+03  0.15195933855E+03  0.00000000000E+00 0. -1.
         21   -1    0    0  501  502  0.00000000000E+00 -0.00000000000E+00 -0.42071257016E+03  0.42071257016E+03  0.00000000000E+00 0. -1.
         23    2    1    2    0    0  0.99415424678E+02  0.61651562550E+02 -0.11302667913E+03  0.19110130897E+03  0.10030123760E+03 0.  0.
         24    2    1    2    0    0 -0.15883530718E+03 -0.12019848479E+03 -0.19425564113E+03  0.28968504477E+03  0.80658790596E+02 0.  0.
        -11    1    4    4    0    0 -0.37708450358E+02 -0.88485083577E+00 -0.10106969773E+02  0.39049468978E+02  0.00000000000E+00 0.  1.
         12    1    4    4    0    0 -0.12112685682E+03 -0.11931363395E+03 -0.18414867135E+03  0.25063557579E+03  0.00000000000E+00 0. -1.
        -11    1    3    3    0    0  0.55966479348E+02  0.84317825260E+02 -0.95235399864E+02  0.13896590897E+03  0.00000000000E+00 0.  1.
         11    1    3    3    0    0  0.43448945330E+02 -0.22666262710E+02 -0.17791279270E+02  0.52135400004E+02  0.00000000000E+00 0. -1.
          3    1    1    2  501    0  0.59419882501E+02  0.58546922238E+02  0.38529088647E+02  0.91885554969E+02  0.00000000000E+00 0. -1.
<scales pt_clust_5="13000.00000" pt_clust_6="13000.00000" pt_clust_7="13000.00000" pt_clust_8="13000.00000" pt_clust_9="83.41745"></scales>
<clustering>
<clus scale="   80.659">  5  6 -1 -1</clus>
<clus scale="   83.417">  2  9  1 -1</clus>
<clus scale="  100.301">  7  8 -1 -1</clus>
<clus scale="  169.032">  2  5  1 -1</clus>
<clus scale="   83.417">  2  5  1 -1</clus>
</clustering>
</event>
<event>
 9    2  0.7820252E-005  0.1169066E+03  0.7546771E-02  0.1250121E+00
          2   -1    0    0  502    0 -0.00000000000E+00  0.00000000000E+00  0.82785094256E+03  0.82785094256E+03  0.00000000000E+00 0. -1.
         21   -1    0    0  501  502  0.00000000000E+00 -0.00000000000E+00 -0.74661874369E+02  0.74661874369E+02  0.00000000000E+00 0. -1.
         24    2    1    2    0    0  0.31627522672E+02  0.76973727162E+02  0.54269155709E+03  0.55514264514E+03  0.82121711193E+02 0.  0.
         23    2    1    2    0    0  0.22702991472E+02 -0.73744147209E+02  0.25274807405E+03  0.27846919195E+03  0.87805904466E+02 0.  0.
        -13    1    3    3    0    0 -0.27499874050E+02  0.27061069972E+02  0.14862419098E+03  0.15355030031E+03  0.00000000000E+00 0.  1.
         14    1    3    3    0    0  0.59127396722E+02  0.49912657190E+02  0.39406736611E+03  0.40159234483E+03  0.00000000000E+00 0. -1.
        -13    1    4    4    0    0 -0.28422082217E+02 -0.62542411350E+01  0.39786715777E+02  0.49294148152E+02  0.00000000000E+00 0.  1.
         13    1    4    4    0    0  0.51125073689E+02 -0.67489906074E+02  0.21296135827E+03  0.22917504380E+03  0.00000000000E+00 0. -1.
          1    1    1    2  501    0 -0.54330514145E+02 -0.32295799527E+01 -0.42250562949E+02  0.68900979844E+02  0.00000000000E+00 0. -1.
<scales pt_clust_5="13000.00000" pt_clust_6="13000.00000" pt_clust_7="13000.00000" pt_clust_8="13000.00000" pt_clust_9="54.42642"></scales>
<clustering>
<clus scale="   54.426">  2  9  1 -1</clus>
<clus scale="   82.122">  5  6 -1 -1</clus>
<clus scale="   87.806">  7  8 -1 -1</clus>
<clus scale="  112.700">  1  5  2 -1</clus>
<clus scale="   54.426">  2  5  1 -1</clus>
</clustering>
</event>
<event>
 9    2  0.7820252E-005  0.9118032E+02  0.7546771E-02  0.1305750E+00
          2   -1    0    0  502    0 -0.00000000000E+00  0.00000000000E+00  0.12995145712E+04  0.12995145712E+04  0.00000000000E+00 0. -1.
         21   -1    0    0  501  502  0.00000000000E+00 -0.00000000000E+00 -0.31902826788E+02  0.31902826788E+02  0.00000000000E+00 0.  1.
         24    2    1    2    0    0 -0.16717576016E+02 -0.10515046949E+02  0.11818623627E+04  0.11846946065E+04  0.79452015487E+02 0.  0.
         23    2    1    2    0    0  0.37635122795E+02  0.78547245778E+01  0.61906763900E+02  0.11489369313E+03  0.88825751547E+02 0.  0.
        -13    1    3    3    0    0 -0.22125649781E+02  0.78555627971E+01  0.10219365716E+03  0.10485608141E+03  0.00000000000E+00 0.  1.
         14    1    3    3    0    0  0.54080737649E+01 -0.18370609746E+02  0.10796687055E+04  0.10798385251E+04  0.00000000000E+00 0. -1.
        -13    1    4    4    0    0  0.58106737614E+02 -0.68311667659E+01  0.13081842349E+02  0.59951583755E+02  0.00000000000E+00 0.  1.
         13    1    4    4    0    0 -0.20471614819E+02  0.14685891344E+02  0.48824921550E+02  0.54942109372E+02  0.00000000000E+00 0. -1.
          1    1    1    2  501    0 -0.20917546779E+02  0.26603223711E+01  0.23842617848E+02  0.31829098388E+02  0.00000000000E+00 0. -1.
<scales pt_clust_5="13000.00000" pt_clust_6="13000.00000" pt_clust_7="13000.00000" pt_clust_8="13000.00000" pt_clust_9="21.08604"></scales>
<clustering>
<clus scale="   21.086">  2  9  1 -1</clus>
<clus scale="   79.452">  5  6 -1 -1</clus>
<clus scale="   82.076">  1  5  2 -1</clus>
<clus scale="   88.826">  7  8 -1 -1</clus>
<clus scale="   21.086">  2  5  1 -1</clus>
</clustering>
</event>
<event>
 9    2  0.7820252E-005  0.9417770E+02  0.7546771E-02  0.1293801E+00
         21   -1    0    0  501  502  0.00000000000E+00  0.00000000000E+00  0.12485962147E+03  0.12485962147E+03  0.00000000000E+00 0.  1.
          2   -1    0    0  502    0 -0.00000000000E+00 -0.00000000000E+00 -0.31917753179E+03  0.31917753179E+03  0.00000000000E+00 0. -1.
         24    2    1    2    0    0  0.28509273280E+02 -0.41530324564E+00 -0.65939217045E+02  0.10869898390E+03  0.81575349313E+02 0.  0.
         23    2    1    2    0    0 -0.11316094061E+03  0.10414906299E+02  0.40230171164E+02  0.14640737249E+03  0.83082990411E+02 0.  0.
        -11    1    3    3    0    0  0.52845372291E+02 -0.17401351166E+02 -0.34501993671E+02  0.65466235284E+02  0.00000000000E+00 0.  1.
         12    1    3    3    0    0 -0.24336099011E+02  0.16986047920E+02 -0.31437223374E+02  0.43232748611E+02  0.00000000000E+00 0. -1.
        -11    1    4    4    0    0 -0.95247342978E+02  0.27945668440E+02  0.30042734436E+00  0.99262817739E+02  0.00000000000E+00 0.  1.
         11    1    4    4    0    0 -0.17913597629E+02 -0.17530762141E+02  0.39929743820E+02  0.47144554752E+02  0.00000000000E+00 0. -1.
          1    1    1    2  501    0  0.84651667327E+02 -0.99996030535E+01 -0.16860886443E+03  0.18893079687E+03  0.00000000000E+00 0. -1.
<scales pt_clust_5="13000.00000" pt_clust_6="13000.00000" pt_clust_7="13000.00000" pt_clust_8="13000.00000" pt_clust_9="85.24027"></scales>
<clustering>
<clus scale="   81.575">  5  6 -1 -1</clus>
<clus scale="   83.083">  7  8 -1 -1</clus>
<clus scale="   85.240">  1  9  2 -1</clus>
<clus scale="   92.850">  2  5  1 -1</clus>
<clus scale="   85.240">  1  5  2 -1</clus>
</clustering>
</event>
<event>
 9    2  0.7820252E-005  0.9407801E+02  0.7546771E-02  0.1296949E+00
         21   -1    0    0  501  502  0.00000000000E+00  0.00000000000E+00  0.40843374120E+03  0.40843374120E+03  0.00000000000E+00 0. -1.
          2   -1    0    0  502    0 -0.00000000000E+00 -0.00000000000E+00 -0.15657124301E+03  0.15657124301E+03  0.00000000000E+00 0. -1.
         23    2    1    2    0    0  0.31847924166E+02 -0.15045032779E+02 -0.99381107114E+02  0.13724212681E+03  0.87853022909E+02 0.  0.
         24    2    1    2    0    0  0.24183436112E+02  0.55325247219E+02  0.34378058195E+03  0.35835316263E+03  0.81155277600E+02 0.  0.
        -13    1    4    4    0    0  0.41757492885E+02  0.19048532831E+02  0.27357598502E+03  0.27739926891E+03  0.00000000000E+00 0.  1.
         14    1    4    4    0    0 -0.17574056773E+02  0.36276714388E+02  0.70204596929E+02  0.80953893719E+02  0.00000000000E+00 0. -1.
        -11    1    3    3    0    0  0.50217606092E+02 -0.25900502691E+02 -0.10111821182E+03  0.11583409154E+03  0.00000000000E+00 0. -1.
         11    1    3    3    0    0 -0.18369681925E+02  0.10855469912E+02  0.17371047099E+01  0.21408035263E+02  0.00000000000E+00 0.  1.
          1    1    1    2  501    0 -0.56031360278E+02 -0.40280214441E+02  0.74630233602E+01  0.69409694767E+02  0.00000000000E+00 0. -1.
<scales pt_clust_5="13000.00000" pt_clust_6="13000.00000" pt_clust_7="13000.00000" pt_clust_8="13000.00000" pt_clust_9="69.00735"></scales>
<clustering>
<clus scale="   69.007">  1  9  2 -1</clus>
<clus scale="   81.155">  5  6 -1 -1</clus>
<clus scale="   87.853">  7  8 -1 -1</clus>
<clus scale="   87.856">  1  5  2 -1</clus>
<clus scale="   69.007">  1  5  2 -1</clus>
</clustering>
</event>
<event>
 9    2  0.7836206E-005  0.1237382E+03  0.7546771E-02  0.1244323E+00
         21   -1    0    0  501  502  0.00000000000E+00  0.00000000000E+00  0.38093580003E+02  0.38093580003E+02  0.00000000000E+00 0. -1.
          2   -1    0    0  502    0 -0.00000000000E+00 -0.00000000000E+00 -0.12010196707E+04  0.12010196707E+04  0.00000000000E+00 0. -1.
         23    2    1    2    0    0  0.37605211502E+02  0.94881163239E+02 -0.37527604434E+03  0.39987067693E+03  0.92993880127E+02 0.  0.
         24    2    1    2    0    0 -0.68802210940E+02 -0.11095525480E+02 -0.81408951825E+02  0.12736493719E+03  0.68829898096E+02 0.  0.
        -11    1    4    4    0    0 -0.91418653977E+01  0.26079622447E+02 -0.24163281587E+02  0.36709461818E+02  0.00000000000E+00 0.  1.
         12    1    4    4    0    0 -0.59660345543E+02 -0.37175147927E+02 -0.57245670238E+02  0.90655475371E+02  0.00000000000E+00 0. -1.
        -13    1    3    3    0    0 -0.27143905939E+02  0.55044299588E+01 -0.77386803889E+02  0.82193721141E+02  0.00000000000E+00 0.  1.
         13    1    3    3    0    0  0.64749117441E+02  0.89376733281E+02 -0.29788924045E+03  0.31767695579E+03  0.00000000000E+00 0. -1.
          1    1    1    2  501    0  0.31196999438E+02 -0.83785637759E+02 -0.70624109453E+03  0.71187763659E+03  0.00000000000E+00 0. -1.
<scales pt_clust_5="13000.00000" pt_clust_6="13000.00000" pt_clust_7="13000.00000" pt_clust_8="13000.00000" pt_clust_9="89.40522"></scales>
<clustering>
<clus scale="   68.830">  5  6 -1 -1</clus>
<clus scale="   89.405">  1  9  2 -1</clus>
<clus scale="   92.994">  7  8 -1 -1</clus>
<clus scale="  106.775">  1  5  2 -1</clus>
<clus scale="   89.405">  1  5  2 -1</clus>
</clustering>
</event>
<event>
 9    2  0.7820252E-005  0.1866119E+03  0.7546771E-02  0.1162559E+00
          2   -1    0    0  502    0 -0.00000000000E+00  0.00000000000E+00  0.17722617442E+03  0.17722617442E+03  0.00000000000E+00 0. -1.
         21   -1    0    0  501  502  0.00000000000E+00 -0.00000000000E+00 -0.22947499325E+03  0.22947499325E+03  0.00000000000E+00 0. -1.
         24    2    1    2    0    0 -0.49055157024E+02  0.17156350536E+03 -0.48345898744E+01  0.19638022212E+03  0.81861917746E+02 0.  0.
         23    2    1    2    0    0  0.37524706094E+02 -0.14167783310E+03 -0.35545988549E+02  0.17616015172E+03  0.91039385953E+02 0.  0.
        -13    1    3    3    0    0 -0.74245411287E+01  0.62708380700E+02  0.36243749946E+02  0.72808476369E+02  0.00000000000E+00 0.  1.
         14    1    3    3    0    0 -0.41630615895E+02  0.10885512466E+03 -0.41078339821E+02  0.12357174575E+03  0.00000000000E+00 0. -1.
        -13    1    4    4    0    0  0.29520227858E+02 -0.11393446649E+03  0.14292382149E+02  0.11856128666E+03  0.00000000000E+00 0. -1.
         13    1    4    4    0    0  0.80044782360E+01 -0.27743366603E+02 -0.49838370697E+02  0.57598865059E+02  0.00000000000E+00 0.  1.
          1    1    1    2  501    0  0.11530450930E+02 -0.29885672264E+02 -0.11868240403E+02  0.34160793837E+02  0.00000000000E+00 0. -1.
<scales pt_clust_5="13000.00000" pt_clust_6="13000.00000" pt_clust_7="13000.00000" pt_clust_8="13000.00000" pt_clust_9="32.03287"></scales>
<clustering>
<clus scale="   32.033">  2  9  1 -1</clus>
<clus scale="   81.862">  5  6 -1 -1</clus>
<clus scale="   91.039">  7  8 -1 -1</clus>
<clus scale="  182.311">  1  5  2 -1</clus>
<clus scale="   32.033">  2  5  1 -1</clus>
</clustering>
</event>
<event>
 9    2  0.7820252E-005  0.1279513E+03  0.7546771E-02  0.1233446E+00
          2   -1    0    0  502    0 -0.00000000000E+00  0.00000000000E+00  0.19339397472E+03  0.19339397472E+03  0.00000000000E+00 0. -1.
         21   -1    0    0  501  502  0.00000000000E+00 -0.00000000000E+00 -0.15176098153E+03  0.15176098153E+03  0.00000000000E+00 0.  1.
         24    2    1    2    0    0 -0.86583831525E+02 -0.52374989856E+02  0.11085897868E+03  0.17027677515E+03  0.80402534528E+02 0.  0.
         23    2    1    2    0    0  0.50633147621E+02  0.39353910269E+02 -0.21198048427E+02  0.11348858160E+03  0.91202275213E+02 0.  0.
        -13    1    3    3    0    0 -0.56494610489E+02 -0.37388230841E+02  0.15960602178E+02  0.69600730180E+02  0.00000000000E+00 0.  1.
         14    1    3    3    0    0 -0.30089221036E+02 -0.14986759015E+02  0.94898376506E+02  0.10067604497E+03  0.00000000000E+00 0. -1.
        -13    1    4    4    0    0  0.67989417438E+02 -0.48760899613E+00 -0.14453622486E+02  0.69510472945E+02  0.00000000000E+00 0.  1.
         13    1    4    4    0    0 -0.17356269816E+02  0.39841519265E+02 -0.67444259410E+01  0.43978108651E+02  0.00000000000E+00 0. -1.
          1    1    1    2  501    0  0.35950683903E+02  0.13021079587E+02 -0.48027937068E+02  0.61389599492E+02  0.00000000000E+00 0. -1.
<scales pt_clust_5="13000.00000" pt_clust_6="13000.00000" pt_clust_7="13000.00000" pt_clust_8="13000.00000" pt_clust_9="38.23611"></scales>
<clustering>
<clus scale="   38.236">  2  9  1 -1</clus>
<clus scale="   80.403">  5  6 -1 -1</clus>
<clus scale="   91.202">  7  8 -1 -1</clus>
<clus scale="  120.492">  1  5  2 -1</clus>
<clus scale="   38.236">  2  5  1 -1</clus>
</clustering>
</event>
<event>
 9    2  0.7820252E-005  0.1305795E+03  0.7546771E-02  0.1229301E+00
         21   -1    0    0  501  502  0.00000000000E+00  0.00000000000E+00  0.53945816531E+02  0.53945816531E+02  0.00000000000E+00 0. -1.
          2   -1    0    0  502    0 -0.00000000000E+00 -0.00000000000E+00 -0.41077433027E+03  0.41077433027E+03  0.00000000000E+00 0. -1.
         23    2    1    2    0    0  0.97721282211E+02 -0.33641820773E+02 -0.25897039829E+03  0.29308950708E+03  0.90302662556E+02 0.  0.
         24    2    1    2    0    0 -0.69515556242E+02  0.37226845938E+02 -0.72250279447E+02  0.13336607848E+03  0.79675324849E+02 0.  0.
        -11    1    4    4    0    0 -0.76372742240E+02  0.31329062298E+02 -0.84506387929E+02  0.11813397269E+03  0.00000000000E+00 0.  1.
         12    1    4    4    0    0  0.68571859978E+01  0.58977836403E+01  0.12256108482E+02  0.15232105790E+02  0.00000000000E+00 0. -1.
        -11    1    3    3    0    0  0.49906017654E+02 -0.43165111534E+02 -0.22284822427E+03  0.23241163592E+03  0.00000000000E+00 0. -1.
         11    1    3    3    0    0  0.47815264557E+02  0.95232907609E+01 -0.36122174019E+02  0.60677871151E+02  0.00000000000E+00 0.  1.
          1    1    1    2  501    0 -0.28205725969E+02 -0.35850251650E+01 -0.25607835998E+02  0.38264561246E+02  0.00000000000E+00 0. -1.
<scales pt_clust_5="13000.00000" pt_clust_6="13000.00000" pt_clust_7="13000.00000" pt_clust_8="13000.00000" pt_clust_9="28.43265"></scales>
<clustering>
<clus scale="   28.433">  1  9  2 -1</clus>
<clus scale="   79.675">  5  6 -1 -1</clus>
<clus scale="   90.303">  7  8 -1 -1</clus>
<clus scale="  123.469">  1  5  2 -1</clus>
<clus scale="   28.433">  1  5  2 -1</clus>
</clustering>
</event>
<event>
 9    2  0.7820252E-005  0.1153741E+03  0.7546771E-02  0.1256107E+00
          2   -1    0    0  502    0 -0.00000000000E+00  0.00000000000E+00  0.53289864092E+02  0.53289864092E+02  0.00000000000E+00 0. -1.
         21   -1    0    0  501  502  0.00000000000E+00 -0.00000000000E+00 -0.60039083332E+03  0.60039083332E+03  0.00000000000E+00 0. -1.
         23    2    1    2    0    0  0.29035458038E+02 -0.15459319399E+02 -0.11846488884E+03  0.15356491318E+03  0.92011979067E+02 0.  0.
         24    2    1    2    0    0 -0.77326453033E+02  0.91956125757E+02 -0.15011127922E+03  0.20726796292E+03  0.77403507041E+02 0.  0.
        -13    1    4    4    0    0  0.13074297244E+02  0.31627780254E+02 -0.34634863960E+02  0.48691144305E+02  0.00000000000E+00 0.  1.
         14    1    4    4    0    0 -0.90400750277E+02  0.60328345504E+02 -0.11547641526E+03  0.15857681862E+03  0.00000000000E+00 0. -1.
        -11    1    3    3    0    0 -0.21571173167E+02 -0.21185453575E+02 -0.70270650408E+01  0.31040595968E+02  0.00000000000E+00 0.  1.
         11    1    3    3    0    0  0.50606631206E+02  0.57261341754E+01 -0.11143782380E+03  0.12252431721E+03  0.00000000000E+00 0. -1.
          1    1    1    2  501    0  0.48290994995E+02 -0.76496806358E+02 -0.27852480116E+03  0.29284782131E+03  0.00000000000E+00 0. -1.
<scales pt_clust_5="13000.00000" pt_clust_6="13000.00000" pt_clust_7="13000.00000" pt_clust_8="13000.00000" pt_clust_9="90.46426"></scales>
<clustering>
<clus scale="   77.404">  5  6 -1 -1</clus>
<clus scale="   90.464">  2  9  1 -1</clus>
<clus scale="   92.012">  7  8 -1 -1</clus>
<clus scale="  104.098">  2  5  1 -1</clus>
<clus scale="   90.464">  2  5  1 -1</clus>
</clustering>
</event>
<event>
 9    2  0.7820252E-005  0.9431626E+03  0.7546771E-02  0.9373178E-01
         21   -1    0    0  501  502  0.00000000000E+00  0.00000000000E+00  0.22660283911E+03  0.22660283911E+03  0.00000000000E+00 0. -1.
          2   -1    0    0  502    0 -0.00000000000E+00 -0.00000000000E+00 -0.35556573215E+04  0.35556573215E+04  0.00000000000E+00 0. -1.
         24    2    1    2    0    0  0.49844053721E+03  0.84021792942E+02 -0.13700324887E+04  0.14624708503E+04  0.79557130563E+02 0.  0.
         23    2    1    2    0    0  0.27764370552E+03  0.25688577385E+03 -0.51525455497E+03  0.64557631969E+03  0.90582559577E+02 0.  0.
        -11    1    3    3    0    0  0.22925008978E+03  0.65767248301E+02 -0.72724235437E+03  0.76535114595E+03  0.00000000000E+00 0.  1.
         12    1    3    3    0    0  0.26919044743E+03  0.18254544641E+02 -0.64279013435E+03  0.69711970436E+03  0.00000000000E+00 0. -1.
        -13    1    4    4    0    0  0.18505788966E+03  0.20104670039E+03 -0.42227915024E+03  0.50297701636E+03  0.00000000000E+00 0.  1.
         13    1    4    4    0    0  0.92585815860E+02  0.55839073468E+02 -0.92975404739E+02  0.14259930333E+03  0.00000000000E+00 0. -1.
          1    1    1    2  501    0 -0.77608424273E+03 -0.34090756680E+03 -0.14437674387E+04  0.16742129906E+04  0.00000000000E+00 0. -1.
<scales pt_clust_5="13000.00000" pt_clust_6="13000.00000" pt_clust_7="13000.00000" pt_clust_8="13000.00000" pt_clust_9="847.65838"></scales>
<clustering>
<clus scale="   79.557">  5  6 -1 -1</clus>
<clus scale="   90.583">  7  8 -1 -1</clus>
<clus scale="  336.944">  5  7 -1 -1</clus>
<clus scale="  847.658">  1  9  2 -1</clus>
<clus scale="  847.658">  1  5  2 -1</clus>
</clustering>
</event>
<event>
 9    2  0.7820252E-005  0.9427341E+02  0.7546771E-02  0.1305084E+00
          2   -1    0    0  502    0 -0.00000000000E+00  0.00000000000E+00  0.28134837326E+03  0.28134837326E+03  0.00000000000E+00 0. -1.
         21   -1    0    0  501  502  0.00000000000E+00 -0.00000000000E+00 -0.41227138691E+02  0.41227138691E+02  0.00000000000E+00 0. -1.
         24    2    1    2    0    0  0.12610458688E+02  0.18627375413E+02  0.14822520634E+03  0.16670415670E+03  0.72894178681E+02 0.  0.
         23    2    1    2    0    0 -0.21265248802E+02  0.10549069995E+02  0.69544838802E+02  0.11811230299E+03  0.92469118246E+02 0.  0.
        -11    1    3    3    0    0  0.24530372686E+02  0.32582625853E+02  0.40679610669E+02  0.57603796887E+02  0.00000000000E+00 0.  1.
         12    1    3    3    0    0 -0.11919913998E+02 -0.13955250441E+02  0.10754559567E+03  0.10910035982E+03  0.00000000000E+00 0. -1.
        -11    1    4    4    0    0  0.33952439888E+02 -0.89365873847E+01  0.37469217288E+02  0.51347570659E+02  0.00000000000E+00 0.  1.
         11    1    4    4    0    0 -0.55217688690E+02  0.19485657379E+02  0.32075621514E+02  0.66764732331E+02  0.00000000000E+00 0. -1.
          1    1    1    2  501    0  0.86547901139E+01 -0.29176445407E+02  0.22351189436E+02  0.37759052262E+02  0.00000000000E+00 0. -1.
<scales pt_clust_5="13000.00000" pt_clust_6="13000.00000" pt_clust_7="13000.00000" pt_clust_8="13000.00000" pt_clust_9="30.43305"></scales>
<clustering>
<clus scale="   30.433">  2  9  1 -1</clus>
<clus scale="   72.894">  5  6 -1 -1</clus>
<clus scale="   75.170">  1  5  2 -1</clus>
<clus scale="   92.469">  7  8 -1 -1</clus>
<clus scale="   30.433">  2  5  1 -1</clus>
</clustering>
</event>
<event>
 9    2  0.7820252E-005  0.1034918E+03  0.7546771E-02  0.1276827E+00
         21   -1    0    0  501  502  0.00000000000E+00  0.00000000000E+00  0.11267896011E+02  0.11267896011E+02  0.00000000000E+00 0.  1.
          2   -1    0    0  502    0 -0.00000000000E+00 -0.00000000000E+00 -0.15057426912E+04  0.15057426912E+04  0.00000000000E+00 0. -1.
         24    2    1    2    0    0 -0.16790313199E+02 -0.55743061724E+02 -0.81036065160E+03  0.81652474002E+03  0.81480438550E+02 0.  0.
         23    2    1    2    0    0  0.44267151836E+02  0.21267573773E+02 -0.39545610468E+03  0.40848071134E+03  0.89772325272E+02 0.  0.
        -13    1    3    3    0    0 -0.41103119802E+02 -0.98943477710E+01 -0.23039163662E+03  0.23423849128E+03  0.00000000000E+00 0.  1.
         14    1    3    3    0    0  0.24312806603E+02 -0.45848713953E+02 -0.57996901498E+03  0.58228624874E+03  0.00000000000E+00 0. -1.
        -11    1    4    4    0    0  0.15377573322E+02  0.55186091491E+02 -0.20251019327E+03  0.21045748462E+03  0.00000000000E+00 0. -1.
         11    1    4    4    0    0  0.28889578514E+02 -0.33918517719E+02 -0.19294591141E+03  0.19802322672E+03  0.00000000000E+00 0.  1.
          1    1    1    2  501    0 -0.27476838637E+02  0.34475487951E+02 -0.28865803888E+03  0.29200513581E+03  0.00000000000E+00 0. -1.
<scales pt_clust_5="13000.00000" pt_clust_6="13000.00000" pt_clust_7="13000.00000" pt_clust_8="13000.00000" pt_clust_9="44.08557"></scales>
<clustering>
<clus scale="   44.086">  1  9  2 -1</clus>
<clus scale="   81.480">  5  6 -1 -1</clus>
<clus scale="   89.772">  7  8 -1 -1</clus>
<clus scale="   96.387">  2  5  1 -1</clus>
<clus scale="   44.086">  1  5  2 -1</clus>
</clustering>
</event>
<event>
 9    2  0.7820252E-005  0.1109123E+03  0.7546771E-02  0.1262352E+00
          2   -1    0    0  502    0 -0.00000000000E+00  0.00000000000E+00  0.26917011348E+03  0.26917011348E+03  0.00000000000E+00 0. -1.
         21   -1    0    0  501  502  0.00000000000E+00 -0.00000000000E+00 -0.70930461135E+02  0.70930461135E+02  0.00000000000E+00 0.  1.
         24    2    1    2    0    0 -0.73937521335E+02 -0.21794834890E+02  0.16250669024E+03  0.19720224497E+03  0.80861172154E+02 0.  0.
         23    2    1    2    0    0  0.33995272052E+02  0.20011384140E+02  0.27829486436E+02  0.10214260731E+03  0.90013876134E+02 0.  0.
        -13    1    3    3    0    0 -0.41832804302E+02 -0.52107814915E+02  0.10871758653E+03  0.12761160414E+03  0.00000000000E+00 0.  1.
         14    1    3    3    0    0 -0.32104717033E+02  0.30312980024E+02  0.53789103705E+02  0.69590640830E+02  0.00000000000E+00 0. -1.
        -13    1    4    4    0    0  0.11696046426E+02 -0.23498223854E+02 -0.20569155725E+02  0.33347476569E+02  0.00000000000E+00 0.  1.
         13    1    4    4    0    0  0.22299225626E+02  0.43509607994E+02  0.48398642161E+02  0.68795130746E+02  0.00000000000E+00 0. -1.
          1    1    1    2  501    0  0.39942249283E+02  0.17834507503E+01  0.79034756679E+01  0.40755722322E+02  0.00000000000E+00 0. -1.
<scales pt_clust_5="13000.00000" pt_clust_6="13000.00000" pt_clust_7="13000.00000" pt_clust_8="13000.00000" pt_clust_9="39.98205"></scales>
<clustering>
<clus scale="   39.982">  2  9  1 -1</clus>
<clus scale="   80.861">  5  6 -1 -1</clus>
<clus scale="   90.014">  7  8 -1 -1</clus>
<clus scale="  103.622">  1  5  2 -1</clus>
<clus scale="   39.982">  2  5  1 -1</clus>
</clustering>
</event>
<event>
 9    2  0.7820252E-005  0.9494417E+02  0.7546771E-02  0.1298069E+00
          2   -1    0    0  502    0 -0.00000000000E+00  0.00000000000E+00  0.39955454047E+03  0.39955454047E+03  0.00000000000E+00 0. -1.
         21   -1    0    0  501  502  0.00000000000E+00 -0.00000000000E+00 -0.16996631052E+03  0.16996631052E+03  0.00000000000E+00 0.  1.
         24    2    1    2    0    0 -0.17867198539E+02 -0.18799467132E+02  0.36905778464E+03  0.37842017436E+03  0.79533157920E+02 0.  0.
         23    2    1    2    0    0  0.28362217243E+01  0.41486337977E+02 -0.12504167194E+03  0.16029827131E+03  0.91274068996E+02 0.  0.
        -11    1    3    3    0    0  0.11923375392E+02 -0.35416493865E+02  0.92451631433E+02  0.99718599434E+02  0.00000000000E+00 0.  1.
         12    1    3    3    0    0 -0.29790573932E+02  0.16617026733E+02  0.27660615321E+03  0.27870157492E+03  0.00000000000E+00 0. -1.
        -13    1    4    4    0    0  0.34848347594E+02 -0.12926903616E+02 -0.46359872111E+02  0.59420113676E+02  0.00000000000E+00 0.  1.
         13    1    4    4    0    0 -0.32012125870E+02  0.54413241593E+02 -0.78681799825E+02  0.10087815763E+03  0.00000000000E+00 0. -1.
          1    1    1    2  501    0  0.15030976815E+02 -0.22686870845E+02 -0.14427882757E+02  0.30802405322E+02  0.00000000000E+00 0. -1.
<scales pt_clust_5="13000.00000" pt_clust_6="13000.00000" pt_clust_7="13000.00000" pt_clust_8="13000.00000" pt_clust_9="27.21441"></scales>
<clustering>
<clus scale="   27.214">  2  9  1 -1</clus>
<clus scale="   79.533">  5  6 -1 -1</clus>
<clus scale="   83.720">  1  5  2 -1</clus>
<clus scale="   91.274">  7  8 -1 -1</clus>
<clus scale="   27.214">  2  5  1 -1</clus>
</clustering>
</event>
<event>
 9    2  0.7820252E-005  0.2640248E+03  0.7546771E-02  0.1105170E+00
         21   -1    0    0  501  502  0.00000000000E+00  0.00000000000E+00  0.28668672174E+03  0.28668672174E+03  0.00000000000E+00 0. -1.
          2   -1    0    0  502    0 -0.00000000000E+00 -0.00000000000E+00 -0.88836181087E+03  0.88836181087E+03  0.00000000000E+00 0. -1.
         23    2    1    2    0    0  0.40848289692E+02 -0.25386772344E+03 -0.73758971156E+03  0.78641525579E+03  0.91065735481E+02 0.  0.
         24    2    1    2    0    0  0.82181845652E+02  0.19590467705E+03  0.91368185993E+02  0.24552313060E+03  0.82467957433E+02 0.  0.
        -13    1    4    4    0    0  0.33752638962E+02  0.10922676448E+02  0.54548492967E+01  0.35892908471E+02  0.00000000000E+00 0.  1.
         14    1    4    4    0    0  0.48429206690E+02  0.18498200061E+03  0.85913336696E+02  0.20963022213E+03  0.00000000000E+00 0. -1.
        -13    1    3    3    0    0 -0.13306345424E+02 -0.33302766911E+02 -0.45026773828E+02  0.57563386574E+02  0.00000000000E+00 0.  1.
         13    1    3    3    0    0  0.54154635116E+02 -0.22056495652E+03 -0.69256293773E+03  0.72885186922E+03  0.00000000000E+00 0. -1.
          1    1    1    2  501    0 -0.12303013534E+03  0.57963046382E+02  0.44546436436E+02  0.14311014621E+03  0.00000000000E+00 0. -1.
<scales pt_clust_5="13000.00000" pt_clust_6="13000.00000" pt_clust_7="13000.00000" pt_clust_8="13000.00000" pt_clust_9="136.00047"></scales>
<clustering>
<clus scale="   82.468">  5  6 -1 -1</clus>
<clus scale="   91.066">  7  8 -1 -1</clus>
<clus scale="  136.000">  1  9  2 -1</clus>
<clus scale="  261.184">  1  5  2 -1</clus>
<clus scale="  136.000">  1  5  2 -1</clus>
</clustering>
</event>
<event>
 9    2  0.7820252E-005  0.1100974E+03  0.7546771E-02  0.1263984E+00
         -1   -1    0    0    0  501 -0.00000000000E+00  0.00000000000E+00  0.11629631904E+03  0.11629631904E+03  0.00000000000E+00 0.  1.
         21   -1    0    0  501  502  0.00000000000E+00 -0.00000000000E+00 -0.13396245210E+03  0.13396245210E+03  0.00000000000E+00 0.  1.
         23    2    1    2    0    0  0.50285803586E+02  0.44359348335E+02  0.36180935730E+02  0.11843021616E+03  0.90665551127E+02 0.  0.
         24    2    1    2    0    0 -0.28832213428E+02 -0.47570334137E+02 -0.45351920088E+02  0.10853189187E+03  0.81413399855E+02 0.  0.
        -13    1    4    4    0    0  0.25977688542E+02 -0.31796720496E+02 -0.13590994952E+02  0.43250281850E+02  0.00000000000E+00 0.  1.
         14    1    4    4    0    0 -0.54809901970E+02 -0.15773613641E+02 -0.31760925136E+02  0.65281610019E+02  0.00000000000E+00 0. -1.
        -13    1    3    3    0    0 -0.32967772670E+01  0.57501754595E+02  0.18750245369E+02  0.60571381223E+02  0.00000000000E+00 0.  1.
         13    1    3    3    0    0  0.53582580853E+02 -0.13142406260E+02  0.17430690362E+02  0.57858834932E+02  0.00000000000E+00 0. -1.
         -2    1    1    2    0  502 -0.21453590158E+02  0.32109858019E+01 -0.84951487042E+01  0.23296663109E+02  0.00000000000E+00 0.  1.
<scales pt_clust_5="13000.00000" pt_clust_6="13000.00000" pt_clust_7="13000.00000" pt_clust_8="13000.00000" pt_clust_9="21.69256"></scales>
<clustering>
<clus scale="   21.693">  2  9  1 -1</clus>
<clus scale="   81.413">  5  6 -1 -1</clus>
<clus scale="   90.666">  7  8 -1 -1</clus>
<clus scale="  102.613">  2  5  1 -1</clus>
<clus scale="   21.693">  2  5  1 -1</clus>
</clustering>
</event>
<event>
 9    2  0.7820252E-005  0.9881584E+02  0.7546771E-02  0.1292021E+00
          2   -1    0    0  502    0 -0.00000000000E+00  0.00000000000E+00  0.15026338094E+03  0.15026338094E+03  0.00000000000E+00 0. -1.
         21   -1    0    0  501  502  0.00000000000E+00 -0.00000000000E+00 -0.16380869391E+03  0.16380869391E+03  0.00000000000E+00 0. -1.
         23    2    1    2    0    0 -0.23443537450E+02 -0.22412860504E+02  0.88609409275E+02  0.13462708401E+03  0.96025457939E+02 0.  0.
         24    2    1    2    0    0  0.15354062731E+02 -0.15481546802E+02 -0.14953538163E+02  0.84022392834E+02  0.79754176443E+02 0.  0.
        -13    1    4    4    0    0  0.40528043686E+02  0.30857565124E+01 -0.28799724731E+02  0.49814338928E+02  0.00000000000E+00 0.  1.
         14    1    4    4    0    0 -0.25173980955E+02 -0.18567303315E+02  0.13846186569E+02  0.34208053905E+02  0.00000000000E+00 0. -1.
        -13    1    3    3    0    0 -0.46817699444E+02  0.21067366185E+02  0.37547909415E+02  0.63604845732E+02  0.00000000000E+00 0. -1.
         13    1    3    3    0    0  0.23374161994E+02 -0.43480226689E+02  0.51061499860E+02  0.71022238276E+02  0.00000000000E+00 0.  1.
          1    1    1    2  501    0  0.80894747189E+01  0.37894407306E+02 -0.87201184076E+02  0.95422598008E+02  0.00000000000E+00 0. -1.
<scales pt_clust_5="13000.00000" pt_clust_6="13000.00000" pt_clust_7="13000.00000" pt_clust_8="13000.00000" pt_clust_9="38.74823"></scales>
<clustering>
<clus scale="   38.748">  2  9  1 -1</clus>
<clus scale="   79.754">  5  6 -1 -1</clus>
<clus scale="   83.093">  2  5  1 -1</clus>
<clus scale="   96.025">  7  8 -1 -1</clus>
<clus scale="   38.748">  2  5  1 -1</clus>
</clustering>
</event>
<event>
 9    2  0.7820252E-005  0.1462827E+03  0.7546771E-02  0.1232925E+00
         21   -1    0    0  501  502  0.00000000000E+00  0.00000000000E+00  0.31317600966E+03  0.31317600966E+03  0.00000000000E+00 0.  1.
         -3   -1    0    0    0  501 -0.00000000000E+00 -0.00000000000E+00 -0.42845852642E+03  0.42845852642E+03  0.00000000000E+00 0.  1.
         24    2    1    2    0    0 -0.12882887238E+02 -0.46008217960E+01 -0.22480271461E+03  0.23912044631E+03  0.80344203290E+02 0.  0.
         23    2    1    2    0    0  0.29459228532E+02  0.11561476858E+03 -0.15403872656E+03  0.21604912139E+03  0.93352411397E+02 0.  0.
        -11    1    3    3    0    0 -0.11000787769E+02 -0.35467046275E+02 -0.18514019532E+03  0.18882748906E+03  0.00000000000E+00 0.  1.
         12    1    3    3    0    0 -0.18820994685E+01  0.30866224479E+02 -0.39662519287E+02  0.50292957242E+02  0.00000000000E+00 0. -1.
        -11    1    4    4    0    0 -0.17680127342E+02  0.23390077228E+02 -0.89102230485E+02  0.93802399185E+02  0.00000000000E+00 0.  1.
         11    1    4    4    0    0  0.47139355874E+02  0.92224691356E+02 -0.64936496079E+02  0.12224672221E+03  0.00000000000E+00 0. -1.
         -4    1    1    2    0  502 -0.16576341295E+02 -0.11101394679E+03  0.26355892441E+03  0.28646496837E+03  0.00000000000E+00 0.  1.
<scales pt_clust_5="13000.00000" pt_clust_6="13000.00000" pt_clust_7="13000.00000" pt_clust_8="13000.00000" pt_clust_9="112.62300"></scales>
<clustering>
<clus scale="   80.344">  5  6 -1 -1</clus>
<clus scale="   81.500">  2  5  1 -1</clus>
<clus scale="   93.352">  7  8 -1 -1</clus>
<clus scale="  112.623">  1  9  2 -1</clus>
<clus scale="  112.623">  1  5  2 -1</clus>
</clustering>
</event>
<event>
 9    2  0.7820252E-005  0.9664765E+02  0.7546771E-02  0.1300586E+00
          2   -1    0    0  502    0 -0.00000000000E+00  0.00000000000E+00  0.50245840189E+02  0.50245840189E+02  0.00000000000E+00 0. -1.
         21   -1    0    0  501  502  0.00000000000E+00 -0.00000000000E+00 -0.40859302118E+03  0.40859302118E+03  0.00000000000E+00 0.  1.
         24    2    1    2    0    0 -0.38683748858E+02 -0.19623543490E+02 -0.28513392710E+02  0.86441164292E+02  0.69119790477E+02 0.  0.
         23    2    1    2    0    0 -0.71401359426E+01  0.21385871725E+02 -0.97636462183E+02  0.13571535201E+03  0.91528361577E+02 0.  0.
        -11    1    3    3    0    0 -0.49743598580E+02  0.91692219975E+01 -0.20462811547E+02  0.54563970605E+02  0.00000000000E+00 0.  1.
         12    1    3    3    0    0  0.11059849723E+02 -0.28792765488E+02 -0.80505811632E+01  0.31877193688E+02  0.00000000000E+00 0. -1.
        -11    1    4    4    0    0 -0.33698065777E+02  0.46535567527E+02 -0.64250930914E+02  0.86193391890E+02  0.00000000000E+00 0.  1.
         11    1    4    4    0    0  0.26557929835E+02 -0.25149695802E+02 -0.33385531269E+02  0.49521960120E+02  0.00000000000E+00 0. -1.
          1    1    1    2  501    0  0.45823884800E+02 -0.17623282346E+01 -0.23219732610E+03  0.23668234507E+03  0.00000000000E+00 0. -1.
<scales pt_clust_5="13000.00000" pt_clust_6="13000.00000" pt_clust_7="13000.00000" pt_clust_8="13000.00000" pt_clust_9="45.85776"></scales>
<clustering>
<clus scale="   45.858">  2  9  1 -1</clus>
<clus scale="   69.120">  5  6 -1 -1</clus>
<clus scale="   75.769">  1  5  2 -1</clus>
<clus scale="   91.528">  7  8 -1 -1</clus>
<clus scale="   45.858">  2  5  1 -1</clus>
</clustering>
</event>
<event>
 9    2  0.7820252E-005  0.9208107E+02  0.7546771E-02  0.1304069E+00
         21   -1    0    0  501  502  0.00000000000E+00  0.00000000000E+00  0.34590426185E+03  0.34590426185E+03  0.00000000000E+00 0.  1.
          4   -1    0    0  502    0 -0.00000000000E+00 -0.00000000000E+00 -0.40357436138E+02  0.40357436138E+02  0.00000000000E+00 0. -1.
         24    2    1    2    0    0 -0.20299929134E+01 -0.28438224297E+02  0.73661722871E+02  0.11313366518E+03  0.80995822784E+02 0.  0.
         23    2    1    2    0    0 -0.19934218893E+02 -0.16090449096E+02  0.15699773718E+03  0.18327622765E+03  0.91025328931E+02 0.  0.
        -11    1    3    3    0    0 -0.33071527764E+02 -0.40703046138E+02  0.46803804083E+02  0.70292673802E+02  0.00000000000E+00 0.  1.
         12    1    3    3    0    0  0.31041534851E+02  0.12264821841E+02  0.26857918788E+02  0.42840991379E+02  0.00000000000E+00 0. -1.
        -13    1    4    4    0    0 -0.17193632720E+02  0.36046695005E+02  0.48167193301E+02  0.62570470171E+02  0.00000000000E+00 0. -1.
         13    1    4    4    0    0 -0.27405861737E+01 -0.52137144101E+02  0.10883054388E+03  0.12070575748E+03  0.00000000000E+00 0.  1.
          3    1    1    2  501    0  0.21964211807E+02  0.44528673393E+02  0.74887365662E+02  0.89851805159E+02  0.00000000000E+00 0. -1.
<scales pt_clust_5="13000.00000" pt_clust_6="13000.00000" pt_clust_7="13000.00000" pt_clust_8="13000.00000" pt_clust_9="49.65108"></scales>
<clustering>
<clus scale="   49.651">  1  9  2 -1</clus>
<clus scale="   80.996">  5  6 -1 -1</clus>
<clus scale="   82.181">  2  5  1 -1</clus>
<clus scale="   91.025">  7  8 -1 -1</clus>
<clus scale="   49.651">  1  5  2 -1</clus>
</clustering>
</event>
<event>
 9    2  0.7820252E-005  0.1341750E+03  0.7546771E-02  0.1231358E+00
         21   -1    0    0  501  502  0.00000000000E+00  0.00000000000E+00  0.80100790144E+02  0.80100790144E+02  0.00000000000E+00 0. -1.
          2   -1    0    0  502    0 -0.00000000000E+00 -0.00000000000E+00 -0.30112747240E+03  0.30112747240E+03  0.00000000000E+00 0. -1.
         23    2    1    2    0    0 -0.37757929300E+02  0.43220893651E+02 -0.72295368279E+02  0.14547465540E+03  0.11243908670E+03 0.  0.
         24    2    1    2    0    0  0.11183993369E+02 -0.92865556558E+02 -0.81621743961E+02  0.14814960601E+03  0.80852355385E+02 0.  0.
        -11    1    4    4    0    0  0.27024007221E+02 -0.44925434124E+02 -0.29837053453E+00  0.52427861128E+02  0.00000000000E+00 0.  1.
         12    1    4    4    0    0 -0.15840013852E+02 -0.47940122435E+02 -0.81323373427E+02  0.95721744883E+02  0.00000000000E+00 0. -1.
        -11    1    3    3    0    0 -0.54313186852E+02  0.19258216723E+02  0.97208067781E+01  0.58440527562E+02  0.00000000000E+00 0. -1.
         11    1    3    3    0    0  0.16555257551E+02  0.23962676928E+02 -0.82016175057E+02  0.87034127841E+02  0.00000000000E+00 0.  1.
          1    1    1    2  501    0  0.26573935931E+02  0.49644662907E+02 -0.67109570011E+02  0.87604001125E+02  0.00000000000E+00 0. -1.
<scales pt_clust_5="13000.00000" pt_clust_6="13000.00000" pt_clust_7="13000.00000" pt_clust_8="13000.00000" pt_clust_9="56.30959"></scales>
<clustering>
<clus scale="   56.310">  1  9  2 -1</clus>
<clus scale="   80.852">  5  6 -1 -1</clus>
<clus scale="  109.076">  1  5  2 -1</clus>
<clus scale="  112.439">  7  8 -1 -1</clus>
<clus scale="   56.310">  1  5  2 -1</clus>
</clustering>
</event>
<event>
 9    2  0.7820252E-005  0.1874692E+03  0.7546771E-02  0.1161962E+00
          2   -1    0    0  502    0 -0.00000000000E+00  0.00000000000E+00  0.18847066554E+03  0.18847066554E+03  0.00000000000E+00 0. -1.
         21   -1    0    0  501  502  0.00000000000E+00 -0.00000000000E+00 -0.84456563113E+03  0.84456563113E+03  0.00000000000E+00 0. -1.
         24    2    1    2    0    0  0.35768307718E+02 -0.14578021616E+03  0.72536071736E+02  0.18537876126E+03  0.81071327631E+02 0.  0.
         23    2    1    2    0    0 -0.11799583666E+03  0.21456071393E+03 -0.26720183053E+03  0.37393922640E+03  0.92056555305E+02 0.  0.
        -11    1    3    3    0    0 -0.77133199578E+01 -0.51304184545E+02 -0.97156948523E+01  0.52782661765E+02  0.00000000000E+00 0.  1.
         12    1    3    3    0    0  0.43481627676E+02 -0.94476031616E+02  0.82251766589E+02  0.13259609950E+03  0.00000000000E+00 0. -1.
        -13    1    4    4    0    0 -0.44924624623E+02  0.23116960368E+02 -0.89170167999E+02  0.10248870482E+03  0.00000000000E+00 0.  1.
         13    1    4    4    0    0 -0.73071212035E+02  0.19144375356E+03 -0.17803166253E+03  0.27145052159E+03  0.00000000000E+00 0. -1.
          1    1    1    2  501    0  0.82227528941E+02 -0.68780497771E+02 -0.46142920680E+03  0.47371830900E+03  0.00000000000E+00 0. -1.
<scales pt_clust_5="13000.00000" pt_clust_6="13000.00000" pt_clust_7="13000.00000" pt_clust_8="13000.00000" pt_clust_9="107.20132"></scales>
<clustering>
<clus scale="   81.071">  5  6 -1 -1</clus>
<clus scale="   92.057">  7  8 -1 -1</clus>
<clus scale="  107.201">  2  9  1 -1</clus>
<clus scale="  182.326">  1  5  2 -1</clus>
<clus scale="  107.201">  2  5  1 -1</clus>
</clustering>
</event>
<event>
 9    2  0.7820252E-005  0.1008307E+03  0.7546771E-02  0.1286054E+00
          2   -1    0    0  502    0 -0.00000000000E+00  0.00000000000E+00  0.63046574617E+02  0.63046574617E+02  0.00000000000E+00 0. -1.
         21   -1    0    0  501  502  0.00000000000E+00 -0.00000000000E+00 -0.39409727251E+03  0.39409727251E+03  0.00000000000E+00 0. -1.
         23    2    1    2    0    0 -0.81023066108E+01 -0.41524717978E+02 -0.70463793102E+01  0.10373744115E+03  0.94455575056E+02 0.  0.
         24    2    1    2    0    0  0.12609166308E+02 -0.32793494879E+01 -0.27565291047E+03  0.28733390858E+03  0.80040631944E+02 0.  0.
        -13    1    4    4    0    0  0.24570568573E+02  0.33333393172E+02 -0.16693772042E+03  0.17199718149E+03  0.00000000000E+00 0.  1.
         14    1    4    4    0    0 -0.11961402265E+02 -0.36612742660E+02 -0.10871519004E+03  0.11533672709E+03  0.00000000000E+00 0. -1.
        -13    1    3    3    0    0  0.32620381519E+02 -0.29465322048E+02 -0.32097241664E+02  0.54429104496E+02  0.00000000000E+00 0. -1.
         13    1    3    3    0    0 -0.40722688130E+02 -0.12059395931E+02  0.25050862354E+02  0.49308336653E+02  0.00000000000E+00 0.  1.
          1    1    1    2  501    0 -0.45068596970E+01  0.44804067466E+02 -0.48351408118E+02  0.66072497402E+02  0.00000000000E+00 0. -1.
<scales pt_clust_5="13000.00000" pt_clust_6="13000.00000" pt_clust_7="13000.00000" pt_clust_8="13000.00000" pt_clust_9="45.03017"></scales>
<clustering>
<clus scale="   45.030">  2  9  1 -1</clus>
<clus scale="   80.041">  5  6 -1 -1</clus>
<clus scale="   87.473">  2  5  1 -1</clus>
<clus scale="   94.456">  7  8 -1 -1</clus>
<clus scale="   45.030">  2  5  1 -1</clus>
</clustering>
</event>
<event>
 9    2  0.7820252E-005  0.1455732E+03  0.7546771E-02  0.1213406E+00
         21   -1    0    0  501  502  0.00000000000E+00  0.00000000000E+00  0.39270311435E+03  0.39270311435E+03  0.00000000000E+00 0.  1.
          2   -1    0    0  502    0 -0.00000000000E+00 -0.00000000000E+00 -0.10229683018E+03  0.10229683018E+03  0.00000000000E+00 0. -1.
         24    2    1    2    0    0 -0.16368113041E+02 -0.10304130837E+03  0.31491166092E+02  0.13507339475E+03  0.79797882636E+02 0.  0.
         23    2    1    2    0    0  0.12579975143E+02  0.61938956587E+02  0.28439957369E+03  0.31141664576E+03  0.11001145226E+03 0.  0.
        -11    1    3    3    0    0 -0.39962741430E+02 -0.81080423207E+02  0.55381984818E+00  0.90395588645E+02  0.00000000000E+00 0.  1.
         12    1    3    3    0    0  0.23594628389E+02 -0.21960885160E+02  0.30937346244E+02  0.44677806106E+02  0.00000000000E+00 0. -1.
        -13    1    4    4    0    0 -0.28607183405E+02 -0.17763975956E+02  0.11363065389E+03  0.11851521121E+03  0.00000000000E+00 0. -1.
         13    1    4    4    0    0  0.41187158548E+02  0.79702932543E+02  0.17076891979E+03  0.19290143455E+03  0.00000000000E+00 0.  1.
          1    1    1    2  501    0  0.37881378984E+01  0.41102351780E+02 -0.25484455602E+02  0.48509904019E+02  0.00000000000E+00 0. -1.
<scales pt_clust_5="13000.00000" pt_clust_6="13000.00000" pt_clust_7="13000.00000" pt_clust_8="13000.00000" pt_clust_9="41.27657"></scales>
<clustering>
<clus scale="   41.277">  1  9  2 -1</clus>
<clus scale="   79.798">  5  6 -1 -1</clus>
<clus scale="  110.011">  7  8 -1 -1</clus>
<clus scale="  124.325">  2  5  1 -1</clus>
<clus scale="   41.277">  1  5  2 -1</clus>
</clustering>
</event>
<event>
 9    2  0.7820252E-005  0.8697470E+02  0.7546771E-02  0.1312799E+00
         -1   -1    0    0    0  501 -0.00000000000E+00  0.00000000000E+00  0.27709438345E+03  0.27709438345E+03  0.00000000000E+00 0.  1.
         21   -1    0    0  501  502  0.00000000000E+00 -0.00000000000E+00 -0.53973130073E+02  0.53973130073E+02  0.00000000000E+00 0. -1.
         23    2    1    2    0    0 -0.20753730411E+02 -0.10372556463E+02  0.19473535871E+03  0.21374554023E+03  0.85011697898E+02 0.  0.
         24    2    1    2    0    0 -0.77976117156E+01  0.12270081037E+02  0.93763070573E+01  0.82968746990E+02  0.81145179807E+02 0.  0.
        -11    1    4    4    0    0 -0.67680058442E+00  0.44396256317E+02  0.19566030991E+02  0.48521286079E+02  0.00000000000E+00 0.  1.
         12    1    4    4    0    0 -0.71208111311E+01 -0.32126175281E+02 -0.10189723934E+02  0.34447460911E+02  0.00000000000E+00 0. -1.
        -13    1    3    3    0    0  0.25934758899E+02 -0.18937726408E+02  0.12724170829E+03  0.13123148071E+03  0.00000000000E+00 0. -1.
         13    1    3    3    0    0 -0.46688489310E+02  0.85651699455E+01  0.67493650421E+02  0.82514059514E+02  0.00000000000E+00 0.  1.
         -2    1    1    2    0  502  0.28551342127E+02 -0.18975245739E+01  0.19009587603E+02  0.34353226305E+02  0.00000000000E+00 0.  1.
<scales pt_clust_5="13000.00000" pt_clust_6="13000.00000" pt_clust_7="13000.00000" pt_clust_8="13000.00000" pt_clust_9="28.61433"></scales>
<clustering>
<clus scale="   28.614">  2  9  1 -1</clus>
<clus scale="   81.145">  5  6 -1 -1</clus>
<clus scale="   83.199">  2  5  1 -1</clus>
<clus scale="   85.012">  7  8 -1 -1</clus>
<clus scale="   28.614">  2  5  1 -1</clus>
</clustering>
</event>
<event>
 9    2  0.7820252E-005  0.1218905E+03  0.7546771E-02  0.1247892E+00
          2   -1    0    0  502    0 -0.00000000000E+00  0.00000000000E+00  0.15225777797E+03  0.15225777797E+03  0.00000000000E+00 0. -1.
         21   -1    0    0  501  502  0.00000000000E+00 -0.00000000000E+00 -0.18398829028E+03  0.18398829028E+03  0.00000000000E+00 0. -1.
         24    2    1    2    0    0 -0.35095003460E+02  0.53747671096E+02  0.28993210755E+02  0.10793570788E+03  0.81786547484E+02 0.  0.
         23    2    1    2    0    0 -0.38875946579E+02  0.33735735083E+02 -0.34069490443E+02  0.11068597547E+03  0.91876090156E+02 0.  0.
        -13    1    3    3    0    0 -0.35029045279E+02 -0.12414953314E+02  0.16229264255E+02  0.40553102189E+02  0.00000000000E+00 0.  1.
         14    1    3    3    0    0 -0.65958181729E-01  0.66162624410E+02  0.12763946499E+02  0.67382605689E+02  0.00000000000E+00 0. -1.
        -11    1    4    4    0    0 -0.82062863781E+01  0.61996665678E+02 -0.28082902560E+02  0.68553476261E+02  0.00000000000E+00 0. -1.
         11    1    4    4    0    0 -0.30669660201E+02 -0.28260930595E+02 -0.59865878829E+01  0.42132499207E+02  0.00000000000E+00 0.  1.
          1    1    1    2  501    0  0.73970950040E+02 -0.87483406179E+02 -0.26654232623E+02  0.11762438490E+03  0.00000000000E+00 0. -1.
<scales pt_clust_5="13000.00000" pt_clust_6="13000.00000" pt_clust_7="13000.00000" pt_clust_8="13000.00000" pt_clust_9="80.10040"></scales>
<clustering>
<clus scale="   81.787">  5  6 -1 -1</clus>
<clus scale="   91.876">  7  8 -1 -1</clus>
<clus scale="  103.969">  1  5  2 -1</clus>
<clus scale="   80.100">  2  9  1 -1</clus>
<clus scale="   80.100">  2  5  1 -1</clus>
</clustering>
</event>
<event>
 9    2  0.7820252E-005  0.9382658E+02  0.7546771E-02  0.1299363E+00
          2   -1    0    0  502    0 -0.00000000000E+00  0.00000000000E+00  0.62493663775E+03  0.62493663775E+03  0.00000000000E+00 0. -1.
         21   -1    0    0  501  502  0.00000000000E+00 -0.00000000000E+00 -0.21801636533E+03  0.21801636533E+03  0.00000000000E+00 0. -1.
         24    2    1    2    0    0  0.25538082547E+02  0.23230078075E+02  0.56474388374E+03  0.57131773513E+03  0.79224176050E+02 0.  0.
         23    2    1    2    0    0  0.32432312499E+02  0.15589712165E+02  0.33808489973E+01  0.95981002859E+02  0.88915852076E+02 0.  0.
        -13    1    3    3    0    0  0.12263614967E+02 -0.27398917969E+02  0.12926315410E+03  0.13270290112E+03  0.00000000000E+00 0.  1.
         14    1    3    3    0    0  0.13274467581E+02  0.50628996044E+02  0.43548072963E+03  0.43861483401E+03  0.00000000000E+00 0. -1.
        -11    1    4    4    0    0 -0.29576887678E+02  0.15829503786E+02 -0.28051683126E+01  0.33663547705E+02  0.00000000000E+00 0.  1.
         11    1    4    4    0    0  0.62009200177E+02 -0.23979162073E+00  0.61860173098E+01  0.62317455154E+02  0.00000000000E+00 0. -1.
          1    1    1    2  501    0 -0.57970395046E+02 -0.38819790240E+02 -0.16120446032E+03  0.17565426508E+03  0.00000000000E+00 0. -1.
<scales pt_clust_5="13000.00000" pt_clust_6="13000.00000" pt_clust_7="13000.00000" pt_clust_8="13000.00000" pt_clust_9="69.76778"></scales>
<clustering>
<clus scale="   69.768">  2  9  1 -1</clus>
<clus scale="   79.224">  5  6 -1 -1</clus>
<clus scale="   84.699">  1  5  2 -1</clus>
<clus scale="   88.916">  7  8 -1 -1</clus>
<clus scale="   69.768">  2  5  1 -1</clus>
</clustering>
</event>
<event>
 9    2  0.7820252E-005  0.9192900E+02  0.7546771E-02  0.1303917E+00
         21   -1    0    0  501  502  0.00000000000E+00  0.00000000000E+00  0.66297487304E+02  0.66297487304E+02  0.00000000000E+00 0.  1.
          2   -1    0    0  502    0 -0.00000000000E+00 -0.00000000000E+00 -0.27945211295E+03  0.27945211295E+03  0.00000000000E+00 0. -1.
         24    2    1    2    0    0  0.81974759352E+01  0.22640929997E+02 -0.18749299740E+03  0.20537345991E+03  0.80279658922E+02 0.  0.
         23    2    1    2    0    0 -0.23651027416E+02  0.30519252243E+01 -0.46593666449E+02  0.10380996355E+03  0.89648499334E+02 0.  0.
        -13    1    3    3    0    0 -0.35878800892E+02  0.90671379286E+01 -0.70592237497E+02  0.79704236641E+02  0.00000000000E+00 0.  1.
         14    1    3    3    0    0  0.44076276827E+02  0.13573792069E+02 -0.11690075990E+03  0.12566922327E+03  0.00000000000E+00 0. -1.
        -11    1    4    4    0    0  0.18902662374E+02  0.29272899930E+02 -0.40545712104E+02  0.53461837652E+02  0.00000000000E+00 0. -1.
         11    1    4    4    0    0 -0.42553689790E+02 -0.26220974705E+02 -0.60479543445E+01  0.50348125894E+02  0.00000000000E+00 0.  1.
          1    1    1    2  501    0  0.15453551481E+02 -0.25692855222E+02  0.20932038201E+02  0.36566176804E+02  0.00000000000E+00 0. -1.
<scales pt_clust_5="13000.00000" pt_clust_6="13000.00000" pt_clust_7="13000.00000" pt_clust_8="13000.00000" pt_clust_9="29.98225"></scales>
<clustering>
<clus scale="   29.982">  1  9  2 -1</clus>
<clus scale="   80.280">  5  6 -1 -1</clus>
<clus scale="   82.819">  2  5  1 -1</clus>
<clus scale="   89.648">  7  8 -1 -1</clus>
<clus scale="   29.982">  1  5  2 -1</clus>
</clustering>
</event>
<event>
 9    2  0.7820252E-005  0.9304482E+02  0.7546771E-02  0.1302746E+00
          2   -1    0    0  502    0 -0.00000000000E+00  0.00000000000E+00  0.52341146419E+02  0.52341146419E+02  0.00000000000E+00 0. -1.
         21   -1    0    0  501  502  0.00000000000E+00 -0.00000000000E+00 -0.50166004320E+03  0.50166004320E+03  0.00000000000E+00 0.  1.
         23    2    1    2    0    0 -0.47432787269E+01 -0.37706697590E+01 -0.30673467177E+02  0.96151763238E+02  0.90926252213E+02 0.  0.
         24    2    1    2    0    0  0.25678353114E+02  0.74409606815E+02 -0.24743340200E+03  0.27145818420E+03  0.79183899467E+02 0.  0.
        -11    1    4    4    0    0  0.16799636946E+02  0.53930385811E+02 -0.24197336090E+03  0.24847901662E+03  0.00000000000E+00 0.  1.
         12    1    4    4    0    0  0.88787161684E+01  0.20479221004E+02 -0.54600411068E+01  0.22979167579E+02  0.00000000000E+00 0. -1.
        -11    1    3    3    0    0 -0.12036335927E+02 -0.46125095663E+02 -0.21046260911E+02  0.52108952502E+02  0.00000000000E+00 0. -1.
         11    1    3    3    0    0  0.72930572000E+01  0.42354425904E+02 -0.96272062651E+01  0.44042810736E+02  0.00000000000E+00 0.  1.
          1    1    1    2  501    0 -0.20935074388E+02 -0.70638937056E+02 -0.17121202760E+03  0.18639124218E+03  0.00000000000E+00 0. -1.
<scales pt_clust_5="13000.00000" pt_clust_6="13000.00000" pt_clust_7="13000.00000" pt_clust_8="13000.00000" pt_clust_9="73.67589"></scales>
<clustering>
<clus scale="   73.676">  2  9  1 -1</clus>
<clus scale="   79.184">  5  6 -1 -1</clus>
<clus scale="   81.608">  2  5  1 -1</clus>
<clus scale="   90.926">  7  8 -1 -1</clus>
<clus scale="   73.676">  2  5  1 -1</clus>
</clustering>
</event>
<event>
 9    2  0.7820252E-005  0.1140462E+03  0.7546771E-02  0.1257718E+00
          2   -1    0    0  502    0 -0.00000000000E+00  0.00000000000E+00  0.37904248096E+03  0.37904248096E+03  0.00000000000E+00 0. -1.
         21   -1    0    0  501  502  0.00000000000E+00 -0.00000000000E+00 -0.67043107073E+02  0.67043107073E+02  0.00000000000E+00 0. -1.
         24    2    1    2    0    0 -0.49780873969E+02  0.52760156236E+02  0.95173845603E+02  0.14412124320E+03  0.80318754686E+02 0.  0.
         23    2    1    2    0    0  0.55078482696E+02 -0.23997624330E+02  0.32022210436E+02  0.11486112683E+03  0.92510168450E+02 0.  0.
        -13    1    3    3    0    0  0.89848475097E+01  0.47897076190E+02  0.36038600717E+02  0.60610544743E+02  0.00000000000E+00 0.  1.
         14    1    3    3    0    0 -0.58765721479E+02  0.48630800452E+01  0.59135244885E+02  0.83510698453E+02  0.00000000000E+00 0. -1.
        -13    1    4    4    0    0 -0.16359781619E+02 -0.27729671511E+02  0.28889085609E+02  0.43256865398E+02  0.00000000000E+00 0.  1.
         13    1    4    4    0    0  0.71438264315E+02  0.37320471815E+01  0.31331248270E+01  0.71604261435E+02  0.00000000000E+00 0. -1.
          1    1    1    2  501    0 -0.52976087263E+01 -0.28762531906E+02  0.18480331785E+03  0.18710321801E+03  0.00000000000E+00 0. -1.
<scales pt_clust_5="13000.00000" pt_clust_6="13000.00000" pt_clust_7="13000.00000" pt_clust_8="13000.00000" pt_clust_9="29.24635"></scales>
<clustering>
<clus scale="   29.246">  2  9  1 -1</clus>
<clus scale="   80.319">  5  6 -1 -1</clus>
<clus scale="   92.510">  7  8 -1 -1</clus>
<clus scale="  104.401">  1  5  2 -1</clus>
<clus scale="   29.246">  2  5  1 -1</clus>
</clustering>
</event>
<event>
 9    2  0.7820252E-005  0.1160483E+03  0.7546771E-02  0.1252769E+00
         21   -1    0    0  501  502  0.00000000000E+00  0.00000000000E+00  0.33663048408E+03  0.33663048408E+03  0.00000000000E+00 0.  1.
         -3   -1    0    0    0  501 -0.00000000000E+00 -0.00000000000E+00 -0.56814723683E+02  0.56814723683E+02  0.00000000000E+00 0.  1.
         24    2    1    2    0    0  0.58578166202E+02 -0.15389006206E+02  0.74797826988E+02  0.12652387079E+03  0.82130091252E+02 0.  0.
         23    2    1    2    0    0 -0.95000713405E+02  0.98453788815E+01  0.17655941876E+03  0.22036791815E+03  0.90921526400E+02 0.  0.
        -13    1    3    3    0    0  0.76998173605E+02 -0.16864316238E+02  0.73860974929E+02  0.10802114385E+03  0.00000000000E+00 0.  1.
         14    1    3    3    0    0 -0.18420007403E+02  0.14753100317E+01  0.93685205958E+00  0.18502726939E+02  0.00000000000E+00 0. -1.
        -11    1    4    4    0    0 -0.17725546331E+02  0.18413647268E+02  0.12379378300E+03  0.12640473926E+03  0.00000000000E+00 0. -1.
         11    1    4    4    0    0 -0.77275167074E+02 -0.85682683863E+01  0.52765635766E+02  0.93963178891E+02  0.00000000000E+00 0.  1.
         -4    1    1    2    0  502  0.36422547203E+02  0.55436273250E+01  0.28458514645E+02  0.46553418827E+02  0.00000000000E+00 0.  1.
<scales pt_clust_5="13000.00000" pt_clust_6="13000.00000" pt_clust_7="13000.00000" pt_clust_8="13000.00000" pt_clust_9="36.84203"></scales>
<clustering>
<clus scale="   36.842">  1  9  2 -1</clus>
<clus scale="   82.130">  5  6 -1 -1</clus>
<clus scale="   90.922">  7  8 -1 -1</clus>
<clus scale="  109.297">  2  5  1 -1</clus>
<clus scale="   36.842">  1  5  2 -1</clus>
</clustering>
</event>
<event>
 9    2  0.7820252E-005  0.1184279E+03  0.7546771E-02  0.1250511E+00
         -1   -1    0    0    0  501 -0.00000000000E+00  0.00000000000E+00  0.30687589701E+03  0.30687589701E+03  0.00000000000E+00 0.  1.
         21   -1    0    0  501  502  0.00000000000E+00 -0.00000000000E+00 -0.98718135135E+02  0.98718135135E+02  0.00000000000E+00 0. -1.
         23    2    1    2    0    0 -0.31503960766E+02 -0.76805406832E+02  0.21791526985E+03  0.25166706450E+03  0.94645002278E+02 0.  0.
         24    2    1    2    0    0 -0.16631513004E+02  0.47723277200E+02  0.64665692878E+01  0.95394798865E+02  0.80648823430E+02 0.  0.
        -11    1    4    4    0    0 -0.97952861168E+01 -0.21313872900E+02 -0.75025879483E+01  0.24627578729E+02  0.00000000000E+00 0.  1.
         12    1    4    4    0    0 -0.68362268870E+01  0.69037150100E+02  0.13969157236E+02  0.70767220137E+02  0.00000000000E+00 0. -1.
        -13    1    3    3    0    0  0.15348790587E+01  0.21598588894E+02  0.46058535941E+02  0.50894436129E+02  0.00000000000E+00 0. -1.
         13    1    3    3    0    0 -0.33038839825E+02 -0.98403995726E+02  0.17185673391E+03  0.20077262837E+03  0.00000000000E+00 0.  1.
         -2    1    1    2    0  502  0.48135473770E+02  0.29082129632E+02 -0.16224077265E+02  0.58532168780E+02  0.00000000000E+00 0.  1.
<scales pt_clust_5="13000.00000" pt_clust_6="13000.00000" pt_clust_7="13000.00000" pt_clust_8="13000.00000" pt_clust_9="56.23872"></scales>
<clustering>
<clus scale="   56.239">  2  9  1 -1</clus>
<clus scale="   80.649">  5  6 -1 -1</clus>
<clus scale="   94.645">  7  8 -1 -1</clus>
<clus scale="  107.572">  2  5  1 -1</clus>
<clus scale="   56.239">  2  5  1 -1</clus>
</clustering>
</event>
<event>
 9    2  0.7820252E-005  0.1184563E+03  0.7546771E-02  0.1248821E+00
         21   -1    0    0  501  502  0.00000000000E+00  0.00000000000E+00  0.79107843779E+03  0.79107843779E+03  0.00000000000E+00 0. -1.
          2   -1    0    0  502    0 -0.00000000000E+00 -0.00000000000E+00 -0.32072467121E+02  0.32072467121E+02  0.00000000000E+00 0. -1.
         24    2    1    2    0    0 -0.30140517216E+02  0.78910242429E+02  0.26147487921E+03  0.28706385752E+03  0.83073874931E+02 0.  0.
         23    2    1    2    0    0 -0.34604611082E+02 -0.65972902259E+02  0.40729265496E+03  0.42427344433E+03  0.92578322720E+02 0.  0.
        -11    1    3    3    0    0 -0.58128063801E+02  0.64191282006E+02  0.18293797513E+03  0.20239984000E+03  0.00000000000E+00 0.  1.
         12    1    3    3    0    0  0.27987546585E+02  0.14718960423E+02  0.78536904084E+02  0.84664017522E+02  0.00000000000E+00 0. -1.
        -11    1    4    4    0    0  0.15216781137E+01 -0.78382093281E+02  0.30977998429E+03  0.31954609482E+03  0.00000000000E+00 0.  1.
         11    1    4    4    0    0 -0.36126289195E+02  0.12409191022E+02  0.97512670673E+02  0.10472734951E+03  0.00000000000E+00 0. -1.
          1    1    1    2  501    0  0.64745128298E+02 -0.12937340170E+02  0.90238436500E+02  0.11181360307E+03  0.00000000000E+00 0. -1.
<scales pt_clust_5="13000.00000" pt_clust_6="13000.00000" pt_clust_7="13000.00000" pt_clust_8="13000.00000" pt_clust_9="66.02508"></scales>
<clustering>
<clus scale="   66.025">  1  9  2 -1</clus>
<clus scale="   83.074">  5  6 -1 -1</clus>
<clus scale="   92.578">  7  8 -1 -1</clus>
<clus scale="  111.186">  2  5  1 -1</clus>
<clus scale="   66.025">  1  5  2 -1</clus>
</clustering>
</event>
<event>
 9    2  0.7820252E-005  0.9502180E+02  0.7546771E-02  0.1293305E+00
         21   -1    0    0  501  502  0.00000000000E+00  0.00000000000E+00  0.13560565720E+03  0.13560565720E+03  0.00000000000E+00 0. -1.
         -3   -1    0    0    0  501 -0.00000000000E+00 -0.00000000000E+00 -0.22944836966E+03  0.22944836966E+03  0.00000000000E+00 0.  1.
         23    2    1    2    0    0 -0.34861891893E+02 -0.43668148253E+02 -0.12640490853E+03  0.16171862045E+03  0.83978881984E+02 0.  0.
         24    2    1    2    0    0 -0.45981554871E+02  0.42515954750E+02 -0.24644588251E+02  0.10429194823E+03  0.79671481339E+02 0.  0.
        -13    1    4    4    0    0  0.13050303856E+02  0.35628400608E+02 -0.23922816404E+02  0.44855261735E+02  0.00000000000E+00 0.  1.
         14    1    4    4    0    0 -0.59031858727E+02  0.68875541416E+01 -0.72177184712E+00  0.59436686494E+02  0.00000000000E+00 0. -1.
        -11    1    3    3    0    0 -0.26121610073E+02  0.21404089065E+02 -0.30583145043E+02  0.45560973456E+02  0.00000000000E+00 0. -1.
         11    1    3    3    0    0 -0.87402818205E+01 -0.65072237318E+02 -0.95821763492E+02  0.11615764699E+03  0.00000000000E+00 0.  1.
         -4    1    1    2    0  502  0.80843446765E+02  0.11521935031E+01  0.57206784325E+02  0.99043458176E+02  0.00000000000E+00 0.  1.
<scales pt_clust_5="13000.00000" pt_clust_6="13000.00000" pt_clust_7="13000.00000" pt_clust_8="13000.00000" pt_clust_9="80.85166"></scales>
<clustering>
<clus scale="   79.671">  5  6 -1 -1</clus>
<clus scale="   80.852">  1  9  2 -1</clus>
<clus scale="   83.979">  7  8 -1 -1</clus>
<clus scale="   91.237">  1  5  2 -1</clus>
<clus scale="   80.852">  1  5  2 -1</clus>
</clustering>
</event>
<event>
 9    2  0.7820252E-005  0.1551950E+03  0.7546771E-02  0.1221150E+00
          2   -1    0    0  502    0 -0.00000000000E+00  0.00000000000E+00  0.34077403300E+03  0.34077403300E+03  0.00000000000E+00 0. -1.
         21   -1    0    0  501  502  0.00000000000E+00 -0.00000000000E+00 -0.42230521207E+03  0.42230521207E+03  0.00000000000E+00 0. -1.
         24    2    1    2    0    0 -0.31762865354E+02 -0.15573531112E+01 -0.59706250565E+02  0.10563413845E+03  0.81132175401E+02 0.  0.
         23    2    1    2    0    0  0.11948884984E+03 -0.40922891355E+02 -0.31322285120E+03  0.35017784693E+03  0.92540270651E+02 0.  0.
        -11    1    3    3    0    0 -0.38861847987E+02 -0.30835711350E+02 -0.56728690228E+02  0.75360656966E+02  0.00000000000E+00 0.  1.
         12    1    3    3    0    0  0.70989826330E+01  0.29278358239E+02 -0.29775603371E+01  0.30273481484E+02  0.00000000000E+00 0. -1.
        -13    1    4    4    0    0  0.23706224942E+02  0.11954251839E+02 -0.10959769847E+02  0.28722914078E+02  0.00000000000E+00 0.  1.
         13    1    4    4    0    0  0.95782624903E+02 -0.52877143194E+02 -0.30226308135E+03  0.32145493285E+03  0.00000000000E+00 0. -1.
          1    1    1    2  501    0 -0.87725984490E+02  0.42480244466E+02  0.29139792270E+03  0.30726725969E+03  0.00000000000E+00 0. -1.
<scales pt_clust_5="13000.00000" pt_clust_6="13000.00000" pt_clust_7="13000.00000" pt_clust_8="13000.00000" pt_clust_9="124.58649"></scales>
<clustering>
<clus scale="   81.132">  5  6 -1 -1</clus>
<clus scale="   87.142">  1  5  2 -1</clus>
<clus scale="   92.540">  7  8 -1 -1</clus>
<clus scale="  124.586">  2  9  1 -1</clus>
<clus scale="  124.586">  2  5  1 -1</clus>
</clustering>
</event>
<event>
 9    2  0.7820252E-005  0.1466171E+03  0.7546771E-02  0.1208833E+00
         -3   -1    0    0    0  501 -0.00000000000E+00  0.00000000000E+00  0.35093849407E+03  0.35093849407E+03  0.00000000000E+00 0.  1.
         21   -1    0    0  501  502  0.00000000000E+00 -0.00000000000E+00 -0.13619148808E+03  0.13619148808E+03  0.00000000000E+00 0.  1.
         24    2    1    2    0    0  0.98901350635E+02  0.42844471450E+02  0.96030469074E+02  0.16497482528E+03  0.79860604147E+02 0.  0.
         23    2    1    2    0    0 -0.30224801453E+02  0.99119214807E+02  0.27734334706E+02  0.14008946064E+03  0.90098314598E+02 0.  0.
        -13    1    3    3    0    0  0.82426628321E+02  0.46403932434E+02  0.10854839113E+03  0.14397995423E+03  0.00000000000E+00 0.  1.
         14    1    3    3    0    0  0.16474722314E+02 -0.35594609845E+01 -0.12517922060E+02  0.20994871053E+02  0.00000000000E+00 0. -1.
        -11    1    4    4    0    0 -0.48694504953E+02  0.35411558440E+02 -0.13876043065E+02  0.61787359993E+02  0.00000000000E+00 0.  1.
         11    1    4    4    0    0  0.18469703500E+02  0.63707656367E+02  0.41610377770E+02  0.78302100645E+02  0.00000000000E+00 0. -1.
         -4    1    1    2    0  502 -0.68676549181E+02 -0.14196368626E+03  0.90982202209E+02  0.18206569623E+03  0.00000000000E+00 0.  1.
<scales pt_clust_5="13000.00000" pt_clust_6="13000.00000" pt_clust_7="13000.00000" pt_clust_8="13000.00000" pt_clust_9="115.66706"></scales>
<clustering>
<clus scale="   79.861">  5  6 -1 -1</clus>
<clus scale="   90.098">  7  8 -1 -1</clus>
<clus scale="  134.145">  1  5  2 -1</clus>
<clus scale="  115.667">  2  9  1 -1</clus>
<clus scale="  115.667">  2  5  1 -1</clus>
</clustering>
</event>
<event>
 9    2  0.7820252E-005  0.2232141E+03  0.7546771E-02  0.1132253E+00
          2   -1    0    0  502    0 -0.00000000000E+00  0.00000000000E+00  0.11011281519E+04  0.11011281519E+04  0.00000000000E+00 0. -1.
         21   -1    0    0  501  502  0.00000000000E+00 -0.00000000000E+00 -0.40708773561E+03  0.40708773561E+03  0.00000000000E+00 0.  1.
         24    2    1    2    0    0 -0.13276607457E+03  0.15288310455E+03  0.95256645211E+03  0.97706809297E+03  0.79241014583E+02 0.  0.
         23    2    1    2    0    0  0.23060394833E+03 -0.96169134550E+02 -0.18886885526E+02  0.26616544356E+03  0.89781097534E+02 0.  0.
        -11    1    3    3    0    0 -0.11381917626E+02  0.68859541466E+02  0.31130515530E+03  0.31903304565E+03  0.00000000000E+00 0.  1.
         12    1    3    3    0    0 -0.12138415694E+03  0.84023563086E+02  0.64126129681E+03  0.65803504732E+03  0.00000000000E+00 0. -1.
        -11    1    4    4    0    0  0.18536829778E+03 -0.50880468120E+02 -0.44353562052E+02  0.19727510315E+03  0.00000000000E+00 0.  1.
         11    1    4    4    0    0  0.45235650551E+02 -0.45288666430E+02  0.25466676527E+02  0.68890340405E+02  0.00000000000E+00 0. -1.
          1    1    1    2  501    0 -0.97837873760E+02 -0.56713970001E+02 -0.23963915034E+03  0.26498235094E+03  0.00000000000E+00 0. -1.
<scales pt_clust_5="13000.00000" pt_clust_6="13000.00000" pt_clust_7="13000.00000" pt_clust_8="13000.00000" pt_clust_9="113.08724"></scales>
<clustering>
<clus scale="   79.241">  5  6 -1 -1</clus>
<clus scale="   89.781">  7  8 -1 -1</clus>
<clus scale="  113.087">  2  9  1 -1</clus>
<clus scale="  219.187">  1  5  2 -1</clus>
<clus scale="  113.087">  2  5  1 -1</clus>
</clustering>
</event>
<event>
 9    2  0.7820252E-005  0.9357025E+02  0.7546771E-02  0.1302247E+00
         21   -1    0    0  501  502  0.00000000000E+00  0.00000000000E+00  0.51103536080E+03  0.51103536080E+03  0.00000000000E+00 0.  1.
          2   -1    0    0  502    0 -0.00000000000E+00 -0.00000000000E+00 -0.30490462931E+02  0.30490462931E+02  0.00000000000E+00 0. -1.
         24    2    1    2    0    0  0.49858536346E+01 -0.17888807332E+02  0.62937096765E+02  0.10217744986E+03  0.78321676096E+02 0.  0.
         23    2    1    2    0    0 -0.40354208813E+02  0.10849129977E+02  0.30235261469E+03  0.31858316530E+03  0.91279591444E+02 0.  0.
        -11    1    3    3    0    0 -0.20370083019E+02  0.14861237159E+02 -0.18495230788E+01  0.25282748817E+02  0.00000000000E+00 0.  1.
         12    1    3    3    0    0  0.25355936654E+02 -0.32750044491E+02  0.64786619844E+02  0.76894701043E+02  0.00000000000E+00 0. -1.
        -13    1    4    4    0    0 -0.81318335054E+01  0.47105359008E+02  0.10519891212E+03  0.11555021711E+03  0.00000000000E+00 0. -1.
         13    1    4    4    0    0 -0.32222375308E+02 -0.36256229031E+02  0.19715370256E+03  0.20303294819E+03  0.00000000000E+00 0.  1.
          1    1    1    2  501    0  0.35368355179E+02  0.70396773548E+01  0.11525518642E+03  0.12076520857E+03  0.00000000000E+00 0. -1.
<scales pt_clust_5="13000.00000" pt_clust_6="13000.00000" pt_clust_7="13000.00000" pt_clust_8="13000.00000" pt_clust_9="36.06214"></scales>
<clustering>
<clus scale="   36.062">  1  9  2 -1</clus>
<clus scale="   78.322">  5  6 -1 -1</clus>
<clus scale="   80.980">  2  5  1 -1</clus>
<clus scale="   91.280">  7  8 -1 -1</clus>
<clus scale="   36.062">  1  5  2 -1</clus>
</clustering>
</event>
<event>
 9    2  0.7820252E-005  0.1200119E+03  0.7546771E-02  0.1245689E+00
         -1   -1    0    0    0  501 -0.00000000000E+00  0.00000000000E+00  0.38973395455E+03  0.38973395455E+03  0.00000000000E+00 0.  1.
         21   -1    0    0  501  502  0.00000000000E+00 -0.00000000000E+00 -0.53605717033E+02  0.53605717033E+02  0.00000000000E+00 0.  1.
         23    2    1    2    0    0  0.70648680755E+02  0.14650948314E+02  0.12758676503E+03  0.17214189789E+03  0.90269396925E+02 0.  0.
         24    2    1    2    0    0 -0.87008512948E+02  0.31936981211E+02  0.14160100829E+03  0.18801661576E+03  0.81908181274E+02 0.  0.
        -11    1    4    4    0    0 -0.91267328168E+02  0.46522717326E+02  0.13888994524E+03  0.17258188000E+03  0.00000000000E+00 0.  1.
         12    1    4    4    0    0  0.42588152199E+01 -0.14585736115E+02  0.27110630576E+01  0.15434735760E+02  0.00000000000E+00 0. -1.
        -11    1    3    3    0    0 -0.93460433519E+00 -0.27196302180E+02  0.11640480377E+02  0.29597518831E+02  0.00000000000E+00 0. -1.
         11    1    3    3    0    0  0.71583285091E+02  0.41847250494E+02  0.11594628465E+03  0.14254437906E+03  0.00000000000E+00 0.  1.
         -2    1    1    2    0  502  0.16359832193E+02 -0.46587929525E+02  0.66940464192E+02  0.83181157920E+02  0.00000000000E+00 0.  1.
<scales pt_clust_5="13000.00000" pt_clust_6="13000.00000" pt_clust_7="13000.00000" pt_clust_8="13000.00000" pt_clust_9="49.37694"></scales>
<clustering>
<clus scale="   49.377">  2  9  1 -1</clus>
<clus scale="   81.908">  5  6 -1 -1</clus>
<clus scale="   90.269">  7  8 -1 -1</clus>
<clus scale="  113.856">  2  5  1 -1</clus>
<clus scale="   49.377">  2  5  1 -1</clus>
</clustering>
</event>
<event>
 9    2  0.7820252E-005  0.2221526E+03  0.7546771E-02  0.1155520E+00
         21   -1    0    0  501  502  0.00000000000E+00  0.00000000000E+00  0.56040073282E+03  0.56040073282E+03  0.00000000000E+00 0. -1.
          2   -1    0    0  502    0 -0.00000000000E+00 -0.00000000000E+00 -0.16746224266E+03  0.16746224266E+03  0.00000000000E+00 0. -1.
         24    2    1    2    0    0  0.27846609304E+02  0.94500878424E+02  0.29584079976E+02  0.13072775731E+03  0.80676384832E+02 0.  0.
         23    2    1    2    0    0  0.10401938508E+03  0.13809325907E+03  0.21824075217E+03  0.29292041410E+03  0.91014078138E+02 0.  0.
        -11    1    3    3    0    0 -0.27925252305E+02  0.32645718946E+02  0.18243450532E+02  0.46673184691E+02  0.00000000000E+00 0.  1.
         12    1    3    3    0    0  0.55771861609E+02  0.61855159477E+02  0.11340629445E+02  0.84054572615E+02  0.00000000000E+00 0. -1.
        -13    1    4    4    0    0  0.29185188744E+02  0.77873785098E+02  0.44315948496E+02  0.94233778119E+02  0.00000000000E+00 0.  1.
         13    1    4    4    0    0  0.74834196335E+02  0.60219473969E+02  0.17392480367E+03  0.19868663598E+03  0.00000000000E+00 0. -1.
          1    1    1    2  501    0 -0.13186599438E+03 -0.23259413749E+03  0.14511365802E+03  0.30421480407E+03  0.00000000000E+00 0. -1.
<scales pt_clust_5="13000.00000" pt_clust_6="13000.00000" pt_clust_7="13000.00000" pt_clust_8="13000.00000" pt_clust_9="202.65304"></scales>
<clustering>
<clus scale="   80.676">  5  6 -1 -1</clus>
<clus scale="   91.014">  7  8 -1 -1</clus>
<clus scale="  127.336">  2  5  1 -1</clus>
<clus scale="  202.653">  1  9  2 -1</clus>
<clus scale="  202.653">  1  5  2 -1</clus>
</clustering>
</event>
<event>
 9    2  0.7820252E-005  0.1454059E+03  0.7546771E-02  0.1224765E+00
         21   -1    0    0  501  502  0.00000000000E+00  0.00000000000E+00  0.42003693281E+03  0.42003693281E+03  0.00000000000E+00 0.  1.
         -3   -1    0    0    0  501 -0.00000000000E+00 -0.00000000000E+00 -0.89605782929E+02  0.89605782929E+02  0.00000000000E+00 0.  1.
         23    2    1    2    0    0  0.13412207517E+02  0.37055599034E+02  0.75336514415E+02  0.12380515903E+03  0.89995123572E+02 0.  0.
         24    2    1    2    0    0  0.35879544841E+02 -0.13931866814E+03  0.96464821947E+02  0.19077133747E+03  0.79945032967E+02 0.  0.
        -13    1    4    4    0    0  0.18954549571E+02 -0.14513123982E+03  0.89557005735E+02  0.17158907016E+03  0.00000000000E+00 0.  1.
         14    1    4    4    0    0  0.16924995269E+02  0.58125716801E+01  0.69078162118E+01  0.19182267312E+02  0.00000000000E+00 0. -1.
        -13    1    3    3    0    0  0.40523693946E+02  0.61218318782E+01  0.36368095677E+01  0.41144537674E+02  0.00000000000E+00 0. -1.
         13    1    3    3    0    0 -0.27111486430E+02  0.30933767156E+02  0.71699704847E+02  0.82660621351E+02  0.00000000000E+00 0.  1.
         -4    1    1    2    0  502 -0.49291752357E+02  0.10226306911E+03  0.15862981352E+03  0.19506621925E+03  0.00000000000E+00 0.  1.
<scales pt_clust_5="13000.00000" pt_clust_6="13000.00000" pt_clust_7="13000.00000" pt_clust_8="13000.00000" pt_clust_9="121.45645"></scales>
<clustering>
<clus scale="   79.945">  5  6 -1 -1</clus>
<clus scale="   89.995">  7  8 -1 -1</clus>
<clus scale="   98.245">  2  7  1 -1</clus>
<clus scale="  121.456">  1  9  2 -1</clus>
<clus scale="  121.456">  1  5  2 -1</clus>
</clustering>
</event>
<event>
 9    2  0.7820252E-005  0.8800021E+02  0.7546771E-02  0.1312401E+00
          2   -1    0    0  502    0 -0.00000000000E+00  0.00000000000E+00  0.17387401144E+03  0.17387401144E+03  0.00000000000E+00 0. -1.
         21   -1    0    0  501  502  0.00000000000E+00 -0.00000000000E+00 -0.24488421533E+03  0.24488421533E+03  0.00000000000E+00 0. -1.
         24    2    1    2    0    0 -0.81698421548E+01 -0.93788575874E+00  0.11836745834E+03  0.14288978361E+03  0.79617894452E+02 0.  0.
         23    2    1    2    0    0  0.42597086818E+02  0.20358963923E+01 -0.14712575449E+02  0.97839419271E+02  0.86818404774E+02 0.  0.
        -13    1    3    3    0    0  0.32498224046E+02 -0.15830410005E+02  0.45351086988E+02  0.57995323416E+02  0.00000000000E+00 0.  1.
         14    1    3    3    0    0 -0.40668066201E+02  0.14892524246E+02  0.73016371353E+02  0.84894460199E+02  0.00000000000E+00 0. -1.
        -13    1    4    4    0    0  0.15170427716E+02  0.36525566364E+02  0.17506107855E+02  0.43251851839E+02  0.00000000000E+00 0. -1.
         13    1    4    4    0    0  0.27426659102E+02 -0.34489669972E+02 -0.32218683304E+02  0.54587567432E+02  0.00000000000E+00 0.  1.
          1    1    1    2  501    0 -0.34427244663E+02 -0.10980106335E+01 -0.17466508678E+03  0.17802902388E+03  0.00000000000E+00 0. -1.
<scales pt_clust_5="13000.00000" pt_clust_6="13000.00000" pt_clust_7="13000.00000" pt_clust_8="13000.00000" pt_clust_9="34.44475"></scales>
<clustering>
<clus scale="   34.445">  2  9  1 -1</clus>
<clus scale="   79.618">  5  6 -1 -1</clus>
<clus scale="   80.905">  1  5  2 -1</clus>
<clus scale="   86.818">  7  8 -1 -1</clus>
<clus scale="   34.445">  2  5  1 -1</clus>
</clustering>
</event>
<event>
 9    2  0.7820252E-005  0.9683557E+02  0.7546771E-02  0.1290192E+00
          2   -1    0    0  502    0 -0.00000000000E+00  0.00000000000E+00  0.16071022219E+04  0.16071022219E+04  0.00000000000E+00 0. -1.
         21   -1    0    0  501  502  0.00000000000E+00 -0.00000000000E+00 -0.18646199528E+02  0.18646199528E+02  0.00000000000E+00 0.  1.
         24    2    1    2    0    0 -0.17630070544E+02 -0.27562349926E+02  0.12891405847E+04  0.12924164791E+04  0.85944202232E+02 0.  0.
         23    2    1    2    0    0  0.20913165181E+02  0.29396378937E+01  0.12105690790E+03  0.15335094304E+03  0.91737314273E+02 0.  0.
        -11    1    3    3    0    0 -0.19797398662E+02 -0.38195107886E+01  0.65259726291E+02  0.68303422550E+02  0.00000000000E+00 0.  1.
         12    1    3    3    0    0  0.21673281182E+01 -0.23742839138E+02  0.12238808584E+04  0.12241130566E+04  0.00000000000E+00 0. -1.
        -11    1    4    4    0    0  0.27147642568E+02 -0.19066641578E+02  0.32373918163E+01  0.33331846991E+02  0.00000000000E+00 0.  1.
         11    1    4    4    0    0 -0.62344773874E+01  0.22006279471E+02  0.11781951609E+03  0.12001909604E+03  0.00000000000E+00 0. -1.
          1    1    1    2  501    0 -0.32830946373E+01  0.24622712033E+02  0.17825852977E+03  0.17998099926E+03  0.00000000000E+00 0. -1.
<scales pt_clust_5="13000.00000" pt_clust_6="13000.00000" pt_clust_7="13000.00000" pt_clust_8="13000.00000" pt_clust_9="24.84064"></scales>
<clustering>
<clus scale="   24.841">  2  9  1 -1</clus>
<clus scale="   85.944">  5  6 -1 -1</clus>
<clus scale="   91.366">  1  5  2 -1</clus>
<clus scale="   91.737">  7  8 -1 -1</clus>
<clus scale="   24.841">  2  5  1 -1</clus>
</clustering>
</event>
<event>
 9    2  0.7820252E-005  0.1161468E+03  0.7546771E-02  0.1252467E+00
         21   -1    0    0  501  502  0.00000000000E+00  0.00000000000E+00  0.65360012370E+03  0.65360012370E+03  0.00000000000E+00 0. -1.
          2   -1    0    0  502    0 -0.00000000000E+00 -0.00000000000E+00 -0.12188136997E+03  0.12188136997E+03  0.00000000000E+00 0. -1.
         24    2    1    2    0    0 -0.76964072584E+02  0.32408119667E+02 -0.53124195857E+02  0.12757865433E+03  0.80500796067E+02 0.  0.
         23    2    1    2    0    0  0.60825424695E+02  0.42213178004E+02  0.88685761614E+02  0.14590607719E+03  0.89116409044E+02 0.  0.
        -13    1    3    3    0    0 -0.65680666607E+02  0.10685329414E+02  0.27256529869E+01  0.66599965577E+02  0.00000000000E+00 0.  1.
         14    1    3    3    0    0 -0.11283405977E+02  0.21722790253E+02 -0.55849848844E+02  0.60978688758E+02  0.00000000000E+00 0. -1.
        -11    1    4    4    0    0  0.64834199309E+02  0.73777729914E+01  0.89583613926E+02  0.11082927780E+03  0.00000000000E+00 0.  1.
         11    1    4    4    0    0 -0.40087746143E+01  0.34835405013E+02 -0.89785231161E+00  0.35076799385E+02  0.00000000000E+00 0. -1.
          1    1    1    2  501    0  0.16138647889E+02 -0.74621297671E+02  0.49615718797E+03  0.50199676214E+03  0.00000000000E+00 0. -1.
<scales pt_clust_5="13000.00000" pt_clust_6="13000.00000" pt_clust_7="13000.00000" pt_clust_8="13000.00000" pt_clust_9="76.34654"></scales>
<clustering>
<clus scale="   76.347">  1  9  2 -1</clus>
<clus scale="   80.501">  5  6 -1 -1</clus>
<clus scale="   89.116">  7  8 -1 -1</clus>
<clus scale="  109.676">  2  5  1 -1</clus>
<clus scale="   76.347">  1  5  2 -1</clus>
</clustering>
</event>
<event>
 9    2  0.7820252E-005  0.1282847E+03  0.7546771E-02  0.1254189E+00
         21   -1    0    0  501  502  0.00000000000E+00  0.00000000000E+00  0.16853566888E+03  0.16853566888E+03  0.00000000000E+00 0.  1.
         -3   -1    0    0    0  501 -0.00000000000E+00 -0.00000000000E+00 -0.14827150056E+03  0.14827150056E+03  0.00000000000E+00 0.  1.
         24    2    1    2    0    0 -0.27392292315E+02 -0.40573642911E+01 -0.11794589864E+02  0.79538501242E+02  0.73623779763E+02 0.  0.
         23    2    1    2    0    0  0.94575336841E+02  0.53564764136E+02 -0.12099690916E+02  0.14285197086E+03  0.91905412038E+02 0.  0.
        -11    1    3    3    0    0  0.20635637667E+02  0.15704100732E+02  0.13486620466E+01  0.25966655754E+02  0.00000000000E+00 0.  1.
         12    1    3    3    0    0 -0.48027929982E+02 -0.19761465023E+02 -0.13143251910E+02  0.53571845488E+02  0.00000000000E+00 0. -1.
        -13    1    4    4    0    0  0.52843002929E+02  0.15417255632E+02  0.38340350674E+02  0.67082465813E+02  0.00000000000E+00 0.  1.
         13    1    4    4    0    0  0.41732333912E+02  0.38147508504E+02 -0.50440041591E+02  0.75769505043E+02  0.00000000000E+00 0. -1.
         -4    1    1    2    0  502 -0.67183044525E+02 -0.49507399845E+02  0.44158449096E+02  0.94416697346E+02  0.00000000000E+00 0.  1.
<scales pt_clust_5="13000.00000" pt_clust_6="13000.00000" pt_clust_7="13000.00000" pt_clust_8="13000.00000" pt_clust_9="89.50055"></scales>
<clustering>
<clus scale="   73.624">  5  6 -1 -1</clus>
<clus scale="   78.659">  2  5  1 -1</clus>
<clus scale="   89.501">  1  9  2 -1</clus>
<clus scale="   91.905">  7  8 -1 -1</clus>
<clus scale="   89.501">  1  5  2 -1</clus>
</clustering>
</event>
<event>
 9    2  0.7820252E-005  0.9796967E+02  0.7546771E-02  0.1290399E+00
         -1   -1    0    0    0  501 -0.00000000000E+00  0.00000000000E+00  0.81634650403E+02  0.81634650403E+02  0.00000000000E+00 0.  1.
         21   -1    0    0  501  502  0.00000000000E+00 -0.00000000000E+00 -0.21926474141E+03  0.21926474141E+03  0.00000000000E+00 0. -1.
         23    2    1    2    0    0 -0.37564882140E+02  0.26459685394E+02  0.21558868615E+02  0.10397277435E+03  0.90743141164E+02 0.  0.
         24    2    1    2    0    0  0.10438949658E+02 -0.76371353639E+01 -0.94746959847E+02  0.12451891112E+03  0.79753842041E+02 0.  0.
        -11    1    4    4    0    0 -0.34767879623E+02 -0.69465044613E+01 -0.45149135613E+02  0.57406478940E+02  0.00000000000E+00 0.  1.
         12    1    4    4    0    0  0.45206829281E+02 -0.69063090253E+00 -0.49597824234E+02  0.67112432182E+02  0.00000000000E+00 0. -1.
        -13    1    3    3    0    0  0.17428840461E+02  0.29101723878E+02  0.33456642089E+02  0.47644744856E+02  0.00000000000E+00 0. -1.
         13    1    3    3    0    0 -0.54993722601E+02 -0.26420384836E+01 -0.11897773474E+02  0.56328029492E+02  0.00000000000E+00 0.  1.
         -2    1    1    2    0  502  0.27125932482E+02 -0.18822550031E+02 -0.64441999772E+02  0.72407706339E+02  0.00000000000E+00 0.  1.
<scales pt_clust_5="13000.00000" pt_clust_6="13000.00000" pt_clust_7="13000.00000" pt_clust_8="13000.00000" pt_clust_9="33.01673"></scales>
<clustering>
<clus scale="   33.017">  2  9  1 -1</clus>
<clus scale="   79.754">  5  6 -1 -1</clus>
<clus scale="   87.889">  2  5  1 -1</clus>
<clus scale="   90.743">  7  8 -1 -1</clus>
<clus scale="   33.017">  2  5  1 -1</clus>
</clustering>
</event>
<event>
 9    2  0.7820252E-005  0.9196983E+02  0.7546771E-02  0.1303551E+00
         21   -1    0    0  501  502  0.00000000000E+00  0.00000000000E+00  0.50507217383E+03  0.50507217383E+03  0.00000000000E+00 0.  1.
          2   -1    0    0  502    0 -0.00000000000E+00 -0.00000000000E+00 -0.37264244301E+02  0.37264244301E+02  0.00000000000E+00 0. -1.
         24    2    1    2    0    0  0.17493745082E+01  0.10356636293E+02  0.32901451673E+02  0.89335051883E+02  0.82388869068E+02 0.  0.
         23    2    1    2    0    0  0.26092540109E+02 -0.20214802252E+02  0.34497320763E+03  0.35834224762E+03  0.91176716149E+02 0.  0.
        -11    1    3    3    0    0  0.10690969056E+02 -0.34568174898E+02  0.21654867349E+02  0.42168576156E+02  0.00000000000E+00 0.  1.
         12    1    3    3    0    0 -0.89415945483E+01  0.44924811190E+02  0.11246584324E+02  0.47166475727E+02  0.00000000000E+00 0. -1.
        -13    1    4    4    0    0  0.42767730177E+02 -0.46758592710E+02  0.26436418545E+03  0.27185265731E+03  0.00000000000E+00 0.  1.
         13    1    4    4    0    0 -0.16675190067E+02  0.26543790457E+02  0.80609022175E+02  0.86489590308E+02  0.00000000000E+00 0. -1.
          1    1    1    2  501    0 -0.27841914618E+02  0.98581659595E+01  0.89933270230E+02  0.94659118631E+02  0.00000000000E+00 0. -1.
<scales pt_clust_5="13000.00000" pt_clust_6="13000.00000" pt_clust_7="13000.00000" pt_clust_8="13000.00000" pt_clust_9="29.53567"></scales>
<clustering>
<clus scale="   29.536">  1  9  2 -1</clus>
<clus scale="   82.389">  5  6 -1 -1</clus>
<clus scale="   83.266">  2  5  1 -1</clus>
<clus scale="   91.177">  7  8 -1 -1</clus>
<clus scale="   29.536">  1  5  2 -1</clus>
</clustering>
</event>
<event>
 9    2  0.7820252E-005  0.1138005E+03  0.7546771E-02  0.1257441E+00
         21   -1    0    0  501  502  0.00000000000E+00  0.00000000000E+00  0.70105282010E+02  0.70105282010E+02  0.00000000000E+00 0.  1.
          2   -1    0    0  502    0 -0.00000000000E+00 -0.00000000000E+00 -0.70998112961E+03  0.70998112961E+03  0.00000000000E+00 0. -1.
         24    2    1    2    0    0  0.44610590990E+02 -0.39279170016E+02 -0.26064113864E+03  0.27905934329E+03  0.80045961185E+02 0.  0.
         23    2    1    2    0    0 -0.68367573587E+02  0.11250782731E+03 -0.56861945185E+02  0.16958924717E+03  0.90526767422E+02 0.  0.
        -11    1    3    3    0    0 -0.16852995591E+02 -0.27076325852E+02 -0.50091898563E+02  0.59383071524E+02  0.00000000000E+00 0.  1.
         12    1    3    3    0    0  0.61463586581E+02 -0.12202844163E+02 -0.21054924008E+03  0.21967627177E+03  0.00000000000E+00 0. -1.
        -11    1    4    4    0    0 -0.60964966223E+02  0.83732792873E+02 -0.80856076127E+02  0.13139867867E+03  0.00000000000E+00 0.  1.
         11    1    4    4    0    0 -0.74026073639E+01  0.28775034437E+02  0.23994130941E+02  0.38190568499E+02  0.00000000000E+00 0. -1.
          1    1    1    2  501    0  0.23756982597E+02 -0.73228657295E+02 -0.32237276378E+03  0.33143782117E+03  0.00000000000E+00 0. -1.
<scales pt_clust_5="13000.00000" pt_clust_6="13000.00000" pt_clust_7="13000.00000" pt_clust_8="13000.00000" pt_clust_9="76.98595"></scales>
<clustering>
<clus scale="   76.986">  1  9  2 -1</clus>
<clus scale="   80.046">  5  6 -1 -1</clus>
<clus scale="   90.527">  7  8 -1 -1</clus>
<clus scale="  105.654">  2  5  1 -1</clus>
<clus scale="   76.986">  1  5  2 -1</clus>
</clustering>
</event>
<event>
 9    2  0.7820252E-005  0.1011286E+03  0.7546771E-02  0.1281560E+00
          2   -1    0    0  502    0 -0.00000000000E+00  0.00000000000E+00  0.13510768567E+03  0.13510768567E+03  0.00000000000E+00 0. -1.
         21   -1    0    0  501  502  0.00000000000E+00 -0.00000000000E+00 -0.18251387746E+03  0.18251387746E+03  0.00000000000E+00 0. -1.
         24    2    1    2    0    0  0.19196310417E+02  0.10706734095E+02 -0.52984062710E+02  0.10119827655E+03  0.83370545084E+02 0.  0.
         23    2    1    2    0    0 -0.10369714170E+02 -0.77452237486E+02 -0.49233914023E+02  0.12960622147E+03  0.90925322601E+02 0.  0.
        -13    1    3    3    0    0 -0.24297457977E+02 -0.20748022443E+02 -0.14130829551E+02  0.34936045043E+02  0.00000000000E+00 0.  1.
         14    1    3    3    0    0  0.43493768393E+02  0.31454756538E+02 -0.38853233159E+02  0.66262231511E+02  0.00000000000E+00 0. -1.
        -13    1    4    4    0    0  0.27420471297E+02  0.44714651353E+01 -0.22185585575E+01  0.27871100600E+02  0.00000000000E+00 0.  1.
         13    1    4    4    0    0 -0.37790185467E+02 -0.81923702622E+02 -0.47015355465E+02  0.10173512087E+03  0.00000000000E+00 0. -1.
          1    1    1    2  501    0 -0.88265962463E+01  0.66745503392E+02  0.54811784950E+02  0.86817065107E+02  0.00000000000E+00 0. -1.
<scales pt_clust_5="13000.00000" pt_clust_6="13000.00000" pt_clust_7="13000.00000" pt_clust_8="13000.00000" pt_clust_9="67.32663"></scales>
<clustering>
<clus scale="   67.327">  2  9  1 -1</clus>
<clus scale="   83.371">  5  6 -1 -1</clus>
<clus scale="   90.925">  7  8 -1 -1</clus>
<clus scale="   94.394">  1  5  2 -1</clus>
<clus scale="   67.327">  2  5  1 -1</clus>
</clustering>
</event>
<event>
 9    2  0.7820252E-005  0.9444066E+02  0.7546771E-02  0.1296909E+00
         21   -1    0    0  501  502  0.00000000000E+00  0.00000000000E+00  0.16723590862E+03  0.16723590862E+03  0.00000000000E+00 0. -1.
          2   -1    0    0  502    0 -0.00000000000E+00 -0.00000000000E+00 -0.73105709968E+03  0.73105709968E+03  0.00000000000E+00 0. -1.
         24    2    1    2    0    0 -0.26256560106E+02 -0.10878508007E+02 -0.61734844187E+03  0.62324548395E+03  0.80672707325E+02 0.  0.
         23    2    1    2    0    0  0.10826226963E+03 -0.30246846391E+01 -0.44099831019E+02  0.14679276902E+03  0.88732486702E+02 0.  0.
        -13    1    3    3    0    0 -0.28542911831E+02  0.18921742523E+02 -0.11454531834E+03  0.11955484143E+03  0.00000000000E+00 0.  1.
         14    1    3    3    0    0  0.22863517251E+01 -0.29800250530E+02 -0.50280312353E+03  0.50369064252E+03  0.00000000000E+00 0. -1.
        -13    1    4    4    0    0  0.97076255389E+02 -0.33238015911E+02 -0.49831969555E+02  0.11406923447E+03  0.00000000000E+00 0. -1.
         13    1    4    4    0    0  0.11186014242E+02  0.30213331272E+02  0.57321385356E+01  0.32723534549E+02  0.00000000000E+00 0.  1.
          1    1    1    2  501    0 -0.82005709526E+02  0.13903192646E+02  0.97627081828E+02  0.12825475534E+03  0.00000000000E+00 0. -1.
<scales pt_clust_5="13000.00000" pt_clust_6="13000.00000" pt_clust_7="13000.00000" pt_clust_8="13000.00000" pt_clust_9="83.17593"></scales>
<clustering>
<clus scale="   80.673">  5  6 -1 -1</clus>
<clus scale="   83.176">  1  9  2 -1</clus>
<clus scale="   86.912">  2  5  1 -1</clus>
<clus scale="   88.732">  7  8 -1 -1</clus>
<clus scale="   83.176">  1  5  2 -1</clus>
</clustering>
</event>
<event>
 9    2  0.7820252E-005  0.9565730E+02  0.7546771E-02  0.1295941E+00
          2   -1    0    0  502    0 -0.00000000000E+00  0.00000000000E+00  0.95799012257E+03  0.95799012257E+03  0.00000000000E+00 0. -1.
         21   -1    0    0  501  502  0.00000000000E+00 -0.00000000000E+00 -0.29709333932E+02  0.29709333932E+02  0.00000000000E+00 0.  1.
         24    2    1    2    0    0  0.58637990339E+01  0.40401493513E+02  0.53730816849E+03  0.54479650050E+03  0.80227764615E+02 0.  0.
         23    2    1    2    0    0  0.43832718762E+01  0.38820695661E+02  0.99097273326E+02  0.14029367689E+03  0.91300529636E+02 0.  0.
        -13    1    3    3    0    0 -0.18269719612E+02 -0.12030247833E+02  0.57351100980E+02  0.61381253663E+02  0.00000000000E+00 0.  1.
         14    1    3    3    0    0  0.24133518646E+02  0.52431741346E+02  0.47995706751E+03  0.48341524684E+03  0.00000000000E+00 0. -1.
        -11    1    4    4    0    0  0.37996149261E+02  0.42900817880E+02  0.33261132218E+02  0.66260776104E+02  0.00000000000E+00 0.  1.
         11    1    4    4    0    0 -0.33612877385E+02 -0.40801222189E+01  0.65836141108E+02  0.74032900790E+02  0.00000000000E+00 0. -1.
          1    1    1    2  501    0 -0.10247070910E+02 -0.79222189174E+02  0.29187534682E+03  0.30260927911E+03  0.00000000000E+00 0. -1.
<scales pt_clust_5="13000.00000" pt_clust_6="13000.00000" pt_clust_7="13000.00000" pt_clust_8="13000.00000" pt_clust_9="79.88219"></scales>
<clustering>
<clus scale="   79.882">  2  9  1 -1</clus>
<clus scale="   80.228">  5  6 -1 -1</clus>
<clus scale="   85.153">  1  5  2 -1</clus>
<clus scale="   91.301">  7  8 -1 -1</clus>
<clus scale="   79.882">  2  5  1 -1</clus>
</clustering>
</event>
<event>
 9    2  0.7820252E-005  0.9862507E+02  0.7546771E-02  0.1288761E+00
         -1   -1    0    0    0  501 -0.00000000000E+00  0.00000000000E+00  0.92222107137E+02  0.92222107137E+02  0.00000000000E+00 0.  1.
         21   -1    0    0  501  502  0.00000000000E+00 -0.00000000000E+00 -0.31093385509E+03  0.31093385509E+03  0.00000000000E+00 0. -1.
         23    2    1    2    0    0 -0.12216767290E+02 -0.26475489423E+02  0.39782433922E+02  0.10472150389E+03  0.92378300398E+02 0.  0.
         24    2    1    2    0    0  0.27986213628E+02  0.64093734780E+02 -0.19982285931E+03  0.22697725498E+03  0.81842923827E+02 0.  0.
        -11    1    4    4    0    0 -0.80490168092E+00  0.32287618908E+02 -0.12221072048E+02  0.34532489100E+02  0.00000000000E+00 0.  1.
         12    1    4    4    0    0  0.28791115309E+02  0.31806115873E+02 -0.18760178727E+03  0.19244476588E+03  0.00000000000E+00 0. -1.
        -13    1    3    3    0    0  0.35709994259E+02 -0.25549650763E+02  0.35739938391E+02  0.56615647487E+02  0.00000000000E+00 0.  1.
         13    1    3    3    0    0 -0.47926761550E+02 -0.92583865916E+00  0.40424955313E+01  0.48105856400E+02  0.00000000000E+00 0. -1.
         -2    1    1    2    0  502 -0.15769446338E+02 -0.37618245358E+02 -0.58671322557E+02  0.71457203361E+02  0.00000000000E+00 0.  1.
<scales pt_clust_5="13000.00000" pt_clust_6="13000.00000" pt_clust_7="13000.00000" pt_clust_8="13000.00000" pt_clust_9="40.78980"></scales>
<clustering>
<clus scale="   40.790">  2  9  1 -1</clus>
<clus scale="   81.843">  5  6 -1 -1</clus>
<clus scale="   88.834">  2  5  1 -1</clus>
<clus scale="   92.378">  7  8 -1 -1</clus>
<clus scale="   40.790">  2  5  1 -1</clus>
</clustering>
</event>
<event>
 9    2  0.7820252E-005  0.1285222E+03  0.7546771E-02  0.1231020E+00
          2   -1    0    0  502    0 -0.00000000000E+00  0.00000000000E+00  0.83688582916E+03  0.83688582916E+03  0.00000000000E+00 0. -1.
         21   -1    0    0  501  502  0.00000000000E+00 -0.00000000000E+00 -0.50653719807E+02  0.50653719807E+02  0.00000000000E+00 0.  1.
         23    2    1    2    0    0 -0.80535875810E+02 -0.43470737749E+02  0.69831780913E+03  0.71058823977E+03  0.94404192786E+02 0.  0.
         24    2    1    2    0    0  0.41615922180E+02  0.53228790930E+02  0.54304391551E+02  0.12461004103E+03  0.89518189334E+02 0.  0.
        -13    1    4    4    0    0  0.67773247204E+02  0.40449034104E+02  0.23784694526E+02  0.82432087746E+02  0.00000000000E+00 0.  1.
         14    1    4    4    0    0 -0.26157325023E+02  0.12779756826E+02  0.30519697025E+02  0.42177953286E+02  0.00000000000E+00 0. -1.
        -11    1    3    3    0    0 -0.80607562897E+02  0.70722607541E+01  0.42332046932E+03  0.43098470485E+03  0.00000000000E+00 0. -1.
         11    1    3    3    0    0  0.71687086664E-01 -0.50542998503E+02  0.27499733981E+03  0.27960353492E+03  0.00000000000E+00 0.  1.
          1    1    1    2  501    0  0.38919953630E+02 -0.97580531809E+01  0.33609908675E+02  0.52341268170E+02  0.00000000000E+00 0. -1.
<scales pt_clust_5="13000.00000" pt_clust_6="13000.00000" pt_clust_7="13000.00000" pt_clust_8="13000.00000" pt_clust_9="40.12459"></scales>
<clustering>
<clus scale="   40.125">  2  9  1 -1</clus>
<clus scale="   89.518">  5  6 -1 -1</clus>
<clus scale="   94.404">  7  8 -1 -1</clus>
<clus scale="  124.977">  2  5  1 -1</clus>
<clus scale="   40.125">  2  5  1 -1</clus>
</clustering>
</event>
<event>
 9    2  0.7820252E-005  0.1221269E+03  0.7546771E-02  0.1243044E+00
         21   -1    0    0  501  502  0.00000000000E+00  0.00000000000E+00  0.14324786226E+03  0.14324786226E+03  0.00000000000E+00 0. -1.
         -3   -1    0    0    0  501 -0.00000000000E+00 -0.00000000000E+00 -0.46339290258E+03  0.46339290258E+03  0.00000000000E+00 0.  1.
         24    2    1    2    0    0  0.66064008096E+02  0.50402332997E+02 -0.26711317377E+03  0.29107759604E+03  0.80447939554E+02 0.  0.
         23    2    1    2    0    0 -0.10018472624E+03  0.44309127026E+02  0.67954895698E+02  0.15817104478E+03  0.91651150818E+02 0.  0.
        -13    1    3    3    0    0  0.64302249000E+02  0.70501549894E+02 -0.21683964539E+03  0.23690647855E+03  0.00000000000E+00 0.  1.
         14    1    3    3    0    0  0.17617590959E+01 -0.20099216897E+02 -0.50273528376E+02  0.54171117492E+02  0.00000000000E+00 0. -1.
        -13    1    4    4    0    0 -0.38428937747E+02  0.32440879558E+02  0.79658406634E+02  0.94205390877E+02  0.00000000000E+00 0. -1.
         13    1    4    4    0    0 -0.61755788495E+02  0.11868247468E+02 -0.11703510935E+02  0.63965653900E+02  0.00000000000E+00 0.  1.
         -4    1    1    2    0  502  0.34120718146E+02 -0.94711460023E+02 -0.12098676225E+03  0.15739212403E+03  0.00000000000E+00 0.  1.
<scales pt_clust_5="13000.00000" pt_clust_6="13000.00000" pt_clust_7="13000.00000" pt_clust_8="13000.00000" pt_clust_9="100.67022"></scales>
<clustering>
<clus scale="   80.448">  5  6 -1 -1</clus>
<clus scale="   91.651">  7  8 -1 -1</clus>
<clus scale="  100.670">  1  9  2 -1</clus>
<clus scale="  113.960">  2  5  1 -1</clus>
<clus scale="  100.670">  1  5  2 -1</clus>
</clustering>
</event>
<event>
 9    2  0.7820252E-005  0.3951407E+03  0.7546771E-02  0.1098501E+00
          2   -1    0    0  502    0 -0.00000000000E+00  0.00000000000E+00  0.11576395671E+04  0.11576395671E+04  0.00000000000E+00 0. -1.
         21   -1    0    0  501  502  0.00000000000E+00 -0.00000000000E+00 -0.28492209561E+03  0.28492209561E+03  0.00000000000E+00 0. -1.
         24    2    1    2    0    0  0.40541192189E+01  0.45372838770E+02  0.15733308414E+03  0.18255050601E+03  0.80596882687E+02 0.  0.
         23    2    1    2    0    0  0.24170482205E+03 -0.30641915479E+03 -0.60523624784E+02  0.40527384055E+03  0.90938755483E+02 0.  0.
        -11    1    3    3    0    0 -0.31550847518E+02  0.50906577655E+01  0.28005028601E+02  0.42492968860E+02  0.00000000000E+00 0.  1.
         12    1    3    3    0    0  0.35604966737E+02  0.40282181005E+02  0.12932805554E+03  0.14005753715E+03  0.00000000000E+00 0. -1.
        -13    1    4    4    0    0  0.18967417850E+03 -0.17057665628E+03 -0.44205575950E+02  0.25889538930E+03  0.00000000000E+00 0.  1.
         13    1    4    4    0    0  0.52030643551E+02 -0.13584249852E+03 -0.16318048834E+02  0.14637845125E+03  0.00000000000E+00 0. -1.
          1    1    1    2  501    0 -0.24575894127E+03  0.26104631602E+03  0.77590801209E+03  0.85473731611E+03  0.00000000000E+00 0. -1.
<scales pt_clust_5="13000.00000" pt_clust_6="13000.00000" pt_clust_7="13000.00000" pt_clust_8="13000.00000" pt_clust_9="384.53413"></scales>
<clustering>
<clus scale="   80.597">  5  6 -1 -1</clus>
<clus scale="   90.939">  7  8 -1 -1</clus>
<clus scale="   92.580">  1  5  2 -1</clus>
<clus scale="  384.534">  2  9  1 -1</clus>
<clus scale="  384.534">  2  5  1 -1</clus>
</clustering>
</event>
<event>
 9    2  0.7820252E-005  0.1038135E+03  0.7546771E-02  0.1278978E+00
         21   -1    0    0  501  502  0.00000000000E+00  0.00000000000E+00  0.14558253691E+03  0.14558253691E+03  0.00000000000E+00 0. -1.
          2   -1    0    0  502    0 -0.00000000000E+00 -0.00000000000E+00 -0.38835272250E+03  0.38835272250E+03  0.00000000000E+00 0. -1.
         24    2    1    2    0    0  0.54639385893E+02  0.28409663674E+02 -0.23551559541E+03  0.25530944790E+03  0.76959385531E+02 0.  0.
         23    2    1    2    0    0 -0.31687337896E+02 -0.28675066983E+01 -0.12389083575E+03  0.15703957845E+03  0.91105323872E+02 0.  0.
        -11    1    3    3    0    0  0.49641991605E+02 -0.13452247448E+02 -0.16814263443E+03  0.17583297702E+03  0.00000000000E+00 0.  1.
         12    1    3    3    0    0  0.49973942883E+01  0.41861911122E+02 -0.67372960979E+02  0.79476470880E+02  0.00000000000E+00 0. -1.
        -13    1    4    4    0    0  0.28573199448E+02 -0.17926344437E+02 -0.35110543548E+02  0.48688107581E+02  0.00000000000E+00 0. -1.
         13    1    4    4    0    0 -0.60260537344E+02  0.15058837739E+02 -0.88780292203E+02  0.10835147087E+03  0.00000000000E+00 0.  1.
          1    1    1    2  501    0 -0.22952047997E+02 -0.25542156976E+02  0.11663624558E+03  0.12158623307E+03  0.00000000000E+00 0. -1.
<scales pt_clust_5="13000.00000" pt_clust_6="13000.00000" pt_clust_7="13000.00000" pt_clust_8="13000.00000" pt_clust_9="34.33946"></scales>
<clustering>
<clus scale="   34.339">  1  9  2 -1</clus>
<clus scale="   76.959">  5  6 -1 -1</clus>
<clus scale="   91.105">  7  8 -1 -1</clus>
<clus scale="   91.650">  2  5  1 -1</clus>
<clus scale="   34.339">  1  5  2 -1</clus>
</clustering>
</event>
<event>
 9    2  0.7820252E-005  0.1009222E+03  0.7546771E-02  0.1281589E+00
         -3   -1    0    0    0  501 -0.00000000000E+00  0.00000000000E+00  0.22149279077E+03  0.22149279077E+03  0.00000000000E+00 0.  1.
         21   -1    0    0  501  502  0.00000000000E+00 -0.00000000000E+00 -0.98708802426E+02  0.98708802426E+02  0.00000000000E+00 0. -1.
         23    2    1    2    0    0  0.36460119601E+02  0.39090872622E+02  0.12517953047E+03  0.16353539070E+03  0.90644760027E+02 0.  0.
         24    2    1    2    0    0  0.89536489812E+01 -0.23437353041E+02 -0.39391397601E+02  0.96035052292E+02  0.83914073410E+02 0.  0.
        -11    1    4    4    0    0 -0.30191397669E+02 -0.19046511897E+02  0.57132115534E+01  0.36151499207E+02  0.00000000000E+00 0.  1.
         12    1    4    4    0    0  0.39145046650E+02 -0.43908411436E+01 -0.45104609154E+02  0.59883553085E+02  0.00000000000E+00 0. -1.
        -11    1    3    3    0    0  0.66573168158E+01  0.65236382150E+02  0.79186178575E+02  0.10281321073E+03  0.00000000000E+00 0. -1.
         11    1    3    3    0    0  0.29802802785E+02 -0.26145509528E+02  0.45993351896E+02  0.60722179975E+02  0.00000000000E+00 0.  1.
         -4    1    1    2    0  502 -0.45413768582E+02 -0.15653519581E+02  0.36995855474E+02  0.60631150198E+02  0.00000000000E+00 0.  1.
<scales pt_clust_5="13000.00000" pt_clust_6="13000.00000" pt_clust_7="13000.00000" pt_clust_8="13000.00000" pt_clust_9="48.03588"></scales>
<clustering>
<clus scale="   48.036">  2  9  1 -1</clus>
<clus scale="   83.914">  5  6 -1 -1</clus>
<clus scale="   90.645">  7  8 -1 -1</clus>
<clus scale="   94.923">  2  5  1 -1</clus>
<clus scale="   48.036">  2  5  1 -1</clus>
</clustering>
</event>
<event>
 9    2  0.7820252E-005  0.1080356E+03  0.7546771E-02  0.1270489E+00
          2   -1    0    0  502    0 -0.00000000000E+00  0.00000000000E+00  0.33742662789E+03  0.33742662789E+03  0.00000000000E+00 0. -1.
         21   -1    0    0  501  502  0.00000000000E+00 -0.00000000000E+00 -0.96583694768E+02  0.96583694768E+02  0.00000000000E+00 0.  1.
         23    2    1    2    0    0  0.47151687076E+02 -0.34810564006E+02  0.28916108222E+03  0.30941260779E+03  0.93203934646E+02 0.  0.
         24    2    1    2    0    0 -0.25134502483E+02  0.13549764830E+02 -0.41024286965E+02  0.93133792295E+02  0.78584806447E+02 0.  0.
        -13    1    4    4    0    0  0.25247203704E+02 -0.88563272724E+01 -0.48611501661E+01  0.27193503058E+02  0.00000000000E+00 0.  1.
         14    1    4    4    0    0 -0.50381706187E+02  0.22406092102E+02 -0.36163136799E+02  0.65940289238E+02  0.00000000000E+00 0. -1.
        -11    1    3    3    0    0 -0.18497664869E+02 -0.34755138867E+02  0.15677131301E+03  0.16163949971E+03  0.00000000000E+00 0. -1.
         11    1    3    3    0    0  0.65649351946E+02 -0.55425138765E-01  0.13238976920E+03  0.14777310808E+03  0.00000000000E+00 0.  1.
          1    1    1    2  501    0 -0.22017184593E+02  0.21260799176E+02 -0.72938621240E+01  0.31463922573E+02  0.00000000000E+00 0. -1.
<scales pt_clust_5="13000.00000" pt_clust_6="13000.00000" pt_clust_7="13000.00000" pt_clust_8="13000.00000" pt_clust_9="30.60683"></scales>
<clustering>
<clus scale="   30.607">  2  9  1 -1</clus>
<clus scale="   78.585">  5  6 -1 -1</clus>
<clus scale="   93.204">  7  8 -1 -1</clus>
<clus scale="   95.709">  2  5  1 -1</clus>
<clus scale="   30.607">  2  5  1 -1</clus>
</clustering>
</event>
<event>
 9    2  0.7820252E-005  0.8639688E+02  0.7546771E-02  0.1315019E+00
          4   -1    0    0  502    0 -0.00000000000E+00  0.00000000000E+00  0.34123247541E+03  0.34123247541E+03  0.00000000000E+00 0. -1.
         21   -1    0    0  501  502  0.00000000000E+00 -0.00000000000E+00 -0.42987069134E+02  0.42987069134E+02  0.00000000000E+00 0.  1.
         24    2    1    2    0    0  0.21850645694E+02  0.28954390742E+02  0.25268515531E+03  0.26766837593E+03  0.80503194337E+02 0.  0.
         23    2    1    2    0    0 -0.61751796040E+00 -0.13723110128E+02  0.18071130167E+02  0.78623746019E+02  0.75275644218E+02 0.  0.
        -11    1    3    3    0    0  0.49275818493E+02  0.96915618831E+01  0.10730553836E+03  0.11847578328E+03  0.00000000000E+00 0.  1.
         12    1    3    3    0    0 -0.27425172799E+02  0.19262828859E+02  0.14537961694E+03  0.14919259265E+03  0.00000000000E+00 0. -1.
        -11    1    4    4    0    0  0.11871314844E+01 -0.44061512085E+02  0.19499661526E+02  0.48198163119E+02  0.00000000000E+00 0.  1.
         11    1    4    4    0    0 -0.18046494448E+01  0.30338401957E+02 -0.14285313587E+01  0.30425582900E+02  0.00000000000E+00 0. -1.
          3    1    1    2  501    0 -0.21233127734E+02 -0.15231280614E+02  0.27489120800E+02  0.37927422597E+02  0.00000000000E+00 0. -1.
<scales pt_clust_5="13000.00000" pt_clust_6="13000.00000" pt_clust_7="13000.00000" pt_clust_8="13000.00000" pt_clust_9="26.13116"></scales>
<clustering>
<clus scale="   26.131">  2  9  1 -1</clus>
<clus scale="   75.276">  7  8 -1 -1</clus>
<clus scale="   80.503">  5  6 -1 -1</clus>
<clus scale="   81.548">  2  7  1 -1</clus>
<clus scale="   26.131">  2  5  1 -1</clus>
</clustering>
</event>
<event>
 9    2  0.7820252E-005  0.1598893E+03  0.7546771E-02  0.1207408E+00
         -1   -1    0    0    0  501 -0.00000000000E+00  0.00000000000E+00  0.27739997370E+03  0.27739997370E+03  0.00000000000E+00 0.  1.
         21   -1    0    0  501  502  0.00000000000E+00 -0.00000000000E+00 -0.22678227480E+03  0.22678227480E+03  0.00000000000E+00 0. -1.
         24    2    1    2    0    0  0.51570909269E+02  0.46983724957E+02  0.57965478682E+02  0.12137744806E+03  0.80656426188E+02 0.  0.
         23    2    1    2    0    0  0.74894033283E+02 -0.10604947632E+03 -0.12233868481E+03  0.20195941642E+03  0.94684974686E+02 0.  0.
        -11    1    3    3    0    0 -0.10513454932E+01  0.27073352270E+02 -0.13622806861E+02  0.30325774471E+02  0.00000000000E+00 0.  1.
         12    1    3    3    0    0  0.52622254762E+02  0.19910372687E+02  0.71588285543E+02  0.91051673591E+02  0.00000000000E+00 0. -1.
        -11    1    4    4    0    0  0.83897995181E+02 -0.38230480100E+02 -0.67132642223E+02  0.11404926504E+03  0.00000000000E+00 0. -1.
         11    1    4    4    0    0 -0.90039618980E+01 -0.67818996218E+02 -0.55206042590E+02  0.87910151384E+02  0.00000000000E+00 0.  1.
         -2    1    1    2    0  502 -0.12646494255E+03  0.59065751361E+02  0.11499090503E+03  0.18084538401E+03  0.00000000000E+00 0.  1.
<scales pt_clust_5="13000.00000" pt_clust_6="13000.00000" pt_clust_7="13000.00000" pt_clust_8="13000.00000" pt_clust_9="128.83855"></scales>
<clustering>
<clus scale="   80.656">  5  6 -1 -1</clus>
<clus scale="   94.685">  7  8 -1 -1</clus>
<clus scale="  106.642">  1  5  2 -1</clus>
<clus scale="  128.839">  2  9  1 -1</clus>
<clus scale="  128.839">  2  5  1 -1</clus>
</clustering>
</event>
<event>
 9    2  0.7820252E-005  0.1269378E+03  0.7546771E-02  0.1235491E+00
         21   -1    0    0  501  502  0.00000000000E+00  0.00000000000E+00  0.10504293907E+03  0.10504293907E+03  0.00000000000E+00 0.  1.
          2   -1    0    0  502    0 -0.00000000000E+00 -0.00000000000E+00 -0.32360473679E+03  0.32360473679E+03  0.00000000000E+00 0. -1.
         23    2    1    2    0    0 -0.58635031369E+02  0.16905130037E+01 -0.22503271107E+02  0.11171040276E+03  0.92368242038E+02 0.  0.
         24    2    1    2    0    0  0.11012544933E+03 -0.56661170460E+02 -0.55761268422E+02  0.15770047780E+03  0.80137499418E+02 0.  0.
        -13    1    4    4    0    0  0.84540766435E+02 -0.17779644782E+02 -0.17588450766E+01  0.86408046466E+02  0.00000000000E+00 0.  1.
         14    1    4    4    0    0  0.25584682896E+02 -0.38881525678E+02 -0.54002423346E+02  0.71292431331E+02  0.00000000000E+00 0. -1.
        -13    1    3    3    0    0 -0.33767490057E+02 -0.38816301532E+02  0.12179955174E+02  0.52870596340E+02  0.00000000000E+00 0.  1.
         13    1    3    3    0    0 -0.24867541312E+02  0.40506814535E+02 -0.34683226281E+02  0.58839806423E+02  0.00000000000E+00 0. -1.
          1    1    1    2  501    0 -0.51490417963E+02  0.54970657456E+02 -0.14029725819E+03  0.15923679530E+03  0.00000000000E+00 0. -1.
<scales pt_clust_5="13000.00000" pt_clust_6="13000.00000" pt_clust_7="13000.00000" pt_clust_8="13000.00000" pt_clust_9="75.31960"></scales>
<clustering>
<clus scale="   75.320">  1  9  2 -1</clus>
<clus scale="   80.137">  5  6 -1 -1</clus>
<clus scale="   92.368">  7  8 -1 -1</clus>
<clus scale="  118.336">  1  5  2 -1</clus>
<clus scale="   75.320">  1  5  2 -1</clus>
</clustering>
</event>
<event>
 9    2  0.1118143E-004  0.9059425E+02  0.7546771E-02  0.1307181E+00
         21   -1    0    0  501  502  0.00000000000E+00  0.00000000000E+00  0.12657744865E+03  0.12657744865E+03  0.00000000000E+00 0. -1.
          2   -1    0    0  502    0 -0.00000000000E+00 -0.00000000000E+00 -0.12828642207E+04  0.12828642207E+04  0.00000000000E+00 0. -1.
         24    2    1    2    0    0  0.13371924226E+02  0.42819057092E+01 -0.12288060823E+04  0.12315159429E+04  0.80436226527E+02 0.  0.
         23    2    1    2    0    0  0.70409087448E+01  0.39341230974E+02  0.94640350903E+01  0.98580723224E+02  0.89617432348E+02 0.  0.
        -11    1    3    3    0    0  0.45914896320E+01  0.22692296587E+02 -0.10488935735E+03  0.10741414891E+03  0.00000000000E+00 0.  1.
         12    1    3    3    0    0  0.87804345941E+01 -0.18410390877E+02 -0.11239167250E+04  0.11241017940E+04  0.00000000000E+00 0. -1.
        -11    1    4    4    0    0  0.37043292726E+02 -0.93587521171E+01  0.15144903064E+02  0.41099390092E+02  0.00000000000E+00 0. -1.
         11    1    4    4    0    0 -0.30002383981E+02  0.48699983091E+02 -0.56808679737E+01  0.57481333131E+02  0.00000000000E+00 0.  1.
          1    1    1    2  501    0 -0.20412832971E+02 -0.43623136683E+02  0.63055275205E+02  0.79345003215E+02  0.00000000000E+00 0. -1.
<scales pt_clust_5="13000.00000" pt_clust_6="13000.00000" pt_clust_7="13000.00000" pt_clust_8="13000.00000" pt_clust_9="48.16287"></scales>
<clustering>
<clus scale="   48.163">  1  9  2 -1</clus>
<clus scale="   80.436">  5  6 -1 -1</clus>
<clus scale="   81.523">  2  5  1 -1</clus>
<clus scale="   89.617">  7  8 -1 -1</clus>
<clus scale="   48.163">  1  5  2 -1</clus>
</clustering>
</event>
<event>
 9    2  0.7820252E-005  0.9533074E+02  0.7546771E-02  0.1298012E+00
         21   -1    0    0  501  502  0.00000000000E+00  0.00000000000E+00  0.84482863007E+02  0.84482863007E+02  0.00000000000E+00 0.  1.
          2   -1    0    0  502    0 -0.00000000000E+00 -0.00000000000E+00 -0.22008930061E+03  0.22008930061E+03  0.00000000000E+00 0. -1.
         24    2    1    2    0    0 -0.78893461806E+01  0.11610551385E+02 -0.12486968308E+03  0.14943214947E+03  0.80873251791E+02 0.  0.
         23    2    1    2    0    0 -0.11784524478E+02 -0.45099793679E+02  0.18855090990E+02  0.10631104880E+03  0.93667807884E+02 0.  0.
        -13    1    3    3    0    0  0.16184048026E+02 -0.13105563896E+02 -0.10020261869E+01  0.20849059259E+02  0.00000000000E+00 0.  1.
         14    1    3    3    0    0 -0.24073394206E+02  0.24716115281E+02 -0.12386765689E+03  0.12858309021E+03  0.00000000000E+00 0. -1.
        -11    1    4    4    0    0  0.76418898968E+01 -0.27242928125E+02  0.54827936209E+02  0.61698283631E+02  0.00000000000E+00 0.  1.
         11    1    4    4    0    0 -0.19426414375E+02 -0.17856865554E+02 -0.35972845220E+02  0.44612765170E+02  0.00000000000E+00 0. -1.
          1    1    1    2  501    0  0.19673870659E+02  0.33489242295E+02 -0.29591845511E+02  0.48828965347E+02  0.00000000000E+00 0. -1.
<scales pt_clust_5="13000.00000" pt_clust_6="13000.00000" pt_clust_7="13000.00000" pt_clust_8="13000.00000" pt_clust_9="38.84060"></scales>
<clustering>
<clus scale="   38.841">  1  9  2 -1</clus>
<clus scale="   80.873">  5  6 -1 -1</clus>
<clus scale="   82.794">  2  5  1 -1</clus>
<clus scale="   93.668">  7  8 -1 -1</clus>
<clus scale="   38.841">  1  5  2 -1</clus>
</clustering>
</event>
<event>
 9    2  0.7820252E-005  0.1277629E+03  0.7546771E-02  0.1240762E+00
         21   -1    0    0  501  502  0.00000000000E+00  0.00000000000E+00  0.37766232679E+02  0.37766232679E+02  0.00000000000E+00 0. -1.
          2   -1    0    0  502    0 -0.00000000000E+00 -0.00000000000E+00 -0.89408879847E+03  0.89408879847E+03  0.00000000000E+00 0. -1.
         23    2    1    2    0    0 -0.47410566142E+02  0.16192276580E+02 -0.14935057447E+03  0.18213135059E+03  0.91412707930E+02 0.  0.
         24    2    1    2    0    0 -0.79237014196E+02 -0.52343694880E+02 -0.28870919842E+03  0.31121450326E+03  0.66955948005E+02 0.  0.
        -11    1    4    4    0    0 -0.34947641902E+02 -0.45468615553E+02 -0.23172707010E+03  0.23871775739E+03  0.00000000000E+00 0.  1.
         12    1    4    4    0    0 -0.44289372294E+02 -0.68750793279E+01 -0.56982128319E+02  0.72496745870E+02  0.00000000000E+00 0. -1.
        -13    1    3    3    0    0 -0.30494723852E+02 -0.37029262834E+02 -0.60851961720E+02  0.77485842152E+02  0.00000000000E+00 0.  1.
         13    1    3    3    0    0 -0.16915842290E+02  0.53221539413E+02 -0.88498612752E+02  0.10464550844E+03  0.00000000000E+00 0. -1.
          1    1    1    2  501    0  0.12664758034E+03  0.36151418301E+02 -0.41826279290E+03  0.43850917730E+03  0.00000000000E+00 0. -1.
<scales pt_clust_5="13000.00000" pt_clust_6="13000.00000" pt_clust_7="13000.00000" pt_clust_8="13000.00000" pt_clust_9="108.81296"></scales>
<clustering>
<clus scale="   66.956">  5  6 -1 -1</clus>
<clus scale="   91.413">  7  8 -1 -1</clus>
<clus scale="  104.241">  2  7  1 -1</clus>
<clus scale="  108.813">  1  9  2 -1</clus>
<clus scale="  108.813">  1  5  2 -1</clus>
</clustering>
</event>
<event>
 9    2  0.7820252E-005  0.1455476E+03  0.7546771E-02  0.1232521E+00
         21   -1    0    0  501  502  0.00000000000E+00  0.00000000000E+00  0.17482088246E+03  0.17482088246E+03  0.00000000000E+00 0. -1.
          2   -1    0    0  502    0 -0.00000000000E+00 -0.00000000000E+00 -0.23617202519E+03  0.23617202519E+03  0.00000000000E+00 0. -1.
         24    2    1    2    0    0  0.79585470342E+01 -0.19987269946E+02 -0.24132259660E+02  0.86852766307E+02  0.80611460898E+02 0.  0.
         23    2    1    2    0    0 -0.10471666172E+03 -0.38770705035E+02 -0.11659535468E+03  0.18588220620E+03  0.92135612222E+02 0.  0.
        -11    1    3    3    0    0  0.12606873161E+02  0.16967676028E+02 -0.40874368048E+02  0.46016836527E+02  0.00000000000E+00 0.  1.
         12    1    3    3    0    0 -0.46483261271E+01 -0.36954945974E+02  0.16742108388E+02  0.40835929780E+02  0.00000000000E+00 0. -1.
        -13    1    4    4    0    0 -0.30946820648E+02 -0.14673102848E+02  0.11486120979E+02  0.36123906635E+02  0.00000000000E+00 0.  1.
         13    1    4    4    0    0 -0.73769841074E+02 -0.24097602187E+02 -0.12808147566E+03  0.14975829957E+03  0.00000000000E+00 0. -1.
          1    1    1    2  501    0  0.96758114688E+02  0.58757974981E+02  0.79376471619E+02  0.13825793514E+03  0.00000000000E+00 0. -1.
<scales pt_clust_5="13000.00000" pt_clust_6="13000.00000" pt_clust_7="13000.00000" pt_clust_8="13000.00000" pt_clust_9="112.67274"></scales>
<clustering>
<clus scale="   80.611">  5  6 -1 -1</clus>
<clus scale="   83.433">  2  5  1 -1</clus>
<clus scale="   92.136">  7  8 -1 -1</clus>
<clus scale="  112.673">  1  9  2 -1</clus>
<clus scale="  112.673">  1  5  2 -1</clus>
</clustering>
</event>
<event>
 9    2  0.7820252E-005  0.9492990E+02  0.7546771E-02  0.1296374E+00
         21   -1    0    0  501  502  0.00000000000E+00  0.00000000000E+00  0.15775737568E+03  0.15775737568E+03  0.00000000000E+00 0. -1.
          2   -1    0    0  502    0 -0.00000000000E+00 -0.00000000000E+00 -0.71471899588E+03  0.71471899588E+03  0.00000000000E+00 0. -1.
         24    2    1    2    0    0  0.97015652292E+01  0.17006639972E+02 -0.51179426231E+03  0.51869196774E+03  0.82003928532E+02 0.  0.
         23    2    1    2    0    0 -0.48062910245E+02 -0.43568457602E+02 -0.17959306394E+03  0.21149106808E+03  0.90920566565E+02 0.  0.
        -13    1    3    3    0    0 -0.13336819955E+02 -0.29360664095E+02 -0.17607456978E+03  0.17900327787E+03  0.00000000000E+00 0.  1.
         14    1    3    3    0    0  0.23038385185E+02  0.46367304068E+02 -0.33571969253E+03  0.33968868987E+03  0.00000000000E+00 0. -1.
        -11    1    4    4    0    0  0.14716088337E+02 -0.26459461797E+02 -0.11825452600E+03  0.12206883015E+03  0.00000000000E+00 0.  1.
         11    1    4    4    0    0 -0.62778998582E+02 -0.17108995805E+02 -0.61338537940E+02  0.89422237934E+02  0.00000000000E+00 0. -1.
          1    1    1    2  501    0  0.38361345016E+02  0.26561817629E+02  0.13442570605E+03  0.14229333573E+03  0.00000000000E+00 0. -1.
<scales pt_clust_5="13000.00000" pt_clust_6="13000.00000" pt_clust_7="13000.00000" pt_clust_8="13000.00000" pt_clust_9="46.65965"></scales>
<clustering>
<clus scale="   46.660">  1  9  2 -1</clus>
<clus scale="   82.004">  5  6 -1 -1</clus>
<clus scale="   86.428">  2  5  1 -1</clus>
<clus scale="   90.921">  7  8 -1 -1</clus>
<clus scale="   46.660">  1  5  2 -1</clus>
</clustering>
</event>
<event>
 9    2  0.7820252E-005  0.1447773E+03  0.7546771E-02  0.1209070E+00
          2   -1    0    0  502    0 -0.00000000000E+00  0.00000000000E+00  0.35148308428E+03  0.35148308428E+03  0.00000000000E+00 0. -1.
         21   -1    0    0  501  502  0.00000000000E+00 -0.00000000000E+00 -0.11987492182E+03  0.11987492182E+03  0.00000000000E+00 0.  1.
         24    2    1    2    0    0  0.69494258282E+02 -0.91052133389E+02  0.19638382625E+03  0.24059326832E+03  0.78731001635E+02 0.  0.
         23    2    1    2    0    0 -0.50899005361E+02  0.10175162977E+03 -0.42090241433E+02  0.15052879465E+03  0.89124781547E+02 0.  0.
        -13    1    3    3    0    0  0.28445684200E+02 -0.21746893598E+01  0.10305235277E+02  0.30332888052E+02  0.00000000000E+00 0.  1.
         14    1    3    3    0    0  0.41048574082E+02 -0.88877444029E+02  0.18607859097E+03  0.21026038027E+03  0.00000000000E+00 0. -1.
        -11    1    4    4    0    0 -0.41644696820E+02  0.18877596934E+02  0.16505127703E+02  0.48611353403E+02  0.00000000000E+00 0. -1.
         11    1    4    4    0    0 -0.92543085414E+01  0.82874032840E+02 -0.58595369135E+02  0.10191744124E+03  0.00000000000E+00 0.  1.
          1    1    1    2  501    0 -0.18595252921E+02 -0.10699496385E+02  0.77314577643E+02  0.80235943132E+02  0.00000000000E+00 0. -1.
<scales pt_clust_5="13000.00000" pt_clust_6="13000.00000" pt_clust_7="13000.00000" pt_clust_8="13000.00000" pt_clust_9="21.45374"></scales>
<clustering>
<clus scale="   21.454">  2  9  1 -1</clus>
<clus scale="   78.731">  5  6 -1 -1</clus>
<clus scale="   89.125">  7  8 -1 -1</clus>
<clus scale="  138.621">  1  5  2 -1</clus>
<clus scale="   21.454">  2  5  1 -1</clus>
</clustering>
</event>
<event>
 9    2  0.7820252E-005  0.9544446E+02  0.7546771E-02  0.1296136E+00
         21   -1    0    0  501  502  0.00000000000E+00  0.00000000000E+00  0.12240632180E+03  0.12240632180E+03  0.00000000000E+00 0. -1.
          2   -1    0    0  502    0 -0.00000000000E+00 -0.00000000000E+00 -0.52015602697E+03  0.52015602697E+03  0.00000000000E+00 0. -1.
         24    2    1    2    0    0  0.30255161337E+02 -0.61393662085E+01 -0.43872251614E+03  0.44708754861E+03  0.80353987750E+02 0.  0.
         23    2    1    2    0    0 -0.12584592843E+02  0.16077423080E+02 -0.47566541048E+02  0.10464401892E+03  0.90944704952E+02 0.  0.
        -13    1    3    3    0    0  0.78059904771E+01 -0.40923956789E+02 -0.16132340249E+03  0.16661615743E+03  0.00000000000E+00 0.  1.
         14    1    3    3    0    0  0.22449170860E+02  0.34784590581E+02 -0.27739911365E+03  0.28047139118E+03  0.00000000000E+00 0. -1.
        -11    1    4    4    0    0 -0.28924774855E+02  0.43906212763E+02 -0.73631947079E+01  0.53090627759E+02  0.00000000000E+00 0.  1.
         11    1    4    4    0    0  0.16340182012E+02 -0.27828789683E+02 -0.40203346340E+02  0.51553391162E+02  0.00000000000E+00 0. -1.
          1    1    1    2  501    0 -0.17670568494E+02 -0.99380568711E+01  0.88539352012E+02  0.90830781236E+02  0.00000000000E+00 0. -1.
<scales pt_clust_5="13000.00000" pt_clust_6="13000.00000" pt_clust_7="13000.00000" pt_clust_8="13000.00000" pt_clust_9="20.27348"></scales>
<clustering>
<clus scale="   20.273">  1  9  2 -1</clus>
<clus scale="   80.354">  5  6 -1 -1</clus>
<clus scale="   85.414">  2  5  1 -1</clus>
<clus scale="   90.945">  7  8 -1 -1</clus>
<clus scale="   20.273">  1  5  2 -1</clus>
</clustering>
</event>
<event>
 9    2  0.7820252E-005  0.1150677E+03  0.7546771E-02  0.1254943E+00
         21   -1    0    0  501  502  0.00000000000E+00  0.00000000000E+00  0.12841528142E+03  0.12841528142E+03  0.00000000000E+00 0. -1.
         -3   -1    0    0    0  501 -0.00000000000E+00 -0.00000000000E+00 -0.45488616484E+03  0.45488616484E+03  0.00000000000E+00 0.  1.
         24    2    1    2    0    0  0.47412824955E+02 -0.52676942043E+02 -0.38891037202E+03  0.40334561163E+03  0.80084759855E+02 0.  0.
         23    2    1    2    0    0 -0.65693694729E+02  0.44508877431E+02  0.61866373599E+01  0.12024577892E+03  0.90133629512E+02 0.  0.
        -11    1    3    3    0    0  0.35051020664E+02 -0.65206473149E+02 -0.37069827454E+03  0.37801808017E+03  0.00000000000E+00 0.  1.
         12    1    3    3    0    0  0.12361804291E+02  0.12529531106E+02 -0.18212097487E+02  0.25327531462E+02  0.00000000000E+00 0. -1.
        -13    1    4    4    0    0  0.13970632359E+02  0.29671079548E+02 -0.15624597963E+02  0.36327394505E+02  0.00000000000E+00 0.  1.
         13    1    4    4    0    0 -0.79664327088E+02  0.14837797883E+02  0.21811235323E+02  0.83918384414E+02  0.00000000000E+00 0. -1.
         -4    1    1    2    0  502  0.18280869773E+02  0.81680646121E+01  0.56252851246E+02  0.59710055706E+02  0.00000000000E+00 0.  1.
<scales pt_clust_5="13000.00000" pt_clust_6="13000.00000" pt_clust_7="13000.00000" pt_clust_8="13000.00000" pt_clust_9="20.02267"></scales>
<clustering>
<clus scale="   20.023">  1  9  2 -1</clus>
<clus scale="   80.085">  5  6 -1 -1</clus>
<clus scale="   90.134">  7  8 -1 -1</clus>
<clus scale="  107.378">  2  5  1 -1</clus>
<clus scale="   20.023">  1  5  2 -1</clus>
</clustering>
</event>
<event>
 9    2  0.7820252E-005  0.1900727E+03  0.7546771E-02  0.1160267E+00
         -3   -1    0    0    0  501 -0.00000000000E+00  0.00000000000E+00  0.28839795074E+03  0.28839795074E+03  0.00000000000E+00 0.  1.
         21   -1    0    0  501  502  0.00000000000E+00 -0.00000000000E+00 -0.26249071277E+03  0.26249071277E+03  0.00000000000E+00 0. -1.
         24    2    1    2    0    0  0.79562973815E+02 -0.15586490061E+03 -0.34246197737E+02  0.19488092013E+03  0.78623386630E+02 0.  0.
         23    2    1    2    0    0  0.12260915379E+02  0.16450861475E+03 -0.64069876415E+02  0.20128938088E+03  0.95911685521E+02 0.  0.
        -11    1    3    3    0    0  0.53200666396E+02 -0.25833002730E+02 -0.12153023381E+02  0.60376741485E+02  0.00000000000E+00 0.  1.
         12    1    3    3    0    0  0.26362307419E+02 -0.13003189788E+03 -0.22093174355E+02  0.13450417864E+03  0.00000000000E+00 0. -1.
        -11    1    4    4    0    0 -0.35203298213E+02  0.29030241612E+02 -0.44392013635E+01  0.45844668631E+02  0.00000000000E+00 0.  1.
         11    1    4    4    0    0  0.47464213592E+02  0.13547837314E+03 -0.59630675051E+02  0.15544471225E+03  0.00000000000E+00 0. -1.
         -4    1    1    2    0  502 -0.91823889194E+02 -0.86437141404E+01  0.12422331212E+03  0.15471836250E+03  0.00000000000E+00 0.  1.
<scales pt_clust_5="13000.00000" pt_clust_6="13000.00000" pt_clust_7="13000.00000" pt_clust_8="13000.00000" pt_clust_9="92.22987"></scales>
<clustering>
<clus scale="   78.623">  5  6 -1 -1</clus>
<clus scale="   92.230">  2  9  1 -1</clus>
<clus scale="   95.912">  7  8 -1 -1</clus>
<clus scale="  181.962">  1  5  2 -1</clus>
<clus scale="   92.230">  2  5  1 -1</clus>
</clustering>
</event>
<event>
 9    2  0.7820252E-005  0.9631330E+02  0.7546771E-02  0.1298223E+00
          2   -1    0    0  502    0 -0.00000000000E+00  0.00000000000E+00  0.31528321676E+03  0.31528321676E+03  0.00000000000E+00 0. -1.
         21   -1    0    0  501  502  0.00000000000E+00 -0.00000000000E+00 -0.16843951541E+03  0.16843951541E+03  0.00000000000E+00 0. -1.
         24    2    1    2    0    0  0.32213568964E+02  0.10662247150E+02  0.21293433899E+03  0.22868210421E+03  0.76177913628E+02 0.  0.
         23    2    1    2    0    0  0.62286962087E+01  0.42624775931E+02  0.55595178269E+02  0.11674835641E+03  0.93186301018E+02 0.  0.
        -11    1    3    3    0    0  0.33126223567E+02  0.22735576903E+02  0.45057179087E+02  0.60368887121E+02  0.00000000000E+00 0.  1.
         12    1    3    3    0    0 -0.91265460211E+00 -0.12073329753E+02  0.16787715990E+03  0.16831321708E+03  0.00000000000E+00 0. -1.
        -13    1    4    4    0    0 -0.26710948129E+02  0.58861883117E+02  0.44165863326E+02  0.78286777411E+02  0.00000000000E+00 0.  1.
         13    1    4    4    0    0  0.32939644338E+02 -0.16237107186E+02  0.11429314943E+02  0.38461578997E+02  0.00000000000E+00 0. -1.
          1    1    1    2  501    0 -0.38442265173E+02 -0.53287023081E+02 -0.12168581591E+03  0.13829227156E+03  0.00000000000E+00 0. -1.
<scales pt_clust_5="13000.00000" pt_clust_6="13000.00000" pt_clust_7="13000.00000" pt_clust_8="13000.00000" pt_clust_9="65.70628"></scales>
<clustering>
<clus scale="   65.706">  2  9  1 -1</clus>
<clus scale="   76.178">  5  6 -1 -1</clus>
<clus scale="   79.973">  1  5  2 -1</clus>
<clus scale="   93.186">  7  8 -1 -1</clus>
<clus scale="   65.706">  2  5  1 -1</clus>
</clustering>
</event>
<event>
 9    2  0.7820252E-005  0.9568594E+02  0.7546771E-02  0.1297451E+00
         21   -1    0    0  501  502  0.00000000000E+00  0.00000000000E+00  0.79700772027E+02  0.79700772027E+02  0.00000000000E+00 0. -1.
          2   -1    0    0  502    0 -0.00000000000E+00 -0.00000000000E+00 -0.28698493597E+03  0.28698493597E+03  0.00000000000E+00 0. -1.
         23    2    1    2    0    0 -0.31206702763E+02  0.50298411861E+01 -0.16529629219E+03  0.19150971196E+03  0.91399934139E+02 0.  0.
         24    2    1    2    0    0  0.58975241643E+01 -0.28101490826E+02  0.35735314355E+02  0.90242203022E+02  0.77731383214E+02 0.  0.
        -13    1    4    4    0    0 -0.53512469235E+01  0.24507949116E+02  0.24935629715E+02  0.35370341287E+02  0.00000000000E+00 0.  1.
         14    1    4    4    0    0  0.11248771088E+02 -0.52609439941E+02  0.10799684640E+02  0.54871861735E+02  0.00000000000E+00 0. -1.
        -11    1    3    3    0    0  0.22139950450E+02 -0.10073528221E+02 -0.94503151270E+01  0.26095245405E+02  0.00000000000E+00 0. -1.
         11    1    3    3    0    0 -0.53346653213E+02  0.15103369407E+02 -0.15584597707E+03  0.16541446655E+03  0.00000000000E+00 0.  1.
          1    1    1    2  501    0  0.25309178598E+02  0.23071649640E+02 -0.77723186104E+02  0.84933793019E+02  0.00000000000E+00 0. -1.
<scales pt_clust_5="13000.00000" pt_clust_6="13000.00000" pt_clust_7="13000.00000" pt_clust_8="13000.00000" pt_clust_9="34.24700"></scales>
<clustering>
<clus scale="   34.247">  1  9  2 -1</clus>
<clus scale="   77.731">  5  6 -1 -1</clus>
<clus scale="   82.729">  1  5  2 -1</clus>
<clus scale="   91.400">  7  8 -1 -1</clus>
<clus scale="   34.247">  1  5  2 -1</clus>
</clustering>
</event>
<event>
 9    2  0.7820252E-005  0.1101675E+03  0.7546771E-02  0.1263377E+00
          2   -1    0    0  502    0 -0.00000000000E+00  0.00000000000E+00  0.33327022362E+03  0.33327022362E+03  0.00000000000E+00 0. -1.
         21   -1    0    0  501  502  0.00000000000E+00 -0.00000000000E+00 -0.69863287972E+02  0.69863287972E+02  0.00000000000E+00 0. -1.
         23    2    1    2    0    0 -0.15246156021E+02  0.39323399908E+02  0.10854267728E+03  0.14667672541E+03  0.89183933141E+02 0.  0.
         24    2    1    2    0    0  0.79087212018E+02 -0.63486450266E+02  0.13031254405E+03  0.18391493544E+03  0.80981651447E+02 0.  0.
        -13    1    4    4    0    0  0.30894258053E+02  0.75307907754E+01  0.52406854759E+01  0.32227826092E+02  0.00000000000E+00 0.  1.
         14    1    4    4    0    0  0.48192953965E+02 -0.71017241042E+02  0.12507185857E+03  0.15168710935E+03  0.00000000000E+00 0. -1.
        -11    1    3    3    0    0  0.10120875808E+00 -0.21149142542E+02  0.70498595126E+02  0.73602638459E+02  0.00000000000E+00 0.  1.
         11    1    3    3    0    0 -0.15347364779E+02  0.60472542449E+02  0.38044082155E+02  0.73074086946E+02  0.00000000000E+00 0. -1.
          1    1    1    2  501    0 -0.63841055997E+02  0.24163050358E+02  0.24551714324E+02  0.72541850746E+02  0.00000000000E+00 0. -1.
<scales pt_clust_5="13000.00000" pt_clust_6="13000.00000" pt_clust_7="13000.00000" pt_clust_8="13000.00000" pt_clust_9="68.26078"></scales>
<clustering>
<clus scale="   68.261">  2  9  1 -1</clus>
<clus scale="   80.982">  5  6 -1 -1</clus>
<clus scale="   89.184">  7  8 -1 -1</clus>
<clus scale="  103.639">  2  5  1 -1</clus>
<clus scale="   68.261">  2  5  1 -1</clus>
</clustering>
</event>
<event>
 9    2  0.7820252E-005  0.1145787E+03  0.7546771E-02  0.1255348E+00
          2   -1    0    0  502    0 -0.00000000000E+00  0.00000000000E+00  0.41628644425E+03  0.41628644425E+03  0.00000000000E+00 0. -1.
         21   -1    0    0  501  502  0.00000000000E+00 -0.00000000000E+00 -0.27073179388E+03  0.27073179388E+03  0.00000000000E+00 0. -1.
         24    2    1    2    0    0  0.19840780692E+02  0.47909643518E+02  0.16447996126E+03  0.19875473406E+03  0.98796741520E+02 0.  0.
         23    2    1    2    0    0 -0.10442094196E+03 -0.11125439226E+03 -0.20685682995E+03  0.27266058960E+03  0.90954802542E+02 0.  0.
        -11    1    3    3    0    0  0.47073505092E+02 -0.62186204024E+01  0.97415865090E+02  0.10837175320E+03  0.00000000000E+00 0.  1.
         12    1    3    3    0    0 -0.27232724400E+02  0.54128263920E+02  0.67064096165E+02  0.90382980852E+02  0.00000000000E+00 0. -1.
        -13    1    4    4    0    0 -0.63390906453E+02 -0.12604031554E+02 -0.11427482056E+03  0.13128595982E+03  0.00000000000E+00 0.  1.
         13    1    4    4    0    0 -0.41030035512E+02 -0.98650360707E+02 -0.92582009385E+02  0.14137462977E+03  0.00000000000E+00 0. -1.
          1    1    1    2  501    0  0.84580161273E+02  0.63344748743E+02  0.18793151907E+03  0.21560291448E+03  0.00000000000E+00 0. -1.
<scales pt_clust_5="13000.00000" pt_clust_6="13000.00000" pt_clust_7="13000.00000" pt_clust_8="13000.00000" pt_clust_9="105.67106"></scales>
<clustering>
<clus scale="   90.955">  7  8 -1 -1</clus>
<clus scale="   98.797">  5  6 -1 -1</clus>
<clus scale="  105.671">  2  9  1 -1</clus>
<clus scale="  107.890">  2  7  1 -1</clus>
<clus scale="  105.671">  2  5  1 -1</clus>
</clustering>
</event>
<event>
 9    2  0.7820252E-005  0.2348921E+03  0.7546771E-02  0.1141654E+00
         21   -1    0    0  501  502  0.00000000000E+00  0.00000000000E+00  0.36881597909E+03  0.36881597909E+03  0.00000000000E+00 0. -1.
          2   -1    0    0  502    0 -0.00000000000E+00 -0.00000000000E+00 -0.83422565936E+03  0.83422565936E+03  0.00000000000E+00 0. -1.
         24    2    1    2    0    0  0.92015249069E+01 -0.12559726118E+03 -0.46798088152E+03  0.49135508993E+03  0.81020854443E+02 0.  0.
         23    2    1    2    0    0 -0.22200747462E+03  0.14944236229E+03 -0.25246097290E+03  0.37867548124E+03  0.89656225781E+02 0.  0.
        -13    1    3    3    0    0  0.27736583833E+02 -0.28906608129E+02 -0.63627308922E+02  0.75188725995E+02  0.00000000000E+00 0.  1.
         14    1    3    3    0    0 -0.18535058926E+02 -0.96690653054E+02 -0.40435357260E+03  0.41616636394E+03  0.00000000000E+00 0. -1.
        -11    1    4    4    0    0 -0.17189244190E+03  0.87269416723E+02 -0.21989988754E+03  0.29243618657E+03  0.00000000000E+00 0. -1.
         11    1    4    4    0    0 -0.50115032726E+02  0.62172945565E+02 -0.32561085360E+02  0.86239294670E+02  0.00000000000E+00 0.  1.
          1    1    1    2  501    0  0.21280594972E+03 -0.23845101105E+02  0.25503217415E+03  0.33301106728E+03  0.00000000000E+00 0. -1.
<scales pt_clust_5="13000.00000" pt_clust_6="13000.00000" pt_clust_7="13000.00000" pt_clust_8="13000.00000" pt_clust_9="217.10844"></scales>
<clustering>
<clus scale="   81.021">  5  6 -1 -1</clus>
<clus scale="   89.656">  7  8 -1 -1</clus>
<clus scale="  149.746">  2  5  1 -1</clus>
<clus scale="  217.108">  1  9  2 -1</clus>
<clus scale="  217.108">  1  5  2 -1</clus>
</clustering>
</event>
<event>
 9    2  0.7820252E-005  0.2503380E+03  0.7546771E-02  0.1138308E+00
         21   -1    0    0  501  502  0.00000000000E+00  0.00000000000E+00  0.10246233508E+04  0.10246233508E+04  0.00000000000E+00 0.  1.
         -3   -1    0    0    0  501 -0.00000000000E+00 -0.00000000000E+00 -0.10709824337E+03  0.10709824337E+03  0.00000000000E+00 0.  1.
         24    2    1    2    0    0 -0.10324203561E+03  0.27118560646E+02  0.35525740306E+03  0.37972438990E+03  0.81169302125E+02 0.  0.
         23    2    1    2    0    0 -0.14125757073E+03 -0.15060587970E+03  0.25277792784E+03  0.33870179267E+03  0.90478678502E+02 0.  0.
        -13    1    3    3    0    0 -0.79600840819E+02  0.30448034353E+02  0.14557705924E+03  0.16868923153E+03  0.00000000000E+00 0.  1.
         14    1    3    3    0    0 -0.23641194787E+02 -0.33294737070E+01  0.20968034382E+03  0.21103515837E+03  0.00000000000E+00 0. -1.
        -13    1    4    4    0    0 -0.73539368912E+02 -0.49715442180E+02  0.16967422874E+03  0.19149153472E+03  0.00000000000E+00 0. -1.
         13    1    4    4    0    0 -0.67718201816E+02 -0.10089043752E+03  0.83103699104E+02  0.14721025795E+03  0.00000000000E+00 0.  1.
         -4    1    1    2    0  502  0.24449960634E+03  0.12348731906E+03  0.30948977649E+03  0.41329541156E+03  0.00000000000E+00 0.  1.
<scales pt_clust_5="13000.00000" pt_clust_6="13000.00000" pt_clust_7="13000.00000" pt_clust_8="13000.00000" pt_clust_9="233.41543"></scales>
<clustering>
<clus scale="   81.169">  5  6 -1 -1</clus>
<clus scale="   90.479">  7  8 -1 -1</clus>
<clus scale="  134.100">  2  5  1 -1</clus>
<clus scale="  233.415">  1  9  2 -1</clus>
<clus scale="  233.415">  1  5  2 -1</clus>
</clustering>
</event>
<event>
 9    2  0.7820252E-005  0.2597385E+03  0.7546771E-02  0.1107689E+00
          2   -1    0    0  502    0 -0.00000000000E+00  0.00000000000E+00  0.25981497973E+03  0.25981497973E+03  0.00000000000E+00 0. -1.
         21   -1    0    0  501  502  0.00000000000E+00 -0.00000000000E+00 -0.65702242344E+03  0.65702242344E+03  0.00000000000E+00 0. -1.
         24    2    1    2    0    0  0.24655304673E+03 -0.30934193970E+02  0.14496894193E+03  0.29875213346E+03  0.80569931800E+02 0.  0.
         23    2    1    2    0    0 -0.21811135536E+03 -0.12184450655E+02 -0.49451486738E+03  0.54780178912E+03  0.88435411052E+02 0.  0.
        -13    1    3    3    0    0  0.11948054597E+03 -0.52833454563E+02  0.56263092616E+02  0.14224102916E+03  0.00000000000E+00 0.  1.
         14    1    3    3    0    0  0.12707250076E+03  0.21899260593E+02  0.88705849318E+02  0.15651110429E+03  0.00000000000E+00 0. -1.
        -11    1    4    4    0    0 -0.72252341425E+02  0.24905076836E+02 -0.24261135235E+03  0.25436377884E+03  0.00000000000E+00 0.  1.
         11    1    4    4    0    0 -0.14585901393E+03 -0.37089527492E+02 -0.25190351503E+03  0.29343801028E+03  0.00000000000E+00 0. -1.
          1    1    1    2  501    0 -0.28441691371E+02  0.43118644626E+02 -0.47661518260E+02  0.70283480600E+02  0.00000000000E+00 0. -1.
<scales pt_clust_5="13000.00000" pt_clust_6="13000.00000" pt_clust_7="13000.00000" pt_clust_8="13000.00000" pt_clust_9="51.65411"></scales>
<clustering>
<clus scale="   51.654">  2  9  1 -1</clus>
<clus scale="   80.570">  5  6 -1 -1</clus>
<clus scale="   88.435">  7  8 -1 -1</clus>
<clus scale="  257.167">  1  5  2 -1</clus>
<clus scale="   51.654">  2  5  1 -1</clus>
</clustering>
</event>
<event>
 9    2  0.7820252E-005  0.9042036E+02  0.7546771E-02  0.1306783E+00
         -1   -1    0    0    0  501 -0.00000000000E+00  0.00000000000E+00  0.41913520845E+03  0.41913520845E+03  0.00000000000E+00 0.  1.
         21   -1    0    0  501  502  0.00000000000E+00 -0.00000000000E+00 -0.25647985029E+02  0.25647985029E+02  0.00000000000E+00 0.  1.
         23    2    1    2    0    0  0.66702426435E+01  0.25477897779E+02  0.21614146034E+03  0.23538514137E+03  0.89417104008E+02 0.  0.
         24    2    1    2    0    0  0.45440060287E+01 -0.16788115188E+00  0.14828164511E+03  0.16925980017E+03  0.81490843060E+02 0.  0.
        -13    1    4    4    0    0  0.17633180188E+02  0.34469676588E+02  0.44053972481E+02  0.58650150375E+02  0.00000000000E+00 0.  1.
         14    1    4    4    0    0 -0.13089174159E+02 -0.34637557740E+02  0.10422767263E+03  0.11060964980E+03  0.00000000000E+00 0. -1.
        -11    1    3    3    0    0  0.43707848146E+02  0.61863621575E+01  0.15629162982E+03  0.16240603627E+03  0.00000000000E+00 0.  1.
         11    1    3    3    0    0 -0.37037605502E+02  0.19291535621E+02  0.59849830523E+02  0.72979105103E+02  0.00000000000E+00 0. -1.
         -2    1    1    2    0  502 -0.11214248672E+02 -0.25310016627E+02  0.29064117973E+02  0.40138251936E+02  0.00000000000E+00 0.  1.
<scales pt_clust_5="13000.00000" pt_clust_6="13000.00000" pt_clust_7="13000.00000" pt_clust_8="13000.00000" pt_clust_9="27.68314"></scales>
<clustering>
<clus scale="   27.683">  2  9  1 -1</clus>
<clus scale="   81.491">  5  6 -1 -1</clus>
<clus scale="   82.590">  2  5  1 -1</clus>
<clus scale="   89.417">  7  8 -1 -1</clus>
<clus scale="   27.683">  2  5  1 -1</clus>
</clustering>
</event>
<event>
 9    2  0.7820252E-005  0.9566767E+02  0.7546771E-02  0.1296319E+00
         -3   -1    0    0    0  501 -0.00000000000E+00  0.00000000000E+00  0.45886874159E+03  0.45886874159E+03  0.00000000000E+00 0.  1.
         21   -1    0    0  501  502  0.00000000000E+00 -0.00000000000E+00 -0.67130925274E+02  0.67130925274E+02  0.00000000000E+00 0. -1.
         24    2    1    2    0    0 -0.13269890065E+02  0.18864932227E+02  0.35118578317E+03  0.36100121909E+03  0.80364483657E+02 0.  0.
         23    2    1    2    0    0  0.12533005297E+01 -0.64375318232E+02  0.22174291410E+02  0.11446791196E+03  0.92007887213E+02 0.  0.
        -13    1    3    3    0    0 -0.10575730809E+01  0.49893650684E+02  0.19385677005E+03  0.20017727677E+03  0.00000000000E+00 0.  1.
         14    1    3    3    0    0 -0.12212316984E+02 -0.31028718457E+02  0.15732901312E+03  0.16082394232E+03  0.00000000000E+00 0. -1.
        -11    1    4    4    0    0  0.41649148554E+02 -0.57305569147E+02  0.90977520071E+01  0.71423728004E+02  0.00000000000E+00 0. -1.
         11    1    4    4    0    0 -0.40395848024E+02 -0.70697490851E+01  0.13076539403E+02  0.43044183956E+02  0.00000000000E+00 0.  1.
         -4    1    1    2    0  502  0.12016589535E+02  0.45510386004E+02  0.18377741738E+02  0.50530535815E+02  0.00000000000E+00 0.  1.
<scales pt_clust_5="13000.00000" pt_clust_6="13000.00000" pt_clust_7="13000.00000" pt_clust_8="13000.00000" pt_clust_9="47.07009"></scales>
<clustering>
<clus scale="   47.070">  2  9  1 -1</clus>
<clus scale="   80.364">  5  6 -1 -1</clus>
<clus scale="   84.530">  1  5  2 -1</clus>
<clus scale="   92.008">  7  8 -1 -1</clus>
<clus scale="   47.070">  2  5  1 -1</clus>
</clustering>
</event>
<event>
 9    2  0.1352962E-004  0.9761403E+02  0.7546771E-02  0.1291104E+00
          2   -1    0    0  502    0 -0.00000000000E+00  0.00000000000E+00  0.35204705767E+03  0.35204705767E+03  0.00000000000E+00 0. -1.
         21   -1    0    0  501  502  0.00000000000E+00 -0.00000000000E+00 -0.25549466842E+03  0.25549466842E+03  0.00000000000E+00 0.  1.
         23    2    1    2    0    0 -0.37926776862E+02  0.43986364853E+01  0.27276408268E+03  0.29004024384E+03  0.90913749464E+02 0.  0.
         24    2    1    2    0    0 -0.36334468132E+02 -0.28415503383E+02 -0.21225721210E+03  0.23153159323E+03  0.80163084822E+02 0.  0.
        -13    1    4    4    0    0 -0.57180438384E+02 -0.10954407802E+02 -0.18083890903E+03  0.18997976893E+03  0.00000000000E+00 0.  1.
         14    1    4    4    0    0  0.20845970252E+02 -0.17461095581E+02 -0.31418303064E+02  0.41551824293E+02  0.00000000000E+00 0. -1.
        -11    1    3    3    0    0 -0.62219265978E+02  0.49166106839E+01  0.24642216529E+03  0.25420325267E+03  0.00000000000E+00 0.  1.
         11    1    3    3    0    0  0.24292489116E+02 -0.51797419864E+00  0.26341917384E+02  0.35836991170E+02  0.00000000000E+00 0. -1.
          1    1    1    2  501    0  0.74261244993E+02  0.24016866898E+02  0.36045518661E+02  0.85969889026E+02  0.00000000000E+00 0. -1.
<scales pt_clust_5="13000.00000" pt_clust_6="13000.00000" pt_clust_7="13000.00000" pt_clust_8="13000.00000" pt_clust_9="78.04837"></scales>
<clustering>
<clus scale="   78.048">  2  9  1 -1</clus>
<clus scale="   80.163">  5  6 -1 -1</clus>
<clus scale="   87.689">  2  5  1 -1</clus>
<clus scale="   90.914">  7  8 -1 -1</clus>
<clus scale="   78.048">  2  5  1 -1</clus>
</clustering>
</event>
<event>
 9    2  0.1111315E-004  0.9111808E+02  0.7546771E-02  0.1305238E+00
         21   -1    0    0  501  502  0.00000000000E+00  0.00000000000E+00  0.15550403641E+03  0.15550403641E+03  0.00000000000E+00 0. -1.
          4   -1    0    0  502    0 -0.00000000000E+00 -0.00000000000E+00 -0.34908942552E+03  0.34908942552E+03  0.00000000000E+00 0. -1.
         24    2    1    2    0    0  0.28816210970E+02 -0.11008468624E+02 -0.28374403088E+03  0.29628317977E+03  0.79507780496E+02 0.  0.
         23    2    1    2    0    0  0.40677795912E+02  0.11267158961E+02  0.40023240701E+01  0.97619745113E+02  0.87931587536E+02 0.  0.
        -11    1    3    3    0    0 -0.16396868517E+02 -0.28228510927E+02 -0.71581123708E+02  0.78673778336E+02  0.00000000000E+00 0.  1.
         12    1    3    3    0    0  0.45213079487E+02  0.17220042303E+02 -0.21216290717E+03  0.21760940144E+03  0.00000000000E+00 0. -1.
        -13    1    4    4    0    0 -0.24606872627E+02 -0.56389935820E+01  0.14889246950E+02  0.29308464713E+02  0.00000000000E+00 0.  1.
         13    1    4    4    0    0  0.65284668539E+02  0.16906152543E+02 -0.10886922880E+02  0.68311280400E+02  0.00000000000E+00 0. -1.
          3    1    1    2  501    0 -0.69494006882E+02 -0.25869033734E+00  0.86156317701E+02  0.11069053705E+03  0.00000000000E+00 0. -1.
<scales pt_clust_5="13000.00000" pt_clust_6="13000.00000" pt_clust_7="13000.00000" pt_clust_8="13000.00000" pt_clust_9="69.49449"></scales>
<clustering>
<clus scale="   69.494">  1  9  2 -1</clus>
<clus scale="   79.508">  5  6 -1 -1</clus>
<clus scale="   83.018">  2  5  1 -1</clus>
<clus scale="   87.932">  7  8 -1 -1</clus>
<clus scale="   69.494">  1  5  2 -1</clus>
</clustering>
</event>
<event>
 9    2  0.7820252E-005  0.1189785E+03  0.7546771E-02  0.1248629E+00
         21   -1    0    0  501  502  0.00000000000E+00  0.00000000000E+00  0.12387352288E+03  0.12387352288E+03  0.00000000000E+00 0.  1.
          2   -1    0    0  502    0 -0.00000000000E+00 -0.00000000000E+00 -0.40259083664E+03  0.40259083664E+03  0.00000000000E+00 0. -1.
         24    2    1    2    0    0  0.35696092208E+02 -0.69662168222E+02 -0.30231241153E+03  0.32214556861E+03  0.79107171171E+02 0.  0.
         23    2    1    2    0    0 -0.76934568634E+02  0.26722978426E+02  0.58389767204E+02  0.13536188423E+03  0.90996864568E+02 0.  0.
        -13    1    3    3    0    0  0.21118564646E+02  0.14006175374E+02 -0.89320045287E+02  0.92845232572E+02  0.00000000000E+00 0.  1.
         14    1    3    3    0    0  0.14577527561E+02 -0.83668343596E+02 -0.21299236624E+03  0.22930033604E+03  0.00000000000E+00 0. -1.
        -11    1    4    4    0    0 -0.54120468388E+02 -0.29302648839E+02  0.26934934067E+02  0.67180064012E+02  0.00000000000E+00 0.  1.
         11    1    4    4    0    0 -0.22814100246E+02  0.56025627265E+02  0.31454833137E+02  0.68181820217E+02  0.00000000000E+00 0. -1.
          1    1    1    2  501    0  0.41238476427E+02  0.42939189797E+02 -0.34794669438E+02  0.68956906686E+02  0.00000000000E+00 0. -1.
<scales pt_clust_5="13000.00000" pt_clust_6="13000.00000" pt_clust_7="13000.00000" pt_clust_8="13000.00000" pt_clust_9="59.53475"></scales>
<clustering>
<clus scale="   59.535">  1  9  2 -1</clus>
<clus scale="   79.107">  5  6 -1 -1</clus>
<clus scale="   90.997">  7  8 -1 -1</clus>
<clus scale="  110.152">  2  5  1 -1</clus>
<clus scale="   59.535">  1  5  2 -1</clus>
</clustering>
</event>
<event>
 9    2  0.7820252E-005  0.1344704E+03  0.7546771E-02  0.1243365E+00
          2   -1    0    0  502    0 -0.00000000000E+00  0.00000000000E+00  0.66217604940E+03  0.66217604940E+03  0.00000000000E+00 0. -1.
         21   -1    0    0  501  502  0.00000000000E+00 -0.00000000000E+00 -0.59534763177E+02  0.59534763177E+02  0.00000000000E+00 0. -1.
         24    2    1    2    0    0 -0.81607201259E+01 -0.25216974017E+02  0.43100676152E+03  0.43927344764E+03  0.80571956610E+02 0.  0.
         23    2    1    2    0    0  0.89884932218E+02 -0.72782981341E+01  0.11189690089E+03  0.17612004155E+03  0.10180902682E+03 0.  0.
        -11    1    3    3    0    0 -0.85596513307E+01  0.26902363606E+02  0.90511299268E+02  0.94811919576E+02  0.00000000000E+00 0.  1.
         12    1    3    3    0    0  0.39893120475E+00 -0.52119337623E+02  0.34049546225E+03  0.34446152806E+03  0.00000000000E+00 0. -1.
        -11    1    4    4    0    0  0.10992101179E+03 -0.12566390142E+02  0.74552126457E+02  0.13341125347E+03  0.00000000000E+00 0. -1.
         11    1    4    4    0    0 -0.20036079570E+02  0.52880920076E+01  0.37344774433E+02  0.42708788077E+02  0.00000000000E+00 0.  1.
          1    1    1    2  501    0 -0.81724212092E+02  0.32495272151E+02  0.59737623813E+02  0.10631732339E+03  0.00000000000E+00 0. -1.
<scales pt_clust_5="13000.00000" pt_clust_6="13000.00000" pt_clust_7="13000.00000" pt_clust_8="13000.00000" pt_clust_9="87.84758"></scales>
<clustering>
<clus scale="   80.572">  5  6 -1 -1</clus>
<clus scale="   84.819">  1  5  2 -1</clus>
<clus scale="   87.848">  2  9  1 -1</clus>
<clus scale="  101.809">  7  8 -1 -1</clus>
<clus scale="   87.848">  2  5  1 -1</clus>
</clustering>
</event>
<event>
 9    2  0.7820252E-005  0.9990579E+02  0.7546771E-02  0.1285733E+00
          2   -1    0    0  502    0 -0.00000000000E+00  0.00000000000E+00  0.49017333648E+03  0.49017333648E+03  0.00000000000E+00 0. -1.
         21   -1    0    0  501  502  0.00000000000E+00 -0.00000000000E+00 -0.10838919223E+03  0.10838919223E+03  0.00000000000E+00 0. -1.
         23    2    1    2    0    0 -0.27450270454E+02  0.33673075690E+02  0.31216235423E+03  0.32833758086E+03  0.92048021339E+02 0.  0.
         24    2    1    2    0    0 -0.31317959345E+02 -0.60637964672E+01 -0.72612307926E+02  0.11387113193E+03  0.81709872227E+02 0.  0.
        -11    1    4    4    0    0 -0.22917526121E+01  0.35285697872E+02 -0.18750095583E+02  0.40023726573E+02  0.00000000000E+00 0.  1.
         12    1    4    4    0    0 -0.29026206733E+02 -0.41349494339E+02 -0.53862212342E+02  0.73847405356E+02  0.00000000000E+00 0. -1.
        -13    1    3    3    0    0 -0.29461898721E+02 -0.27532366940E+02  0.11346028801E+03  0.12041292149E+03  0.00000000000E+00 0. -1.
         13    1    3    3    0    0  0.20116282670E+01  0.61205442630E+02  0.19870206622E+03  0.20792465937E+03  0.00000000000E+00 0.  1.
          1    1    1    2  501    0  0.58768229799E+02 -0.27609279223E+02  0.14223409794E+03  0.15635381591E+03  0.00000000000E+00 0. -1.
<scales pt_clust_5="13000.00000" pt_clust_6="13000.00000" pt_clust_7="13000.00000" pt_clust_8="13000.00000" pt_clust_9="64.93059"></scales>
<clustering>
<clus scale="   64.931">  2  9  1 -1</clus>
<clus scale="   81.710">  5  6 -1 -1</clus>
<clus scale="   90.470">  2  5  1 -1</clus>
<clus scale="   92.048">  7  8 -1 -1</clus>
<clus scale="   64.931">  2  5  1 -1</clus>
</clustering>
</event>
<event>
 9    2  0.7820252E-005  0.9131513E+02  0.7546771E-02  0.1307203E+00
          4   -1    0    0  502    0 -0.00000000000E+00  0.00000000000E+00  0.59455815307E+02  0.59455815307E+02  0.00000000000E+00 0. -1.
         21   -1    0    0  501  502  0.00000000000E+00 -0.00000000000E+00 -0.25794109731E+03  0.25794109731E+03  0.00000000000E+00 0. -1.
         23    2    1    2    0    0 -0.63170903699E+01  0.13589916896E+02 -0.12464950453E+02  0.93061281432E+02  0.90996899068E+02 0.  0.
         24    2    1    2    0    0  0.87308048775E+01  0.18086443459E+02 -0.82781903723E+02  0.11631993416E+03  0.79209450881E+02 0.  0.
        -13    1    4    4    0    0 -0.35314173280E+02  0.48939754964E+01 -0.33520704358E+02  0.48935462104E+02  0.00000000000E+00 0.  1.
         14    1    4    4    0    0  0.44044978158E+02  0.13192467962E+02 -0.49261199365E+02  0.67384472060E+02  0.00000000000E+00 0. -1.
        -11    1    3    3    0    0  0.37899634243E+02  0.25355112472E+02 -0.12593019308E+02  0.47305899628E+02  0.00000000000E+00 0. -1.
         11    1    3    3    0    0 -0.44216724613E+02 -0.11765195576E+02  0.12806885539E+00  0.45755381805E+02  0.00000000000E+00 0.  1.
          3    1    1    2  501    0 -0.24137145076E+01 -0.31676360354E+02 -0.10323842783E+03  0.10801569703E+03  0.00000000000E+00 0. -1.
<scales pt_clust_5="13000.00000" pt_clust_6="13000.00000" pt_clust_7="13000.00000" pt_clust_8="13000.00000" pt_clust_9="31.76819"></scales>
<clustering>
<clus scale="   31.768">  2  9  1 -1</clus>
<clus scale="   79.209">  5  6 -1 -1</clus>
<clus scale="   79.575">  2  5  1 -1</clus>
<clus scale="   90.997">  7  8 -1 -1</clus>
<clus scale="   31.768">  2  5  1 -1</clus>
</clustering>
</event>
<event>
 9    2  0.7820252E-005  0.5484063E+03  0.7546771E-02  0.1049656E+00
          2   -1    0    0  502    0 -0.00000000000E+00  0.00000000000E+00  0.65320437344E+03  0.65320437344E+03  0.00000000000E+00 0. -1.
         21   -1    0    0  501  502  0.00000000000E+00 -0.00000000000E+00 -0.78578603246E+03  0.78578603246E+03  0.00000000000E+00 0. -1.
         23    2    1    2    0    0  0.62088251662E+02  0.70783721491E+02 -0.25836479742E+03  0.28972951549E+03  0.91244382734E+02 0.  0.
         24    2    1    2    0    0  0.28925703599E+03  0.38540457614E+03  0.26653921331E+03  0.55650162504E+03  0.80278180477E+02 0.  0.
        -13    1    4    4    0    0  0.21304189699E+02  0.21737740248E+02 -0.28206258852E+01  0.30567201053E+02  0.00000000000E+00 0.  1.
         14    1    4    4    0    0  0.26795284629E+03  0.36366683589E+03  0.26935983920E+03  0.52593442399E+03  0.00000000000E+00 0. -1.
        -13    1    3    3    0    0 -0.15216210927E+02  0.23340866784E+02 -0.18914272936E+02  0.33676087331E+02  0.00000000000E+00 0.  1.
         13    1    3    3    0    0  0.77304462589E+02  0.47442854707E+02 -0.23945052448E+03  0.25605342816E+03  0.00000000000E+00 0. -1.
          1    1    1    2  501    0 -0.35134528765E+03 -0.45618829763E+03 -0.14075607491E+03  0.59275926536E+03  0.00000000000E+00 0. -1.
<scales pt_clust_5="13000.00000" pt_clust_6="13000.00000" pt_clust_7="13000.00000" pt_clust_8="13000.00000" pt_clust_9="542.49870"></scales>
<clustering>
<clus scale="   80.278">  5  6 -1 -1</clus>
<clus scale="   91.244">  7  8 -1 -1</clus>
<clus scale="  131.114">  1  7  2 -1</clus>
<clus scale="  542.499">  2  9  1 -1</clus>
<clus scale="  542.499">  2  5  1 -1</clus>
</clustering>
</event>
<event>
 9    2  0.7820252E-005  0.9970065E+02  0.7546771E-02  0.1288312E+00
          2   -1    0    0  502    0 -0.00000000000E+00  0.00000000000E+00  0.54164304488E+03  0.54164304488E+03  0.00000000000E+00 0. -1.
         21   -1    0    0  501  502  0.00000000000E+00 -0.00000000000E+00 -0.31843761289E+02  0.31843761289E+02  0.00000000000E+00 0.  1.
         23    2    1    2    0    0 -0.87882714527E+01 -0.37081460400E+02  0.37704740489E+03  0.39051749301E+03  0.94270347344E+02 0.  0.
         24    2    1    2    0    0 -0.22927910577E+02  0.18654519402E+02  0.71577249686E+02  0.11164047193E+03  0.80415248070E+02 0.  0.
        -13    1    4    4    0    0  0.84623053955E+01 -0.20442967507E+02 -0.24189326006E+01  0.22257061082E+02  0.00000000000E+00 0.  1.
         14    1    4    4    0    0 -0.31390215973E+02  0.39097486909E+02  0.73996182287E+02  0.89383410846E+02  0.00000000000E+00 0. -1.
        -11    1    3    3    0    0  0.20840644774E+02  0.24037563499E+02  0.87322623400E+02  0.92937492386E+02  0.00000000000E+00 0. -1.
         11    1    3    3    0    0 -0.29628916226E+02 -0.61119023899E+02  0.28972478149E+03  0.29758000062E+03  0.00000000000E+00 0.  1.
          1    1    1    2  501    0  0.31716182030E+02  0.18426940998E+02  0.61174629014E+02  0.71328841236E+02  0.00000000000E+00 0. -1.
<scales pt_clust_5="13000.00000" pt_clust_6="13000.00000" pt_clust_7="13000.00000" pt_clust_8="13000.00000" pt_clust_9="36.68063"></scales>
<clustering>
<clus scale="   36.681">  2  9  1 -1</clus>
<clus scale="   80.415">  5  6 -1 -1</clus>
<clus scale="   86.718">  2  5  1 -1</clus>
<clus scale="   94.270">  7  8 -1 -1</clus>
<clus scale="   36.681">  2  5  1 -1</clus>
</clustering>
</event>
<event>
 9    2  0.7820252E-005  0.8810938E+02  0.7546771E-02  0.1314158E+00
         21   -1    0    0  501  502  0.00000000000E+00  0.00000000000E+00  0.23545296567E+02  0.23545296567E+02  0.00000000000E+00 0. -1.
          2   -1    0    0  502    0 -0.00000000000E+00 -0.00000000000E+00 -0.57254050993E+03  0.57254050993E+03  0.00000000000E+00 0. -1.
         24    2    1    2    0    0 -0.97593875043E+01  0.33417103996E+02 -0.34301255179E+03  0.35434606115E+03  0.81802028585E+02 0.  0.
         23    2    1    2    0    0 -0.18166044030E+02 -0.31656131882E+02 -0.19671937984E+03  0.21226536431E+03  0.70893967599E+02 0.  0.
        -13    1    3    3    0    0  0.63925698499E+01 -0.25800978183E+02 -0.12871732910E+03  0.13143327675E+03  0.00000000000E+00 0.  1.
         14    1    3    3    0    0 -0.16151957354E+02  0.59218082179E+02 -0.21429522269E+03  0.22291278440E+03  0.00000000000E+00 0. -1.
        -13    1    4    4    0    0 -0.45061067409E+02 -0.19230057747E+02 -0.10473453883E+03  0.11562706664E+03  0.00000000000E+00 0. -1.
         13    1    4    4    0    0  0.26895023379E+02 -0.12426074135E+02 -0.91984841013E+02  0.96638297674E+02  0.00000000000E+00 0.  1.
          1    1    1    2  501    0  0.27925431534E+02 -0.17609721141E+01 -0.92632817391E+01  0.29474381040E+02  0.00000000000E+00 0. -1.
<scales pt_clust_5="13000.00000" pt_clust_6="13000.00000" pt_clust_7="13000.00000" pt_clust_8="13000.00000" pt_clust_9="27.98090"></scales>
<clustering>
<clus scale="   27.981">  1  9  2 -1</clus>
<clus scale="   70.894">  7  8 -1 -1</clus>
<clus scale="   78.087">  1  7  2 -1</clus>
<clus scale="   81.802">  5  6 -1 -1</clus>
<clus scale="   27.981">  1  5  2 -1</clus>
</clustering>
</event>
<event>
 9    2  0.7820252E-005  0.1181725E+03  0.7546771E-02  0.1249861E+00
         21   -1    0    0  501  502  0.00000000000E+00  0.00000000000E+00  0.89914051233E+02  0.89914051233E+02  0.00000000000E+00 0. -1.
          2   -1    0    0  502    0 -0.00000000000E+00 -0.00000000000E+00 -0.83075995298E+03  0.83075995298E+03  0.00000000000E+00 0. -1.
         24    2    1    2    0    0  0.62444638690E+02 -0.51418028987E+01 -0.37313477301E+03  0.38643892607E+03  0.78611155124E+02 0.  0.
         23    2    1    2    0    0 -0.92850307412E+02  0.36098329853E+02 -0.43439124426E+03  0.45467975742E+03  0.90075855317E+02 0.  0.
        -13    1    3    3    0    0  0.80743559328E+02 -0.81896577150E+01 -0.32105215860E+03  0.33115114586E+03  0.00000000000E+00 0.  1.
         14    1    3    3    0    0 -0.18298920638E+02  0.30478548163E+01 -0.52082614415E+02  0.55287780203E+02  0.00000000000E+00 0. -1.
        -13    1    4    4    0    0  0.40463340426E+01  0.31498328750E+02 -0.17252602178E+03  0.17542447299E+03  0.00000000000E+00 0. -1.
         13    1    4    4    0    0 -0.96896641455E+02  0.46000011031E+01 -0.26186522248E+03  0.27925528443E+03  0.00000000000E+00 0.  1.
          1    1    1    2  501    0  0.30405668723E+02 -0.30956526955E+02  0.66680115519E+02  0.79555320735E+02  0.00000000000E+00 0. -1.
<scales pt_clust_5="13000.00000" pt_clust_6="13000.00000" pt_clust_7="13000.00000" pt_clust_8="13000.00000" pt_clust_9="43.39137"></scales>
<clustering>
<clus scale="   43.391">  1  9  2 -1</clus>
<clus scale="   78.611">  5  6 -1 -1</clus>
<clus scale="   90.076">  7  8 -1 -1</clus>
<clus scale="  109.685">  2  5  1 -1</clus>
<clus scale="   43.391">  1  5  2 -1</clus>
</clustering>
</event>
<event>
 9    2  0.7820252E-005  0.7743200E+02  0.7546771E-02  0.1339314E+00
         21   -1    0    0  501  502  0.00000000000E+00  0.00000000000E+00  0.42152817263E+02  0.42152817263E+02  0.00000000000E+00 0. -1.
          2   -1    0    0  502    0 -0.00000000000E+00 -0.00000000000E+00 -0.10248917206E+04  0.10248917206E+04  0.00000000000E+00 0. -1.
         24    2    1    2    0    0  0.31602720361E+01  0.36946293293E+02 -0.65211610078E+03  0.65766589617E+03  0.76772431146E+02 0.  0.
         23    2    1    2    0    0 -0.26806409576E+01  0.36789694895E+02 -0.32606737876E+03  0.33550051305E+03  0.69856934379E+02 0.  0.
        -11    1    3    3    0    0 -0.20175130238E+02 -0.10932647994E+02 -0.84632098368E+02  0.87687802723E+02  0.00000000000E+00 0.  1.
         12    1    3    3    0    0  0.23335402274E+02  0.47878941287E+02 -0.56748400241E+03  0.56997809345E+03  0.00000000000E+00 0. -1.
        -11    1    4    4    0    0  0.17212593136E+02  0.45712250501E+02 -0.28347162149E+03  0.28764916721E+03  0.00000000000E+00 0. -1.
         11    1    4    4    0    0 -0.19893234094E+02 -0.89225556057E+01 -0.42595757270E+02  0.47851345839E+02  0.00000000000E+00 0.  1.
          1    1    1    2  501    0 -0.47963107849E+00 -0.73735988189E+02 -0.45554237608E+01  0.73878128602E+02  0.00000000000E+00 0. -1.
<scales pt_clust_5="13000.00000" pt_clust_6="13000.00000" pt_clust_7="13000.00000" pt_clust_8="13000.00000" pt_clust_9="73.73755"></scales>
<clustering>
<clus scale="   69.857">  7  8 -1 -1</clus>
<clus scale="   73.738">  1  9  2 -1</clus>
<clus scale="   73.738">  1  7  2 -1</clus>
<clus scale="   76.772">  5  6 -1 -1</clus>
<clus scale="   73.738">  1  5  2 -1</clus>
</clustering>
</event>
<event>
 9    2  0.7820252E-005  0.1226289E+03  0.7546771E-02  0.1248243E+00
          2   -1    0    0  502    0 -0.00000000000E+00  0.00000000000E+00  0.17356976997E+04  0.17356976997E+04  0.00000000000E+00 0. -1.
         21   -1    0    0  501  502  0.00000000000E+00 -0.00000000000E+00 -0.22851009538E+02  0.22851009538E+02  0.00000000000E+00 0. -1.
         24    2    1    2    0    0 -0.51296546058E+02 -0.32362785216E+02  0.81493303143E+03  0.82121548643E+03  0.81242500757E+02 0.  0.
         23    2    1    2    0    0 -0.61437913465E+02  0.43163859634E+02  0.21637152982E+03  0.24644582602E+03  0.91000935451E+02 0.  0.
        -13    1    3    3    0    0 -0.10466728045E+02  0.19603070992E+02  0.72062409207E+02  0.75411031084E+02  0.00000000000E+00 0.  1.
         14    1    3    3    0    0 -0.40829818012E+02 -0.51965856208E+02  0.74287062223E+03  0.74580445535E+03  0.00000000000E+00 0. -1.
        -11    1    4    4    0    0 -0.55871463304E+01  0.27849172439E+02  0.70571564997E+01  0.29267662488E+02  0.00000000000E+00 0.  1.
         11    1    4    4    0    0 -0.55850767135E+02  0.15314687195E+02  0.20931437332E+03  0.21717816353E+03  0.00000000000E+00 0. -1.
          1    1    1    2  501    0  0.11273445952E+03 -0.10801074418E+02  0.68154212888E+03  0.69088739676E+03  0.00000000000E+00 0. -1.
<scales pt_clust_5="13000.00000" pt_clust_6="13000.00000" pt_clust_7="13000.00000" pt_clust_8="13000.00000" pt_clust_9="82.19901"></scales>
<clustering>
<clus scale="   81.243">  5  6 -1 -1</clus>
<clus scale="   91.001">  7  8 -1 -1</clus>
<clus scale="  101.386">  1  5  2 -1</clus>
<clus scale="   82.199">  2  9  1 -1</clus>
<clus scale="   82.199">  2  5  1 -1</clus>
</clustering>
</event>
<event>
 9    2  0.7820252E-005  0.1065450E+03  0.7546771E-02  0.1272688E+00
         21   -1    0    0  501  502  0.00000000000E+00  0.00000000000E+00  0.44770995231E+02  0.44770995231E+02  0.00000000000E+00 0. -1.
         -3   -1    0    0    0  501 -0.00000000000E+00 -0.00000000000E+00 -0.47729444743E+03  0.47729444743E+03  0.00000000000E+00 0.  1.
         23    2    1    2    0    0 -0.47344836656E+02 -0.41970277326E+02 -0.33915528374E+03  0.35747216741E+03  0.93578877172E+02 0.  0.
         24    2    1    2    0    0  0.31176449469E+02 -0.28922685315E+01 -0.69932853163E+02  0.11145874063E+03  0.80945109139E+02 0.  0.
        -11    1    4    4    0    0  0.29994780599E+02  0.28978438078E+02 -0.67664777106E+02  0.79485588615E+02  0.00000000000E+00 0.  1.
         12    1    4    4    0    0  0.11816688710E+01 -0.31870706609E+02 -0.22680760568E+01  0.31973152020E+02  0.00000000000E+00 0. -1.
        -11    1    3    3    0    0 -0.70960164470E+02 -0.21339339924E+02 -0.17018742040E+03  0.18561915427E+03  0.00000000000E+00 0.  1.
         11    1    3    3    0    0  0.23615327814E+02 -0.20630937402E+02 -0.16896786333E+03  0.17185301314E+03  0.00000000000E+00 0. -1.
         -4    1    1    2    0  502  0.16168387187E+02  0.44862545858E+02 -0.23435315295E+02  0.53134534608E+02  0.00000000000E+00 0.  1.
<scales pt_clust_5="13000.00000" pt_clust_6="13000.00000" pt_clust_7="13000.00000" pt_clust_8="13000.00000" pt_clust_9="47.68716"></scales>
<clustering>
<clus scale="   47.687">  1  9  2 -1</clus>
<clus scale="   80.945">  5  6 -1 -1</clus>
<clus scale="   93.579">  7  8 -1 -1</clus>
<clus scale="   95.640">  1  5  2 -1</clus>
<clus scale="   47.687">  1  5  2 -1</clus>
</clustering>
</event>
<event>
 9    2  0.7820252E-005  0.1312545E+03  0.7546771E-02  0.1228645E+00
         21   -1    0    0  501  502  0.00000000000E+00  0.00000000000E+00  0.17555174377E+02  0.17555174377E+02  0.00000000000E+00 0.  1.
          2   -1    0    0  502    0 -0.00000000000E+00 -0.00000000000E+00 -0.16700340466E+04  0.16700340466E+04  0.00000000000E+00 0. -1.
         24    2    1    2    0    0  0.79766291009E+02 -0.83190885320E+02 -0.78248395037E+03  0.79487464610E+03  0.79127655383E+02 0.  0.
         23    2    1    2    0    0 -0.94771704777E+01  0.74884177382E+02 -0.39074342379E+03  0.40826482489E+03  0.91116887718E+02 0.  0.
        -11    1    3    3    0    0  0.30381628912E+02 -0.10449317368E+02 -0.70416080708E+02  0.77399328363E+02  0.00000000000E+00 0.  1.
         12    1    3    3    0    0  0.49384662097E+02 -0.72741567952E+02 -0.71206786966E+03  0.71747531774E+03  0.00000000000E+00 0. -1.
        -11    1    4    4    0    0 -0.22704067693E+02  0.43304752795E+01 -0.19784646575E+02  0.30424660163E+02  0.00000000000E+00 0.  1.
         11    1    4    4    0    0  0.13226897215E+02  0.70553702102E+02 -0.37095877722E+03  0.37784016473E+03  0.00000000000E+00 0. -1.
          1    1    1    2  501    0 -0.70289120531E+02  0.83067079380E+01 -0.47925149805E+03  0.48444974997E+03  0.00000000000E+00 0. -1.
<scales pt_clust_5="13000.00000" pt_clust_6="13000.00000" pt_clust_7="13000.00000" pt_clust_8="13000.00000" pt_clust_9="70.77829"></scales>
<clustering>
<clus scale="   70.778">  1  9  2 -1</clus>
<clus scale="   79.128">  5  6 -1 -1</clus>
<clus scale="   91.117">  7  8 -1 -1</clus>
<clus scale="  123.234">  2  5  1 -1</clus>
<clus scale="   70.778">  1  5  2 -1</clus>
</clustering>
</event>
<event>
 9    2  0.7820252E-005  0.1296807E+03  0.7546771E-02  0.1249936E+00
         21   -1    0    0  501  502  0.00000000000E+00  0.00000000000E+00  0.29031114298E+02  0.29031114298E+02  0.00000000000E+00 0.  1.
          2   -1    0    0  502    0 -0.00000000000E+00 -0.00000000000E+00 -0.91492710277E+03  0.91492710277E+03  0.00000000000E+00 0. -1.
         24    2    1    2    0    0 -0.11507053140E+02 -0.94290766002E+01 -0.31190291517E+03  0.32272534008E+03  0.81528503488E+02 0.  0.
         23    2    1    2    0    0  0.70011616226E+02  0.69492580781E+02 -0.22125711859E+03  0.25866831421E+03  0.90684833672E+02 0.  0.
        -11    1    3    3    0    0 -0.58964186964E+01  0.35701485762E+02 -0.16603776365E+03  0.16993499580E+03  0.00000000000E+00 0.  1.
         12    1    3    3    0    0 -0.56106344435E+01 -0.45130562362E+02 -0.14586515152E+03  0.15279034429E+03  0.00000000000E+00 0. -1.
        -13    1    4    4    0    0  0.36106971544E+02  0.64701480379E+02 -0.20989792636E+03  0.22259185620E+03  0.00000000000E+00 0. -1.
         13    1    4    4    0    0  0.33904644682E+02  0.47911004024E+01 -0.11359192229E+02  0.36076458005E+02  0.00000000000E+00 0.  1.
          1    1    1    2  501    0 -0.58504563086E+02 -0.60063504181E+02 -0.35273595472E+03  0.36256456278E+03  0.00000000000E+00 0. -1.
<scales pt_clust_5="13000.00000" pt_clust_6="13000.00000" pt_clust_7="13000.00000" pt_clust_8="13000.00000" pt_clust_9="92.70032"></scales>
<clustering>
<clus scale="   81.529">  5  6 -1 -1</clus>
<clus scale="   82.875">  2  5  1 -1</clus>
<clus scale="   90.685">  7  8 -1 -1</clus>
<clus scale="   92.700">  1  9  2 -1</clus>
<clus scale="   92.700">  1  5  2 -1</clus>
</clustering>
</event>
<event>
 9    2  0.7820252E-005  0.1254551E+03  0.7546771E-02  0.1235832E+00
          2   -1    0    0  502    0 -0.00000000000E+00  0.00000000000E+00  0.90603375854E+02  0.90603375854E+02  0.00000000000E+00 0. -1.
         21   -1    0    0  501  502  0.00000000000E+00 -0.00000000000E+00 -0.29622546376E+03  0.29622546376E+03  0.00000000000E+00 0.  1.
         23    2    1    2    0    0  0.43247168356E+02  0.70676251812E+02 -0.99218765421E+01  0.12074707234E+03  0.87269477501E+02 0.  0.
         24    2    1    2    0    0 -0.58633987671E+02 -0.86673425997E+02 -0.95880487042E+02  0.16382404799E+03  0.81823123986E+02 0.  0.
        -11    1    4    4    0    0 -0.52179634616E+02 -0.97143353361E+02 -0.10188814032E+03  0.15013573362E+03  0.00000000000E+00 0.  1.
         12    1    4    4    0    0 -0.64543530555E+01  0.10469927364E+02  0.60076532771E+01  0.13688314370E+02  0.00000000000E+00 0. -1.
        -11    1    3    3    0    0  0.51314634834E+02  0.19032483212E+02 -0.32671871598E+02  0.63740711943E+02  0.00000000000E+00 0. -1.
         11    1    3    3    0    0 -0.80674664774E+01  0.51643768600E+02  0.22749995056E+02  0.57006360396E+02  0.00000000000E+00 0.  1.
          1    1    1    2  501    0  0.15386819315E+02  0.15997174185E+02 -0.99819724320E+02  0.10225771929E+03  0.00000000000E+00 0. -1.
<scales pt_clust_5="13000.00000" pt_clust_6="13000.00000" pt_clust_7="13000.00000" pt_clust_8="13000.00000" pt_clust_9="22.19603"></scales>
<clustering>
<clus scale="   22.196">  2  9  1 -1</clus>
<clus scale="   81.823">  5  6 -1 -1</clus>
<clus scale="   87.269">  7  8 -1 -1</clus>
<clus scale="  121.729">  2  5  1 -1</clus>
<clus scale="   22.196">  2  5  1 -1</clus>
</clustering>
</event>
<event>
 9    2  0.9947172E-005  0.9150291E+02  0.7546771E-02  0.1304436E+00
          2   -1    0    0  502    0 -0.00000000000E+00  0.00000000000E+00  0.58869964140E+03  0.58869964140E+03  0.00000000000E+00 0. -1.
         21   -1    0    0  501  502  0.00000000000E+00 -0.00000000000E+00 -0.18356627647E+03  0.18356627647E+03  0.00000000000E+00 0. -1.
         24    2    1    2    0    0 -0.22430954877E+01 -0.24658882014E+02  0.44481602781E+03  0.45268386578E+03  0.80301256535E+02 0.  0.
         23    2    1    2    0    0 -0.72528599306E+02 -0.80680816772E+01  0.10353096551E+03  0.15474272471E+03  0.88888460289E+02 0.  0.
        -13    1    3    3    0    0 -0.12937580552E+02  0.20483178657E+02  0.54774690750E+02  0.59893308017E+02  0.00000000000E+00 0.  1.
         14    1    3    3    0    0  0.10694485064E+02 -0.45142060671E+02  0.39004133706E+03  0.39279055776E+03  0.00000000000E+00 0. -1.
        -13    1    4    4    0    0  0.17778050076E+02  0.10862361274E+02  0.31131509432E+02  0.37459589380E+02  0.00000000000E+00 0.  1.
         13    1    4    4    0    0 -0.90306649381E+02 -0.18930442952E+02  0.72399456074E+02  0.11728313533E+03  0.00000000000E+00 0. -1.
          1    1    1    2  501    0  0.74771694793E+02  0.32726963691E+02 -0.14321362838E+03  0.16483932737E+03  0.00000000000E+00 0. -1.
<scales pt_clust_5="13000.00000" pt_clust_6="13000.00000" pt_clust_7="13000.00000" pt_clust_8="13000.00000" pt_clust_9="81.62022"></scales>
<clustering>
<clus scale="   80.301">  5  6 -1 -1</clus>
<clus scale="   81.620">  2  9  1 -1</clus>
<clus scale="   83.186">  1  5  2 -1</clus>
<clus scale="   88.888">  7  8 -1 -1</clus>
<clus scale="   81.620">  2  5  1 -1</clus>
</clustering>
</event>
<event>
 9    2  0.7820252E-005  0.1260561E+03  0.7546771E-02  0.1241662E+00
         -3   -1    0    0    0  501 -0.00000000000E+00  0.00000000000E+00  0.72631533796E+03  0.72631533796E+03  0.00000000000E+00 0.  1.
         21   -1    0    0  501  502  0.00000000000E+00 -0.00000000000E+00 -0.67109571495E+02  0.67109571495E+02  0.00000000000E+00 0.  1.
         23    2    1    2    0    0  0.72598535449E+01  0.56130978521E+02  0.50493821299E+03  0.51606217736E+03  0.90300496902E+02 0.  0.
         24    2    1    2    0    0 -0.71967160370E+02  0.37902455473E+02  0.96394381183E+02  0.14938372469E+03  0.80048436440E+02 0.  0.
        -11    1    4    4    0    0 -0.79686764407E+02  0.19192147002E+02  0.43594854487E+02  0.92837655431E+02  0.00000000000E+00 0.  1.
         12    1    4    4    0    0  0.77196040361E+01  0.18710308471E+02  0.52799526696E+02  0.56546069261E+02  0.00000000000E+00 0. -1.
        -11    1    3    3    0    0 -0.40146905825E+02  0.12251640654E+02  0.19893580430E+03  0.20331584045E+03  0.00000000000E+00 0.  1.
         11    1    3    3    0    0  0.47406759369E+02  0.43879337867E+02  0.30600240868E+03  0.31274633690E+03  0.00000000000E+00 0. -1.
         -4    1    1    2    0  502  0.64707306826E+02 -0.94033433994E+02  0.57873172295E+02  0.12797900741E+03  0.00000000000E+00 0.  1.
<scales pt_clust_5="13000.00000" pt_clust_6="13000.00000" pt_clust_7="13000.00000" pt_clust_8="13000.00000" pt_clust_9="97.37758"></scales>
<clustering>
<clus scale="   80.048">  5  6 -1 -1</clus>
<clus scale="   90.300">  7  8 -1 -1</clus>
<clus scale="  106.572">  1  7  2 -1</clus>
<clus scale="   97.378">  2  9  1 -1</clus>
<clus scale="   97.378">  2  5  1 -1</clus>
</clustering>
</event>
<event>
 9    2  0.7820252E-005  0.9152959E+02  0.7546771E-02  0.1302085E+00
          2   -1    0    0  502    0 -0.00000000000E+00  0.00000000000E+00  0.28639994490E+03  0.28639994490E+03  0.00000000000E+00 0. -1.
         21   -1    0    0  501  502  0.00000000000E+00 -0.00000000000E+00 -0.97188715089E+02  0.97188715089E+02  0.00000000000E+00 0. -1.
         24    2    1    2    0    0  0.22323759376E+02 -0.26169767717E+02  0.21333666672E+03  0.23095290144E+03  0.81507682728E+02 0.  0.
         23    2    1    2    0    0 -0.52608380455E+01 -0.17013631981E+02 -0.47856743406E+02  0.10049053631E+03  0.86550216109E+02 0.  0.
        -11    1    3    3    0    0  0.43705247114E+02  0.86698194014E+01  0.80994243923E+02  0.92441235076E+02  0.00000000000E+00 0.  1.
         12    1    3    3    0    0 -0.21381487738E+02 -0.34839587119E+02  0.13234242280E+03  0.13851166637E+03  0.00000000000E+00 0. -1.
        -11    1    4    4    0    0 -0.14339932201E+02  0.32605407575E+02 -0.87884779177E+01  0.36687649186E+02  0.00000000000E+00 0.  1.
         11    1    4    4    0    0  0.90790941560E+01 -0.49619039556E+02 -0.39068265488E+02  0.63802887125E+02  0.00000000000E+00 0. -1.
          1    1    1    2  501    0 -0.17062921331E+02  0.43183399699E+02  0.23731306498E+02  0.52145222235E+02  0.00000000000E+00 0. -1.
<scales pt_clust_5="13000.00000" pt_clust_6="13000.00000" pt_clust_7="13000.00000" pt_clust_8="13000.00000" pt_clust_9="46.43220"></scales>
<clustering>
<clus scale="   46.432">  2  9  1 -1</clus>
<clus scale="   81.508">  5  6 -1 -1</clus>
<clus scale="   86.550">  7  8 -1 -1</clus>
<clus scale="   86.777">  1  5  2 -1</clus>
<clus scale="   46.432">  2  5  1 -1</clus>
</clustering>
</event>
<event>
 9    2  0.7820252E-005  0.2094254E+03  0.7546771E-02  0.1155438E+00
          2   -1    0    0  502    0 -0.00000000000E+00  0.00000000000E+00  0.51748863817E+03  0.51748863817E+03  0.00000000000E+00 0. -1.
         21   -1    0    0  501  502  0.00000000000E+00 -0.00000000000E+00 -0.15908506265E+03  0.15908506265E+03  0.00000000000E+00 0. -1.
         24    2    1    2    0    0 -0.12919978779E+03 -0.22499190220E+01  0.10288581600E+03  0.18378394933E+03  0.80581645527E+02 0.  0.
         23    2    1    2    0    0 -0.90146691637E+01 -0.16732102364E+03  0.17776158855E+03  0.26061834320E+03  0.90802804097E+02 0.  0.
        -13    1    3    3    0    0 -0.39745871362E+02 -0.38542849456E+02  0.43858547975E+02  0.70631846677E+02  0.00000000000E+00 0.  1.
         14    1    3    3    0    0 -0.89453916430E+02  0.36292930434E+02  0.59027268022E+02  0.11315210265E+03  0.00000000000E+00 0. -1.
        -13    1    4    4    0    0  0.38903907044E+02 -0.65343621791E+02  0.54131982585E+02  0.93346528755E+02  0.00000000000E+00 0.  1.
         13    1    4    4    0    0 -0.47918576208E+02 -0.10197740185E+03  0.12362960597E+03  0.16727181444E+03  0.00000000000E+00 0. -1.
          1    1    1    2  501    0  0.13821445696E+03  0.16957094267E+03  0.77756170973E+02  0.23217140830E+03  0.00000000000E+00 0. -1.
<scales pt_clust_5="13000.00000" pt_clust_6="13000.00000" pt_clust_7="13000.00000" pt_clust_8="13000.00000" pt_clust_9="188.71630"></scales>
<clustering>
<clus scale="   80.582">  5  6 -1 -1</clus>
<clus scale="   90.803">  7  8 -1 -1</clus>
<clus scale="  152.286">  1  5  2 -1</clus>
<clus scale="  188.716">  2  9  1 -1</clus>
<clus scale="  188.716">  2  5  1 -1</clus>
</clustering>
</event>
<event>
 9    2  0.7820252E-005  0.9538508E+02  0.7546771E-02  0.1295754E+00
          2   -1    0    0  502    0 -0.00000000000E+00  0.00000000000E+00  0.80179964468E+03  0.80179964468E+03  0.00000000000E+00 0. -1.
         21   -1    0    0  501  502  0.00000000000E+00 -0.00000000000E+00 -0.26252686592E+02  0.26252686592E+02  0.00000000000E+00 0.  1.
         24    2    1    2    0    0  0.27481121086E+01 -0.26352875439E+02  0.59262593940E+03  0.59868401927E+03  0.80715703032E+02 0.  0.
         23    2    1    2    0    0  0.13743740081E+02  0.53716169279E+02  0.13378349368E+03  0.17075749899E+03  0.90475317328E+02 0.  0.
        -11    1    3    3    0    0  0.30729713465E+02 -0.59016975317E+01  0.98652317861E+02  0.10349601511E+03  0.00000000000E+00 0.  1.
         12    1    3    3    0    0 -0.27981601357E+02 -0.20451177907E+02  0.49397362153E+03  0.49518800416E+03  0.00000000000E+00 0. -1.
        -13    1    4    4    0    0  0.50563000460E+02  0.30410186779E+02  0.97913919014E+02  0.11431768023E+03  0.00000000000E+00 0.  1.
         13    1    4    4    0    0 -0.36819260379E+02  0.23305982500E+02  0.35869574670E+02  0.56439818764E+02  0.00000000000E+00 0. -1.
          1    1    1    2  501    0 -0.16491852190E+02 -0.27363293840E+02  0.49137525003E+02  0.58610813011E+02  0.00000000000E+00 0. -1.
<scales pt_clust_5="13000.00000" pt_clust_6="13000.00000" pt_clust_7="13000.00000" pt_clust_8="13000.00000" pt_clust_9="31.94888"></scales>
<clustering>
<clus scale="   31.949">  2  9  1 -1</clus>
<clus scale="   80.716">  5  6 -1 -1</clus>
<clus scale="   86.183">  1  5  2 -1</clus>
<clus scale="   90.475">  7  8 -1 -1</clus>
<clus scale="   31.949">  2  5  1 -1</clus>
</clustering>
</event>
<event>
 9    2  0.7820252E-005  0.8822897E+02  0.7546771E-02  0.1311213E+00
          2   -1    0    0  502    0 -0.00000000000E+00  0.00000000000E+00  0.26744326456E+03  0.26744326456E+03  0.00000000000E+00 0. -1.
         21   -1    0    0  501  502  0.00000000000E+00 -0.00000000000E+00 -0.45129165305E+02  0.45129165305E+02  0.00000000000E+00 0. -1.
         24    2    1    2    0    0  0.12829780846E+02  0.61700479392E+00  0.79375676849E+02  0.11407835852E+03  0.80922122039E+02 0.  0.
         23    2    1    2    0    0  0.64243582503E+00 -0.26625416251E+02  0.56599455151E+02  0.10732195195E+03  0.87207669004E+02 0.  0.
        -13    1    3    3    0    0 -0.10108025454E+02  0.36624991626E+02  0.27546648720E+02  0.46929522114E+02  0.00000000000E+00 0.  1.
         14    1    3    3    0    0  0.22937806300E+02 -0.36007986832E+02  0.51829028129E+02  0.67148836403E+02  0.00000000000E+00 0. -1.
        -13    1    4    4    0    0  0.15348954678E+02 -0.53208728046E+02  0.53131523247E+02  0.76744497604E+02  0.00000000000E+00 0.  1.
         13    1    4    4    0    0 -0.14706518853E+02  0.26583311795E+02  0.34679319043E+01  0.30577454349E+02  0.00000000000E+00 0. -1.
          1    1    1    2  501    0 -0.13472216671E+02  0.26008411457E+02  0.86338967258E+02  0.91172119399E+02  0.00000000000E+00 0. -1.
<scales pt_clust_5="13000.00000" pt_clust_6="13000.00000" pt_clust_7="13000.00000" pt_clust_8="13000.00000" pt_clust_9="29.29059"></scales>
<clustering>
<clus scale="   29.291">  2  9  1 -1</clus>
<clus scale="   80.922">  5  6 -1 -1</clus>
<clus scale="   82.022">  1  5  2 -1</clus>
<clus scale="   87.208">  7  8 -1 -1</clus>
<clus scale="   29.291">  2  5  1 -1</clus>
</clustering>
</event>
<event>
 9    2  0.1024740E-004  0.1204952E+03  0.7546771E-02  0.1259037E+00
         21   -1    0    0  501  502  0.00000000000E+00  0.00000000000E+00  0.69487869763E+02  0.69487869763E+02  0.00000000000E+00 0. -1.
          2   -1    0    0  502    0 -0.00000000000E+00 -0.00000000000E+00 -0.86967731674E+03  0.86967731674E+03  0.00000000000E+00 0. -1.
         24    2    1    2    0    0 -0.29191903107E+02 -0.18259626119E+02  0.14753183647E+02  0.87500558585E+02  0.79076609513E+02 0.  0.
         23    2    1    2    0    0 -0.44133124520E+02 -0.52720825630E+02 -0.22074611924E+03  0.24876805441E+03  0.91812186553E+02 0.  0.
        -13    1    3    3    0    0 -0.10381258542E+02 -0.36611255579E+02 -0.20738416296E+02  0.43338625664E+02  0.00000000000E+00 0.  1.
         14    1    3    3    0    0 -0.18810644565E+02  0.18351629461E+02  0.35491599943E+02  0.44161932921E+02  0.00000000000E+00 0. -1.
        -13    1    4    4    0    0 -0.64226486854E+02 -0.52089966549E+02 -0.21059113277E+03  0.22624551141E+03  0.00000000000E+00 0. -1.
         13    1    4    4    0    0  0.20093362335E+02 -0.63085908175E+00 -0.10154986464E+02  0.22522543000E+02  0.00000000000E+00 0.  1.
          1    1    1    2  501    0  0.73325027626E+02  0.70980451749E+02 -0.59419651139E+03  0.60289657352E+03  0.00000000000E+00 0. -1.
<scales pt_clust_5="13000.00000" pt_clust_6="13000.00000" pt_clust_7="13000.00000" pt_clust_8="13000.00000" pt_clust_9="78.03596"></scales>
<clustering>
<clus scale="   79.077">  5  6 -1 -1</clus>
<clus scale="   86.248">  2  5  1 -1</clus>
<clus scale="   78.036">  1  9  2 -1</clus>
<clus scale="   91.812">  7  8 -1 -1</clus>
<clus scale="   78.036">  1  5  2 -1</clus>
</clustering>
</event>
<event>
 9    2  0.7820252E-005  0.1506764E+03  0.7546771E-02  0.1219291E+00
         21   -1    0    0  501  502  0.00000000000E+00  0.00000000000E+00  0.65509526405E+02  0.65509526405E+02  0.00000000000E+00 0. -1.
          2   -1    0    0  502    0 -0.00000000000E+00 -0.00000000000E+00 -0.12210087238E+04  0.12210087238E+04  0.00000000000E+00 0. -1.
         23    2    1    2    0    0 -0.32893251289E+02 -0.19584809710E+02 -0.57072761693E+02  0.11427945689E+03  0.91306973382E+02 0.  0.
         24    2    1    2    0    0 -0.88389480787E+02  0.67750959173E+02 -0.99856246885E+03  0.10079150551E+04  0.79767546193E+02 0.  0.
        -11    1    4    4    0    0 -0.54059098981E+02  0.46876389465E+02 -0.30871904509E+03  0.31690255738E+03  0.00000000000E+00 0.  1.
         12    1    4    4    0    0 -0.34330381806E+02  0.20874569708E+02 -0.68984342375E+03  0.69101249777E+03  0.00000000000E+00 0. -1.
        -13    1    3    3    0    0  0.14136856251E+02 -0.30130989144E+02  0.70910504823E+01  0.34029549048E+02  0.00000000000E+00 0.  1.
         13    1    3    3    0    0 -0.47030107539E+02  0.10546179434E+02 -0.64163812176E+02  0.80249907843E+02  0.00000000000E+00 0. -1.
          1    1    1    2  501    0  0.12128273208E+03 -0.48166149464E+02 -0.99863966896E+02  0.16432373821E+03  0.00000000000E+00 0. -1.
<scales pt_clust_5="13000.00000" pt_clust_6="13000.00000" pt_clust_7="13000.00000" pt_clust_8="13000.00000" pt_clust_9="127.83001"></scales>
<clustering>
<clus scale="   79.768">  5  6 -1 -1</clus>
<clus scale="   91.307">  7  8 -1 -1</clus>
<clus scale="   99.008">  2  7  1 -1</clus>
<clus scale="  127.830">  1  9  2 -1</clus>
<clus scale="  127.830">  1  5  2 -1</clus>
</clustering>
</event>
<event>
 9    2  0.7820252E-005  0.1220889E+03  0.7546771E-02  0.1243170E+00
         21   -1    0    0  501  502  0.00000000000E+00  0.00000000000E+00  0.12039024806E+03  0.12039024806E+03  0.00000000000E+00 0. -1.
          4   -1    0    0  502    0 -0.00000000000E+00 -0.00000000000E+00 -0.23949357620E+03  0.23949357620E+03  0.00000000000E+00 0. -1.
         23    2    1    2    0    0  0.20910277244E+02  0.88964007993E+02 -0.12555303127E+03  0.18043702897E+03  0.91881028241E+02 0.  0.
         24    2    1    2    0    0  0.18024777354E+02 -0.52333144670E+02  0.50680206800E+02  0.11006310787E+03  0.80509339350E+02 0.  0.
        -13    1    4    4    0    0  0.20710387534E+01  0.21658488965E+02  0.80984740863E+01  0.23215611736E+02  0.00000000000E+00 0.  1.
         14    1    4    4    0    0  0.15953738601E+02 -0.73991633636E+02  0.42581732714E+02  0.86847496132E+02  0.00000000000E+00 0. -1.
        -11    1    3    3    0    0  0.27522610658E+02  0.32252644604E+02  0.12265271391E+00  0.42399790390E+02  0.00000000000E+00 0.  1.
         11    1    3    3    0    0 -0.66123334138E+01  0.56711363389E+02 -0.12567568399E+03  0.13803723858E+03  0.00000000000E+00 0. -1.
          3    1    1    2  501    0 -0.38935054598E+02 -0.36630863323E+02 -0.44230503675E+02  0.69383687418E+02  0.00000000000E+00 0. -1.
<scales pt_clust_5="13000.00000" pt_clust_6="13000.00000" pt_clust_7="13000.00000" pt_clust_8="13000.00000" pt_clust_9="53.45803"></scales>
<clustering>
<clus scale="   53.458">  1  9  2 -1</clus>
<clus scale="   80.509">  5  6 -1 -1</clus>
<clus scale="   91.881">  7  8 -1 -1</clus>
<clus scale="  113.778">  1  5  2 -1</clus>
<clus scale="   53.458">  1  5  2 -1</clus>
</clustering>
</event>
<event>
 9    2  0.7820252E-005  0.1463018E+03  0.7546771E-02  0.1208603E+00
         21   -1    0    0  501  502  0.00000000000E+00  0.00000000000E+00  0.72145736256E+02  0.72145736256E+02  0.00000000000E+00 0. -1.
          2   -1    0    0  502    0 -0.00000000000E+00 -0.00000000000E+00 -0.51906546320E+03  0.51906546320E+03  0.00000000000E+00 0. -1.
         24    2    1    2    0    0 -0.90352975156E+02 -0.86982999684E+02 -0.34598782396E+03  0.37516545329E+03  0.72882375524E+02 0.  0.
         23    2    1    2    0    0  0.37528541210E+02  0.72645287317E+02 -0.29307214349E+02  0.12590093578E+03  0.91139473566E+02 0.  0.
        -13    1    3    3    0    0 -0.11453069421E+02 -0.39176205944E+02 -0.46902522805E+02  0.62175514126E+02  0.00000000000E+00 0.  1.
         14    1    3    3    0    0 -0.78899905734E+02 -0.47806793740E+02 -0.29908530115E+03  0.31298993916E+03  0.00000000000E+00 0. -1.
        -11    1    4    4    0    0  0.34222903994E+02 -0.35926695518E+01  0.15135922429E+02  0.37592693174E+02  0.00000000000E+00 0. -1.
         11    1    4    4    0    0  0.33056372162E+01  0.76237956869E+02 -0.44443136778E+02  0.88308242603E+02  0.00000000000E+00 0.  1.
          1    1    1    2  501    0  0.52824433945E+02  0.14337712367E+02 -0.71624688633E+02  0.90144810385E+02  0.00000000000E+00 0. -1.
<scales pt_clust_5="13000.00000" pt_clust_6="13000.00000" pt_clust_7="13000.00000" pt_clust_8="13000.00000" pt_clust_9="54.73567"></scales>
<clustering>
<clus scale="   54.736">  1  9  2 -1</clus>
<clus scale="   72.882">  5  6 -1 -1</clus>
<clus scale="   91.139">  7  8 -1 -1</clus>
<clus scale="  135.682">  2  5  1 -1</clus>
<clus scale="   54.736">  1  5  2 -1</clus>
</clustering>
</event>
<event>
 9    2  0.1001772E-004  0.1107923E+03  0.7546771E-02  0.1263407E+00
          2   -1    0    0  502    0 -0.00000000000E+00  0.00000000000E+00  0.44283128125E+03  0.44283128125E+03  0.00000000000E+00 0. -1.
         21   -1    0    0  501  502  0.00000000000E+00 -0.00000000000E+00 -0.29487329641E+03  0.29487329641E+03  0.00000000000E+00 0. -1.
         24    2    1    2    0    0 -0.17702375206E+02 -0.59713927461E+02  0.33044869580E+03  0.34575780659E+03  0.80454913121E+02 0.  0.
         23    2    1    2    0    0  0.10283460948E+03  0.26587923489E+02  0.44630458898E+02  0.14714306349E+03  0.91527748191E+02 0.  0.
        -11    1    3    3    0    0  0.29661547255E+02 -0.10121294024E+02  0.13620154328E+03  0.13976089715E+03  0.00000000000E+00 0.  1.
         12    1    3    3    0    0 -0.47363922461E+02 -0.49592633437E+02  0.19424715251E+03  0.20599690944E+03  0.00000000000E+00 0. -1.
        -11    1    4    4    0    0  0.24355957080E+02  0.31222732107E+02 -0.20919472025E+02  0.44784996989E+02  0.00000000000E+00 0.  1.
         11    1    4    4    0    0  0.78478652402E+02 -0.46348086175E+01  0.65549930923E+02  0.10235806650E+03  0.00000000000E+00 0. -1.
          1    1    1    2  501    0 -0.85132234276E+02  0.33126003972E+02 -0.22712116984E+03  0.24480370758E+03  0.00000000000E+00 0. -1.
<scales pt_clust_5="13000.00000" pt_clust_6="13000.00000" pt_clust_7="13000.00000" pt_clust_8="13000.00000" pt_clust_9="91.35004"></scales>
<clustering>
<clus scale="   80.455">  5  6 -1 -1</clus>
<clus scale="   91.350">  2  9  1 -1</clus>
<clus scale="   91.528">  7  8 -1 -1</clus>
<clus scale="  101.836">  1  5  2 -1</clus>
<clus scale="   91.350">  2  5  1 -1</clus>
</clustering>
</event>
<event>
 9    2  0.7820252E-005  0.9646768E+02  0.7546771E-02  0.1292975E+00
         21   -1    0    0  501  502  0.00000000000E+00  0.00000000000E+00  0.31187110326E+02  0.31187110326E+02  0.00000000000E+00 0.  1.
          2   -1    0    0  502    0 -0.00000000000E+00 -0.00000000000E+00 -0.76534809807E+03  0.76534809807E+03  0.00000000000E+00 0. -1.
         24    2    1    2    0    0 -0.45047975417E+01 -0.30664256873E+02 -0.49608365908E+03  0.50372558009E+03  0.81730492334E+02 0.  0.
         23    2    1    2    0    0 -0.16299754803E+02  0.40006970223E+02 -0.68836103587E+02  0.12203870585E+03  0.91042830009E+02 0.  0.
        -11    1    3    3    0    0  0.27752980766E+02  0.36059314104E+01 -0.75557186338E+02  0.80573687331E+02  0.00000000000E+00 0.  1.
         12    1    3    3    0    0 -0.32257778308E+02 -0.34270188284E+02 -0.42052647275E+03  0.42315189276E+03  0.00000000000E+00 0. -1.
        -13    1    4    4    0    0 -0.43493326046E+02 -0.88807121144E+01 -0.36145719016E+02  0.57245519138E+02  0.00000000000E+00 0.  1.
         13    1    4    4    0    0  0.27193571243E+02  0.48887682337E+02 -0.32690384571E+02  0.64793186715E+02  0.00000000000E+00 0. -1.
          1    1    1    2  501    0  0.20804552345E+02 -0.93427133493E+01 -0.16924122507E+03  0.17077092245E+03  0.00000000000E+00 0. -1.
<scales pt_clust_5="13000.00000" pt_clust_6="13000.00000" pt_clust_7="13000.00000" pt_clust_8="13000.00000" pt_clust_9="22.80606"></scales>
<clustering>
<clus scale="   22.806">  1  9  2 -1</clus>
<clus scale="   81.730">  5  6 -1 -1</clus>
<clus scale="   87.733">  2  5  1 -1</clus>
<clus scale="   91.043">  7  8 -1 -1</clus>
<clus scale="   22.806">  1  5  2 -1</clus>
</clustering>
</event>
<event>
 9    2  0.7820252E-005  0.2104961E+03  0.7546771E-02  0.1141762E+00
         21   -1    0    0  501  502  0.00000000000E+00  0.00000000000E+00  0.56669952942E+02  0.56669952942E+02  0.00000000000E+00 0.  1.
          2   -1    0    0  502    0 -0.00000000000E+00 -0.00000000000E+00 -0.10179169079E+04  0.10179169079E+04  0.00000000000E+00 0. -1.
         23    2    1    2    0    0  0.91466721847E+02  0.14070289474E+03 -0.38512899811E+03  0.42979221496E+03  0.90738839885E+02 0.  0.
         24    2    1    2    0    0 -0.12297795623E+03 -0.18177512831E+03 -0.43291561558E+03  0.49252253153E+03  0.83646511396E+02 0.  0.
        -11    1    4    4    0    0 -0.38318667570E+02 -0.12379450131E+03 -0.20427819797E+03  0.24191523517E+03  0.00000000000E+00 0.  1.
         12    1    4    4    0    0 -0.84659288656E+02 -0.57980626996E+02 -0.22863741761E+03  0.25060729637E+03  0.00000000000E+00 0. -1.
        -13    1    3    3    0    0  0.79689589469E+02  0.41720711838E+02 -0.15927985532E+03  0.18292381140E+03  0.00000000000E+00 0. -1.
         13    1    3    3    0    0  0.11777132378E+02  0.98982182904E+02 -0.22584914279E+03  0.24686840356E+03  0.00000000000E+00 0.  1.
          1    1    1    2  501    0  0.31511234379E+02  0.41072233568E+02 -0.14320234131E+03  0.15227211439E+03  0.00000000000E+00 0. -1.
<scales pt_clust_5="13000.00000" pt_clust_6="13000.00000" pt_clust_7="13000.00000" pt_clust_8="13000.00000" pt_clust_9="51.76764"></scales>
<clustering>
<clus scale="   51.768">  1  9  2 -1</clus>
<clus scale="   83.647">  5  6 -1 -1</clus>
<clus scale="   90.739">  7  8 -1 -1</clus>
<clus scale="  207.537">  1  5  2 -1</clus>
<clus scale="   51.768">  1  5  2 -1</clus>
</clustering>
</event>
<event>
 9    2  0.7820252E-005  0.9943495E+02  0.7546771E-02  0.1286097E+00
          2   -1    0    0  502    0 -0.00000000000E+00  0.00000000000E+00  0.33378083150E+03  0.33378083150E+03  0.00000000000E+00 0. -1.
         21   -1    0    0  501  502  0.00000000000E+00 -0.00000000000E+00 -0.20002792934E+03  0.20002792934E+03  0.00000000000E+00 0. -1.
         24    2    1    2    0    0  0.34571585054E+02 -0.28898804730E+02  0.26805186072E+03  0.28346756272E+03  0.80447024017E+02 0.  0.
         23    2    1    2    0    0  0.41505266749E+02  0.67424061880E+02 -0.47780536906E+02  0.12886148745E+03  0.89741918586E+02 0.  0.
        -13    1    3    3    0    0 -0.20294759443E+02 -0.30159559445E+02  0.12750204508E+03  0.13258298453E+03  0.00000000000E+00 0.  1.
         14    1    3    3    0    0  0.54866344498E+02  0.12607547149E+01  0.14054981564E+03  0.15088457820E+03  0.00000000000E+00 0. -1.
        -13    1    4    4    0    0  0.19417819058E+02  0.18348244753E+02  0.26172442919E+02  0.37399285432E+02  0.00000000000E+00 0.  1.
         13    1    4    4    0    0  0.22087447691E+02  0.49075817127E+02 -0.73952979825E+02  0.91462202014E+02  0.00000000000E+00 0. -1.
          1    1    1    2  501    0 -0.76076851804E+02 -0.38525257150E+02 -0.86518421648E+02  0.12147971067E+03  0.00000000000E+00 0. -1.
<scales pt_clust_5="13000.00000" pt_clust_6="13000.00000" pt_clust_7="13000.00000" pt_clust_8="13000.00000" pt_clust_9="85.27534"></scales>
<clustering>
<clus scale="   80.447">  5  6 -1 -1</clus>
<clus scale="   85.275">  2  9  1 -1</clus>
<clus scale="   89.742">  7  8 -1 -1</clus>
<clus scale="   91.134">  1  5  2 -1</clus>
<clus scale="   85.275">  2  5  1 -1</clus>
</clustering>
</event>
<event>
 9    2  0.7820252E-005  0.1878019E+03  0.7546771E-02  0.1161593E+00
          2   -1    0    0  502    0 -0.00000000000E+00  0.00000000000E+00  0.16549960584E+04  0.16549960584E+04  0.00000000000E+00 0. -1.
         21   -1    0    0  501  502  0.00000000000E+00 -0.00000000000E+00 -0.40878544982E+02  0.40878544982E+02  0.00000000000E+00 0. -1.
         24    2    1    2    0    0  0.16117905077E+03 -0.17372933937E+02  0.81962176780E+03  0.83939922435E+03  0.80812810489E+02 0.  0.
         23    2    1    2    0    0 -0.17205948707E+03 -0.61344307951E+02  0.35246212384E+03  0.40735567245E+03  0.91331834114E+02 0.  0.
        -11    1    3    3    0    0  0.16717785317E+02 -0.25181704068E+02  0.75150424068E+02  0.81001165444E+02  0.00000000000E+00 0.  1.
         12    1    3    3    0    0  0.14446126546E+03  0.78087701305E+01  0.74447134373E+03  0.75839805890E+03  0.00000000000E+00 0. -1.
        -11    1    4    4    0    0 -0.63206091853E+02 -0.45382374543E+02  0.71703785935E+02  0.10581116616E+03  0.00000000000E+00 0.  1.
         11    1    4    4    0    0 -0.10885339522E+03 -0.15961933408E+02  0.28075833790E+03  0.30154450629E+03  0.00000000000E+00 0. -1.
          1    1    1    2  501    0  0.10880436301E+02  0.78717241888E+02  0.44203362181E+03  0.44911970663E+03  0.00000000000E+00 0. -1.
<scales pt_clust_5="13000.00000" pt_clust_6="13000.00000" pt_clust_7="13000.00000" pt_clust_8="13000.00000" pt_clust_9="79.46568"></scales>
<clustering>
<clus scale="   79.466">  2  9  1 -1</clus>
<clus scale="   80.813">  5  6 -1 -1</clus>
<clus scale="   91.332">  7  8 -1 -1</clus>
<clus scale="  182.917">  1  5  2 -1</clus>
<clus scale="   79.466">  2  5  1 -1</clus>
</clustering>
</event>
<event>
 9    2  0.7820252E-005  0.1644066E+03  0.7546771E-02  0.1208050E+00
          2   -1    0    0  502    0 -0.00000000000E+00  0.00000000000E+00  0.17239920538E+04  0.17239920538E+04  0.00000000000E+00 0. -1.
         21   -1    0    0  501  502  0.00000000000E+00 -0.00000000000E+00 -0.32904547600E+02  0.32904547600E+02  0.00000000000E+00 0. -1.
         24    2    1    2    0    0  0.17088748907E+01 -0.61993233628E+02  0.66565027143E+03  0.67264480026E+03  0.74260771565E+02 0.  0.
         23    2    1    2    0    0  0.75119472371E+02  0.16040523505E+03  0.81790777574E+03  0.84206180686E+03  0.93392624919E+02 0.  0.
        -13    1    3    3    0    0 -0.30501299595E+02 -0.43346083908E+02  0.26361542315E+03  0.26889087673E+03  0.00000000000E+00 0.  1.
         14    1    3    3    0    0  0.32210174485E+02 -0.18647149721E+02  0.40203484829E+03  0.40375392353E+03  0.00000000000E+00 0. -1.
        -11    1    4    4    0    0 -0.60261299042E+01  0.95995202115E+02  0.42208217271E+03  0.43290270684E+03  0.00000000000E+00 0.  1.
         11    1    4    4    0    0  0.81145602275E+02  0.64410032940E+02  0.39582560303E+03  0.40915910002E+03  0.00000000000E+00 0. -1.
          1    1    1    2  501    0 -0.76828347261E+02 -0.98412001426E+02  0.20752945907E+03  0.24218999432E+03  0.00000000000E+00 0. -1.
<scales pt_clust_5="13000.00000" pt_clust_6="13000.00000" pt_clust_7="13000.00000" pt_clust_8="13000.00000" pt_clust_9="135.30463"></scales>
<clustering>
<clus scale="   74.261">  5  6 -1 -1</clus>
<clus scale="   93.393">  7  8 -1 -1</clus>
<clus scale="   96.751">  1  5  2 -1</clus>
<clus scale="  135.305">  2  9  1 -1</clus>
<clus scale="  135.305">  2  5  1 -1</clus>
</clustering>
</event>
<event>
 9    2  0.7820252E-005  0.1614649E+03  0.7546771E-02  0.1205729E+00
          2   -1    0    0  502    0 -0.00000000000E+00  0.00000000000E+00  0.19995352231E+04  0.19995352231E+04  0.00000000000E+00 0. -1.
         21   -1    0    0  501  502  0.00000000000E+00 -0.00000000000E+00 -0.24091041070E+02  0.24091041070E+02  0.00000000000E+00 0. -1.
         24    2    1    2    0    0  0.52174837214E+01 -0.69530145905E+02  0.29848711190E+03  0.31720516860E+03  0.81626586933E+02 0.  0.
         23    2    1    2    0    0 -0.13206936598E+03  0.15642841692E+02  0.64905491001E+03  0.66932028447E+03  0.95028159361E+02 0.  0.
        -13    1    3    3    0    0  0.14541236151E+02 -0.45079171877E+02  0.28270604755E+03  0.28664662672E+03  0.00000000000E+00 0.  1.
         14    1    3    3    0    0 -0.93237524294E+01 -0.24450974028E+02  0.15781064343E+02  0.30558541884E+02  0.00000000000E+00 0. -1.
        -11    1    4    4    0    0 -0.60030501130E+00  0.26557527155E+02  0.59099643652E+02  0.64795296855E+02  0.00000000000E+00 0.  1.
         11    1    4    4    0    0 -0.13146906097E+03 -0.10914685463E+02  0.58995526635E+03  0.60452498761E+03  0.00000000000E+00 0. -1.
          1    1    1    2  501    0  0.12685188226E+03  0.53887304214E+02  0.10279021601E+04  0.10371008111E+04  0.00000000000E+00 0. -1.
<scales pt_clust_5="13000.00000" pt_clust_6="13000.00000" pt_clust_7="13000.00000" pt_clust_8="13000.00000" pt_clust_9="130.53954"></scales>
<clustering>
<clus scale="   81.627">  5  6 -1 -1</clus>
<clus scale="   95.028">  7  8 -1 -1</clus>
<clus scale="  107.353">  1  5  2 -1</clus>
<clus scale="  130.540">  2  9  1 -1</clus>
<clus scale="  130.540">  2  5  1 -1</clus>
</clustering>
</event>
<event>
 9    2  0.7820252E-005  0.1509481E+03  0.7546771E-02  0.1201391E+00
         21   -1    0    0  501  502  0.00000000000E+00  0.00000000000E+00  0.25109535586E+03  0.25109535586E+03  0.00000000000E+00 0. -1.
          2   -1    0    0  502    0 -0.00000000000E+00 -0.00000000000E+00 -0.23496253821E+03  0.23496253821E+03  0.00000000000E+00 0. -1.
         23    2    1    2    0    0  0.13894202991E+03  0.59431813262E+02 -0.11238904484E+03  0.20935866725E+03  0.91447941750E+02 0.  0.
         24    2    1    2    0    0 -0.80973833890E+02 -0.31606519320E+02 -0.15348056919E+02  0.11911397230E+03  0.79980258243E+02 0.  0.
        -11    1    4    4    0    0 -0.47742749837E+02 -0.54681735618E+02  0.69430965459E+01  0.72922348850E+02  0.00000000000E+00 0.  1.
         12    1    4    4    0    0 -0.33231084053E+02  0.23075216298E+02 -0.22291153465E+02  0.46191623455E+02  0.00000000000E+00 0. -1.
        -13    1    3    3    0    0  0.10557618700E+03  0.13514489153E+02 -0.32366283022E+02  0.11124993912E+03  0.00000000000E+00 0. -1.
         13    1    3    3    0    0  0.33365842913E+02  0.45917324110E+02 -0.80022761813E+02  0.98108728128E+02  0.00000000000E+00 0.  1.
          1    1    1    2  501    0 -0.57968196020E+02 -0.27825293942E+02  0.14386991940E+03  0.15758525452E+03  0.00000000000E+00 0. -1.
<scales pt_clust_5="13000.00000" pt_clust_6="13000.00000" pt_clust_7="13000.00000" pt_clust_8="13000.00000" pt_clust_9="64.30053"></scales>
<clustering>
<clus scale="   64.301">  1  9  2 -1</clus>
<clus scale="   79.980">  5  6 -1 -1</clus>
<clus scale="   91.448">  7  8 -1 -1</clus>
<clus scale="  144.289">  1  5  2 -1</clus>
<clus scale="   64.301">  1  5  2 -1</clus>
</clustering>
</event>
<event>
 9    2  0.7820252E-005  0.1068593E+03  0.7546771E-02  0.1272536E+00
          2   -1    0    0  502    0 -0.00000000000E+00  0.00000000000E+00  0.26335679599E+03  0.26335679599E+03  0.00000000000E+00 0. -1.
         21   -1    0    0  501  502  0.00000000000E+00 -0.00000000000E+00 -0.76487932194E+02  0.76487932194E+02  0.00000000000E+00 0. -1.
         24    2    1    2    0    0 -0.75039542909E+01  0.40792680892E+02  0.13660015634E+03  0.16425265780E+03  0.81234110674E+02 0.  0.
         23    2    1    2    0    0  0.10630692784E+01 -0.80262326419E+02  0.20797027591E+02  0.12591392799E+03  0.94755631740E+02 0.  0.
        -11    1    3    3    0    0  0.86382170806E+01  0.48937113293E+02  0.13744489333E+03  0.14615251812E+03  0.00000000000E+00 0.  1.
         12    1    3    3    0    0 -0.16142171372E+02 -0.81444324013E+01 -0.84473698534E+00  0.18100139676E+02  0.00000000000E+00 0. -1.
        -11    1    4    4    0    0  0.35328040637E+02 -0.28050599803E+02  0.40298563996E+02  0.60488683774E+02  0.00000000000E+00 0.  1.
         11    1    4    4    0    0 -0.34264971359E+02 -0.52211726616E+02 -0.19501536405E+02  0.65425244215E+02  0.00000000000E+00 0. -1.
          1    1    1    2  501    0  0.64408850125E+01  0.39469645527E+02  0.29471679858E+02  0.49678142391E+02  0.00000000000E+00 0. -1.
<scales pt_clust_5="13000.00000" pt_clust_6="13000.00000" pt_clust_7="13000.00000" pt_clust_8="13000.00000" pt_clust_9="39.99174"></scales>
<clustering>
<clus scale="   39.992">  2  9  1 -1</clus>
<clus scale="   81.234">  5  6 -1 -1</clus>
<clus scale="   94.756">  7  8 -1 -1</clus>
<clus scale="   95.075">  1  5  2 -1</clus>
<clus scale="   39.992">  2  5  1 -1</clus>
</clustering>
</event>
<event>
 9    2  0.7820252E-005  0.9623074E+02  0.7546771E-02  0.1299319E+00
          2   -1    0    0  502    0 -0.00000000000E+00  0.00000000000E+00  0.65232468487E+03  0.65232468487E+03  0.00000000000E+00 0. -1.
         21   -1    0    0  501  502  0.00000000000E+00 -0.00000000000E+00 -0.34599949620E+02  0.34599949620E+02  0.00000000000E+00 0.  1.
         24    2    1    2    0    0  0.25081420607E+01 -0.36076656817E+02  0.50365542323E+03  0.50981564959E+03  0.70252368426E+02 0.  0.
         23    2    1    2    0    0 -0.21081745587E+02  0.27688163571E+02  0.12194979658E+03  0.15525841045E+03  0.89567554003E+02 0.  0.
        -13    1    3    3    0    0 -0.85099330441E+01 -0.19556190180E+02  0.36766115199E+02  0.42504244042E+02  0.00000000000E+00 0.  1.
         14    1    3    3    0    0  0.11018075105E+02 -0.16520466636E+02  0.46688930803E+03  0.46731140554E+03  0.00000000000E+00 0. -1.
        -13    1    4    4    0    0  0.20628304881E+02  0.25047489884E+02  0.73429545363E+01  0.33268944875E+02  0.00000000000E+00 0.  1.
         13    1    4    4    0    0 -0.41710050468E+02  0.26406736867E+01  0.11460684205E+03  0.12198946558E+03  0.00000000000E+00 0. -1.
          1    1    1    2  501    0  0.18573603527E+02  0.83884932462E+01 -0.78804845646E+01  0.21850574452E+02  0.00000000000E+00 0. -1.
<scales pt_clust_5="13000.00000" pt_clust_6="13000.00000" pt_clust_7="13000.00000" pt_clust_8="13000.00000" pt_clust_9="20.38003"></scales>
<clustering>
<clus scale="   20.380">  2  9  1 -1</clus>
<clus scale="   70.252">  5  6 -1 -1</clus>
<clus scale="   78.571">  1  5  2 -1</clus>
<clus scale="   89.568">  7  8 -1 -1</clus>
<clus scale="   20.380">  2  5  1 -1</clus>
</clustering>
</event>
<event>
 9    2  0.7820252E-005  0.1245912E+03  0.7546771E-02  0.1238798E+00
         -1   -1    0    0    0  501 -0.00000000000E+00  0.00000000000E+00  0.10140154654E+03  0.10140154654E+03  0.00000000000E+00 0.  1.
         21   -1    0    0  501  502  0.00000000000E+00 -0.00000000000E+00 -0.24297824945E+03  0.24297824945E+03  0.00000000000E+00 0. -1.
         23    2    1    2    0    0  0.76445287558E+02  0.54122200552E+02  0.84241256838E+01  0.13052217696E+03  0.90509547569E+02 0.  0.
         24    2    1    2    0    0 -0.39843598997E+02 -0.63510275584E+02 -0.84572219018E+02  0.13830153053E+03  0.79710636873E+02 0.  0.
        -13    1    4    4    0    0 -0.45908048261E+02 -0.13212065763E+02 -0.71481569677E+02  0.85975126521E+02  0.00000000000E+00 0.  1.
         14    1    4    4    0    0  0.60644492640E+01 -0.50298209821E+02 -0.13090649341E+02  0.52326404006E+02  0.00000000000E+00 0. -1.
        -11    1    3    3    0    0  0.43701053704E+02  0.59978438954E+02 -0.29694158294E+02  0.79930834294E+02  0.00000000000E+00 0. -1.
         11    1    3    3    0    0  0.32744233854E+02 -0.58562384018E+01  0.38118283977E+02  0.50591342661E+02  0.00000000000E+00 0.  1.
         -2    1    1    2    0  502 -0.36601688561E+02  0.93880750319E+01 -0.65428609576E+02  0.75556088499E+02  0.00000000000E+00 0.  1.
<scales pt_clust_5="13000.00000" pt_clust_6="13000.00000" pt_clust_7="13000.00000" pt_clust_8="13000.00000" pt_clust_9="37.78650"></scales>
<clustering>
<clus scale="   37.786">  2  9  1 -1</clus>
<clus scale="   79.711">  5  6 -1 -1</clus>
<clus scale="   90.510">  7  8 -1 -1</clus>
<clus scale="  116.982">  2  5  1 -1</clus>
<clus scale="   37.786">  2  5  1 -1</clus>
</clustering>
</event>
<event>
 9    2  0.7820252E-005  0.1772505E+03  0.7546771E-02  0.1171869E+00
          2   -1    0    0  502    0 -0.00000000000E+00  0.00000000000E+00  0.52436548476E+03  0.52436548476E+03  0.00000000000E+00 0. -1.
         21   -1    0    0  501  502  0.00000000000E+00 -0.00000000000E+00 -0.13847684730E+03  0.13847684730E+03  0.00000000000E+00 0. -1.
         24    2    1    2    0    0 -0.11078887979E+03 -0.42366548744E+01  0.56530423588E+02  0.14753429910E+03  0.79237336474E+02 0.  0.
         23    2    1    2    0    0  0.20955444855E+03  0.86158375611E+02  0.12536357771E+03  0.27431090126E+03  0.90521330852E+02 0.  0.
        -13    1    3    3    0    0 -0.79613354278E+02  0.33993069440E+02  0.41246803634E+02  0.95891155793E+02  0.00000000000E+00 0.  1.
         14    1    3    3    0    0 -0.31175525508E+02 -0.38229724314E+02  0.15283619954E+02  0.51643143308E+02  0.00000000000E+00 0. -1.
        -11    1    4    4    0    0  0.11289376874E+02  0.21938786586E+02 -0.90929335015E+01  0.26295281453E+02  0.00000000000E+00 0.  1.
         11    1    4    4    0    0  0.19826507168E+03  0.64219589025E+02  0.13445651121E+03  0.24801561981E+03  0.00000000000E+00 0. -1.
          1    1    1    2  501    0 -0.98765568766E+02 -0.81921720736E+02  0.20399463617E+03  0.24099713170E+03  0.00000000000E+00 0. -1.
<scales pt_clust_5="13000.00000" pt_clust_6="13000.00000" pt_clust_7="13000.00000" pt_clust_8="13000.00000" pt_clust_9="128.31922"></scales>
<clustering>
<clus scale="   79.237">  5  6 -1 -1</clus>
<clus scale="   90.521">  7  8 -1 -1</clus>
<clus scale="  128.319">  2  9  1 -1</clus>
<clus scale="  171.762">  1  5  2 -1</clus>
<clus scale="  128.319">  2  5  1 -1</clus>
</clustering>
</event>
<event>
 9    2  0.7820252E-005  0.9969809E+02  0.7546771E-02  0.1286019E+00
         -3   -1    0    0    0  501 -0.00000000000E+00  0.00000000000E+00  0.18859441335E+03  0.18859441335E+03  0.00000000000E+00 0.  1.
         21   -1    0    0  501  502  0.00000000000E+00 -0.00000000000E+00 -0.76826465133E+02  0.76826465133E+02  0.00000000000E+00 0. -1.
         23    2    1    2    0    0  0.20194107791E+02 -0.43250289992E+02  0.10098402018E+03  0.14441449510E+03  0.91538977974E+02 0.  0.
         24    2    1    2    0    0  0.80461459704E+01  0.27322251193E+02 -0.15282859684E+01  0.86324904665E+02  0.81476423781E+02 0.  0.
        -11    1    4    4    0    0  0.28295838927E+02  0.38539518950E+02  0.22603228582E+02  0.52885300073E+02  0.00000000000E+00 0.  1.
         12    1    4    4    0    0 -0.20249692956E+02 -0.11217267757E+02 -0.24131514551E+02  0.33439604592E+02  0.00000000000E+00 0. -1.
        -11    1    3    3    0    0  0.34607433465E+02 -0.66192367780E+02  0.62747606892E+02  0.97551864021E+02  0.00000000000E+00 0. -1.
         11    1    3    3    0    0 -0.14413325673E+02  0.22942077788E+02  0.38236413290E+02  0.46862631077E+02  0.00000000000E+00 0.  1.
         -4    1    1    2    0  502 -0.28240253762E+02  0.15928038799E+02  0.12312214004E+02  0.34681478720E+02  0.00000000000E+00 0.  1.
<scales pt_clust_5="13000.00000" pt_clust_6="13000.00000" pt_clust_7="13000.00000" pt_clust_8="13000.00000" pt_clust_9="32.42244"></scales>
<clustering>
<clus scale="   32.422">  2  9  1 -1</clus>
<clus scale="   81.476">  5  6 -1 -1</clus>
<clus scale="   90.547">  2  5  1 -1</clus>
<clus scale="   91.539">  7  8 -1 -1</clus>
<clus scale="   32.422">  2  5  1 -1</clus>
</clustering>
</event>
<event>
 9    2  0.7820252E-005  0.2439343E+03  0.7546771E-02  0.1125277E+00
         21   -1    0    0  501  502  0.00000000000E+00  0.00000000000E+00  0.27941064029E+03  0.27941064029E+03  0.00000000000E+00 0. -1.
          2   -1    0    0  502    0 -0.00000000000E+00 -0.00000000000E+00 -0.59570183320E+03  0.59570183320E+03  0.00000000000E+00 0. -1.
         24    2    1    2    0    0 -0.31046670794E+02  0.17974273603E+03 -0.24660311012E+03  0.31713451145E+03  0.80559651848E+02 0.  0.
         23    2    1    2    0    0  0.22605811991E+03 -0.11837333023E+03  0.10355822011E+03  0.29000417465E+03  0.90904331442E+02 0.  0.
        -11    1    3    3    0    0 -0.15216931870E+02  0.35715973828E+02 -0.10671154637E+02  0.40262381242E+02  0.00000000000E+00 0.  1.
         12    1    3    3    0    0 -0.15829738923E+02  0.14402676220E+03 -0.23593195549E+03  0.27687213021E+03  0.00000000000E+00 0. -1.
        -13    1    4    4    0    0  0.16791642159E+03 -0.83761821529E+02  0.11683716836E+03  0.22104952227E+03  0.00000000000E+00 0. -1.
         13    1    4    4    0    0  0.58141698324E+02 -0.34611508697E+02 -0.13278948251E+02  0.68954652381E+02  0.00000000000E+00 0.  1.
          1    1    1    2  501    0 -0.19501144912E+03 -0.61369405807E+02 -0.17324630290E+03  0.26797378738E+03  0.00000000000E+00 0. -1.
<scales pt_clust_5="13000.00000" pt_clust_6="13000.00000" pt_clust_7="13000.00000" pt_clust_8="13000.00000" pt_clust_9="226.36343"></scales>
<clustering>
<clus scale="   80.560">  5  6 -1 -1</clus>
<clus scale="   90.904">  7  8 -1 -1</clus>
<clus scale="  199.402">  2  5  1 -1</clus>
<clus scale="  226.363">  1  9  2 -1</clus>
<clus scale="  226.363">  1  5  2 -1</clus>
</clustering>
</event>
<event>
 9    2  0.7820252E-005  0.1147173E+03  0.7546771E-02  0.1255549E+00
         21   -1    0    0  501  502  0.00000000000E+00  0.00000000000E+00  0.53021882886E+02  0.53021882886E+02  0.00000000000E+00 0. -1.
          2   -1    0    0  502    0 -0.00000000000E+00 -0.00000000000E+00 -0.13509086121E+04  0.13509086121E+04  0.00000000000E+00 0. -1.
         24    2    1    2    0    0  0.21083880147E+02  0.63129796359E+02 -0.12099017946E+04  0.12147009872E+04  0.84889543029E+02 0.  0.
         23    2    1    2    0    0 -0.36517251143E+02 -0.43226698207E+02 -0.11014771972E+03  0.15568086703E+03  0.94350172921E+02 0.  0.
        -13    1    3    3    0    0  0.38516301909E+02  0.18656516074E+02 -0.25194768497E+03  0.25555666117E+03  0.00000000000E+00 0.  1.
         14    1    3    3    0    0 -0.17432421762E+02  0.44473280284E+02 -0.95795410963E+03  0.95914432603E+03  0.00000000000E+00 0. -1.
        -11    1    4    4    0    0 -0.10077309103E+02  0.28403071366E+02 -0.50422391281E+02  0.58742694561E+02  0.00000000000E+00 0. -1.
         11    1    4    4    0    0 -0.26439942040E+02 -0.71629769573E+02 -0.59725328441E+02  0.96938172468E+02  0.00000000000E+00 0.  1.
          1    1    1    2  501    0  0.15433370996E+02 -0.19903098152E+02  0.22162785083E+02  0.33548640791E+02  0.00000000000E+00 0. -1.
<scales pt_clust_5="13000.00000" pt_clust_6="13000.00000" pt_clust_7="13000.00000" pt_clust_8="13000.00000" pt_clust_9="25.18576"></scales>
<clustering>
<clus scale="   25.186">  1  9  2 -1</clus>
<clus scale="   84.890">  5  6 -1 -1</clus>
<clus scale="   94.350">  7  8 -1 -1</clus>
<clus scale="  107.072">  2  5  1 -1</clus>
<clus scale="   25.186">  1  5  2 -1</clus>
</clustering>
</event>
<event>
 9    2  0.7820252E-005  0.2503805E+03  0.7546771E-02  0.1113754E+00
          2   -1    0    0  502    0 -0.00000000000E+00  0.00000000000E+00  0.18635856401E+04  0.18635856401E+04  0.00000000000E+00 0. -1.
         21   -1    0    0  501  502  0.00000000000E+00 -0.00000000000E+00 -0.57022445362E+02  0.57022445362E+02  0.00000000000E+00 0. -1.
         24    2    1    2    0    0  0.20946027465E+03 -0.84745304499E+02  0.90036715905E+03  0.93156433965E+03  0.78075120912E+02 0.  0.
         23    2    1    2    0    0 -0.20437263592E+03  0.15765700096E+03  0.44721798994E+03  0.52428268245E+03  0.90799208831E+02 0.  0.
        -13    1    3    3    0    0  0.67013417744E+00 -0.20402580336E+02  0.67637259187E+02  0.70650641854E+02  0.00000000000E+00 0.  1.
         14    1    3    3    0    0  0.20879014048E+03 -0.64342724163E+02  0.83272989987E+03  0.86091369779E+03  0.00000000000E+00 0. -1.
        -11    1    4    4    0    0  0.25478229985E+01  0.29329311144E+02  0.60790401182E+02  0.67543858123E+02  0.00000000000E+00 0.  1.
         11    1    4    4    0    0 -0.20692045892E+03  0.12832768981E+03  0.38642758876E+03  0.45673882433E+03  0.00000000000E+00 0. -1.
          1    1    1    2  501    0 -0.50876387303E+01 -0.72911696457E+02  0.45897804579E+03  0.46476106341E+03  0.00000000000E+00 0. -1.
<scales pt_clust_5="13000.00000" pt_clust_6="13000.00000" pt_clust_7="13000.00000" pt_clust_8="13000.00000" pt_clust_9="73.08902"></scales>
<clustering>
<clus scale="   73.089">  2  9  1 -1</clus>
<clus scale="   78.075">  5  6 -1 -1</clus>
<clus scale="   90.799">  7  8 -1 -1</clus>
<clus scale="  246.052">  1  5  2 -1</clus>
<clus scale="   73.089">  2  5  1 -1</clus>
</clustering>
</event>
<event>
 9    2  0.7820252E-005  0.3173709E+03  0.7546771E-02  0.1098233E+00
         -3   -1    0    0    0  501 -0.00000000000E+00  0.00000000000E+00  0.14867618081E+04  0.14867618081E+04  0.00000000000E+00 0.  1.
         21   -1    0    0  501  502  0.00000000000E+00 -0.00000000000E+00 -0.18908423400E+03  0.18908423400E+03  0.00000000000E+00 0. -1.
         23    2    1    2    0    0  0.58477407486E+02  0.14340130331E+03  0.63159229804E+03  0.65672103495E+03  0.91597739210E+02 0.  0.
         24    2    1    2    0    0 -0.16299776002E+03 -0.29998225209E+03  0.25825049014E+02  0.35176059699E+03  0.80690539100E+02 0.  0.
        -13    1    4    4    0    0 -0.17284678053E+02 -0.29988479462E+02  0.28667181064E+02  0.44943033565E+02  0.00000000000E+00 0.  1.
         14    1    4    4    0    0 -0.14571308197E+03 -0.26999377262E+03 -0.28421320499E+01  0.30681756343E+03  0.00000000000E+00 0. -1.
        -13    1    3    3    0    0  0.80987953299E+02  0.86060692677E+02  0.42774835877E+03  0.44377263304E+03  0.00000000000E+00 0.  1.
         13    1    3    3    0    0 -0.22510545813E+02  0.57340610631E+02  0.20384393927E+03  0.21294840191E+03  0.00000000000E+00 0. -1.
         -4    1    1    2    0  502  0.10452035254E+03  0.15658094878E+03  0.64026022705E+03  0.66736441017E+03  0.00000000000E+00 0.  1.
<scales pt_clust_5="13000.00000" pt_clust_6="13000.00000" pt_clust_7="13000.00000" pt_clust_8="13000.00000" pt_clust_9="306.94202"></scales>
<clustering>
<clus scale="   80.691">  5  6 -1 -1</clus>
<clus scale="   91.598">  7  8 -1 -1</clus>
<clus scale="  179.927">  1  7  2 -1</clus>
<clus scale="  306.942">  2  9  1 -1</clus>
<clus scale="  306.942">  2  5  1 -1</clus>
</clustering>
</event>
<event>
 9    2  0.7820252E-005  0.9656808E+02  0.7546771E-02  0.1295408E+00
          2   -1    0    0  502    0 -0.00000000000E+00  0.00000000000E+00  0.36098766914E+03  0.36098766914E+03  0.00000000000E+00 0. -1.
         21   -1    0    0  501  502  0.00000000000E+00 -0.00000000000E+00 -0.12813036966E+03  0.12813036966E+03  0.00000000000E+00 0. -1.
         24    2    1    2    0    0 -0.43280238838E+01 -0.31038513710E+02  0.25667295734E+03  0.27105281356E+03  0.81280376387E+02 0.  0.
         23    2    1    2    0    0  0.62442571216E+01 -0.27847932277E+02  0.60023784831E+02  0.11559407018E+03  0.94576087018E+02 0.  0.
        -13    1    3    3    0    0 -0.28177915909E+02 -0.15929405928E+02  0.35328250390E+02  0.47914780536E+02  0.00000000000E+00 0.  1.
         14    1    3    3    0    0  0.23849892025E+02 -0.15109107782E+02  0.22134470695E+03  0.22313803302E+03  0.00000000000E+00 0. -1.
        -11    1    4    4    0    0 -0.21479849083E+02  0.26652857885E+02  0.76315405892E+01  0.35071343884E+02  0.00000000000E+00 0.  1.
         11    1    4    4    0    0  0.27724106205E+02 -0.54500790161E+02  0.52392244242E+02  0.80522726294E+02  0.00000000000E+00 0. -1.
          1    1    1    2  501    0 -0.19162332377E+01  0.58886445987E+02 -0.83839442690E+02  0.10247115507E+03  0.00000000000E+00 0. -1.
<scales pt_clust_5="13000.00000" pt_clust_6="13000.00000" pt_clust_7="13000.00000" pt_clust_8="13000.00000" pt_clust_9="58.91762"></scales>
<clustering>
<clus scale="   58.918">  2  9  1 -1</clus>
<clus scale="   81.280">  5  6 -1 -1</clus>
<clus scale="   83.590">  1  5  2 -1</clus>
<clus scale="   94.576">  7  8 -1 -1</clus>
<clus scale="   58.918">  2  5  1 -1</clus>
</clustering>
</event>
<event>
 9    2  0.7820252E-005  0.9816700E+02  0.7546771E-02  0.1290060E+00
         -1   -1    0    0    0  501 -0.00000000000E+00  0.00000000000E+00  0.38534310032E+03  0.38534310032E+03  0.00000000000E+00 0.  1.
         21   -1    0    0  501  502  0.00000000000E+00 -0.00000000000E+00 -0.46744325392E+02  0.46744325392E+02  0.00000000000E+00 0.  1.
         24    2    1    2    0    0  0.38395726241E+02 -0.38380806993E+01  0.25785339092E+03  0.27282894055E+03  0.80363529895E+02 0.  0.
         23    2    1    2    0    0 -0.19118719216E+02  0.16282200550E+02  0.23691271480E+02  0.97763518902E+02  0.91464713440E+02 0.  0.
        -13    1    3    3    0    0  0.55749659323E+02 -0.14682816975E+02  0.11630894646E+03  0.12981286784E+03  0.00000000000E+00 0.  1.
         14    1    3    3    0    0 -0.17353933082E+02  0.10844736275E+02  0.14154444445E+03  0.14301607271E+03  0.00000000000E+00 0. -1.
        -13    1    4    4    0    0 -0.36257396793E+02 -0.28924593178E+02  0.91266497109E+01  0.47270780062E+02  0.00000000000E+00 0. -1.
         13    1    4    4    0    0  0.17138677577E+02  0.45206793728E+02  0.14564621769E+02  0.50492738840E+02  0.00000000000E+00 0.  1.
         -2    1    1    2    0  502 -0.19277007025E+02 -0.12444119851E+02  0.57054112534E+02  0.61494966264E+02  0.00000000000E+00 0.  1.
<scales pt_clust_5="13000.00000" pt_clust_6="13000.00000" pt_clust_7="13000.00000" pt_clust_8="13000.00000" pt_clust_9="22.94471"></scales>
<clustering>
<clus scale="   22.945">  2  9  1 -1</clus>
<clus scale="   80.364">  5  6 -1 -1</clus>
<clus scale="   87.916">  1  5  2 -1</clus>
<clus scale="   91.465">  7  8 -1 -1</clus>
<clus scale="   22.945">  2  5  1 -1</clus>
</clustering>
</event>
<event>
 9    2  0.7820252E-005  0.1036938E+03  0.7546771E-02  0.1278188E+00
          4   -1    0    0  502    0 -0.00000000000E+00  0.00000000000E+00  0.43463967752E+03  0.43463967752E+03  0.00000000000E+00 0. -1.
         21   -1    0    0  501  502  0.00000000000E+00 -0.00000000000E+00 -0.75336865015E+02  0.75336865015E+02  0.00000000000E+00 0. -1.
         23    2    1    2    0    0  0.51174420787E+02  0.72473638508E+01  0.33512047080E+03  0.35126488062E+03  0.91705729251E+02 0.  0.
         24    2    1    2    0    0 -0.23603851576E+02  0.67658503218E+01 -0.36069101431E+02  0.90986165556E+02  0.79840990129E+02 0.  0.
        -11    1    4    4    0    0 -0.90246589391E+01  0.41689872956E+02 -0.69118483693E+01  0.43211845875E+02  0.00000000000E+00 0.  1.
         12    1    4    4    0    0 -0.14579192637E+02 -0.34924022634E+02 -0.29157253061E+02  0.47774319681E+02  0.00000000000E+00 0. -1.
        -11    1    3    3    0    0  0.74154279655E+02  0.17257088446E+02  0.28798595842E+03  0.29788013788E+03  0.00000000000E+00 0. -1.
         11    1    3    3    0    0 -0.22979858868E+02 -0.10009724595E+02  0.47134512381E+02  0.53384742741E+02  0.00000000000E+00 0.  1.
          3    1    1    2  501    0 -0.27570569211E+02 -0.14013214173E+02  0.60251443135E+02  0.67725496365E+02  0.00000000000E+00 0. -1.
<scales pt_clust_5="13000.00000" pt_clust_6="13000.00000" pt_clust_7="13000.00000" pt_clust_8="13000.00000" pt_clust_9="30.92745"></scales>
<clustering>
<clus scale="   30.927">  2  9  1 -1</clus>
<clus scale="   79.841">  5  6 -1 -1</clus>
<clus scale="   91.706">  7  8 -1 -1</clus>
<clus scale="   93.365">  2  5  1 -1</clus>
<clus scale="   30.927">  2  5  1 -1</clus>
</clustering>
</event>
<event>
 9    2  0.7820252E-005  0.1348880E+03  0.7546771E-02  0.1223619E+00
         21   -1    0    0  501  502  0.00000000000E+00  0.00000000000E+00  0.67895655704E+02  0.67895655704E+02  0.00000000000E+00 0.  1.
          2   -1    0    0  502    0 -0.00000000000E+00 -0.00000000000E+00 -0.56699440804E+03  0.56699440804E+03  0.00000000000E+00 0. -1.
         24    2    1    2    0    0  0.80284373260E+02  0.57601849073E+02 -0.41086423871E+03  0.43005448098E+03  0.79836585296E+02 0.  0.
         23    2    1    2    0    0 -0.88715426833E+02 -0.35392786049E+02 -0.10976062416E+03  0.17277784455E+03  0.93175708677E+02 0.  0.
        -11    1    3    3    0    0  0.34432387807E+02  0.27825269526E+02 -0.57920745329E+02  0.72901630254E+02  0.00000000000E+00 0.  1.
         12    1    3    3    0    0  0.45851985452E+02  0.29776579547E+02 -0.35294349338E+03  0.35715285073E+03  0.00000000000E+00 0. -1.
        -11    1    4    4    0    0 -0.33998089723E+02 -0.44410829046E+02 -0.74765426778E+01  0.56427746117E+02  0.00000000000E+00 0.  1.
         11    1    4    4    0    0 -0.54717337110E+02  0.90180429975E+01 -0.10228408148E+03  0.11635009843E+03  0.00000000000E+00 0. -1.
          1    1    1    2  501    0  0.84310535738E+01 -0.22209063024E+02  0.21526110536E+02  0.32057738217E+02  0.00000000000E+00 0. -1.
<scales pt_clust_5="13000.00000" pt_clust_6="13000.00000" pt_clust_7="13000.00000" pt_clust_8="13000.00000" pt_clust_9="23.75553"></scales>
<clustering>
<clus scale="   23.756">  1  9  2 -1</clus>
<clus scale="   79.837">  5  6 -1 -1</clus>
<clus scale="   93.176">  7  8 -1 -1</clus>
<clus scale="  126.043">  2  5  1 -1</clus>
<clus scale="   23.756">  1  5  2 -1</clus>
</clustering>
</event>
<event>
 9    2  0.7820252E-005  0.8972055E+02  0.7546771E-02  0.1307680E+00
         21   -1    0    0  501  502  0.00000000000E+00  0.00000000000E+00  0.60563570640E+02  0.60563570640E+02  0.00000000000E+00 0. -1.
          4   -1    0    0  502    0 -0.00000000000E+00 -0.00000000000E+00 -0.37862677800E+03  0.37862677800E+03  0.00000000000E+00 0. -1.
         24    2    1    2    0    0  0.35792703026E+02 -0.23291925080E+02 -0.15129636035E+03  0.17615009945E+03  0.79464693525E+02 0.  0.
         23    2    1    2    0    0  0.18959702254E+02 -0.31703338557E+02 -0.18479455268E+02  0.95674017661E+02  0.86298640796E+02 0.  0.
        -13    1    3    3    0    0 -0.24717349182E+02  0.15307010767E+01 -0.44044265928E+02  0.50529078336E+02  0.00000000000E+00 0.  1.
         14    1    3    3    0    0  0.60510052209E+02 -0.24822626156E+02 -0.10725209442E+03  0.12562102111E+03  0.00000000000E+00 0. -1.
        -11    1    4    4    0    0  0.10861621126E+02 -0.54208149323E+02  0.12356509307E+02  0.56649638911E+02  0.00000000000E+00 0. -1.
         11    1    4    4    0    0  0.80980811280E+01  0.22504810767E+02 -0.30835964574E+02  0.39024378750E+02  0.00000000000E+00 0.  1.
          3    1    1    2  501    0 -0.54752405280E+02  0.54995263636E+02 -0.14828739174E+03  0.16736623152E+03  0.00000000000E+00 0. -1.
<scales pt_clust_5="13000.00000" pt_clust_6="13000.00000" pt_clust_7="13000.00000" pt_clust_8="13000.00000" pt_clust_9="77.60355"></scales>
<clustering>
<clus scale="   77.604">  1  9  2 -1</clus>
<clus scale="   79.465">  5  6 -1 -1</clus>
<clus scale="   83.168">  2  5  1 -1</clus>
<clus scale="   86.299">  7  8 -1 -1</clus>
<clus scale="   77.604">  1  5  2 -1</clus>
</clustering>
</event>
<event>
 9    2  0.7820252E-005  0.9562796E+02  0.7546771E-02  0.1293981E+00
         21   -1    0    0  501  502  0.00000000000E+00  0.00000000000E+00  0.40269633775E+03  0.40269633775E+03  0.00000000000E+00 0.  1.
          4   -1    0    0  502    0 -0.00000000000E+00 -0.00000000000E+00 -0.49606284034E+02  0.49606284034E+02  0.00000000000E+00 0. -1.
         24    2    1    2    0    0  0.48138505178E+01  0.51078576910E+01  0.51389403511E+02  0.99396104249E+02  0.84790632617E+02 0.  0.
         23    2    1    2    0    0 -0.66640779347E+02 -0.96818180657E+01  0.14655688888E+03  0.18583444650E+03  0.92308118576E+02 0.  0.
        -13    1    3    3    0    0 -0.24115326360E+02  0.83303261868E+01 -0.13071968221E+02  0.28667397039E+02  0.00000000000E+00 0.  1.
         14    1    3    3    0    0  0.28929176877E+02 -0.32224684958E+01  0.64461371732E+02  0.70728707210E+02  0.00000000000E+00 0. -1.
        -13    1    4    4    0    0 -0.19854632865E+02 -0.40275314888E+02  0.23511863963E+02  0.50686439829E+02  0.00000000000E+00 0. -1.
         13    1    4    4    0    0 -0.46786146483E+02  0.30593496822E+02  0.12304502492E+03  0.13514800667E+03  0.00000000000E+00 0.  1.
          3    1    1    2  501    0  0.61826928830E+02  0.45739603748E+01  0.15514376132E+03  0.16707207103E+03  0.00000000000E+00 0. -1.
<scales pt_clust_5="13000.00000" pt_clust_6="13000.00000" pt_clust_7="13000.00000" pt_clust_8="13000.00000" pt_clust_9="61.99589"></scales>
<clustering>
<clus scale="   61.996">  1  9  2 -1</clus>
<clus scale="   84.791">  5  6 -1 -1</clus>
<clus scale="   88.393">  2  5  1 -1</clus>
<clus scale="   92.308">  7  8 -1 -1</clus>
<clus scale="   61.996">  1  5  2 -1</clus>
</clustering>
</event>
<event>
 9    2  0.7820252E-005  0.9172037E+02  0.7546771E-02  0.1303442E+00
         21   -1    0    0  501  502  0.00000000000E+00  0.00000000000E+00  0.94759247076E+02  0.94759247076E+02  0.00000000000E+00 0.  1.
          2   -1    0    0  502    0 -0.00000000000E+00 -0.00000000000E+00 -0.14515899918E+03  0.14515899918E+03  0.00000000000E+00 0. -1.
         23    2    1    2    0    0  0.19815348854E+02 -0.41525631552E+01 -0.70370181676E+02  0.11670120126E+03  0.90869775372E+02 0.  0.
         24    2    1    2    0    0  0.37455790185E+01 -0.20008041053E+02  0.36189770716E+01  0.85717416768E+02  0.83186702503E+02 0.  0.
        -13    1    4    4    0    0  0.32082428601E+02 -0.35353686372E+02  0.17203815179E+02  0.50745803981E+02  0.00000000000E+00 0.  1.
         14    1    4    4    0    0 -0.28336849582E+02  0.15345645319E+02 -0.13584838108E+02  0.34971612787E+02  0.00000000000E+00 0. -1.
        -11    1    3    3    0    0  0.31075505964E+01 -0.36993100661E+02 -0.70699507585E+02  0.79853407817E+02  0.00000000000E+00 0.  1.
         11    1    3    3    0    0  0.16707798258E+02  0.32840537506E+02  0.32932590939E+00  0.36847793446E+02  0.00000000000E+00 0. -1.
          1    1    1    2  501    0 -0.23560927873E+02  0.24160604208E+02  0.16351452502E+02  0.37499628223E+02  0.00000000000E+00 0. -1.
<scales pt_clust_5="13000.00000" pt_clust_6="13000.00000" pt_clust_7="13000.00000" pt_clust_8="13000.00000" pt_clust_9="33.74688"></scales>
<clustering>
<clus scale="   33.747">  1  9  2 -1</clus>
<clus scale="   83.187">  5  6 -1 -1</clus>
<clus scale="   84.115">  1  5  2 -1</clus>
<clus scale="   90.870">  7  8 -1 -1</clus>
<clus scale="   33.747">  1  5  2 -1</clus>
</clustering>
</event>
<event>
 9    2  0.7820252E-005  0.1087488E+03  0.7546771E-02  0.1265856E+00
          2   -1    0    0  502    0 -0.00000000000E+00  0.00000000000E+00  0.92696278381E+03  0.92696278381E+03  0.00000000000E+00 0. -1.
         21   -1    0    0  501  502  0.00000000000E+00 -0.00000000000E+00 -0.38908880805E+02  0.38908880805E+02  0.00000000000E+00 0.  1.
         23    2    1    2    0    0  0.79797814041E+02  0.35783729677E+02  0.19493790531E+03  0.23154761062E+03  0.89248768164E+02 0.  0.
         24    2    1    2    0    0 -0.44635118602E+02  0.31976769924E+02  0.11586155783E+03  0.15204354703E+03  0.81722285717E+02 0.  0.
        -11    1    4    4    0    0 -0.46496645799E+02  0.53710120982E+02  0.63357701564E+02  0.95188830825E+02  0.00000000000E+00 0.  1.
         12    1    4    4    0    0  0.18615271967E+01 -0.21733351058E+02  0.52503856267E+02  0.56854716204E+02  0.00000000000E+00 0. -1.
        -13    1    3    3    0    0  0.84719757363E+02  0.12608306518E+02  0.18842068934E+03  0.20697527111E+03  0.00000000000E+00 0.  1.
         13    1    3    3    0    0 -0.49219433222E+01  0.23175423158E+02  0.65172159742E+01  0.24572339504E+02  0.00000000000E+00 0. -1.
          1    1    1    2  501    0 -0.35162695439E+02 -0.67760499601E+02  0.57725443986E+03  0.58228050697E+03  0.00000000000E+00 0. -1.
<scales pt_clust_5="13000.00000" pt_clust_6="13000.00000" pt_clust_7="13000.00000" pt_clust_8="13000.00000" pt_clust_9="76.34072"></scales>
<clustering>
<clus scale="   76.341">  2  9  1 -1</clus>
<clus scale="   81.722">  5  6 -1 -1</clus>
<clus scale="   89.249">  7  8 -1 -1</clus>
<clus scale="  102.662">  2  5  1 -1</clus>
<clus scale="   76.341">  2  5  1 -1</clus>
</clustering>
</event>
<event>
 9    2  0.7820252E-005  0.9620311E+02  0.7546771E-02  0.1293961E+00
          2   -1    0    0  502    0 -0.00000000000E+00  0.00000000000E+00  0.59076075230E+03  0.59076075230E+03  0.00000000000E+00 0. -1.
         21   -1    0    0  501  502  0.00000000000E+00 -0.00000000000E+00 -0.45398699085E+02  0.45398699085E+02  0.00000000000E+00 0. -1.
         24    2    1    2    0    0  0.23813235033E+02  0.45146063835E+02  0.38067861923E+03  0.39257022157E+03  0.81178386788E+02 0.  0.
         23    2    1    2    0    0  0.54631672997E+01  0.28954685274E+02  0.11517544889E+03  0.14978587519E+03  0.91116433105E+02 0.  0.
        -13    1    3    3    0    0  0.40380762516E+02  0.15322179871E+02  0.89246292453E+02  0.99147747801E+02  0.00000000000E+00 0.  1.
         14    1    3    3    0    0 -0.16567527484E+02  0.29823883965E+02  0.29143232678E+03  0.29342247377E+03  0.00000000000E+00 0. -1.
        -13    1    4    4    0    0 -0.22876680136E+02  0.39151411633E+02  0.19283117130E+02  0.49274883391E+02  0.00000000000E+00 0. -1.
         13    1    4    4    0    0  0.28339847435E+02 -0.10196726359E+02  0.95892331761E+02  0.10051099179E+03  0.00000000000E+00 0.  1.
          1    1    1    2  501    0 -0.29276402332E+02 -0.74100749110E+02  0.49507985099E+02  0.93803354634E+02  0.00000000000E+00 0. -1.
<scales pt_clust_5="13000.00000" pt_clust_6="13000.00000" pt_clust_7="13000.00000" pt_clust_8="13000.00000" pt_clust_9="79.67452"></scales>
<clustering>
<clus scale="   79.675">  2  9  1 -1</clus>
<clus scale="   81.178">  5  6 -1 -1</clus>
<clus scale="   86.849">  1  5  2 -1</clus>
<clus scale="   91.116">  7  8 -1 -1</clus>
<clus scale="   79.675">  2  5  1 -1</clus>
</clustering>
</event>
<event>
 9    2  0.7820252E-005  0.1508998E+03  0.7546771E-02  0.1200957E+00
          2   -1    0    0  502    0 -0.00000000000E+00  0.00000000000E+00  0.81671427092E+03  0.81671427092E+03  0.00000000000E+00 0. -1.
         21   -1    0    0  501  502  0.00000000000E+00 -0.00000000000E+00 -0.68128402740E+02  0.68128402740E+02  0.00000000000E+00 0. -1.
         24    2    1    2    0    0  0.77220033585E+02  0.10901841852E+03  0.62738409777E+03  0.64668357112E+03  0.82102898034E+02 0.  0.
         23    2    1    2    0    0 -0.79301237035E+02 -0.41339063611E+02  0.11223968234E+03  0.16985723205E+03  0.90863241263E+02 0.  0.
        -11    1    3    3    0    0 -0.17026606486E+02  0.21105312816E+02  0.86232781265E+02  0.90395974037E+02  0.00000000000E+00 0.  1.
         12    1    3    3    0    0  0.94246640070E+02  0.87913105706E+02  0.54115131650E+03  0.55628759709E+03  0.00000000000E+00 0. -1.
        -11    1    4    4    0    0 -0.83476156748E+02 -0.63530141066E+02  0.91621980973E+02  0.13928005947E+03  0.00000000000E+00 0.  1.
         11    1    4    4    0    0  0.41749197130E+01  0.22191077455E+02  0.20617701368E+02  0.30577172579E+02  0.00000000000E+00 0. -1.
          1    1    1    2  501    0  0.20812034508E+01 -0.67679354911E+02  0.89620880708E+01  0.68301870483E+02  0.00000000000E+00 0. -1.
<scales pt_clust_5="13000.00000" pt_clust_6="13000.00000" pt_clust_7="13000.00000" pt_clust_8="13000.00000" pt_clust_9="67.71135"></scales>
<clustering>
<clus scale="   67.711">  2  9  1 -1</clus>
<clus scale="   82.103">  5  6 -1 -1</clus>
<clus scale="   90.863">  7  8 -1 -1</clus>
<clus scale="  145.793">  1  5  2 -1</clus>
<clus scale="   67.711">  2  5  1 -1</clus>
</clustering>
</event>
<event>
 9    2  0.7820252E-005  0.4518359E+03  0.7546771E-02  0.1027336E+00
          2   -1    0    0  502    0 -0.00000000000E+00  0.00000000000E+00  0.17604279964E+04  0.17604279964E+04  0.00000000000E+00 0. -1.
         21   -1    0    0  501  502  0.00000000000E+00 -0.00000000000E+00 -0.22553978464E+03  0.22553978464E+03  0.00000000000E+00 0. -1.
         23    2    1    2    0    0 -0.46118250493E+03 -0.22069923661E+03  0.13108805082E+04  0.14100488848E+04  0.91829704889E+02 0.  0.
         24    2    1    2    0    0  0.29282324304E+03  0.92288562824E+02  0.15482424257E+03  0.35316231734E+03  0.80563303102E+02 0.  0.
        -11    1    4    4    0    0  0.31580104775E+02  0.12371578256E+02 -0.83739931782E+01  0.34935407940E+02  0.00000000000E+00 0.  1.
         12    1    4    4    0    0  0.26124313826E+03  0.79916984567E+02  0.16319823575E+03  0.31822690940E+03  0.00000000000E+00 0. -1.
        -11    1    3    3    0    0 -0.31795025092E+02  0.27850807249E+01  0.12878491524E+03  0.13268095074E+03  0.00000000000E+00 0.  1.
         11    1    3    3    0    0 -0.42938747984E+03 -0.22348431733E+03  0.11820955930E+04  0.12773679340E+04  0.00000000000E+00 0. -1.
          1    1    1    2  501    0  0.16835926189E+03  0.12841067379E+03  0.69183461027E+02  0.22275657900E+03  0.00000000000E+00 0. -1.
<scales pt_clust_5="13000.00000" pt_clust_6="13000.00000" pt_clust_7="13000.00000" pt_clust_8="13000.00000" pt_clust_9="211.74074"></scales>
<clustering>
<clus scale="   80.563">  5  6 -1 -1</clus>
<clus scale="   91.830">  7  8 -1 -1</clus>
<clus scale="  211.741">  2  9  1 -1</clus>
<clus scale="  449.681">  2  5  1 -1</clus>
<clus scale="  211.741">  2  5  1 -1</clus>
</clustering>
</event>
<event>
 9    2  0.7820252E-005  0.1003476E+03  0.7546771E-02  0.1284399E+00
          2   -1    0    0  502    0 -0.00000000000E+00  0.00000000000E+00  0.27088105762E+03  0.27088105762E+03  0.00000000000E+00 0. -1.
         21   -1    0    0  501  502  0.00000000000E+00 -0.00000000000E+00 -0.11760738748E+03  0.11760738748E+03  0.00000000000E+00 0.  1.
         24    2    1    2    0    0  0.22641763157E+02  0.35534731968E+02  0.21197990627E+03  0.23107150343E+03  0.81750794628E+02 0.  0.
         23    2    1    2    0    0  0.97081723586E+01 -0.42956751584E+02 -0.68887976787E+02  0.12269990629E+03  0.91488701709E+02 0.  0.
        -11    1    3    3    0    0  0.22453237371E+02 -0.23716716113E+02  0.79336988897E+02  0.85796202124E+02  0.00000000000E+00 0.  1.
         12    1    3    3    0    0  0.18852578558E+00  0.59251448081E+02  0.13264291737E+03  0.14527530131E+03  0.00000000000E+00 0. -1.
        -13    1    4    4    0    0  0.38709367791E+02  0.10808173974E+02 -0.23088555191E+02  0.46349899248E+02  0.00000000000E+00 0.  1.
         13    1    4    4    0    0 -0.29001195433E+02 -0.53764925558E+02 -0.45799421596E+02  0.76350007042E+02  0.00000000000E+00 0. -1.
          1    1    1    2  501    0 -0.32349935516E+02  0.74220196160E+01  0.10181740654E+02  0.34717035383E+02  0.00000000000E+00 0. -1.
<scales pt_clust_5="13000.00000" pt_clust_6="13000.00000" pt_clust_7="13000.00000" pt_clust_8="13000.00000" pt_clust_9="33.19043"></scales>
<clustering>
<clus scale="   33.190">  2  9  1 -1</clus>
<clus scale="   81.751">  5  6 -1 -1</clus>
<clus scale="   91.489">  7  8 -1 -1</clus>
<clus scale="   91.557">  1  5  2 -1</clus>
<clus scale="   33.190">  2  5  1 -1</clus>
</clustering>
</event>
<event>
 9    2  0.7820252E-005  0.1540982E+03  0.7546771E-02  0.1197523E+00
          2   -1    0    0  502    0 -0.00000000000E+00  0.00000000000E+00  0.86410081987E+03  0.86410081987E+03  0.00000000000E+00 0. -1.
         21   -1    0    0  501  502  0.00000000000E+00 -0.00000000000E+00 -0.45465429871E+02  0.45465429871E+02  0.00000000000E+00 0. -1.
         23    2    1    2    0    0 -0.11506357279E+03 -0.14362057096E+02  0.32420713723E+03  0.35638046182E+03  0.91928620499E+02 0.  0.
         24    2    1    2    0    0  0.13597699932E+03 -0.48472484749E+02  0.24796827214E+03  0.29798376381E+03  0.80416002061E+02 0.  0.
        -11    1    4    4    0    0  0.38538570705E+02 -0.52221154782E+02  0.73007297253E+02  0.97684880565E+02  0.00000000000E+00 0.  1.
         12    1    4    4    0    0  0.97438428613E+02  0.37486700334E+01  0.17496097488E+03  0.20029888325E+03  0.00000000000E+00 0. -1.
        -13    1    3    3    0    0 -0.36248102452E+02  0.38638040948E+02  0.11345477246E+03  0.12521504915E+03  0.00000000000E+00 0.  1.
         13    1    3    3    0    0 -0.78815470335E+02 -0.53000098045E+02  0.21075236477E+03  0.23116541267E+03  0.00000000000E+00 0. -1.
          1    1    1    2  501    0 -0.20913426531E+02  0.62834541845E+02  0.24645998063E+03  0.25520202411E+03  0.00000000000E+00 0. -1.
<scales pt_clust_5="13000.00000" pt_clust_6="13000.00000" pt_clust_7="13000.00000" pt_clust_8="13000.00000" pt_clust_9="66.22353"></scales>
<clustering>
<clus scale="   66.224">  2  9  1 -1</clus>
<clus scale="   80.416">  5  6 -1 -1</clus>
<clus scale="   91.929">  7  8 -1 -1</clus>
<clus scale="  147.520">  2  5  1 -1</clus>
<clus scale="   66.224">  2  5  1 -1</clus>
</clustering>
</event>
<event>
 9    2  0.7820252E-005  0.1719364E+03  0.7546771E-02  0.1192217E+00
         21   -1    0    0  501  502  0.00000000000E+00  0.00000000000E+00  0.30906118160E+03  0.30906118160E+03  0.00000000000E+00 0.  1.
          4   -1    0    0  502    0 -0.00000000000E+00 -0.00000000000E+00 -0.18382195637E+03  0.18382195637E+03  0.00000000000E+00 0. -1.
         24    2    1    2    0    0  0.47109063074E+02 -0.73806803501E+02 -0.36288471547E+02  0.12469176629E+03  0.81021449919E+02 0.  0.
         23    2    1    2    0    0 -0.11201188908E+03 -0.79059357746E+02  0.63458388362E+02  0.17532346525E+03  0.88962380085E+02 0.  0.
        -11    1    3    3    0    0  0.59418986551E+02 -0.21045173219E+02 -0.79081092901E+01  0.63529941532E+02  0.00000000000E+00 0.  1.
         12    1    3    3    0    0 -0.12309923477E+02 -0.52761630283E+02 -0.28380362257E+02  0.61161824760E+02  0.00000000000E+00 0. -1.
        -13    1    4    4    0    0 -0.47044865970E+02 -0.63203478448E+02 -0.58569774452E+01  0.79007615373E+02  0.00000000000E+00 0.  1.
         13    1    4    4    0    0 -0.64967023114E+02 -0.15855879298E+02  0.69315365807E+02  0.96315849877E+02  0.00000000000E+00 0. -1.
          3    1    1    2  501    0  0.64902826011E+02  0.15286616125E+03  0.98069308411E+02  0.19286790643E+03  0.00000000000E+00 0. -1.
<scales pt_clust_5="13000.00000" pt_clust_6="13000.00000" pt_clust_7="13000.00000" pt_clust_8="13000.00000" pt_clust_9="147.13194"></scales>
<clustering>
<clus scale="   81.021">  5  6 -1 -1</clus>
<clus scale="   88.962">  7  8 -1 -1</clus>
<clus scale="  119.295">  2  5  1 -1</clus>
<clus scale="  147.132">  1  9  2 -1</clus>
<clus scale="  147.132">  1  5  2 -1</clus>
</clustering>
</event>
<event>
 9    2  0.7820252E-005  0.9300695E+02  0.7546771E-02  0.1301593E+00
         21   -1    0    0  501  502  0.00000000000E+00  0.00000000000E+00  0.73730723413E+02  0.73730723413E+02  0.00000000000E+00 0.  1.
          2   -1    0    0  502    0 -0.00000000000E+00 -0.00000000000E+00 -0.20615110154E+03  0.20615110154E+03  0.00000000000E+00 0. -1.
         23    2    1    2    0    0 -0.13220917394E+02  0.23811299292E+02 -0.64872845617E+02  0.11416612937E+03  0.89909111700E+02 0.  0.
         24    2    1    2    0    0 -0.42559372658E+02 -0.14171709313E+02 -0.57440078833E+02  0.10821332108E+03  0.79991391147E+02 0.  0.
        -13    1    4    4    0    0 -0.52068065223E+02  0.17879094795E+02 -0.21428144699E+02  0.59075467260E+02  0.00000000000E+00 0.  1.
         14    1    4    4    0    0  0.95086925651E+01 -0.32050804108E+02 -0.36011934134E+02  0.49137853823E+02  0.00000000000E+00 0. -1.
        -11    1    3    3    0    0  0.45846398880E+01 -0.33514291059E+02 -0.20998190133E+02  0.39813950029E+02  0.00000000000E+00 0.  1.
         11    1    3    3    0    0 -0.17805557282E+02  0.57325590351E+02 -0.43874655484E+02  0.74352179343E+02  0.00000000000E+00 0. -1.
          1    1    1    2  501    0  0.55780290052E+02 -0.96395899793E+01 -0.10107453680E+02  0.57502374500E+02  0.00000000000E+00 0. -1.
<scales pt_clust_5="13000.00000" pt_clust_6="13000.00000" pt_clust_7="13000.00000" pt_clust_8="13000.00000" pt_clust_9="56.60709"></scales>
<clustering>
<clus scale="   56.607">  1  9  2 -1</clus>
<clus scale="   79.991">  5  6 -1 -1</clus>
<clus scale="   83.458">  1  5  2 -1</clus>
<clus scale="   89.909">  7  8 -1 -1</clus>
<clus scale="   56.607">  1  5  2 -1</clus>
</clustering>
</event>
<event>
 9    2  0.7820252E-005  0.1302627E+03  0.7546771E-02  0.1241338E+00
         21   -1    0    0  501  502  0.00000000000E+00  0.00000000000E+00  0.74018482215E+02  0.74018482215E+02  0.00000000000E+00 0. -1.
          2   -1    0    0  502    0 -0.00000000000E+00 -0.00000000000E+00 -0.11870946574E+04  0.11870946574E+04  0.00000000000E+00 0. -1.
         24    2    1    2    0    0 -0.20431077003E+02 -0.52724594134E+02 -0.21121989266E+03  0.23251725938E+03  0.79076678750E+02 0.  0.
         23    2    1    2    0    0 -0.79022346203E+02 -0.54432541781E+02 -0.13568932957E+02  0.12835810577E+03  0.84168013941E+02 0.  0.
        -11    1    3    3    0    0  0.24831323378E+02 -0.19509260097E+01 -0.91438755118E+02  0.94770494726E+02  0.00000000000E+00 0.  1.
         12    1    3    3    0    0 -0.45262400381E+02 -0.50773668124E+02 -0.11978113754E+03  0.13774676466E+03  0.00000000000E+00 0. -1.
        -13    1    4    4    0    0  0.12021910231E+02 -0.31525556681E+02 -0.26606553553E+01  0.33844735729E+02  0.00000000000E+00 0.  1.
         13    1    4    4    0    0 -0.91044256434E+02 -0.22906985100E+02 -0.10908277602E+02  0.94513370039E+02  0.00000000000E+00 0. -1.
          1    1    1    2  501    0  0.99453423205E+02  0.10715713591E+03 -0.88828734956E+03  0.90023777445E+03  0.00000000000E+00 0. -1.
<scales pt_clust_5="13000.00000" pt_clust_6="13000.00000" pt_clust_7="13000.00000" pt_clust_8="13000.00000" pt_clust_9="99.41890"></scales>
<clustering>
<clus scale="   79.077">  5  6 -1 -1</clus>
<clus scale="   84.168">  7  8 -1 -1</clus>
<clus scale="   97.213">  2  5  1 -1</clus>
<clus scale="   99.419">  1  9  2 -1</clus>
<clus scale="   99.419">  1  5  2 -1</clus>
</clustering>
</event>
<event>
 9    2  0.7820252E-005  0.1837208E+03  0.7546771E-02  0.1201933E+00
          2   -1    0    0  502    0 -0.00000000000E+00  0.00000000000E+00  0.16711668993E+04  0.16711668993E+04  0.00000000000E+00 0. -1.
         21   -1    0    0  501  502  0.00000000000E+00 -0.00000000000E+00 -0.29351185439E+02  0.29351185439E+02  0.00000000000E+00 0. -1.
         24    2    1    2    0    0 -0.58970754731E+01  0.97802956265E+01  0.20554001228E+03  0.22023301830E+03  0.78265292556E+02 0.  0.
         23    2    1    2    0    0  0.26950907074E+02  0.15040980910E+03  0.98241866640E+03  0.99852751138E+03  0.92527254436E+02 0.  0.
        -11    1    3    3    0    0  0.35970730884E+02  0.10104328781E-01  0.99965317744E+02  0.10624009758E+03  0.00000000000E+00 0.  1.
         12    1    3    3    0    0 -0.41867806357E+02  0.97701912977E+01  0.10557469454E+03  0.11399292072E+03  0.00000000000E+00 0. -1.
        -11    1    4    4    0    0 -0.19052438760E+02  0.12066025413E+03  0.73827276003E+03  0.74831047069E+03  0.00000000000E+00 0.  1.
         11    1    4    4    0    0  0.46003345834E+02  0.29749554971E+02  0.24414590638E+03  0.25021704068E+03  0.00000000000E+00 0. -1.
          1    1    1    2  501    0 -0.21053831601E+02 -0.16019010473E+03  0.45385703513E+03  0.48175755502E+03  0.00000000000E+00 0. -1.
<scales pt_clust_5="13000.00000" pt_clust_6="13000.00000" pt_clust_7="13000.00000" pt_clust_8="13000.00000" pt_clust_9="158.71998"></scales>
<clustering>
<clus scale="   78.265">  5  6 -1 -1</clus>
<clus scale="   79.094">  1  5  2 -1</clus>
<clus scale="   92.527">  7  8 -1 -1</clus>
<clus scale="  158.720">  2  9  1 -1</clus>
<clus scale="  158.720">  2  5  1 -1</clus>
</clustering>
</event>
<event>
 9    2  0.7820252E-005  0.1521441E+03  0.7546771E-02  0.1200392E+00
         21   -1    0    0  501  502  0.00000000000E+00  0.00000000000E+00  0.12068605899E+03  0.12068605899E+03  0.00000000000E+00 0. -1.
          2   -1    0    0  502    0 -0.00000000000E+00 -0.00000000000E+00 -0.37329811117E+03  0.37329811117E+03  0.00000000000E+00 0. -1.
         24    2    1    2    0    0  0.82272165313E+02  0.41786444741E+02 -0.11903913823E+03  0.17088043611E+03  0.80715493344E+02 0.  0.
         23    2    1    2    0    0 -0.15658411593E+03 -0.65009904313E+02 -0.14779872130E+03  0.24395849620E+03  0.94479695318E+02 0.  0.
        -13    1    3    3    0    0  0.67105660207E+02  0.52322800587E+02 -0.12522860873E+03  0.15140359816E+03  0.00000000000E+00 0.  1.
         14    1    3    3    0    0  0.15166505106E+02 -0.10536355845E+02  0.61894704923E+01  0.19476837952E+02  0.00000000000E+00 0. -1.
        -13    1    4    4    0    0 -0.10953067164E+02 -0.17155402954E+02  0.11089070807E+02  0.23178546594E+02  0.00000000000E+00 0.  1.
         13    1    4    4    0    0 -0.14563104877E+03 -0.47854501358E+02 -0.15888779211E+03  0.22077994960E+03  0.00000000000E+00 0. -1.
          1    1    1    2  501    0  0.74311950620E+02  0.23223459571E+02  0.14225807359E+02  0.79145237851E+02  0.00000000000E+00 0. -1.
<scales pt_clust_5="13000.00000" pt_clust_6="13000.00000" pt_clust_7="13000.00000" pt_clust_8="13000.00000" pt_clust_9="77.85625"></scales>
<clustering>
<clus scale="   77.856">  1  9  2 -1</clus>
<clus scale="   80.715">  5  6 -1 -1</clus>
<clus scale="   94.480">  7  8 -1 -1</clus>
<clus scale="  144.001">  2  5  1 -1</clus>
<clus scale="   77.856">  1  5  2 -1</clus>
</clustering>
</event>
<event>
 9    2  0.7820252E-005  0.9294303E+02  0.7546771E-02  0.1301092E+00
          2   -1    0    0  502    0 -0.00000000000E+00  0.00000000000E+00  0.27113433194E+03  0.27113433194E+03  0.00000000000E+00 0. -1.
         21   -1    0    0  501  502  0.00000000000E+00 -0.00000000000E+00 -0.59143915476E+02  0.59143915476E+02  0.00000000000E+00 0.  1.
         24    2    1    2    0    0  0.11589462773E+02 -0.21577393336E+02  0.13746037906E+03  0.16153193385E+03  0.81223828345E+02 0.  0.
         23    2    1    2    0    0  0.37231642588E+02  0.25522423042E+02  0.61617665524E+02  0.11809265688E+03  0.90064141685E+02 0.  0.
        -11    1    3    3    0    0 -0.21956794837E+02 -0.34714145493E+02  0.38814385221E+02  0.56513089076E+02  0.00000000000E+00 0.  1.
         12    1    3    3    0    0  0.33546257610E+02  0.13136752157E+02  0.98645993837E+02  0.10501884477E+03  0.00000000000E+00 0. -1.
        -11    1    4    4    0    0  0.27364846936E+02 -0.16982315275E+02 -0.10437469591E+02  0.33855201246E+02  0.00000000000E+00 0.  1.
         11    1    4    4    0    0  0.98667956521E+01  0.42504738317E+02  0.72055135115E+02  0.84237455637E+02  0.00000000000E+00 0. -1.
          1    1    1    2  501    0 -0.48821105361E+02 -0.39450297055E+01  0.12912371882E+02  0.50653656686E+02  0.00000000000E+00 0. -1.
<scales pt_clust_5="13000.00000" pt_clust_6="13000.00000" pt_clust_7="13000.00000" pt_clust_8="13000.00000" pt_clust_9="48.98024"></scales>
<clustering>
<clus scale="   48.980">  2  9  1 -1</clus>
<clus scale="   81.224">  5  6 -1 -1</clus>
<clus scale="   84.405">  1  5  2 -1</clus>
<clus scale="   90.064">  7  8 -1 -1</clus>
<clus scale="   48.980">  2  5  1 -1</clus>
</clustering>
</event>
<event>
 9    2  0.7820252E-005  0.9732521E+02  0.7546771E-02  0.1296105E+00
         21   -1    0    0  501  502  0.00000000000E+00  0.00000000000E+00  0.64778031132E+02  0.64778031132E+02  0.00000000000E+00 0. -1.
          2   -1    0    0  502    0 -0.00000000000E+00 -0.00000000000E+00 -0.18641090356E+03  0.18641090356E+03  0.00000000000E+00 0. -1.
         24    2    1    2    0    0  0.97421521958E+01  0.84177568222E+01 -0.99293878208E+02  0.12816595043E+03  0.80009177232E+02 0.  0.
         23    2    1    2    0    0 -0.87081257796E+01  0.13940548909E+02 -0.21928669602E+02  0.10063701964E+03  0.96833737988E+02 0.  0.
        -11    1    3    3    0    0  0.20489255050E+02  0.14083418575E-01 -0.10932751098E+03  0.11123090591E+03  0.00000000000E+00 0.  1.
         12    1    3    3    0    0 -0.10747102854E+02  0.84036734036E+01  0.10033632775E+02  0.16935044526E+02  0.00000000000E+00 0. -1.
        -11    1    4    4    0    0  0.29502240603E+02 -0.11342789038E+02  0.20921204348E+02  0.37904325019E+02  0.00000000000E+00 0. -1.
         11    1    4    4    0    0 -0.38210366382E+02  0.25283337947E+02 -0.42849873949E+02  0.62732694620E+02  0.00000000000E+00 0.  1.
          1    1    1    2  501    0 -0.10340264162E+01 -0.22358305731E+02 -0.41032461957E+00  0.22385964623E+02  0.00000000000E+00 0. -1.
<scales pt_clust_5="13000.00000" pt_clust_6="13000.00000" pt_clust_7="13000.00000" pt_clust_8="13000.00000" pt_clust_9="22.38220"></scales>
<clustering>
<clus scale="   22.382">  1  9  2 -1</clus>
<clus scale="   80.009">  5  6 -1 -1</clus>
<clus scale="   80.603">  2  5  1 -1</clus>
<clus scale="   96.834">  7  8 -1 -1</clus>
<clus scale="   22.382">  1  5  2 -1</clus>
</clustering>
</event>
<event>
 9    2  0.7820252E-005  0.1215080E+03  0.7546771E-02  0.1242037E+00
         -1   -1    0    0    0  501 -0.00000000000E+00  0.00000000000E+00  0.73530242138E+03  0.73530242138E+03  0.00000000000E+00 0.  1.
         21   -1    0    0  501  502  0.00000000000E+00 -0.00000000000E+00 -0.36639644145E+02  0.36639644145E+02  0.00000000000E+00 0.  1.
         24    2    1    2    0    0 -0.56509536160E+02  0.21500705025E+02  0.22294884501E+03  0.24698078133E+03  0.87393997870E+02 0.  0.
         23    2    1    2    0    0  0.68578806140E+02 -0.93198214409E+02  0.28925868868E+03  0.32483193108E+03  0.91957787343E+02 0.  0.
        -11    1    3    3    0    0 -0.70910013713E+02  0.35456717889E+01  0.10463368263E+03  0.12644765468E+03  0.00000000000E+00 0.  1.
         12    1    3    3    0    0  0.14400477553E+02  0.17955033236E+02  0.11831516238E+03  0.12053312665E+03  0.00000000000E+00 0. -1.
        -13    1    4    4    0    0  0.37536378007E+02  0.10647004982E+02  0.66410205912E+02  0.77023722569E+02  0.00000000000E+00 0. -1.
         13    1    4    4    0    0  0.31042428133E+02 -0.10384521939E+03  0.22284848276E+03  0.24780820851E+03  0.00000000000E+00 0.  1.
         -2    1    1    2    0  502 -0.12069269980E+02  0.71697509384E+02  0.18645524355E+03  0.20012935311E+03  0.00000000000E+00 0.  1.
<scales pt_clust_5="13000.00000" pt_clust_6="13000.00000" pt_clust_7="13000.00000" pt_clust_8="13000.00000" pt_clust_9="72.70630"></scales>
<clustering>
<clus scale="   72.706">  2  9  1 -1</clus>
<clus scale="   87.394">  5  6 -1 -1</clus>
<clus scale="   91.958">  7  8 -1 -1</clus>
<clus scale="  118.092">  1  5  2 -1</clus>
<clus scale="   72.706">  2  5  1 -1</clus>
</clustering>
</event>
<event>
 9    2  0.7820252E-005  0.1126682E+03  0.7546771E-02  0.1260951E+00
         21   -1    0    0  501  502  0.00000000000E+00  0.00000000000E+00  0.34962777136E+03  0.34962777136E+03  0.00000000000E+00 0.  1.
          2   -1    0    0  502    0 -0.00000000000E+00 -0.00000000000E+00 -0.92698206798E+02  0.92698206798E+02  0.00000000000E+00 0. -1.
         23    2    1    2    0    0 -0.28659193910E+02 -0.46749892650E+02 -0.19753270299E+02  0.11000638822E+03  0.93296901896E+02 0.  0.
         24    2    1    2    0    0  0.27319369504E+02  0.88433443988E+02  0.12383419322E+03  0.17388341719E+03  0.79584630423E+02 0.  0.
        -11    1    4    4    0    0 -0.10506329539E+01  0.30674332374E+02  0.10106639440E+03  0.10562402460E+03  0.00000000000E+00 0.  1.
         12    1    4    4    0    0  0.28370002458E+02  0.57759111614E+02  0.22767798817E+02  0.68259392591E+02  0.00000000000E+00 0. -1.
        -11    1    3    3    0    0  0.25831982775E+02 -0.47063030292E+02 -0.11297916742E+02  0.54862219032E+02  0.00000000000E+00 0.  1.
         11    1    3    3    0    0 -0.54491176685E+02  0.31313764229E+00 -0.84553535568E+01  0.55144169189E+02  0.00000000000E+00 0. -1.
          1    1    1    2  501    0  0.13398244059E+01 -0.41683551338E+02  0.15284864164E+03  0.15843617274E+03  0.00000000000E+00 0. -1.
<scales pt_clust_5="13000.00000" pt_clust_6="13000.00000" pt_clust_7="13000.00000" pt_clust_8="13000.00000" pt_clust_9="41.70508"></scales>
<clustering>
<clus scale="   41.705">  1  9  2 -1</clus>
<clus scale="   79.585">  5  6 -1 -1</clus>
<clus scale="   93.297">  7  8 -1 -1</clus>
<clus scale="  101.605">  1  5  2 -1</clus>
<clus scale="   41.705">  1  5  2 -1</clus>
</clustering>
</event>
<event>
 9    2  0.7820252E-005  0.1653626E+03  0.7546771E-02  0.1183810E+00
         21   -1    0    0  501  502  0.00000000000E+00  0.00000000000E+00  0.69032963873E+02  0.69032963873E+02  0.00000000000E+00 0. -1.
          2   -1    0    0  502    0 -0.00000000000E+00 -0.00000000000E+00 -0.12049770882E+04  0.12049770882E+04  0.00000000000E+00 0. -1.
         24    2    1    2    0    0 -0.66025782278E+02 -0.11848106249E+03 -0.62543092591E+03  0.64523820580E+03  0.82288110012E+02 0.  0.
         23    2    1    2    0    0  0.14000458184E+02  0.17026216748E+03 -0.11090338117E+03  0.22247648176E+03  0.89504226037E+02 0.  0.
        -13    1    3    3    0    0 -0.56249332949E+02 -0.23499454710E+02 -0.29788841387E+03  0.30406203142E+03  0.00000000000E+00 0.  1.
         14    1    3    3    0    0 -0.97764493286E+01 -0.94981607783E+02 -0.32754251204E+03  0.34117617439E+03  0.00000000000E+00 0. -1.
        -11    1    4    4    0    0 -0.26998640236E+02  0.13683967262E+03 -0.87359892469E+02  0.16457756041E+03  0.00000000000E+00 0. -1.
         11    1    4    4    0    0  0.40999098420E+02  0.33422494855E+02 -0.23543488703E+02  0.57898921353E+02  0.00000000000E+00 0.  1.
          1    1    1    2  501    0  0.52025324094E+02 -0.51781104984E+02 -0.39960981722E+03  0.40629536448E+03  0.00000000000E+00 0. -1.
<scales pt_clust_5="13000.00000" pt_clust_6="13000.00000" pt_clust_7="13000.00000" pt_clust_8="13000.00000" pt_clust_9="73.40247"></scales>
<clustering>
<clus scale="   73.402">  1  9  2 -1</clus>
<clus scale="   82.288">  5  6 -1 -1</clus>
<clus scale="   89.504">  7  8 -1 -1</clus>
<clus scale="  161.571">  2  5  1 -1</clus>
<clus scale="   73.402">  1  5  2 -1</clus>
</clustering>
</event>
<event>
 9    2  0.7820252E-005  0.1102305E+03  0.7546771E-02  0.1269122E+00
         21   -1    0    0  501  502  0.00000000000E+00  0.00000000000E+00  0.71096485361E+02  0.71096485361E+02  0.00000000000E+00 0.  1.
          2   -1    0    0  502    0 -0.00000000000E+00 -0.00000000000E+00 -0.45796959545E+03  0.45796959545E+03  0.00000000000E+00 0. -1.
         24    2    1    2    0    0 -0.30769469977E+02  0.42878054848E+02 -0.29061671412E+03  0.30598195794E+03  0.79884893396E+02 0.  0.
         23    2    1    2    0    0  0.58651834879E+02  0.32831962462E+02 -0.52834116077E+02  0.13146028653E+03  0.99861842657E+02 0.  0.
        -13    1    3    3    0    0  0.21353877764E+02  0.74933001317E+01 -0.28455199032E+02  0.36357062511E+02  0.00000000000E+00 0.  1.
         14    1    3    3    0    0 -0.52123347741E+02  0.35384754717E+02 -0.26216151508E+03  0.26962489543E+03  0.00000000000E+00 0. -1.
        -13    1    4    4    0    0 -0.25070778109E+02 -0.64325822865E+00  0.32277789113E+01  0.25285890390E+02  0.00000000000E+00 0.  1.
         13    1    4    4    0    0  0.83722612988E+02  0.33475220690E+02 -0.56061894988E+02  0.10617439614E+03  0.00000000000E+00 0. -1.
          1    1    1    2  501    0 -0.27882364902E+02 -0.75710017310E+02 -0.43422279891E+02  0.91623836334E+02  0.00000000000E+00 0. -1.
<scales pt_clust_5="13000.00000" pt_clust_6="13000.00000" pt_clust_7="13000.00000" pt_clust_8="13000.00000" pt_clust_9="80.68106"></scales>
<clustering>
<clus scale="   79.885">  5  6 -1 -1</clus>
<clus scale="   80.681">  1  9  2 -1</clus>
<clus scale="   92.520">  2  5  1 -1</clus>
<clus scale="   99.862">  7  8 -1 -1</clus>
<clus scale="   80.681">  1  5  2 -1</clus>
</clustering>
</event>
<event>
 9    2  0.7820252E-005  0.1025137E+03  0.7546771E-02  0.1279832E+00
          2   -1    0    0  502    0 -0.00000000000E+00  0.00000000000E+00  0.68704864591E+03  0.68704864591E+03  0.00000000000E+00 0. -1.
         21   -1    0    0  501  502  0.00000000000E+00 -0.00000000000E+00 -0.25760039969E+02  0.25760039969E+02  0.00000000000E+00 0. -1.
         24    2    1    2    0    0 -0.57500747806E+02  0.20148439485E+02  0.44144349952E+03  0.45161784121E+03  0.73307677777E+02 0.  0.
         23    2    1    2    0    0  0.56893536832E+02  0.17039167108E+02  0.17241478129E+03  0.20091711464E+03  0.84342293061E+02 0.  0.
        -11    1    3    3    0    0  0.94431392097E+01  0.26446245490E+02  0.12907821508E+03  0.13209754876E+03  0.00000000000E+00 0.  1.
         12    1    3    3    0    0 -0.66943887016E+02 -0.62978060049E+01  0.31236528444E+03  0.31952029246E+03  0.00000000000E+00 0. -1.
        -11    1    4    4    0    0  0.62803460802E+02  0.40768274941E+02  0.15042690707E+03  0.16803148902E+03  0.00000000000E+00 0. -1.
         11    1    4    4    0    0 -0.59099239698E+01 -0.23729107833E+02  0.21987874216E+02  0.32885625620E+02  0.00000000000E+00 0.  1.
          1    1    1    2  501    0  0.60721097445E+00 -0.37187606594E+02  0.47430325134E+02  0.60273730029E+02  0.00000000000E+00 0. -1.
<scales pt_clust_5="13000.00000" pt_clust_6="13000.00000" pt_clust_7="13000.00000" pt_clust_8="13000.00000" pt_clust_9="37.19256"></scales>
<clustering>
<clus scale="   37.193">  2  9  1 -1</clus>
<clus scale="   73.308">  5  6 -1 -1</clus>
<clus scale="   84.342">  7  8 -1 -1</clus>
<clus scale="   93.645">  1  5  2 -1</clus>
<clus scale="   37.193">  2  5  1 -1</clus>
</clustering>
</event>
<event>
 9    2  0.7820252E-005  0.1468355E+03  0.7546771E-02  0.1206490E+00
          2   -1    0    0  502    0 -0.00000000000E+00  0.00000000000E+00  0.62362536040E+03  0.62362536040E+03  0.00000000000E+00 0. -1.
         21   -1    0    0  501  502  0.00000000000E+00 -0.00000000000E+00 -0.63655389724E+02  0.63655389724E+02  0.00000000000E+00 0.  1.
         24    2    1    2    0    0 -0.77638669437E+02  0.64486445043E+02  0.33432182520E+03  0.35858351805E+03  0.81392825383E+02 0.  0.
         23    2    1    2    0    0  0.12696405901E+03 -0.82410821807E+02  0.20827630524E+03  0.27341560609E+03  0.92009013138E+02 0.  0.
        -11    1    3    3    0    0 -0.38658547063E+02  0.47089544046E+02  0.79238293220E+02  0.99953066646E+02  0.00000000000E+00 0.  1.
         12    1    3    3    0    0 -0.38980122374E+02  0.17396900997E+02  0.25508353198E+03  0.25863045140E+03  0.00000000000E+00 0. -1.
        -11    1    4    4    0    0  0.10884595480E+03 -0.72076011481E+02  0.10353889439E+03  0.16662141507E+03  0.00000000000E+00 0.  1.
         11    1    4    4    0    0  0.18118104203E+02 -0.10334810325E+02  0.10473741085E+03  0.10679419102E+03  0.00000000000E+00 0. -1.
          1    1    1    2  501    0 -0.49325389570E+02  0.17924376764E+02  0.17371840239E+02  0.55281625989E+02  0.00000000000E+00 0. -1.
<scales pt_clust_5="13000.00000" pt_clust_6="13000.00000" pt_clust_7="13000.00000" pt_clust_8="13000.00000" pt_clust_9="52.48121"></scales>
<clustering>
<clus scale="   52.481">  2  9  1 -1</clus>
<clus scale="   81.393">  5  6 -1 -1</clus>
<clus scale="   92.009">  7  8 -1 -1</clus>
<clus scale="  140.427">  1  5  2 -1</clus>
<clus scale="   52.481">  2  5  1 -1</clus>
</clustering>
</event>
<event>
 9    2  0.7820252E-005  0.1156876E+03  0.7546771E-02  0.1254400E+00
          2   -1    0    0  502    0 -0.00000000000E+00  0.00000000000E+00  0.13881320902E+03  0.13881320902E+03  0.00000000000E+00 0. -1.
         21   -1    0    0  501  502  0.00000000000E+00 -0.00000000000E+00 -0.12596719087E+03  0.12596719087E+03  0.00000000000E+00 0.  1.
         24    2    1    2    0    0  0.62472634589E+02  0.40233397196E+02 -0.44142798846E+01  0.10939488264E+03  0.80163571267E+02 0.  0.
         23    2    1    2    0    0 -0.67154887213E+02 -0.14733538869E+02 -0.13250205284E+02  0.11534732203E+03  0.91665591773E+02 0.  0.
        -11    1    3    3    0    0  0.34770720402E+02  0.58493704793E+02 -0.22418740265E+02  0.71645770375E+02  0.00000000000E+00 0.  1.
         12    1    3    3    0    0  0.27701914187E+02 -0.18260307596E+02  0.18004460380E+02  0.37749112264E+02  0.00000000000E+00 0. -1.
        -11    1    4    4    0    0 -0.43152467833E+02  0.17197894851E+02 -0.44729859274E+02  0.64487699432E+02  0.00000000000E+00 0.  1.
         11    1    4    4    0    0 -0.24002419380E+02 -0.31931433720E+02  0.31479653990E+02  0.50859622598E+02  0.00000000000E+00 0. -1.
          1    1    1    2  501    0  0.46822526243E+01 -0.25499858327E+02  0.30510503312E+02  0.40038195223E+02  0.00000000000E+00 0. -1.
<scales pt_clust_5="13000.00000" pt_clust_6="13000.00000" pt_clust_7="13000.00000" pt_clust_8="13000.00000" pt_clust_9="25.92618"></scales>
<clustering>
<clus scale="   25.926">  2  9  1 -1</clus>
<clus scale="   80.164">  5  6 -1 -1</clus>
<clus scale="   91.666">  7  8 -1 -1</clus>
<clus scale="  106.805">  1  5  2 -1</clus>
<clus scale="   25.926">  2  5  1 -1</clus>
</clustering>
</event>
<event>
 9    2  0.7820252E-005  0.1335428E+03  0.7546771E-02  0.1224823E+00
         -1   -1    0    0    0  501 -0.00000000000E+00  0.00000000000E+00  0.58807825270E+02  0.58807825270E+02  0.00000000000E+00 0.  1.
         21   -1    0    0  501  502  0.00000000000E+00 -0.00000000000E+00 -0.60577692758E+03  0.60577692758E+03  0.00000000000E+00 0. -1.
         24    2    1    2    0    0  0.88936601286E+02 -0.33269911579E+02 -0.47937358955E+02  0.13332071077E+03  0.80372977242E+02 0.  0.
         23    2    1    2    0    0 -0.11237421013E+03  0.23141259076E+02 -0.47163973888E+03  0.49381764014E+03  0.90820358093E+02 0.  0.
        -11    1    3    3    0    0  0.88413356434E+02 -0.23972540020E+02 -0.75977469306E+01  0.91920237322E+02  0.00000000000E+00 0.  1.
         12    1    3    3    0    0  0.52324485194E+00 -0.92973715590E+01 -0.40339612025E+02  0.41400473444E+02  0.00000000000E+00 0. -1.
        -13    1    4    4    0    0  0.85678505381E+01  0.23137991873E+02 -0.99755676186E+02  0.10276171302E+03  0.00000000000E+00 0.  1.
         13    1    4    4    0    0 -0.12094206066E+03  0.32672033128E-02 -0.37188406270E+03  0.39105592712E+03  0.00000000000E+00 0. -1.
         -2    1    1    2    0  502  0.23437608840E+02  0.10128652502E+02 -0.27392004469E+02  0.37446401943E+02  0.00000000000E+00 0.  1.
<scales pt_clust_5="13000.00000" pt_clust_6="13000.00000" pt_clust_7="13000.00000" pt_clust_8="13000.00000" pt_clust_9="25.53256"></scales>
<clustering>
<clus scale="   25.533">  2  9  1 -1</clus>
<clus scale="   80.373">  5  6 -1 -1</clus>
<clus scale="   90.820">  7  8 -1 -1</clus>
<clus scale="  126.669">  1  5  2 -1</clus>
<clus scale="   25.533">  2  5  1 -1</clus>
</clustering>
</event>
<event>
 9    2  0.7820252E-005  0.1554769E+03  0.7546771E-02  0.1195706E+00
          4   -1    0    0  502    0 -0.00000000000E+00  0.00000000000E+00  0.34764538388E+03  0.34764538388E+03  0.00000000000E+00 0. -1.
         21   -1    0    0  501  502  0.00000000000E+00 -0.00000000000E+00 -0.24738408248E+03  0.24738408248E+03  0.00000000000E+00 0. -1.
         23    2    1    2    0    0 -0.94034708419E+02  0.89008520937E+02  0.12756858061E+03  0.20265475114E+03  0.89611172363E+02 0.  0.
         24    2    1    2    0    0  0.10650240423E+03 -0.51703263328E+02 -0.18303764557E+03  0.23175381779E+03  0.78683307139E+02 0.  0.
        -13    1    4    4    0    0  0.29409166570E+02 -0.42784883773E+02 -0.29491416529E+02  0.59709203702E+02  0.00000000000E+00 0.  1.
         14    1    4    4    0    0  0.77093237657E+02 -0.89183795545E+01 -0.15354622904E+03  0.17204461409E+03  0.00000000000E+00 0. -1.
        -13    1    3    3    0    0 -0.80729454652E+02  0.60373473468E+02  0.38082230289E+02  0.10776111270E+03  0.00000000000E+00 0.  1.
         13    1    3    3    0    0 -0.13305253767E+02  0.28635047469E+02  0.89486350322E+02  0.94893638434E+02  0.00000000000E+00 0. -1.
          3    1    1    2  501    0 -0.12467695808E+02 -0.37305257609E+02  0.15573036636E+03  0.16062089742E+03  0.00000000000E+00 0. -1.
<scales pt_clust_5="13000.00000" pt_clust_6="13000.00000" pt_clust_7="13000.00000" pt_clust_8="13000.00000" pt_clust_9="39.33354"></scales>
<clustering>
<clus scale="   39.334">  2  9  1 -1</clus>
<clus scale="   78.683">  5  6 -1 -1</clus>
<clus scale="   89.611">  7  8 -1 -1</clus>
<clus scale="  149.445">  2  5  1 -1</clus>
<clus scale="   39.334">  2  5  1 -1</clus>
</clustering>
</event>
<event>
 9    2  0.7820252E-005  0.9743230E+02  0.7546771E-02  0.1292105E+00
         21   -1    0    0  501  502  0.00000000000E+00  0.00000000000E+00  0.57277942651E+02  0.57277942651E+02  0.00000000000E+00 0.  1.
          2   -1    0    0  502    0 -0.00000000000E+00 -0.00000000000E+00 -0.61936533835E+03  0.61936533835E+03  0.00000000000E+00 0. -1.
         24    2    1    2    0    0 -0.35348948411E+01 -0.61924687975E+02 -0.11920254676E+03  0.15652288054E+03  0.80268315782E+02 0.  0.
         23    2    1    2    0    0  0.13107919621E+01 -0.22390940968E+02 -0.30791688063E+02  0.99484161929E+02  0.91901566951E+02 0.  0.
        -13    1    3    3    0    0  0.14930789541E+02  0.14446415068E+02 -0.13346171007E+02  0.24693069173E+02  0.00000000000E+00 0.  1.
         14    1    3    3    0    0 -0.18465684382E+02 -0.76371103043E+02 -0.10585637575E+03  0.13182981137E+03  0.00000000000E+00 0. -1.
        -11    1    4    4    0    0  0.41955676061E+00 -0.50638688513E+02  0.82281414482E+01  0.51304533074E+02  0.00000000000E+00 0.  1.
         11    1    4    4    0    0  0.89123520154E+00  0.28247747546E+02 -0.39019829511E+02  0.48179628855E+02  0.00000000000E+00 0. -1.
          1    1    1    2  501    0  0.22241028790E+01  0.84315628942E+02 -0.41209316088E+03  0.42063623852E+03  0.00000000000E+00 0. -1.
<scales pt_clust_5="13000.00000" pt_clust_6="13000.00000" pt_clust_7="13000.00000" pt_clust_8="13000.00000" pt_clust_9="84.34500"></scales>
<clustering>
<clus scale="   80.268">  5  6 -1 -1</clus>
<clus scale="   84.345">  1  9  2 -1</clus>
<clus scale="   86.546">  2  5  1 -1</clus>
<clus scale="   91.902">  7  8 -1 -1</clus>
<clus scale="   84.345">  1  5  2 -1</clus>
</clustering>
</event>
<event>
 9    2  0.7820252E-005  0.2843084E+03  0.7546771E-02  0.1142630E+00
          2   -1    0    0  502    0 -0.00000000000E+00  0.00000000000E+00  0.33963843287E+03  0.33963843287E+03  0.00000000000E+00 0. -1.
         21   -1    0    0  501  502  0.00000000000E+00 -0.00000000000E+00 -0.37363642918E+03  0.37363642918E+03  0.00000000000E+00 0. -1.
         24    2    1    2    0    0  0.32441143817E+01  0.17578388958E+02 -0.69698740243E+02  0.10799413876E+03  0.80531332897E+02 0.  0.
         23    2    1    2    0    0 -0.21596380583E+03  0.15218766910E+03  0.14200245163E+03  0.31309887125E+03  0.89803980175E+02 0.  0.
        -11    1    3    3    0    0  0.20645599371E+02  0.36775017807E+02 -0.70410077743E+02  0.82074489068E+02  0.00000000000E+00 0.  1.
         12    1    3    3    0    0 -0.17401484989E+02 -0.19196628849E+02  0.71133750036E+00  0.25919649689E+02  0.00000000000E+00 0. -1.
        -11    1    4    4    0    0 -0.10606118404E+02  0.19374394160E+02  0.44758292554E+02  0.49911538235E+02  0.00000000000E+00 0.  1.
         11    1    4    4    0    0 -0.20535768743E+03  0.13281327494E+03  0.97244159076E+02  0.26318733302E+03  0.00000000000E+00 0. -1.
          1    1    1    2  501    0  0.21271969145E+03 -0.16976605806E+03 -0.10630170769E+03  0.29218185204E+03  0.00000000000E+00 0. -1.
<scales pt_clust_5="13000.00000" pt_clust_6="13000.00000" pt_clust_7="13000.00000" pt_clust_8="13000.00000" pt_clust_9="269.75265"></scales>
<clustering>
<clus scale="   80.531">  5  6 -1 -1</clus>
<clus scale="   82.491">  1  5  2 -1</clus>
<clus scale="   89.804">  7  8 -1 -1</clus>
<clus scale="  269.753">  2  9  1 -1</clus>
<clus scale="  269.753">  2  5  1 -1</clus>
</clustering>
</event>
<event>
 9    2  0.7820252E-005  0.2215058E+03  0.7546771E-02  0.1163499E+00
          2   -1    0    0  502    0 -0.00000000000E+00  0.00000000000E+00  0.16603756337E+04  0.16603756337E+04  0.00000000000E+00 0. -1.
         21   -1    0    0  501  502  0.00000000000E+00 -0.00000000000E+00 -0.62887791136E+02  0.62887791136E+02  0.00000000000E+00 0. -1.
         24    2    1    2    0    0  0.56686911216E+02 -0.37847797097E+02  0.69658286200E+03  0.70470208136E+03  0.82045586023E+02 0.  0.
         23    2    1    2    0    0 -0.59565248851E+02 -0.17368164315E+03  0.69059149022E+03  0.72025822056E+03  0.90232842648E+02 0.  0.
        -11    1    3    3    0    0  0.19940504505E+01  0.22471001443E+02  0.95433888610E+02  0.98064005824E+02  0.00000000000E+00 0.  1.
         12    1    3    3    0    0  0.54692860766E+02 -0.60318798540E+02  0.60114897339E+03  0.60663807554E+03  0.00000000000E+00 0. -1.
        -11    1    4    4    0    0 -0.52058472402E+02 -0.94896468484E+02  0.53336274272E+03  0.54423454466E+03  0.00000000000E+00 0.  1.
         11    1    4    4    0    0 -0.75067764493E+01 -0.78785174661E+02  0.15722874750E+03  0.17602367590E+03  0.00000000000E+00 0. -1.
          1    1    1    2  501    0  0.28783376351E+01  0.21152944024E+03  0.21031349032E+03  0.29830312290E+03  0.00000000000E+00 0. -1.
<scales pt_clust_5="13000.00000" pt_clust_6="13000.00000" pt_clust_7="13000.00000" pt_clust_8="13000.00000" pt_clust_9="202.29402"></scales>
<clustering>
<clus scale="   82.046">  5  6 -1 -1</clus>
<clus scale="   90.233">  7  8 -1 -1</clus>
<clus scale="  106.665">  1  5  2 -1</clus>
<clus scale="  202.294">  2  9  1 -1</clus>
<clus scale="  202.294">  2  5  1 -1</clus>
</clustering>
</event>
<event>
 9    2  0.7820252E-005  0.1071482E+03  0.7546771E-02  0.1269837E+00
         21   -1    0    0  501  502  0.00000000000E+00  0.00000000000E+00  0.24539479815E+03  0.24539479815E+03  0.00000000000E+00 0.  1.
         -1   -1    0    0    0  501 -0.00000000000E+00 -0.00000000000E+00 -0.56484588732E+02  0.56484588732E+02  0.00000000000E+00 0.  1.
         24    2    1    2    0    0  0.47381665938E+02  0.26646105455E+02  0.81305683649E+02  0.12635677470E+03  0.80002394439E+02 0.  0.
         23    2    1    2    0    0 -0.66077459139E+02 -0.83672801868E+01  0.94830116826E+02  0.14642220565E+03  0.89501224935E+02 0.  0.
        -13    1    3    3    0    0  0.67652445852E+02  0.30684888980E+02  0.72784406525E+02  0.10399993113E+03  0.00000000000E+00 0.  1.
         14    1    3    3    0    0 -0.20270779914E+02 -0.40387835247E+01  0.85212771238E+01  0.22356843572E+02  0.00000000000E+00 0. -1.
        -13    1    4    4    0    0 -0.31841915880E+02 -0.11660317228E+02 -0.10596838960E+02  0.35526941899E+02  0.00000000000E+00 0. -1.
         13    1    4    4    0    0 -0.34235543259E+02  0.32930370410E+01  0.10542695579E+03  0.11089526375E+03  0.00000000000E+00 0.  1.
         -2    1    1    2    0  502  0.18695793200E+02 -0.18278825268E+02  0.12774408938E+02  0.29100406532E+02  0.00000000000E+00 0.  1.
<scales pt_clust_5="13000.00000" pt_clust_6="13000.00000" pt_clust_7="13000.00000" pt_clust_8="13000.00000" pt_clust_9="26.14668"></scales>
<clustering>
<clus scale="   26.147">  1  9  2 -1</clus>
<clus scale="   80.002">  5  6 -1 -1</clus>
<clus scale="   89.501">  7  8 -1 -1</clus>
<clus scale="   99.351">  2  5  1 -1</clus>
<clus scale="   26.147">  1  5  2 -1</clus>
</clustering>
</event>
<event>
 9    2  0.7820252E-005  0.2268906E+03  0.7546771E-02  0.1128848E+00
         -1   -1    0    0    0  501 -0.00000000000E+00  0.00000000000E+00  0.59656711144E+03  0.59656711144E+03  0.00000000000E+00 0.  1.
         21   -1    0    0  501  502  0.00000000000E+00 -0.00000000000E+00 -0.78247218035E+02  0.78247218035E+02  0.00000000000E+00 0.  1.
         24    2    1    2    0    0 -0.77389854283E+02  0.30875841293E+02  0.29104869731E+03  0.31494741390E+03  0.86833301168E+02 0.  0.
         23    2    1    2    0    0 -0.51058104064E+02 -0.70927116326E+01  0.20061515322E+03  0.22654377474E+03  0.91751869865E+02 0.  0.
        -13    1    3    3    0    0 -0.86673802929E+02  0.89035993550E+01  0.16429655499E+03  0.18597037446E+03  0.00000000000E+00 0.  1.
         14    1    3    3    0    0  0.92839486459E+01  0.21972241938E+02  0.12675214233E+03  0.12897703944E+03  0.00000000000E+00 0. -1.
        -13    1    4    4    0    0 -0.23027640451E+02  0.41090493609E+02  0.68316119422E+02  0.82980678851E+02  0.00000000000E+00 0.  1.
         13    1    4    4    0    0 -0.28030463613E+02 -0.48183205242E+02  0.13229903380E+03  0.14356309589E+03  0.00000000000E+00 0. -1.
         -2    1    1    2    0  502  0.12844795835E+03 -0.23783129660E+02  0.26656042868E+02  0.13332314083E+03  0.00000000000E+00 0.  1.
<scales pt_clust_5="13000.00000" pt_clust_6="13000.00000" pt_clust_7="13000.00000" pt_clust_8="13000.00000" pt_clust_9="130.63122"></scales>
<clustering>
<clus scale="   86.833">  5  6 -1 -1</clus>
<clus scale="   91.752">  7  8 -1 -1</clus>
<clus scale="   95.576">  5  7 -1 -1</clus>
<clus scale="  130.631">  2  9  1 -1</clus>
<clus scale="  130.631">  2  5  1 -1</clus>
</clustering>
</event>
<event>
 9    2  0.7820252E-005  0.9222951E+02  0.7546771E-02  0.1303448E+00
          4   -1    0    0  502    0 -0.00000000000E+00  0.00000000000E+00  0.39354651401E+03  0.39354651401E+03  0.00000000000E+00 0. -1.
         21   -1    0    0  501  502  0.00000000000E+00 -0.00000000000E+00 -0.14850036098E+03  0.14850036098E+03  0.00000000000E+00 0. -1.
         24    2    1    2    0    0 -0.20689068619E+02 -0.24400656381E+01  0.31895879573E+03  0.32968225085E+03  0.80756929557E+02 0.  0.
         23    2    1    2    0    0 -0.46610477040E+02 -0.46471522481E+01 -0.97188863339E+02  0.14080178497E+03  0.90472840668E+02 0.  0.
        -13    1    3    3    0    0  0.96945863908E+01  0.34314606768E+02  0.13053336118E+03  0.13531605827E+03  0.00000000000E+00 0.  1.
         14    1    3    3    0    0 -0.30383655010E+02 -0.36754672406E+02  0.18842543455E+03  0.19436619259E+03  0.00000000000E+00 0. -1.
        -13    1    4    4    0    0 -0.34830307861E+02 -0.40729197397E+02 -0.85821500447E+02  0.10117977963E+03  0.00000000000E+00 0. -1.
         13    1    4    4    0    0 -0.11780169179E+02  0.36082045149E+02 -0.11367362893E+02  0.39622005340E+02  0.00000000000E+00 0.  1.
          3    1    1    2  501    0  0.67299545659E+02  0.70872178862E+01  0.23276220641E+02  0.71562839174E+02  0.00000000000E+00 0. -1.
<scales pt_clust_5="13000.00000" pt_clust_6="13000.00000" pt_clust_7="13000.00000" pt_clust_8="13000.00000" pt_clust_9="67.67169"></scales>
<clustering>
<clus scale="   67.672">  2  9  1 -1</clus>
<clus scale="   80.757">  5  6 -1 -1</clus>
<clus scale="   82.720">  1  5  2 -1</clus>
<clus scale="   90.473">  7  8 -1 -1</clus>
<clus scale="   67.672">  2  5  1 -1</clus>
</clustering>
</event>
<event>
 9    2  0.7820252E-005  0.9718176E+02  0.7546771E-02  0.1293021E+00
          2   -1    0    0  502    0 -0.00000000000E+00  0.00000000000E+00  0.60832107333E+03  0.60832107333E+03  0.00000000000E+00 0. -1.
         21   -1    0    0  501  502  0.00000000000E+00 -0.00000000000E+00 -0.36074404325E+02  0.36074404325E+02  0.00000000000E+00 0.  1.
         23    2    1    2    0    0  0.49177817178E+01  0.33061084902E+02  0.45929056374E+03  0.46950929547E+03  0.91509216411E+02 0.  0.
         24    2    1    2    0    0 -0.31663987329E+02 -0.23166390584E+02  0.11637690621E+03  0.14616395439E+03  0.79252933817E+02 0.  0.
        -13    1    4    4    0    0 -0.18771232182E+02  0.22927233587E+02  0.82127103281E+02  0.87309096266E+02  0.00000000000E+00 0.  1.
         14    1    4    4    0    0 -0.12892755147E+02 -0.46093624170E+02  0.34249802931E+02  0.58854858128E+02  0.00000000000E+00 0. -1.
        -13    1    3    3    0    0 -0.75823776141E+01  0.63074293879E+02  0.26437017254E+03  0.27189602264E+03  0.00000000000E+00 0.  1.
         13    1    3    3    0    0  0.12500159332E+02 -0.30013208977E+02  0.19492039119E+03  0.19761327283E+03  0.00000000000E+00 0. -1.
          1    1    1    2  501    0  0.26746205611E+02 -0.98946943183E+01 -0.34208009374E+01  0.28722227791E+02  0.00000000000E+00 0. -1.
<scales pt_clust_5="13000.00000" pt_clust_6="13000.00000" pt_clust_7="13000.00000" pt_clust_8="13000.00000" pt_clust_9="28.51779"></scales>
<clustering>
<clus scale="   28.518">  2  9  1 -1</clus>
<clus scale="   79.253">  5  6 -1 -1</clus>
<clus scale="   85.740">  2  5  1 -1</clus>
<clus scale="   91.509">  7  8 -1 -1</clus>
<clus scale="   28.518">  2  5  1 -1</clus>
</clustering>
</event>
<event>
 9    2  0.7820252E-005  0.1124005E+03  0.7546771E-02  0.1257950E+00
         21   -1    0    0  501  502  0.00000000000E+00  0.00000000000E+00  0.10839493600E+03  0.10839493600E+03  0.00000000000E+00 0.  1.
          2   -1    0    0  502    0 -0.00000000000E+00 -0.00000000000E+00 -0.21670127655E+03  0.21670127655E+03  0.00000000000E+00 0. -1.
         23    2    1    2    0    0 -0.35164088553E+02  0.55257863289E+02 -0.94992000802E+02  0.14353056715E+03  0.85367434715E+02 0.  0.
         24    2    1    2    0    0  0.18032228654E+02 -0.86907548334E+02 -0.50451192127E+02  0.12985153716E+03  0.80237246260E+02 0.  0.
        -11    1    4    4    0    0  0.24329363682E+02 -0.95320945370E+02 -0.23816673512E+02  0.10121874580E+03  0.00000000000E+00 0.  1.
         12    1    4    4    0    0 -0.62971350281E+01  0.84133970358E+01 -0.26634518615E+02  0.28632791361E+02  0.00000000000E+00 0. -1.
        -13    1    3    3    0    0 -0.13570473058E+02  0.75814128524E+02 -0.75868454256E+02  0.10811087907E+03  0.00000000000E+00 0. -1.
         13    1    3    3    0    0 -0.21593615495E+02 -0.20556265236E+02 -0.19123546546E+02  0.35419688072E+02  0.00000000000E+00 0.  1.
          1    1    1    2  501    0  0.17131859899E+02  0.31649685046E+02  0.37136852378E+02  0.51714108246E+02  0.00000000000E+00 0. -1.
<scales pt_clust_5="13000.00000" pt_clust_6="13000.00000" pt_clust_7="13000.00000" pt_clust_8="13000.00000" pt_clust_9="35.98893"></scales>
<clustering>
<clus scale="   35.989">  1  9  2 -1</clus>
<clus scale="   80.237">  5  6 -1 -1</clus>
<clus scale="   85.367">  7  8 -1 -1</clus>
<clus scale="  108.556">  1  5  2 -1</clus>
<clus scale="   35.989">  1  5  2 -1</clus>
</clustering>
</event>
<event>
 9    2  0.7820252E-005  0.2082244E+03  0.7546771E-02  0.1178503E+00
         21   -1    0    0  501  502  0.00000000000E+00  0.00000000000E+00  0.15036506445E+03  0.15036506445E+03  0.00000000000E+00 0. -1.
          2   -1    0    0  502    0 -0.00000000000E+00 -0.00000000000E+00 -0.54262255065E+03  0.54262255065E+03  0.00000000000E+00 0. -1.
         24    2    1    2    0    0 -0.42899821441E+02  0.96068379208E+01 -0.10420263694E+03  0.13844701152E+03  0.79854238712E+02 0.  0.
         23    2    1    2    0    0  0.47349327249E+02 -0.18061724956E+03  0.81856421598E+01  0.21245466738E+03  0.10102193487E+03 0.  0.
        -11    1    3    3    0    0 -0.45736527486E+02 -0.24543713260E+02 -0.83775947752E+02  0.98552692651E+02  0.00000000000E+00 0.  1.
         12    1    3    3    0    0  0.28367060445E+01  0.34150551181E+02 -0.20426689186E+02  0.39894318872E+02  0.00000000000E+00 0. -1.
        -13    1    4    4    0    0  0.33142884873E+02 -0.15785175790E+03 -0.31703014778E+02  0.16437977198E+03  0.00000000000E+00 0. -1.
         13    1    4    4    0    0  0.14206442376E+02 -0.22765491652E+02  0.39888656938E+02  0.48074895397E+02  0.00000000000E+00 0.  1.
          1    1    1    2  501    0 -0.44495058075E+01  0.17101041164E+03 -0.29624049142E+03  0.34208593620E+03  0.00000000000E+00 0. -1.
<scales pt_clust_5="13000.00000" pt_clust_6="13000.00000" pt_clust_7="13000.00000" pt_clust_8="13000.00000" pt_clust_9="182.07687"></scales>
<clustering>
<clus scale="   79.854">  5  6 -1 -1</clus>
<clus scale="   91.156">  2  5  1 -1</clus>
<clus scale="  101.022">  7  8 -1 -1</clus>
<clus scale="  182.077">  1  9  2 -1</clus>
<clus scale="  182.077">  1  5  2 -1</clus>
</clustering>
</event>
<event>
 9    2  0.7820252E-005  0.1035734E+03  0.7546771E-02  0.1276562E+00
          2   -1    0    0  502    0 -0.00000000000E+00  0.00000000000E+00  0.52812409542E+03  0.52812409542E+03  0.00000000000E+00 0. -1.
         21   -1    0    0  501  502  0.00000000000E+00 -0.00000000000E+00 -0.42307620313E+02  0.42307620313E+02  0.00000000000E+00 0. -1.
         24    2    1    2    0    0  0.37036887162E+02  0.23587043088E+02  0.25614625105E+03  0.27234822860E+03  0.81452907158E+02 0.  0.
         23    2    1    2    0    0 -0.26951099043E+02 -0.68383135296E+02  0.22350960871E+03  0.25175459571E+03  0.89561243536E+02 0.  0.
        -11    1    3    3    0    0  0.31717172013E+02  0.53342057656E+02  0.18137760370E+03  0.19170078049E+03  0.00000000000E+00 0.  1.
         12    1    3    3    0    0  0.53197151496E+01 -0.29755014568E+02  0.74768647342E+02  0.80647448110E+02  0.00000000000E+00 0. -1.
        -11    1    4    4    0    0  0.55668562572E+01 -0.80215652144E+02  0.14164222439E+03  0.16287437020E+03  0.00000000000E+00 0. -1.
         11    1    4    4    0    0 -0.32517955300E+02  0.11832516848E+02  0.81867384310E+02  0.88880225504E+02  0.00000000000E+00 0.  1.
          1    1    1    2  501    0 -0.10085788119E+02  0.44796092208E+02  0.61606153547E+01  0.46328891425E+02  0.00000000000E+00 0. -1.
<scales pt_clust_5="13000.00000" pt_clust_6="13000.00000" pt_clust_7="13000.00000" pt_clust_8="13000.00000" pt_clust_9="45.91746"></scales>
<clustering>
<clus scale="   45.917">  2  9  1 -1</clus>
<clus scale="   81.453">  5  6 -1 -1</clus>
<clus scale="   89.561">  7  8 -1 -1</clus>
<clus scale="   96.648">  1  5  2 -1</clus>
<clus scale="   45.917">  2  5  1 -1</clus>
</clustering>
</event>
<event>
 9    2  0.7820252E-005  0.1155505E+03  0.7546771E-02  0.1263112E+00
          2   -1    0    0  502    0 -0.00000000000E+00  0.00000000000E+00  0.92336587398E+03  0.92336587398E+03  0.00000000000E+00 0. -1.
         21   -1    0    0  501  502  0.00000000000E+00 -0.00000000000E+00 -0.39256176943E+02  0.39256176943E+02  0.00000000000E+00 0. -1.
         24    2    1    2    0    0  0.43100427653E+02 -0.29037930534E+02  0.17422136203E+03  0.19622588015E+03  0.73828617621E+02 0.  0.
         23    2    1    2    0    0  0.64337598392E+02 -0.77636355854E+01  0.10994074714E+03  0.15579450611E+03  0.89360839557E+02 0.  0.
        -13    1    3    3    0    0  0.62072784016E+02 -0.33174705918E+02  0.12762687665E+03  0.14574707981E+03  0.00000000000E+00 0.  1.
         14    1    3    3    0    0 -0.18972356363E+02  0.41367753840E+01  0.46594485379E+02  0.50478800345E+02  0.00000000000E+00 0. -1.
        -13    1    4    4    0    0  0.19354119013E+02  0.28022911411E+02  0.87838339384E+02  0.94209550219E+02  0.00000000000E+00 0.  1.
         13    1    4    4    0    0  0.44983479379E+02 -0.35786546996E+02  0.22102407759E+02  0.61584955887E+02  0.00000000000E+00 0. -1.
          1    1    1    2  501    0 -0.10743802605E+03  0.36801566119E+02  0.59994758786E+03  0.61060166466E+03  0.00000000000E+00 0. -1.
<scales pt_clust_5="13000.00000" pt_clust_6="13000.00000" pt_clust_7="13000.00000" pt_clust_8="13000.00000" pt_clust_9="73.25683"></scales>
<clustering>
<clus scale="   73.829">  5  6 -1 -1</clus>
<clus scale="   89.361">  7  8 -1 -1</clus>
<clus scale="   90.286">  1  5  2 -1</clus>
<clus scale="   73.257">  2  9  1 -1</clus>
<clus scale="   73.257">  2  5  1 -1</clus>
</clustering>
</event>
<event>
 9    2  0.7820252E-005  0.1121513E+03  0.7546771E-02  0.1258385E+00
         21   -1    0    0  501  502  0.00000000000E+00  0.00000000000E+00  0.23020357821E+03  0.23020357821E+03  0.00000000000E+00 0. -1.
          2   -1    0    0  502    0 -0.00000000000E+00 -0.00000000000E+00 -0.20993688310E+03  0.20993688310E+03  0.00000000000E+00 0. -1.
         24    2    1    2    0    0 -0.68189183569E+02 -0.28080201467E+02 -0.15326112227E+03  0.18852757531E+03  0.81335186608E+02 0.  0.
         23    2    1    2    0    0  0.23992160040E+02  0.74287200983E+02  0.12867729501E+03  0.17351017765E+03  0.86334949614E+02 0.  0.
        -13    1    3    3    0    0 -0.41514672914E+02  0.25055531235E+02 -0.86224397619E+02  0.98923679963E+02  0.00000000000E+00 0.  1.
         14    1    3    3    0    0 -0.26674510655E+02 -0.53135732703E+02 -0.67036724654E+02  0.89603895344E+02  0.00000000000E+00 0. -1.
        -13    1    4    4    0    0  0.35782106651E+02  0.14060024672E+00  0.68533494719E+02  0.77312475211E+02  0.00000000000E+00 0.  1.
         13    1    4    4    0    0 -0.11789946610E+02  0.74146600736E+02  0.60143800293E+02  0.96197702444E+02  0.00000000000E+00 0. -1.
          1    1    1    2  501    0  0.44197023529E+02 -0.46206999516E+02  0.44850522371E+02  0.78102708340E+02  0.00000000000E+00 0. -1.
<scales pt_clust_5="13000.00000" pt_clust_6="13000.00000" pt_clust_7="13000.00000" pt_clust_8="13000.00000" pt_clust_9="63.94110"></scales>
<clustering>
<clus scale="   63.941">  1  9  2 -1</clus>
<clus scale="   81.335">  5  6 -1 -1</clus>
<clus scale="   86.335">  7  8 -1 -1</clus>
<clus scale="  108.349">  2  5  1 -1</clus>
<clus scale="   63.941">  1  5  2 -1</clus>
</clustering>
</event>
<event>
 9    2  0.7820252E-005  0.1134682E+03  0.7546771E-02  0.1257405E+00
          2   -1    0    0  502    0 -0.00000000000E+00  0.00000000000E+00  0.33135055294E+03  0.33135055294E+03  0.00000000000E+00 0. -1.
         21   -1    0    0  501  502  0.00000000000E+00 -0.00000000000E+00 -0.93940204584E+02  0.93940204584E+02  0.00000000000E+00 0. -1.
         24    2    1    2    0    0 -0.39588932789E+02 -0.97833728154E+02  0.15245800938E+03  0.20317183278E+03  0.83045933364E+02 0.  0.
         23    2    1    2    0    0 -0.32303397540E+02  0.33568053477E+02  0.70431965205E+02  0.12460264223E+03  0.91623321379E+02 0.  0.
        -13    1    3    3    0    0  0.32788912727E+01 -0.29187269442E+02 -0.13163124230E+01  0.29400348703E+02  0.00000000000E+00 0.  1.
         14    1    3    3    0    0 -0.42867824062E+02 -0.68646458712E+02  0.15377432180E+03  0.17377148408E+03  0.00000000000E+00 0. -1.
        -11    1    4    4    0    0  0.10898834084E+02  0.24713028762E+02 -0.13194703905E+02  0.30060249269E+02  0.00000000000E+00 0. -1.
         11    1    4    4    0    0 -0.43202231624E+02  0.88550247151E+01  0.83626669109E+02  0.94542392958E+02  0.00000000000E+00 0.  1.
          1    1    1    2  501    0  0.71892330329E+02  0.64265674678E+02  0.14520373778E+02  0.97516282520E+02  0.00000000000E+00 0. -1.
<scales pt_clust_5="13000.00000" pt_clust_6="13000.00000" pt_clust_7="13000.00000" pt_clust_8="13000.00000" pt_clust_9="96.42917"></scales>
<clustering>
<clus scale="   83.046">  5  6 -1 -1</clus>
<clus scale="   91.623">  7  8 -1 -1</clus>
<clus scale="   96.429">  2  9  1 -1</clus>
<clus scale="  106.662">  1  5  2 -1</clus>
<clus scale="   96.429">  2  5  1 -1</clus>
</clustering>
</event>
<event>
 9    2  0.7820252E-005  0.1182189E+03  0.7546771E-02  0.1265490E+00
          2   -1    0    0  502    0 -0.00000000000E+00  0.00000000000E+00  0.84918846633E+03  0.84918846633E+03  0.00000000000E+00 0. -1.
         21   -1    0    0  501  502  0.00000000000E+00 -0.00000000000E+00 -0.22793694767E+02  0.22793694767E+02  0.00000000000E+00 0. -1.
         24    2    1    2    0    0  0.17960963841E+02 -0.62109152448E+01  0.21043614814E+03  0.22530246644E+03  0.78209061150E+02 0.  0.
         23    2    1    2    0    0 -0.95179433059E+01 -0.73840677554E+02  0.35180239657E+03  0.37053108560E+03  0.89360630339E+02 0.  0.
        -11    1    3    3    0    0  0.42644278856E+02  0.98721285796E+01  0.16822934733E+03  0.17383068413E+03  0.00000000000E+00 0.  1.
         12    1    3    3    0    0 -0.24683315015E+02 -0.16083043824E+02  0.42206800812E+02  0.51471782304E+02  0.00000000000E+00 0. -1.
        -11    1    4    4    0    0  0.27959391084E+01 -0.91759869412E+02  0.31139822725E+03  0.32464834336E+03  0.00000000000E+00 0. -1.
         11    1    4    4    0    0 -0.12313882414E+02  0.17919191859E+02  0.40404169321E+02  0.45882742241E+02  0.00000000000E+00 0.  1.
          1    1    1    2  501    0 -0.84430205348E+01  0.80051592799E+02  0.26415622684E+03  0.27614860906E+03  0.00000000000E+00 0. -1.
<scales pt_clust_5="13000.00000" pt_clust_6="13000.00000" pt_clust_7="13000.00000" pt_clust_8="13000.00000" pt_clust_9="77.39758"></scales>
<clustering>
<clus scale="   78.209">  5  6 -1 -1</clus>
<clus scale="   80.485">  1  5  2 -1</clus>
<clus scale="   77.398">  2  9  1 -1</clus>
<clus scale="   89.361">  7  8 -1 -1</clus>
<clus scale="   77.398">  2  5  1 -1</clus>
</clustering>
</event>
<event>
 9    2  0.7820252E-005  0.1475086E+03  0.7546771E-02  0.1230236E+00
         21   -1    0    0  501  502  0.00000000000E+00  0.00000000000E+00  0.79408336259E+02  0.79408336259E+02  0.00000000000E+00 0.  1.
          2   -1    0    0  502    0 -0.00000000000E+00 -0.00000000000E+00 -0.41959504301E+03  0.41959504301E+03  0.00000000000E+00 0. -1.
         24    2    1    2    0    0 -0.14267283875E+02 -0.16434784643E+02 -0.54288786805E+02  0.10002572253E+03  0.81143177526E+02 0.  0.
         23    2    1    2    0    0 -0.97913373449E+02  0.52684512615E+02 -0.22260513871E+03  0.26516988861E+03  0.91647888559E+02 0.  0.
        -11    1    3    3    0    0 -0.20560175921E+02  0.32127127610E+01  0.16331924911E+02  0.26453244196E+02  0.00000000000E+00 0.  1.
         12    1    3    3    0    0  0.62928920460E+01 -0.19647497404E+02 -0.70620711716E+02  0.73572478331E+02  0.00000000000E+00 0. -1.
        -11    1    4    4    0    0 -0.70746509961E+02  0.65167449134E+02 -0.21309269548E+03  0.23379555592E+03  0.00000000000E+00 0.  1.
         11    1    4    4    0    0 -0.27166863488E+02 -0.12482936519E+02 -0.95124432246E+01  0.31374332694E+02  0.00000000000E+00 0. -1.
          1    1    1    2  501    0  0.11218065732E+03 -0.36249727973E+02 -0.63292781243E+02  0.13380776813E+03  0.00000000000E+00 0. -1.
<scales pt_clust_5="13000.00000" pt_clust_6="13000.00000" pt_clust_7="13000.00000" pt_clust_8="13000.00000" pt_clust_9="115.58310"></scales>
<clustering>
<clus scale="   81.143">  5  6 -1 -1</clus>
<clus scale="   84.011">  2  5  1 -1</clus>
<clus scale="   91.648">  7  8 -1 -1</clus>
<clus scale="  115.583">  1  9  2 -1</clus>
<clus scale="  115.583">  1  5  2 -1</clus>
</clustering>
</event>
<event>
 9    2  0.7820252E-005  0.1274912E+03  0.7546771E-02  0.1235888E+00
         21   -1    0    0  501  502  0.00000000000E+00  0.00000000000E+00  0.13913470116E+03  0.13913470116E+03  0.00000000000E+00 0. -1.
          2   -1    0    0  502    0 -0.00000000000E+00 -0.00000000000E+00 -0.41664832328E+03  0.41664832328E+03  0.00000000000E+00 0. -1.
         24    2    1    2    0    0  0.43542900512E+02 -0.79889163293E+02 -0.33270386158E+03  0.35258865723E+03  0.73134390703E+02 0.  0.
         23    2    1    2    0    0 -0.58872117583E+02  0.53908750143E+02  0.94787558737E+02  0.15341571257E+03  0.90441251655E+02 0.  0.
        -11    1    3    3    0    0  0.25892936955E+02  0.14416575338E+01 -0.14444784094E+03  0.14675728708E+03  0.00000000000E+00 0.  1.
         12    1    3    3    0    0  0.17649963557E+02 -0.81330820827E+02 -0.18825602064E+03  0.20583137015E+03  0.00000000000E+00 0. -1.
        -13    1    4    4    0    0 -0.57684350352E+02  0.31515341935E+02  0.10869756143E+03  0.12702700860E+03  0.00000000000E+00 0. -1.
         13    1    4    4    0    0 -0.11877672306E+01  0.22393408207E+02 -0.13910002695E+02  0.26388703968E+02  0.00000000000E+00 0.  1.
          1    1    1    2  501    0  0.15329217071E+02  0.25980413151E+02 -0.39597319279E+02  0.49778654638E+02  0.00000000000E+00 0. -1.
<scales pt_clust_5="13000.00000" pt_clust_6="13000.00000" pt_clust_7="13000.00000" pt_clust_8="13000.00000" pt_clust_9="30.16567"></scales>
<clustering>
<clus scale="   30.166">  1  9  2 -1</clus>
<clus scale="   73.134">  5  6 -1 -1</clus>
<clus scale="   90.441">  7  8 -1 -1</clus>
<clus scale="  115.858">  2  5  1 -1</clus>
<clus scale="   30.166">  1  5  2 -1</clus>
</clustering>
</event>
<event>
 9    2  0.7820252E-005  0.9132444E+02  0.7546771E-02  0.1305922E+00
         -1   -1    0    0    0  501 -0.00000000000E+00  0.00000000000E+00  0.52921180541E+03  0.52921180541E+03  0.00000000000E+00 0.  1.
         21   -1    0    0  501  502  0.00000000000E+00 -0.00000000000E+00 -0.46125206116E+02  0.46125206116E+02  0.00000000000E+00 0.  1.
         23    2    1    2    0    0 -0.79482687068E+01  0.81030322818E+01  0.29687460993E+03  0.31037875625E+03  0.89842107045E+02 0.  0.
         24    2    1    2    0    0  0.11143970199E+02  0.52083209407E+02  0.18052085522E+03  0.20441913401E+03  0.79765621706E+02 0.  0.
        -13    1    4    4    0    0 -0.34189890335E+01  0.65270239747E+02  0.17000347256E+03  0.18213476979E+03  0.00000000000E+00 0.  1.
         14    1    4    4    0    0  0.14562959233E+02 -0.13187030339E+02  0.10517382656E+02  0.22284364221E+02  0.00000000000E+00 0. -1.
        -11    1    3    3    0    0 -0.18682065702E+02  0.41987433119E+02  0.96598728834E+02  0.10697326082E+03  0.00000000000E+00 0.  1.
         11    1    3    3    0    0  0.10733796995E+02 -0.33884400838E+02  0.20027588110E+03  0.20340549542E+03  0.00000000000E+00 0. -1.
         -2    1    1    2    0  502 -0.31957014925E+01 -0.60186241689E+02  0.56911341443E+01  0.60539121273E+02  0.00000000000E+00 0.  1.
<scales pt_clust_5="13000.00000" pt_clust_6="13000.00000" pt_clust_7="13000.00000" pt_clust_8="13000.00000" pt_clust_9="60.27102"></scales>
<clustering>
<clus scale="   60.271">  2  9  1 -1</clus>
<clus scale="   79.766">  5  6 -1 -1</clus>
<clus scale="   81.432">  2  5  1 -1</clus>
<clus scale="   89.842">  7  8 -1 -1</clus>
<clus scale="   60.271">  2  5  1 -1</clus>
</clustering>
</event>
<event>
 9    2  0.7820252E-005  0.1033424E+03  0.7546771E-02  0.1285340E+00
         21   -1    0    0  501  502  0.00000000000E+00  0.00000000000E+00  0.13572159515E+03  0.13572159515E+03  0.00000000000E+00 0. -1.
          4   -1    0    0  502    0 -0.00000000000E+00 -0.00000000000E+00 -0.10243683521E+03  0.10243683521E+03  0.00000000000E+00 0. -1.
         23    2    1    2    0    0 -0.13121982971E+02  0.86257710982E+01 -0.12682504722E+02  0.10405138271E+03  0.10207474689E+03 0.  0.
         24    2    1    2    0    0  0.17060340464E+02  0.28976416647E+02  0.38482912009E+02  0.95565502305E+02  0.80753592959E+02 0.  0.
        -11    1    4    4    0    0  0.12287498033E+02 -0.26016587162E+02  0.90047885660E+00  0.28786390493E+02  0.00000000000E+00 0.  1.
         12    1    4    4    0    0  0.47728424306E+01  0.54993003808E+02  0.37582433152E+02  0.66779111812E+02  0.00000000000E+00 0. -1.
        -13    1    3    3    0    0  0.31926597704E+02  0.25277326576E+01  0.28380430621E+02  0.42791890769E+02  0.00000000000E+00 0.  1.
         13    1    3    3    0    0 -0.45048580675E+02  0.60980384407E+01 -0.41062935343E+02  0.61259491939E+02  0.00000000000E+00 0. -1.
          3    1    1    2  501    0 -0.39383574930E+01 -0.37602187745E+02  0.74843526494E+01  0.38541545344E+02  0.00000000000E+00 0. -1.
<scales pt_clust_5="13000.00000" pt_clust_6="13000.00000" pt_clust_7="13000.00000" pt_clust_8="13000.00000" pt_clust_9="37.80787"></scales>
<clustering>
<clus scale="   37.808">  1  9  2 -1</clus>
<clus scale="   80.754">  5  6 -1 -1</clus>
<clus scale="   82.350">  1  5  2 -1</clus>
<clus scale="  102.075">  7  8 -1 -1</clus>
<clus scale="   37.808">  1  5  2 -1</clus>
</clustering>
</event>
<event>
 9    2  0.7820252E-005  0.2475479E+03  0.7546771E-02  0.1115323E+00
         21   -1    0    0  501  502  0.00000000000E+00  0.00000000000E+00  0.16921295699E+03  0.16921295699E+03  0.00000000000E+00 0.  1.
          2   -1    0    0  502    0 -0.00000000000E+00 -0.00000000000E+00 -0.12173422157E+04  0.12173422157E+04  0.00000000000E+00 0. -1.
         24    2    1    2    0    0 -0.22662556426E+03  0.12492278152E+02 -0.95933012913E+03  0.98907465083E+03  0.80244407084E+02 0.  0.
         23    2    1    2    0    0  0.25299288337E+03  0.76580691262E+01 -0.16466594106E+03  0.31467324494E+03  0.88545659883E+02 0.  0.
        -13    1    3    3    0    0 -0.14461081921E+03 -0.28215914900E+02 -0.64927503444E+03  0.66578262011E+03  0.00000000000E+00 0.  1.
         14    1    3    3    0    0 -0.82014745054E+02  0.40708193053E+02 -0.31005509468E+03  0.32329203072E+03  0.00000000000E+00 0. -1.
        -13    1    4    4    0    0  0.22220501230E+03  0.31663095172E+01 -0.10160344845E+03  0.24435292866E+03  0.00000000000E+00 0.  1.
         13    1    4    4    0    0  0.30787871063E+02  0.44917596091E+01 -0.63062492601E+02  0.70320316282E+02  0.00000000000E+00 0. -1.
          1    1    1    2  501    0 -0.26367319101E+02 -0.20150347278E+02  0.75866811520E+02  0.82807276868E+02  0.00000000000E+00 0. -1.
<scales pt_clust_5="13000.00000" pt_clust_6="13000.00000" pt_clust_7="13000.00000" pt_clust_8="13000.00000" pt_clust_9="33.18542"></scales>
<clustering>
<clus scale="   33.185">  1  9  2 -1</clus>
<clus scale="   80.244">  5  6 -1 -1</clus>
<clus scale="   88.546">  7  8 -1 -1</clus>
<clus scale="  244.701">  2  5  1 -1</clus>
<clus scale="   33.185">  1  5  2 -1</clus>
</clustering>
</event>
<event>
 9    2  0.7820252E-005  0.1229053E+03  0.7546771E-02  0.1241656E+00
          2   -1    0    0  502    0 -0.00000000000E+00  0.00000000000E+00  0.84701033998E+03  0.84701033998E+03  0.00000000000E+00 0. -1.
         21   -1    0    0  501  502  0.00000000000E+00 -0.00000000000E+00 -0.39340712263E+02  0.39340712263E+02  0.00000000000E+00 0. -1.
         23    2    1    2    0    0  0.75547191580E+02 -0.18598034428E+02  0.49548818320E+03  0.51001426319E+03  0.92481046312E+02 0.  0.
         24    2    1    2    0    0 -0.87858234508E+02 -0.65442478405E+01  0.32429621467E+03  0.34583328447E+03  0.81674532419E+02 0.  0.
        -11    1    4    4    0    0 -0.17365670796E+02 -0.19179792133E+02  0.18612566438E+02  0.31872536420E+02  0.00000000000E+00 0.  1.
         12    1    4    4    0    0 -0.70492563711E+02  0.12635544292E+02  0.30568364823E+03  0.31396074805E+03  0.00000000000E+00 0. -1.
        -11    1    3    3    0    0  0.83324972490E+02  0.16272533773E+02  0.33402278924E+03  0.34464339559E+03  0.00000000000E+00 0. -1.
         11    1    3    3    0    0 -0.77777809097E+01 -0.34870568202E+02  0.16146539397E+03  0.16537086760E+03  0.00000000000E+00 0.  1.
          1    1    1    2  501    0  0.12311042927E+02  0.25142282269E+02 -0.12114770158E+02  0.30503504579E+02  0.00000000000E+00 0. -1.
<scales pt_clust_5="13000.00000" pt_clust_6="13000.00000" pt_clust_7="13000.00000" pt_clust_8="13000.00000" pt_clust_9="27.99457"></scales>
<clustering>
<clus scale="   27.995">  2  9  1 -1</clus>
<clus scale="   81.675">  5  6 -1 -1</clus>
<clus scale="   92.481">  7  8 -1 -1</clus>
<clus scale="  114.994">  2  5  1 -1</clus>
<clus scale="   27.995">  2  5  1 -1</clus>
</clustering>
</event>
<event>
 9    2  0.7820252E-005  0.8211130E+02  0.7546771E-02  0.1323876E+00
          2   -1    0    0  502    0 -0.00000000000E+00  0.00000000000E+00  0.12708801363E+03  0.12708801363E+03  0.00000000000E+00 0. -1.
         21   -1    0    0  501  502  0.00000000000E+00 -0.00000000000E+00 -0.90015800847E+02  0.90015800847E+02  0.00000000000E+00 0.  1.
         24    2    1    2    0    0 -0.12341454584E+02 -0.19367572828E+02  0.43942436436E+02  0.95137311588E+02  0.81195787808E+02 0.  0.
         23    2    1    2    0    0 -0.16320772197E+02 -0.29761277242E+01 -0.18294108590E+02  0.83870973687E+02  0.80152609918E+02 0.  0.
        -11    1    3    3    0    0  0.29996266541E+02 -0.19700996087E+02  0.38195647255E+02  0.52410044099E+02  0.00000000000E+00 0.  1.
         12    1    3    3    0    0 -0.42337721125E+02  0.33342325938E+00  0.57467891813E+01  0.42727267489E+02  0.00000000000E+00 0. -1.
        -11    1    4    4    0    0 -0.99200597746E+01 -0.31157836285E+02  0.18119040784E+02  0.37383391858E+02  0.00000000000E+00 0. -1.
         11    1    4    4    0    0 -0.64007124228E+01  0.28181708561E+02 -0.36413149374E+02  0.46487581829E+02  0.00000000000E+00 0.  1.
          1    1    1    2  501    0  0.28662226781E+02  0.22343700552E+02  0.11423884941E+02  0.38095529207E+02  0.00000000000E+00 0. -1.
<scales pt_clust_5="13000.00000" pt_clust_6="13000.00000" pt_clust_7="13000.00000" pt_clust_8="13000.00000" pt_clust_9="36.34234"></scales>
<clustering>
<clus scale="   36.342">  2  9  1 -1</clus>
<clus scale="   80.153">  7  8 -1 -1</clus>
<clus scale="   81.080">  2  7  1 -1</clus>
<clus scale="   81.196">  5  6 -1 -1</clus>
<clus scale="   36.342">  2  5  1 -1</clus>
</clustering>
</event>
<event>
 9    2  0.7820252E-005  0.9599790E+02  0.7546771E-02  0.1296442E+00
         21   -1    0    0  501  502  0.00000000000E+00  0.00000000000E+00  0.18072833491E+03  0.18072833491E+03  0.00000000000E+00 0. -1.
          2   -1    0    0  502    0 -0.00000000000E+00 -0.00000000000E+00 -0.57047560415E+03  0.57047560415E+03  0.00000000000E+00 0. -1.
         24    2    1    2    0    0 -0.80416500038E+01  0.20919864181E+02 -0.48383779377E+03  0.49105420616E+03  0.80826442812E+02 0.  0.
         23    2    1    2    0    0  0.16987697934E+02 -0.23057770265E+01 -0.54755485079E+02  0.10987781074E+03  0.93707372481E+02 0.  0.
        -13    1    3    3    0    0  0.34537596448E+02  0.12072046377E+01 -0.14964587278E+03  0.15358447237E+03  0.00000000000E+00 0.  1.
         14    1    3    3    0    0 -0.42579246452E+02  0.19712659543E+02 -0.33419192099E+03  0.33746973379E+03  0.00000000000E+00 0. -1.
        -13    1    4    4    0    0 -0.22301648651E+02 -0.29514602197E+02 -0.49504258846E+02  0.61799246915E+02  0.00000000000E+00 0. -1.
         13    1    4    4    0    0  0.39289346585E+02  0.27208825170E+02 -0.52512262328E+01  0.48078563822E+02  0.00000000000E+00 0.  1.
          1    1    1    2  501    0 -0.89460479301E+01 -0.18614087155E+02  0.14884600961E+03  0.15027192216E+03  0.00000000000E+00 0. -1.
<scales pt_clust_5="13000.00000" pt_clust_6="13000.00000" pt_clust_7="13000.00000" pt_clust_8="13000.00000" pt_clust_9="20.65226"></scales>
<clustering>
<clus scale="   20.652">  1  9  2 -1</clus>
<clus scale="   80.826">  5  6 -1 -1</clus>
<clus scale="   83.471">  2  5  1 -1</clus>
<clus scale="   93.707">  7  8 -1 -1</clus>
<clus scale="   20.652">  1  5  2 -1</clus>
</clustering>
</event>
<event>
 9    2  0.7820252E-005  0.1260022E+03  0.7546771E-02  0.1236786E+00
          2   -1    0    0  502    0 -0.00000000000E+00  0.00000000000E+00  0.23580381797E+03  0.23580381797E+03  0.00000000000E+00 0. -1.
         21   -1    0    0  501  502  0.00000000000E+00 -0.00000000000E+00 -0.11467717315E+03  0.11467717315E+03  0.00000000000E+00 0. -1.
         23    2    1    2    0    0  0.62122813910E+02 -0.56487759533E+02  0.11503324479E+03  0.16909396692E+03  0.91159263139E+02 0.  0.
         24    2    1    2    0    0 -0.52260521510E+02  0.77047978348E+02  0.49746838829E+02  0.13213654067E+03  0.79484365323E+02 0.  0.
        -13    1    4    4    0    0 -0.52261372256E+02  0.21174912455E+02 -0.13752989964E+01  0.56404958956E+02  0.00000000000E+00 0.  1.
         14    1    4    4    0    0  0.85074618140E-03  0.55873065893E+02  0.51122137826E+02  0.75731581714E+02  0.00000000000E+00 0. -1.
        -13    1    3    3    0    0  0.42989680395E+02 -0.11337401633E+02  0.11137462980E+03  0.11992062983E+03  0.00000000000E+00 0.  1.
         13    1    3    3    0    0  0.19133133515E+02 -0.45150357901E+02  0.36586149921E+01  0.49173337088E+02  0.00000000000E+00 0. -1.
          1    1    1    2  501    0 -0.98622924005E+01 -0.20560218815E+02 -0.43653438799E+02  0.49250483531E+02  0.00000000000E+00 0. -1.
<scales pt_clust_5="13000.00000" pt_clust_6="13000.00000" pt_clust_7="13000.00000" pt_clust_8="13000.00000" pt_clust_9="22.80323"></scales>
<clustering>
<clus scale="   22.803">  2  9  1 -1</clus>
<clus scale="   79.484">  5  6 -1 -1</clus>
<clus scale="   91.159">  7  8 -1 -1</clus>
<clus scale="  117.832">  2  5  1 -1</clus>
<clus scale="   22.803">  2  5  1 -1</clus>
</clustering>
</event>
<event>
 9    2  0.7820252E-005  0.1377417E+03  0.7546771E-02  0.1219279E+00
         21   -1    0    0  501  502  0.00000000000E+00  0.00000000000E+00  0.14675919048E+03  0.14675919048E+03  0.00000000000E+00 0. -1.
         -1   -1    0    0    0  501 -0.00000000000E+00 -0.00000000000E+00 -0.32822549593E+03  0.32822549593E+03  0.00000000000E+00 0.  1.
         24    2    1    2    0    0  0.26440966709E+02 -0.88544197341E+02 -0.18949419772E+03  0.22542315759E+03  0.79801938594E+02 0.  0.
         23    2    1    2    0    0 -0.55501964335E+02  0.14712923783E+03  0.18547014296E+02  0.18332407355E+03  0.92391793654E+02 0.  0.
        -13    1    3    3    0    0 -0.83673369139E+01 -0.52045071388E+02 -0.15653595028E+03  0.16517325907E+03  0.00000000000E+00 0.  1.
         14    1    3    3    0    0  0.34808303623E+02 -0.36499125953E+02 -0.32958247439E+02  0.60249898513E+02  0.00000000000E+00 0. -1.
        -11    1    4    4    0    0 -0.25721657473E+02  0.15024004153E+03  0.14625407429E+02  0.15312601440E+03  0.00000000000E+00 0. -1.
         11    1    4    4    0    0 -0.29780306861E+02 -0.31108036986E+01  0.39216068667E+01  0.30198059157E+02  0.00000000000E+00 0.  1.
         -2    1    1    2    0  502  0.29060997625E+02 -0.58585040491E+02 -0.10519122023E+02  0.66237455268E+02  0.00000000000E+00 0.  1.
<scales pt_clust_5="13000.00000" pt_clust_6="13000.00000" pt_clust_7="13000.00000" pt_clust_8="13000.00000" pt_clust_9="65.39685"></scales>
<clustering>
<clus scale="   65.397">  1  9  2 -1</clus>
<clus scale="   79.802">  5  6 -1 -1</clus>
<clus scale="   92.392">  7  8 -1 -1</clus>
<clus scale="  129.634">  2  5  1 -1</clus>
<clus scale="   65.397">  1  5  2 -1</clus>
</clustering>
</event>
<event>
 9    2  0.7820252E-005  0.1117706E+03  0.7546771E-02  0.1269975E+00
         21   -1    0    0  501  502  0.00000000000E+00  0.00000000000E+00  0.52101937157E+02  0.52101937157E+02  0.00000000000E+00 0.  1.
         -1   -1    0    0    0  501 -0.00000000000E+00 -0.00000000000E+00 -0.31154229906E+03  0.31154229906E+03  0.00000000000E+00 0.  1.
         24    2    1    2    0    0  0.31084535332E+02  0.72406583251E+01 -0.14461475513E+03  0.16961138655E+03  0.82679620077E+02 0.  0.
         23    2    1    2    0    0 -0.29826433413E+01 -0.38021239100E+02 -0.83866108969E+02  0.14211319067E+03  0.10820408469E+03 0.  0.
        -11    1    3    3    0    0 -0.18124237340E+02 -0.16398679549E+02 -0.14286132712E+02  0.28310744568E+02  0.00000000000E+00 0.  1.
         12    1    3    3    0    0  0.49208772673E+02  0.23639337874E+02 -0.13032862241E+03  0.14130064198E+03  0.00000000000E+00 0. -1.
        -11    1    4    4    0    0  0.56619503623E+01 -0.73157585198E+02 -0.34966868642E+02  0.81282051257E+02  0.00000000000E+00 0.  1.
         11    1    4    4    0    0 -0.86445937036E+01  0.35136346099E+02 -0.48899240327E+02  0.60831139411E+02  0.00000000000E+00 0. -1.
         -2    1    1    2    0  502 -0.28101891991E+02  0.30780580775E+02 -0.30959497804E+02  0.51919658999E+02  0.00000000000E+00 0.  1.
<scales pt_clust_5="13000.00000" pt_clust_6="13000.00000" pt_clust_7="13000.00000" pt_clust_8="13000.00000" pt_clust_9="41.67926"></scales>
<clustering>
<clus scale="   41.679">  1  9  2 -1</clus>
<clus scale="   82.680">  5  6 -1 -1</clus>
<clus scale="   87.295">  2  5  1 -1</clus>
<clus scale="  108.204">  7  8 -1 -1</clus>
<clus scale="   41.679">  1  5  2 -1</clus>
</clustering>
</event>
<event>
 9    2  0.7820252E-005  0.1127759E+03  0.7546771E-02  0.1274336E+00
         21   -1    0    0  501  502  0.00000000000E+00  0.00000000000E+00  0.12067796159E+03  0.12067796159E+03  0.00000000000E+00 0. -1.
          2   -1    0    0  502    0 -0.00000000000E+00 -0.00000000000E+00 -0.32010576374E+03  0.32010576374E+03  0.00000000000E+00 0. -1.
         23    2    1    2    0    0 -0.60508010512E+01 -0.19189595594E+02 -0.77645841532E+02  0.11015144468E+03  0.75495769977E+02 0.  0.
         24    2    1    2    0    0  0.22237499851E+02 -0.59507342401E+02 -0.19603128247E+03  0.22123310760E+03  0.80499652109E+02 0.  0.
        -13    1    4    4    0    0 -0.14260157512E+02 -0.48142163021E+02 -0.52279612090E+02  0.72485707507E+02  0.00000000000E+00 0.  1.
         14    1    4    4    0    0  0.36497657363E+02 -0.11365179380E+02 -0.14375167038E+03  0.14874740009E+03  0.00000000000E+00 0. -1.
        -13    1    3    3    0    0  0.37473216070E+01 -0.46387170952E+02 -0.61224971060E+02  0.76904545571E+02  0.00000000000E+00 0. -1.
         13    1    3    3    0    0 -0.97981226582E+01  0.27197575359E+02 -0.16420870473E+02  0.33246899105E+02  0.00000000000E+00 0.  1.
          1    1    1    2  501    0 -0.16186698800E+02  0.78696937995E+02  0.74249321861E+02  0.10939917305E+03  0.00000000000E+00 0. -1.
<scales pt_clust_5="13000.00000" pt_clust_6="13000.00000" pt_clust_7="13000.00000" pt_clust_8="13000.00000" pt_clust_9="78.98240"></scales>
<clustering>
<clus scale="   75.496">  7  8 -1 -1</clus>
<clus scale="   78.131">  2  7  1 -1</clus>
<clus scale="   78.982">  1  9  2 -1</clus>
<clus scale="   80.500">  5  6 -1 -1</clus>
<clus scale="   78.982">  1  5  2 -1</clus>
</clustering>
</event>
<event>
 9    2  0.7820252E-005  0.1024960E+03  0.7546771E-02  0.1280081E+00
         21   -1    0    0  501  502  0.00000000000E+00  0.00000000000E+00  0.45357054890E+03  0.45357054890E+03  0.00000000000E+00 0. -1.
         -3   -1    0    0    0  501 -0.00000000000E+00 -0.00000000000E+00 -0.34512562674E+02  0.34512562674E+02  0.00000000000E+00 0.  1.
         23    2    1    2    0    0 -0.36873022832E+02 -0.36203131107E+02  0.97448316436E+02  0.14322085808E+03  0.91355094533E+02 0.  0.
         24    2    1    2    0    0  0.56318124566E+01  0.40822652950E+02  0.26405935170E+03  0.27921629155E+03  0.80846706437E+02 0.  0.
        -13    1    4    4    0    0 -0.25016094667E+02 -0.11223591419E+02  0.11834877814E+03  0.12148336217E+03  0.00000000000E+00 0.  1.
         14    1    4    4    0    0  0.30647907124E+02  0.52046244369E+02  0.14571057356E+03  0.15773292938E+03  0.00000000000E+00 0. -1.
        -13    1    3    3    0    0 -0.41294408644E+02 -0.59820023841E+02  0.44895216371E+02  0.85435612543E+02  0.00000000000E+00 0.  1.
         13    1    3    3    0    0  0.44213858122E+01  0.23616892734E+02  0.52553100065E+02  0.57785245533E+02  0.00000000000E+00 0. -1.
         -4    1    1    2    0  502  0.31241210376E+02 -0.46195218436E+01  0.57550318094E+02  0.65645961952E+02  0.00000000000E+00 0.  1.
<scales pt_clust_5="13000.00000" pt_clust_6="13000.00000" pt_clust_7="13000.00000" pt_clust_8="13000.00000" pt_clust_9="31.58090"></scales>
<clustering>
<clus scale="   31.581">  1  9  2 -1</clus>
<clus scale="   80.847">  5  6 -1 -1</clus>
<clus scale="   91.355">  7  8 -1 -1</clus>
<clus scale="   93.252">  1  5  2 -1</clus>
<clus scale="   31.581">  1  5  2 -1</clus>
</clustering>
</event>
<event>
 9    2  0.7820252E-005  0.9301075E+02  0.7546771E-02  0.1303295E+00
         -3   -1    0    0    0  501 -0.00000000000E+00  0.00000000000E+00  0.37361155479E+03  0.37361155479E+03  0.00000000000E+00 0.  1.
         21   -1    0    0  501  502  0.00000000000E+00 -0.00000000000E+00 -0.69116553938E+02  0.69116553938E+02  0.00000000000E+00 0.  1.
         23    2    1    2    0    0  0.84617582783E+01  0.24239817366E+01  0.28465726046E+03  0.29955291201E+03  0.92869338968E+02 0.  0.
         24    2    1    2    0    0  0.28862106105E+02 -0.95092323064E+01 -0.19567560505E+02  0.88439017028E+02  0.80716315829E+02 0.  0.
        -11    1    4    4    0    0  0.49886295189E+02 -0.12289548331E+02  0.97103602111E+01  0.52287345901E+02  0.00000000000E+00 0.  1.
         12    1    4    4    0    0 -0.21024189085E+02  0.27803160245E+01 -0.29277920716E+02  0.36151671128E+02  0.00000000000E+00 0. -1.
        -13    1    3    3    0    0 -0.21692517826E+02 -0.35594672679E+02  0.17027935770E+03  0.17530717530E+03  0.00000000000E+00 0. -1.
         13    1    3    3    0    0  0.30154276104E+02  0.38018654416E+02  0.11437790276E+03  0.12424573671E+03  0.00000000000E+00 0.  1.
         -4    1    1    2    0  502 -0.37323864383E+02  0.70852505698E+01  0.39405300894E+02  0.54736179686E+02  0.00000000000E+00 0.  1.
<scales pt_clust_5="13000.00000" pt_clust_6="13000.00000" pt_clust_7="13000.00000" pt_clust_8="13000.00000" pt_clust_9="37.99043"></scales>
<clustering>
<clus scale="   37.990">  2  9  1 -1</clus>
<clus scale="   80.716">  5  6 -1 -1</clus>
<clus scale="   80.879">  2  5  1 -1</clus>
<clus scale="   92.869">  7  8 -1 -1</clus>
<clus scale="   37.990">  2  5  1 -1</clus>
</clustering>
</event>
<event>
 9    2  0.7820252E-005  0.9370489E+02  0.7546771E-02  0.1300448E+00
          4   -1    0    0  502    0 -0.00000000000E+00  0.00000000000E+00  0.61143107729E+02  0.61143107729E+02  0.00000000000E+00 0. -1.
         21   -1    0    0  501  502  0.00000000000E+00 -0.00000000000E+00 -0.41028542298E+03  0.41028542298E+03  0.00000000000E+00 0.  1.
         24    2    1    2    0    0 -0.24383882042E+02  0.50417162339E+00 -0.40562425707E+02  0.93664035980E+02  0.80825821149E+02 0.  0.
         23    2    1    2    0    0 -0.10313724699E+02 -0.48571314889E+02 -0.30040135672E+03  0.31792084365E+03  0.91472084059E+02 0.  0.
        -13    1    3    3    0    0  0.14190692737E+02  0.29759467676E+02 -0.44567228838E+01  0.33269566508E+02  0.00000000000E+00 0.  1.
         14    1    3    3    0    0 -0.38574574779E+02 -0.29255296053E+02 -0.36105702823E+02  0.60394469473E+02  0.00000000000E+00 0. -1.
        -13    1    4    4    0    0 -0.22055309405E+02 -0.71813439846E+02 -0.25200187044E+03  0.26296111789E+03  0.00000000000E+00 0.  1.
         13    1    4    4    0    0  0.11741584706E+02  0.23242124957E+02 -0.48399486281E+02  0.54959725765E+02  0.00000000000E+00 0. -1.
          3    1    1    2  501    0  0.34697606741E+02  0.48067143266E+02 -0.81785328268E+01  0.59843651079E+02  0.00000000000E+00 0. -1.
<scales pt_clust_5="13000.00000" pt_clust_6="13000.00000" pt_clust_7="13000.00000" pt_clust_8="13000.00000" pt_clust_9="59.28219"></scales>
<clustering>
<clus scale="   59.282">  2  9  1 -1</clus>
<clus scale="   80.826">  5  6 -1 -1</clus>
<clus scale="   83.344">  1  5  2 -1</clus>
<clus scale="   91.472">  7  8 -1 -1</clus>
<clus scale="   59.282">  2  5  1 -1</clus>
</clustering>
</event>
<event>
 9    2  0.7820252E-005  0.1060805E+03  0.7546771E-02  0.1274148E+00
          2   -1    0    0  502    0 -0.00000000000E+00  0.00000000000E+00  0.16156484614E+03  0.16156484614E+03  0.00000000000E+00 0. -1.
         21   -1    0    0  501  502  0.00000000000E+00 -0.00000000000E+00 -0.24062029001E+03  0.24062029001E+03  0.00000000000E+00 0. -1.
         24    2    1    2    0    0  0.72907025049E+01  0.44773248159E+02  0.10326361603E+03  0.13957033230E+03  0.82211344534E+02 0.  0.
         23    2    1    2    0    0  0.52706393016E+02 -0.54164945046E+02 -0.87476603197E+02  0.14999621287E+03  0.95576684560E+02 0.  0.
        -11    1    3    3    0    0 -0.33635066091E+02  0.13184913717E+02  0.19279471018E+02  0.40949452053E+02  0.00000000000E+00 0.  1.
         12    1    3    3    0    0  0.40925768596E+02  0.31588334442E+02  0.83984145013E+02  0.98620880252E+02  0.00000000000E+00 0. -1.
        -13    1    4    4    0    0 -0.20929306245E+02  0.38866307725E+01 -0.39019969015E+02  0.44448844086E+02  0.00000000000E+00 0.  1.
         13    1    4    4    0    0  0.73635699261E+02 -0.58051575819E+02 -0.48456634182E+02  0.10554736878E+03  0.00000000000E+00 0. -1.
          1    1    1    2  501    0 -0.59997095521E+02  0.93916968868E+01 -0.94842456705E+02  0.11261859098E+03  0.00000000000E+00 0. -1.
<scales pt_clust_5="13000.00000" pt_clust_6="13000.00000" pt_clust_7="13000.00000" pt_clust_8="13000.00000" pt_clust_9="60.72772"></scales>
<clustering>
<clus scale="   60.728">  2  9  1 -1</clus>
<clus scale="   82.211">  5  6 -1 -1</clus>
<clus scale="   94.217">  1  5  2 -1</clus>
<clus scale="   95.577">  7  8 -1 -1</clus>
<clus scale="   60.728">  2  5  1 -1</clus>
</clustering>
</event>
<event>
 9    2  0.7820252E-005  0.9460784E+02  0.7546771E-02  0.1299958E+00
         21   -1    0    0  501  502  0.00000000000E+00  0.00000000000E+00  0.13859886061E+03  0.13859886061E+03  0.00000000000E+00 0. -1.
          4   -1    0    0  502    0 -0.00000000000E+00 -0.00000000000E+00 -0.20987089117E+03  0.20987089117E+03  0.00000000000E+00 0. -1.
         24    2    1    2    0    0 -0.18457592675E+02  0.47702974024E+01 -0.11310947785E+03  0.13997753152E+03  0.80227905905E+02 0.  0.
         23    2    1    2    0    0 -0.27274153109E-01 -0.18686980386E+02 -0.54321345873E+02  0.10958884382E+03  0.93325784716E+02 0.  0.
        -13    1    3    3    0    0 -0.10392977368E+02  0.29950431916E+02 -0.95698455445E+01  0.33115318121E+02  0.00000000000E+00 0.  1.
         14    1    3    3    0    0 -0.80646153065E+01 -0.25180134514E+02 -0.10353963231E+03  0.10686221340E+03  0.00000000000E+00 0. -1.
        -13    1    4    4    0    0 -0.15576971382E+02  0.34676218498E+02 -0.32006819132E+02  0.49694251556E+02  0.00000000000E+00 0.  1.
         13    1    4    4    0    0  0.15549697229E+02 -0.53363198884E+02 -0.22314526741E+02  0.59894592266E+02  0.00000000000E+00 0. -1.
          3    1    1    2  501    0  0.18484866828E+02  0.13916682984E+02  0.96158793164E+02  0.98903376432E+02  0.00000000000E+00 0. -1.
<scales pt_clust_5="13000.00000" pt_clust_6="13000.00000" pt_clust_7="13000.00000" pt_clust_8="13000.00000" pt_clust_9="23.13794"></scales>
<clustering>
<clus scale="   23.138">  1  9  2 -1</clus>
<clus scale="   80.228">  5  6 -1 -1</clus>
<clus scale="   81.716">  2  5  1 -1</clus>
<clus scale="   93.326">  7  8 -1 -1</clus>
<clus scale="   23.138">  1  5  2 -1</clus>
</clustering>
</event>
<event>
 9    2  0.7820252E-005  0.9588745E+02  0.7546771E-02  0.1294585E+00
          4   -1    0    0  502    0 -0.00000000000E+00  0.00000000000E+00  0.90246774087E+02  0.90246774087E+02  0.00000000000E+00 0. -1.
         21   -1    0    0  501  502  0.00000000000E+00 -0.00000000000E+00 -0.19691498548E+03  0.19691498548E+03  0.00000000000E+00 0.  1.
         24    2    1    2    0    0  0.22292808841E+02 -0.11319345985E+02  0.36168574305E+02  0.92884811399E+02  0.81818857862E+02 0.  0.
         23    2    1    2    0    0 -0.43638225908E+02  0.70118422457E+01 -0.85009514278E+02  0.13248556739E+03  0.91500532007E+02 0.  0.
        -13    1    3    3    0    0  0.57722988794E+01  0.33459135252E+02  0.16718291989E+01  0.33994531605E+02  0.00000000000E+00 0.  1.
         14    1    3    3    0    0  0.16520509962E+02 -0.44778481237E+02  0.34496745106E+02  0.58890279794E+02  0.00000000000E+00 0. -1.
        -13    1    4    4    0    0  0.15140231650E+02  0.21454994695E+02  0.21765769758E+01  0.26349210598E+02  0.00000000000E+00 0. -1.
         13    1    4    4    0    0 -0.58778457558E+02 -0.14443152450E+02 -0.87186091254E+02  0.10613635680E+03  0.00000000000E+00 0.  1.
          3    1    1    2  501    0  0.21345417067E+02  0.43075037394E+01 -0.57827271420E+02  0.61791380775E+02  0.00000000000E+00 0. -1.
<scales pt_clust_5="13000.00000" pt_clust_6="13000.00000" pt_clust_7="13000.00000" pt_clust_8="13000.00000" pt_clust_9="21.77571"></scales>
<clustering>
<clus scale="   21.776">  2  9  1 -1</clus>
<clus scale="   81.819">  5  6 -1 -1</clus>
<clus scale="   86.697">  1  5  2 -1</clus>
<clus scale="   91.501">  7  8 -1 -1</clus>
<clus scale="   21.776">  2  5  1 -1</clus>
</clustering>
</event>
<event>
 9    2  0.7820252E-005  0.4547270E+03  0.7546771E-02  0.1074226E+00
         21   -1    0    0  501  502  0.00000000000E+00  0.00000000000E+00  0.17855244929E+04  0.17855244929E+04  0.00000000000E+00 0. -1.
          2   -1    0    0  502    0 -0.00000000000E+00 -0.00000000000E+00 -0.16432282256E+03  0.16432282256E+03  0.00000000000E+00 0. -1.
         24    2    1    2    0    0 -0.21863751852E+02  0.84290591214E+02  0.56692958261E+02  0.12904240693E+03  0.76517474204E+02 0.  0.
         23    2    1    2    0    0 -0.42363326618E+03  0.76499783458E+02  0.93198082506E+03  0.10306070437E+04  0.90803409827E+02 0.  0.
        -11    1    3    3    0    0 -0.18927750068E+02 -0.88209358198E+01  0.20011934806E+02  0.28923107821E+02  0.00000000000E+00 0.  1.
         12    1    3    3    0    0 -0.29360017844E+01  0.93111527034E+02  0.36681023455E+02  0.10011929911E+03  0.00000000000E+00 0. -1.
        -13    1    4    4    0    0 -0.36507575838E+02  0.27657863535E+01  0.34027749976E+02  0.49983401606E+02  0.00000000000E+00 0.  1.
         13    1    4    4    0    0 -0.38712569034E+03  0.73733997105E+02  0.89795307508E+03  0.98062364213E+03  0.00000000000E+00 0. -1.
          1    1    1    2  501    0  0.44549701803E+03 -0.16079037467E+03  0.63252788701E+03  0.79019786479E+03  0.00000000000E+00 0. -1.
<scales pt_clust_5="13000.00000" pt_clust_6="13000.00000" pt_clust_7="13000.00000" pt_clust_8="13000.00000" pt_clust_9="445.56887"></scales>
<clustering>
<clus scale="   76.517">  5  6 -1 -1</clus>
<clus scale="   90.803">  7  8 -1 -1</clus>
<clus scale="  115.922">  2  5  1 -1</clus>
<clus scale="  445.569">  1  9  2 -1</clus>
<clus scale="  445.569">  1  5  2 -1</clus>
</clustering>
</event>
<event>
 9    2  0.7820252E-005  0.9307477E+02  0.7546771E-02  0.1300814E+00
         -3   -1    0    0    0  501 -0.00000000000E+00  0.00000000000E+00  0.91423492286E+02  0.91423492286E+02  0.00000000000E+00 0.  1.
         21   -1    0    0  501  502  0.00000000000E+00 -0.00000000000E+00 -0.34401176884E+03  0.34401176884E+03  0.00000000000E+00 0.  1.
         23    2    1    2    0    0  0.13065374372E+01  0.12735993918E+02  0.29263003941E+02  0.96471909573E+02  0.91030727536E+02 0.  0.
         24    2    1    2    0    0  0.32197286672E+02 -0.28275670264E+02 -0.52280538200E+02  0.10644085051E+03  0.82220564251E+02 0.  0.
        -11    1    4    4    0    0  0.35517989033E+02  0.59450211960E+01  0.81422543527E+01  0.36921093265E+02  0.00000000000E+00 0.  1.
         12    1    4    4    0    0 -0.33207023601E+01 -0.34220691460E+02 -0.60422792552E+02  0.69519757250E+02  0.00000000000E+00 0. -1.
        -11    1    3    3    0    0 -0.97380454455E+01 -0.22880932506E+02 -0.21917575797E+02  0.33147348767E+02  0.00000000000E+00 0.  1.
         11    1    3    3    0    0  0.11044582883E+02  0.35616926424E+02  0.51180579738E+02  0.63324560806E+02  0.00000000000E+00 0. -1.
         -4    1    1    2    0  502 -0.33503824110E+02  0.15539676346E+02 -0.22957074229E+03  0.23252250104E+03  0.00000000000E+00 0.  1.
<scales pt_clust_5="13000.00000" pt_clust_6="13000.00000" pt_clust_7="13000.00000" pt_clust_8="13000.00000" pt_clust_9="36.93221"></scales>
<clustering>
<clus scale="   36.932">  2  9  1 -1</clus>
<clus scale="   82.221">  5  6 -1 -1</clus>
<clus scale="   84.478">  2  5  1 -1</clus>
<clus scale="   91.031">  7  8 -1 -1</clus>
<clus scale="   36.932">  2  5  1 -1</clus>
</clustering>
</event>
<event>
 9    2  0.7820252E-005  0.9496062E+02  0.7546771E-02  0.1297666E+00
          2   -1    0    0  502    0 -0.00000000000E+00  0.00000000000E+00  0.45912377999E+03  0.45912377999E+03  0.00000000000E+00 0. -1.
         21   -1    0    0  501  502  0.00000000000E+00 -0.00000000000E+00 -0.23623997340E+03  0.23623997340E+03  0.00000000000E+00 0.  1.
         24    2    1    2    0    0 -0.14463739128E+02  0.19109638315E+02  0.42898261361E+03  0.43713914775E+03  0.80561614256E+02 0.  0.
         23    2    1    2    0    0  0.29865551179E+02 -0.37072005852E+02 -0.81958360689E+02  0.13184931976E+03  0.91655798886E+02 0.  0.
        -13    1    3    3    0    0 -0.43790719341E+02  0.14718174246E+02  0.16027640578E+03  0.16680161271E+03  0.00000000000E+00 0.  1.
         14    1    3    3    0    0  0.29326980213E+02  0.43914640697E+01  0.26870620783E+03  0.27033753504E+03  0.00000000000E+00 0. -1.
        -13    1    4    4    0    0  0.34930088611E+02 -0.64768141744E+02 -0.68919798581E+02  0.10082143578E+03  0.00000000000E+00 0.  1.
         13    1    4    4    0    0 -0.50645374327E+01  0.27696135892E+02 -0.13038562107E+02  0.31027883985E+02  0.00000000000E+00 0. -1.
          1    1    1    2  501    0 -0.15401812051E+02  0.17962367537E+02 -0.12414044633E+03  0.12637528587E+03  0.00000000000E+00 0. -1.
<scales pt_clust_5="13000.00000" pt_clust_6="13000.00000" pt_clust_7="13000.00000" pt_clust_8="13000.00000" pt_clust_9="23.66141"></scales>
<clustering>
<clus scale="   23.661">  2  9  1 -1</clus>
<clus scale="   80.562">  5  6 -1 -1</clus>
<clus scale="   84.302">  1  5  2 -1</clus>
<clus scale="   91.656">  7  8 -1 -1</clus>
<clus scale="   23.661">  2  5  1 -1</clus>
</clustering>
</event>
<event>
 9    2  0.7820252E-005  0.1346907E+03  0.7546771E-02  0.1244255E+00
          2   -1    0    0  502    0 -0.00000000000E+00  0.00000000000E+00  0.24055695828E+03  0.24055695828E+03  0.00000000000E+00 0. -1.
         21   -1    0    0  501  502  0.00000000000E+00 -0.00000000000E+00 -0.11649031418E+03  0.11649031418E+03  0.00000000000E+00 0. -1.
         24    2    1    2    0    0  0.15736688956E+02 -0.13690670779E+02  0.51279911285E+02  0.97479383171E+02  0.80234175988E+02 0.  0.
         23    2    1    2    0    0  0.61675133458E+02  0.77148935634E+02 -0.18624546308E+01  0.13469978762E+03  0.91568464502E+02 0.  0.
        -11    1    3    3    0    0 -0.78199489428E+01 -0.43061143616E+02  0.36657746778E+02  0.57089439390E+02  0.00000000000E+00 0.  1.
         12    1    3    3    0    0  0.23556637899E+02  0.29370472838E+02  0.14622164507E+02  0.40389943782E+02  0.00000000000E+00 0. -1.
        -11    1    4    4    0    0  0.30158100940E+02  0.26910769150E+02  0.43986953785E+02  0.59737363951E+02  0.00000000000E+00 0.  1.
         11    1    4    4    0    0  0.31517032517E+02  0.50238166484E+02 -0.45849408415E+02  0.74962423670E+02  0.00000000000E+00 0. -1.
          1    1    1    2  501    0 -0.77411822414E+02 -0.63458264855E+02  0.74649187446E+02  0.12486810167E+03  0.00000000000E+00 0. -1.
<scales pt_clust_5="13000.00000" pt_clust_6="13000.00000" pt_clust_7="13000.00000" pt_clust_8="13000.00000" pt_clust_9="98.77662"></scales>
<clustering>
<clus scale="   80.234">  5  6 -1 -1</clus>
<clus scale="   82.901">  1  5  2 -1</clus>
<clus scale="   91.568">  7  8 -1 -1</clus>
<clus scale="   98.777">  2  9  1 -1</clus>
<clus scale="   98.777">  2  5  1 -1</clus>
</clustering>
</event>
<event>
 9    2  0.7820252E-005  0.1230399E+03  0.7546771E-02  0.1256572E+00
          2   -1    0    0  502    0 -0.00000000000E+00  0.00000000000E+00  0.12299106293E+03  0.12299106293E+03  0.00000000000E+00 0. -1.
         21   -1    0    0  501  502  0.00000000000E+00 -0.00000000000E+00 -0.89947143682E+03  0.89947143682E+03  0.00000000000E+00 0. -1.
         24    2    1    2    0    0 -0.58278783937E+01 -0.27989115181E+02  0.93639279840E+02  0.12649313303E+03  0.80092716516E+02 0.  0.
         23    2    1    2    0    0 -0.66433259076E+02 -0.24363790771E+02 -0.35475196014E+03  0.37293365251E+03  0.90683977284E+02 0.  0.
        -13    1    3    3    0    0 -0.12915309142E+02  0.26772966710E+02  0.29902353265E+02  0.42163345307E+02  0.00000000000E+00 0.  1.
         14    1    3    3    0    0  0.70874307481E+01 -0.54762081892E+02  0.63736926575E+02  0.84329787720E+02  0.00000000000E+00 0. -1.
        -11    1    4    4    0    0  0.20940944077E+02  0.37092836491E+01 -0.97769769675E+02  0.10005603323E+03  0.00000000000E+00 0.  1.
         11    1    4    4    0    0 -0.87374203152E+02 -0.28073074421E+02 -0.25698219047E+03  0.27287761928E+03  0.00000000000E+00 0. -1.
          1    1    1    2  501    0  0.72261137469E+02  0.52352905953E+02 -0.51536769358E+03  0.52303571421E+03  0.00000000000E+00 0. -1.
<scales pt_clust_5="13000.00000" pt_clust_6="13000.00000" pt_clust_7="13000.00000" pt_clust_8="13000.00000" pt_clust_9="83.15792"></scales>
<clustering>
<clus scale="   80.093">  5  6 -1 -1</clus>
<clus scale="   85.042">  1  5  2 -1</clus>
<clus scale="   83.158">  2  9  1 -1</clus>
<clus scale="   90.684">  7  8 -1 -1</clus>
<clus scale="   83.158">  2  5  1 -1</clus>
</clustering>
</event>
<event>
 9    2  0.7820252E-005  0.1162251E+03  0.7546771E-02  0.1251329E+00
         21   -1    0    0  501  502  0.00000000000E+00  0.00000000000E+00  0.39520863570E+02  0.39520863570E+02  0.00000000000E+00 0.  1.
          2   -1    0    0  502    0 -0.00000000000E+00 -0.00000000000E+00 -0.57255364813E+03  0.57255364813E+03  0.00000000000E+00 0. -1.
         24    2    1    2    0    0 -0.47738741202E+02  0.54025080989E+02 -0.34016508318E+03  0.35685888405E+03  0.80238909025E+02 0.  0.
         23    2    1    2    0    0  0.78169450619E+02 -0.52985422820E+02 -0.18301665138E+03  0.22321325038E+03  0.86087992320E+02 0.  0.
        -13    1    3    3    0    0 -0.33522109010E+02  0.50018949861E+02 -0.10355638093E+03  0.11978961211E+03  0.00000000000E+00 0.  1.
         14    1    3    3    0    0 -0.14216632192E+02  0.40061311288E+01 -0.23660870225E+03  0.23706927194E+03  0.00000000000E+00 0. -1.
        -13    1    4    4    0    0  0.52107435095E+02  0.10593965612E+02 -0.11416056593E+03  0.12593669724E+03  0.00000000000E+00 0. -1.
         13    1    4    4    0    0  0.26062015524E+02 -0.63579388432E+02 -0.68856085455E+02  0.97276553140E+02  0.00000000000E+00 0.  1.
          1    1    1    2  501    0 -0.30430709417E+02 -0.10396581693E+01 -0.98510499937E+01  0.32002377266E+02  0.00000000000E+00 0. -1.
<scales pt_clust_5="13000.00000" pt_clust_6="13000.00000" pt_clust_7="13000.00000" pt_clust_8="13000.00000" pt_clust_9="30.44846"></scales>
<clustering>
<clus scale="   30.448">  1  9  2 -1</clus>
<clus scale="   80.239">  5  6 -1 -1</clus>
<clus scale="   86.088">  7  8 -1 -1</clus>
<clus scale="  111.962">  2  5  1 -1</clus>
<clus scale="   30.448">  1  5  2 -1</clus>
</clustering>
</event>
<event>
 9    2  0.7820252E-005  0.1480183E+03  0.7546771E-02  0.1203564E+00
          2   -1    0    0  502    0 -0.00000000000E+00  0.00000000000E+00  0.39758470690E+03  0.39758470690E+03  0.00000000000E+00 0. -1.
         21   -1    0    0  501  502  0.00000000000E+00 -0.00000000000E+00 -0.31903176685E+03  0.31903176685E+03  0.00000000000E+00 0. -1.
         24    2    1    2    0    0  0.69447760467E+02  0.98835978074E+02  0.35511225569E+03  0.38516726392E+03  0.87507514285E+02 0.  0.
         23    2    1    2    0    0 -0.26909366657E+02 -0.74323658398E+02 -0.13146322860E+03  0.17827204693E+03  0.90830732852E+02 0.  0.
        -13    1    3    3    0    0  0.53514593556E+02  0.48280784226E+01  0.12195688473E+03  0.13326891534E+03  0.00000000000E+00 0.  1.
         14    1    3    3    0    0  0.15933166910E+02  0.94007899652E+02  0.23315537096E+03  0.25189834857E+03  0.00000000000E+00 0. -1.
        -11    1    4    4    0    0 -0.52899316680E+02 -0.16949593381E+02 -0.46097686110E+02  0.72184645776E+02  0.00000000000E+00 0.  1.
         11    1    4    4    0    0  0.25989950023E+02 -0.57374065016E+02 -0.85365542490E+02  0.10608740115E+03  0.00000000000E+00 0. -1.
          1    1    1    2  501    0 -0.42538393809E+02 -0.24512319676E+02 -0.14509608704E+03  0.15317716291E+03  0.00000000000E+00 0. -1.
<scales pt_clust_5="13000.00000" pt_clust_6="13000.00000" pt_clust_7="13000.00000" pt_clust_8="13000.00000" pt_clust_9="49.09551"></scales>
<clustering>
<clus scale="   49.096">  2  9  1 -1</clus>
<clus scale="   87.508">  5  6 -1 -1</clus>
<clus scale="   90.831">  7  8 -1 -1</clus>
<clus scale="  146.003">  1  5  2 -1</clus>
<clus scale="   49.096">  2  5  1 -1</clus>
</clustering>
</event>
<event>
 9    2  0.7820252E-005  0.1322065E+03  0.7546771E-02  0.1226344E+00
         21   -1    0    0  501  502  0.00000000000E+00  0.00000000000E+00  0.34686189462E+03  0.34686189462E+03  0.00000000000E+00 0. -1.
         -3   -1    0    0    0  501 -0.00000000000E+00 -0.00000000000E+00 -0.13195052931E+03  0.13195052931E+03  0.00000000000E+00 0.  1.
         23    2    1    2    0    0  0.57779041629E+01 -0.10195411920E+03 -0.34648084564E+02  0.14054028341E+03  0.90127991769E+02 0.  0.
         24    2    1    2    0    0 -0.31107352415E+02  0.84998892678E+02  0.42532589599E+02  0.12901349306E+03  0.81504485052E+02 0.  0.
        -13    1    4    4    0    0 -0.32327803745E+02  0.44292491603E+02 -0.16529143020E+02  0.57272369223E+02  0.00000000000E+00 0.  1.
         14    1    4    4    0    0  0.12204513307E+01  0.40706401075E+02  0.59061732619E+02  0.71741123841E+02  0.00000000000E+00 0. -1.
        -11    1    3    3    0    0 -0.26539603115E+02  0.23903533042E+01 -0.30115538439E+01  0.26816669797E+02  0.00000000000E+00 0. -1.
         11    1    3    3    0    0  0.32317507278E+02 -0.10434447250E+03 -0.31636530720E+02  0.11372361362E+03  0.00000000000E+00 0.  1.
         -4    1    1    2    0  502  0.25329448252E+02  0.16955226518E+02  0.20702686028E+03  0.20925864745E+03  0.00000000000E+00 0.  1.
<scales pt_clust_5="13000.00000" pt_clust_6="13000.00000" pt_clust_7="13000.00000" pt_clust_8="13000.00000" pt_clust_9="30.48050"></scales>
<clustering>
<clus scale="   30.480">  1  9  2 -1</clus>
<clus scale="   81.504">  5  6 -1 -1</clus>
<clus scale="   90.128">  7  8 -1 -1</clus>
<clus scale="  126.485">  1  5  2 -1</clus>
<clus scale="   30.480">  1  5  2 -1</clus>
</clustering>
</event>
<event>
 9    2  0.7820252E-005  0.1181182E+03  0.7546771E-02  0.1246245E+00
         21   -1    0    0  501  502  0.00000000000E+00  0.00000000000E+00  0.25410389229E+02  0.25410389229E+02  0.00000000000E+00 0.  1.
          2   -1    0    0  502    0 -0.00000000000E+00 -0.00000000000E+00 -0.14726351546E+04  0.14726351546E+04  0.00000000000E+00 0. -1.
         24    2    1    2    0    0 -0.16176631614E+01  0.75673848755E+02 -0.12549318744E+04  0.12606009957E+04  0.92367270481E+02 0.  0.
         23    2    1    2    0    0 -0.16315872989E+02 -0.58676232041E+02 -0.13179756656E+03  0.17209766631E+03  0.92400759093E+02 0.  0.
        -11    1    3    3    0    0 -0.35115214181E+02  0.27907932872E+02 -0.25106854941E+03  0.25504381483E+03  0.00000000000E+00 0.  1.
         12    1    3    3    0    0  0.33497551020E+02  0.47765915883E+02 -0.10038633250E+04  0.10055571808E+04  0.00000000000E+00 0. -1.
        -13    1    4    4    0    0  0.33773064876E+01 -0.27521625500E+02  0.69106249305E+01  0.28576262985E+02  0.00000000000E+00 0.  1.
         13    1    4    4    0    0 -0.19693179477E+02 -0.31154606542E+02 -0.13870819149E+03  0.14352140332E+03  0.00000000000E+00 0. -1.
          1    1    1    2  501    0  0.17933536150E+02 -0.16997616714E+02 -0.60495324419E+02  0.65346881864E+02  0.00000000000E+00 0. -1.
<scales pt_clust_5="13000.00000" pt_clust_6="13000.00000" pt_clust_7="13000.00000" pt_clust_8="13000.00000" pt_clust_9="24.70892"></scales>
<clustering>
<clus scale="   24.709">  1  9  2 -1</clus>
<clus scale="   92.367">  5  6 -1 -1</clus>
<clus scale="   92.401">  7  8 -1 -1</clus>
<clus scale="  118.092">  2  5  1 -1</clus>
<clus scale="   24.709">  1  5  2 -1</clus>
</clustering>
</event>
<event>
 9    2  0.7820252E-005  0.9070227E+02  0.7546771E-02  0.1308241E+00
         21   -1    0    0  501  502  0.00000000000E+00  0.00000000000E+00  0.32265308121E+03  0.32265308121E+03  0.00000000000E+00 0. -1.
          4   -1    0    0  502    0 -0.00000000000E+00 -0.00000000000E+00 -0.72009943826E+02  0.72009943826E+02  0.00000000000E+00 0. -1.
         24    2    1    2    0    0 -0.26616093281E+02  0.30411755021E+02  0.11260852984E+01  0.89225835149E+02  0.79540494875E+02 0.  0.
         23    2    1    2    0    0  0.45087548751E+02 -0.43746143731E+02  0.26331654318E+03  0.27880212758E+03  0.66696418852E+02 0.  0.
        -13    1    3    3    0    0  0.42508571923E+01 -0.23097372656E+02 -0.11539356723E+02  0.26167062580E+02  0.00000000000E+00 0.  1.
         14    1    3    3    0    0 -0.30866950473E+02  0.53509127677E+02  0.12665442022E+02  0.63058772569E+02  0.00000000000E+00 0. -1.
        -13    1    4    4    0    0  0.50244538694E+02 -0.59139586630E+01  0.18312050596E+03  0.18998054711E+03  0.00000000000E+00 0.  1.
         13    1    4    4    0    0 -0.51569899429E+01 -0.37832185068E+02  0.80196037222E+02  0.88821580477E+02  0.00000000000E+00 0. -1.
          3    1    1    2  501    0 -0.18471455470E+02  0.13334388710E+02 -0.13799491096E+02  0.26635062305E+02  0.00000000000E+00 0. -1.
<scales pt_clust_5="13000.00000" pt_clust_6="13000.00000" pt_clust_7="13000.00000" pt_clust_8="13000.00000" pt_clust_9="22.78160"></scales>
<clustering>
<clus scale="   22.782">  1  9  2 -1</clus>
<clus scale="   66.696">  7  8 -1 -1</clus>
<clus scale="   79.540">  5  6 -1 -1</clus>
<clus scale="   79.678">  1  7  2 -1</clus>
<clus scale="   22.782">  1  5  2 -1</clus>
</clustering>
</event>
<event>
 9    2  0.7820252E-005  0.1221136E+03  0.7546771E-02  0.1243151E+00
          2   -1    0    0  502    0 -0.00000000000E+00  0.00000000000E+00  0.33208414617E+03  0.33208414617E+03  0.00000000000E+00 0. -1.
         21   -1    0    0  501  502  0.00000000000E+00 -0.00000000000E+00 -0.88567502834E+02  0.88567502834E+02  0.00000000000E+00 0.  1.
         24    2    1    2    0    0 -0.22677171595E+02  0.80537362894E+02  0.25865142522E+03  0.28340046611E+03  0.80092093807E+02 0.  0.
         23    2    1    2    0    0  0.63591183266E+01 -0.65645004629E+02 -0.20039088180E+02  0.11462125984E+03  0.91579272400E+02 0.  0.
        -11    1    3    3    0    0 -0.36112483412E+02  0.20953322098E+02  0.45869939336E+02  0.62025837357E+02  0.00000000000E+00 0.  1.
         12    1    3    3    0    0  0.13435311816E+02  0.59584040796E+02  0.21278148589E+03  0.22137462876E+03  0.00000000000E+00 0. -1.
        -11    1    4    4    0    0  0.41693711227E+02 -0.26027033489E+02  0.14552538193E+02  0.51259617595E+02  0.00000000000E+00 0. -1.
         11    1    4    4    0    0 -0.35334592901E+02 -0.39617971140E+02 -0.34591626373E+02  0.63361642243E+02  0.00000000000E+00 0.  1.
          1    1    1    2  501    0  0.16318053269E+02 -0.14892358265E+02  0.49043062969E+01  0.22629923054E+02  0.00000000000E+00 0. -1.
<scales pt_clust_5="13000.00000" pt_clust_6="13000.00000" pt_clust_7="13000.00000" pt_clust_8="13000.00000" pt_clust_9="22.09211"></scales>
<clustering>
<clus scale="   22.092">  2  9  1 -1</clus>
<clus scale="   80.092">  5  6 -1 -1</clus>
<clus scale="   91.579">  7  8 -1 -1</clus>
<clus scale="  113.753">  1  5  2 -1</clus>
<clus scale="   22.092">  2  5  1 -1</clus>
</clustering>
</event>
<event>
 9    2  0.7820252E-005  0.2502232E+03  0.7546771E-02  0.1143658E+00
         21   -1    0    0  501  502  0.00000000000E+00  0.00000000000E+00  0.13472223867E+03  0.13472223867E+03  0.00000000000E+00 0. -1.
          2   -1    0    0  502    0 -0.00000000000E+00 -0.00000000000E+00 -0.22565418429E+04  0.22565418429E+04  0.00000000000E+00 0. -1.
         24    2    1    2    0    0  0.38458400556E+02  0.74506350836E+02 -0.77304990620E+03  0.78201199890E+03  0.83104536963E+02 0.  0.
         23    2    1    2    0    0 -0.11678956462E+03 -0.28644474220E+03 -0.13450474416E+04  0.13832708707E+04  0.92710779580E+02 0.  0.
        -13    1    3    3    0    0  0.25000054411E+02  0.20804327041E+02 -0.74729259618E+02  0.81500214646E+02  0.00000000000E+00 0.  1.
         14    1    3    3    0    0  0.13458346145E+02  0.53702023794E+02 -0.69832064658E+03  0.70051178425E+03  0.00000000000E+00 0. -1.
        -11    1    4    4    0    0 -0.12920977067E+03 -0.22060168122E+03 -0.10420296379E+04  0.10729333776E+04  0.00000000000E+00 0. -1.
         11    1    4    4    0    0  0.12420206052E+02 -0.65843060974E+02 -0.30301780379E+03  0.31033749308E+03  0.00000000000E+00 0.  1.
          1    1    1    2  501    0  0.78331164060E+02  0.21193839136E+03 -0.37222564289E+01  0.22598121203E+03  0.00000000000E+00 0. -1.
<scales pt_clust_5="13000.00000" pt_clust_6="13000.00000" pt_clust_7="13000.00000" pt_clust_8="13000.00000" pt_clust_9="232.41419"></scales>
<clustering>
<clus scale="   83.105">  5  6 -1 -1</clus>
<clus scale="   92.711">  7  8 -1 -1</clus>
<clus scale="  118.053">  2  5  1 -1</clus>
<clus scale="  232.414">  1  9  2 -1</clus>
<clus scale="  232.414">  1  5  2 -1</clus>
</clustering>
</event>
<event>
 9    2  0.7820252E-005  0.1055279E+03  0.7546771E-02  0.1277382E+00
         21   -1    0    0  501  502  0.00000000000E+00  0.00000000000E+00  0.14501565735E+03  0.14501565735E+03  0.00000000000E+00 0. -1.
         -1   -1    0    0    0  501 -0.00000000000E+00 -0.00000000000E+00 -0.19320817522E+03  0.19320817522E+03  0.00000000000E+00 0.  1.
         23    2    1    2    0    0  0.15063881466E+02 -0.45458188583E+02 -0.14577926800E+03  0.18079117328E+03  0.95605888546E+02 0.  0.
         24    2    1    2    0    0 -0.30666966061E+02  0.21962772201E+02  0.44843373344E+02  0.97621668373E+02  0.78078395430E+02 0.  0.
        -13    1    4    4    0    0 -0.53957710432E+02  0.12744801638E+02  0.12713322839E+02  0.56881394686E+02  0.00000000000E+00 0.  1.
         14    1    4    4    0    0  0.23290744371E+02  0.92179705632E+01  0.32130050504E+02  0.40740273687E+02  0.00000000000E+00 0. -1.
        -13    1    3    3    0    0  0.50394324247E+02 -0.15521236701E+02 -0.11096294162E+03  0.12285467479E+03  0.00000000000E+00 0.  1.
         13    1    3    3    0    0 -0.35330442781E+02 -0.29936951882E+02 -0.34816326382E+02  0.57936498495E+02  0.00000000000E+00 0. -1.
         -2    1    1    2    0  502  0.15603084594E+02  0.23495416382E+02  0.52743376781E+02  0.59810990914E+02  0.00000000000E+00 0.  1.
<scales pt_clust_5="13000.00000" pt_clust_6="13000.00000" pt_clust_7="13000.00000" pt_clust_8="13000.00000" pt_clust_9="28.20445"></scales>
<clustering>
<clus scale="   28.204">  1  9  2 -1</clus>
<clus scale="   78.078">  5  6 -1 -1</clus>
<clus scale="   89.955">  1  5  2 -1</clus>
<clus scale="   95.606">  7  8 -1 -1</clus>
<clus scale="   28.204">  1  5  2 -1</clus>
</clustering>
</event>
<event>
 9    2  0.7820252E-005  0.1165177E+03  0.7546771E-02  0.1253722E+00
         21   -1    0    0  501  502  0.00000000000E+00  0.00000000000E+00  0.45152920274E+02  0.45152920274E+02  0.00000000000E+00 0.  1.
          2   -1    0    0  502    0 -0.00000000000E+00 -0.00000000000E+00 -0.11216280134E+04  0.11216280134E+04  0.00000000000E+00 0. -1.
         24    2    1    2    0    0 -0.16868702062E+02 -0.74213863913E+02 -0.75471516892E+03  0.76283042925E+03  0.80765257882E+02 0.  0.
         23    2    1    2    0    0 -0.44474368774E+02  0.13175627602E+02 -0.45461057958E+02  0.11441691031E+03  0.94196363699E+02 0.  0.
        -11    1    3    3    0    0  0.24074971436E+02 -0.65248472172E+01 -0.88931133550E+02  0.92363003390E+02  0.00000000000E+00 0.  1.
         12    1    3    3    0    0 -0.40943673498E+02 -0.67689016696E+02 -0.66578403537E+03  0.67046742586E+03  0.00000000000E+00 0. -1.
        -11    1    4    4    0    0 -0.28737631992E+02  0.28588630355E+02  0.20106239467E+02  0.45248449073E+02  0.00000000000E+00 0.  1.
         11    1    4    4    0    0 -0.15736736783E+02 -0.15413002753E+02 -0.65567297425E+02  0.69168461238E+02  0.00000000000E+00 0. -1.
          1    1    1    2  501    0  0.61343070837E+02  0.61038236311E+02 -0.27629886627E+03  0.28953359414E+03  0.00000000000E+00 0. -1.
<scales pt_clust_5="13000.00000" pt_clust_6="13000.00000" pt_clust_7="13000.00000" pt_clust_8="13000.00000" pt_clust_9="86.53696"></scales>
<clustering>
<clus scale="   80.765">  5  6 -1 -1</clus>
<clus scale="   86.537">  1  9  2 -1</clus>
<clus scale="   94.196">  7  8 -1 -1</clus>
<clus scale="  105.955">  2  5  1 -1</clus>
<clus scale="   86.537">  1  5  2 -1</clus>
</clustering>
</event>
<event>
 9    2  0.7820252E-005  0.1001053E+03  0.7546771E-02  0.1285556E+00
         -3   -1    0    0    0  501 -0.00000000000E+00  0.00000000000E+00  0.24412572997E+03  0.24412572997E+03  0.00000000000E+00 0.  1.
         21   -1    0    0  501  502  0.00000000000E+00 -0.00000000000E+00 -0.12770113854E+03  0.12770113854E+03  0.00000000000E+00 0.  1.
         23    2    1    2    0    0 -0.55146209195E+00 -0.26825953482E+02  0.10031345026E+03  0.13822080086E+03  0.91226452283E+02 0.  0.
         24    2    1    2    0    0 -0.42651308655E+01  0.10703309208E+03 -0.35027151785E+02  0.13836159455E+03  0.80266776085E+02 0.  0.
        -13    1    4    4    0    0 -0.81541557025E+01  0.45846160119E+02 -0.56666243042E+02  0.73344555036E+02  0.00000000000E+00 0.  1.
         14    1    4    4    0    0  0.38890248370E+01  0.61186931957E+02  0.21639091257E+02  0.65017039512E+02  0.00000000000E+00 0. -1.
        -13    1    3    3    0    0  0.42292158835E+02 -0.30062758764E+02  0.50001962520E+02  0.72059644873E+02  0.00000000000E+00 0. -1.
         13    1    3    3    0    0 -0.42843620927E+02  0.32368052818E+01  0.50311487742E+02  0.66161155986E+02  0.00000000000E+00 0.  1.
         -4    1    1    2    0  502  0.48165929574E+01 -0.80207138594E+02  0.51138292956E+02  0.95244473097E+02  0.00000000000E+00 0.  1.
<scales pt_clust_5="13000.00000" pt_clust_6="13000.00000" pt_clust_7="13000.00000" pt_clust_8="13000.00000" pt_clust_9="80.35167"></scales>
<clustering>
<clus scale="   80.267">  5  6 -1 -1</clus>
<clus scale="   80.352">  2  9  1 -1</clus>
<clus scale="   90.231">  2  5  1 -1</clus>
<clus scale="   91.226">  7  8 -1 -1</clus>
<clus scale="   80.352">  2  5  1 -1</clus>
</clustering>
</event>
<event>
 9    2  0.7820252E-005  0.1040436E+03  0.7546771E-02  0.1277542E+00
         21   -1    0    0  501  502  0.00000000000E+00  0.00000000000E+00  0.43083909904E+02  0.43083909904E+02  0.00000000000E+00 0. -1.
          2   -1    0    0  502    0 -0.00000000000E+00 -0.00000000000E+00 -0.48857835948E+03  0.48857835948E+03  0.00000000000E+00 0. -1.
         24    2    1    2    0    0  0.48551832692E+01  0.45275393285E+02 -0.31752518983E+03  0.33071465377E+03  0.80476717116E+02 0.  0.
         23    2    1    2    0    0 -0.44952158606E+02 -0.48028578466E+02 -0.10535195394E+03  0.15482939816E+03  0.92442779176E+02 0.  0.
        -11    1    3    3    0    0 -0.35776093175E+02  0.79800145450E+01 -0.10793953439E+03  0.11399365140E+03  0.00000000000E+00 0.  1.
         12    1    3    3    0    0  0.40631276444E+02  0.37295378740E+02 -0.20958565544E+03  0.21672100237E+03  0.00000000000E+00 0. -1.
        -11    1    4    4    0    0  0.21282701418E+02 -0.39701318523E+02 -0.29803719030E+02  0.54013051572E+02  0.00000000000E+00 0.  1.
         11    1    4    4    0    0 -0.66234860025E+02 -0.83272599436E+01 -0.75548234913E+02  0.10081634659E+03  0.00000000000E+00 0. -1.
          1    1    1    2  501    0  0.40096975337E+02  0.27531851813E+01 -0.22617305802E+02  0.46118217459E+02  0.00000000000E+00 0. -1.
<scales pt_clust_5="13000.00000" pt_clust_6="13000.00000" pt_clust_7="13000.00000" pt_clust_8="13000.00000" pt_clust_9="40.19139"></scales>
<clustering>
<clus scale="   40.191">  1  9  2 -1</clus>
<clus scale="   80.477">  5  6 -1 -1</clus>
<clus scale="   92.443">  7  8 -1 -1</clus>
<clus scale="   93.573">  2  5  1 -1</clus>
<clus scale="   40.191">  1  5  2 -1</clus>
</clustering>
</event>
<event>
 9    2  0.7820252E-005  0.9851006E+02  0.7546771E-02  0.1283541E+00
         21   -1    0    0  501  502  0.00000000000E+00  0.00000000000E+00  0.52670284647E+02  0.52670284647E+02  0.00000000000E+00 0. -1.
          2   -1    0    0  502    0 -0.00000000000E+00 -0.00000000000E+00 -0.29775724796E+03  0.29775724796E+03  0.00000000000E+00 0. -1.
         23    2    1    2    0    0 -0.47813206060E+01 -0.42874337611E+02 -0.19958542483E+03  0.22380179427E+03  0.91606940022E+02 0.  0.
         24    2    1    2    0    0  0.22224111194E+01  0.18226206986E+02 -0.38206953073E+02  0.10079379422E+03  0.91446618075E+02 0.  0.
        -13    1    4    4    0    0 -0.44071031031E+02  0.99485007141E+01 -0.26318749992E+02  0.52286757823E+02  0.00000000000E+00 0.  1.
         14    1    4    4    0    0  0.46293442150E+02  0.82777062718E+01 -0.11888203081E+02  0.48507036394E+02  0.00000000000E+00 0. -1.
        -13    1    3    3    0    0 -0.31103840903E+01  0.22832862586E+02 -0.14100783481E+02  0.27015665785E+02  0.00000000000E+00 0.  1.
         13    1    3    3    0    0 -0.16709365156E+01 -0.65707200196E+02 -0.18548464135E+03  0.19678612848E+03  0.00000000000E+00 0. -1.
          1    1    1    2  501    0  0.25589094865E+01  0.24648130625E+02 -0.72945854143E+01  0.25831944128E+02  0.00000000000E+00 0. -1.
<scales pt_clust_5="13000.00000" pt_clust_6="13000.00000" pt_clust_7="13000.00000" pt_clust_8="13000.00000" pt_clust_9="24.78060"></scales>
<clustering>
<clus scale="   24.781">  1  9  2 -1</clus>
<clus scale="   91.447">  5  6 -1 -1</clus>
<clus scale="   91.607">  7  8 -1 -1</clus>
<clus scale="   98.361">  1  5  2 -1</clus>
<clus scale="   24.781">  1  5  2 -1</clus>
</clustering>
</event>
<event>
 9    2  0.7820252E-005  0.1820532E+03  0.7546771E-02  0.1200509E+00
         21   -1    0    0  501  502  0.00000000000E+00  0.00000000000E+00  0.31011249337E+02  0.31011249337E+02  0.00000000000E+00 0. -1.
          2   -1    0    0  502    0 -0.00000000000E+00 -0.00000000000E+00 -0.14710433131E+04  0.14710433131E+04  0.00000000000E+00 0. -1.
         24    2    1    2    0    0 -0.27491161132E+01 -0.18390989982E+02 -0.30573242933E+03  0.31701859738E+03  0.81747700810E+02 0.  0.
         23    2    1    2    0    0  0.12648959024E+03  0.10619840644E+03 -0.69319956564E+03  0.71856933387E+03  0.92404176357E+02 0.  0.
        -13    1    3    3    0    0  0.12634477416E+02 -0.48302006053E+02 -0.19503074823E+03  0.20131991099E+03  0.00000000000E+00 0.  1.
         14    1    3    3    0    0 -0.15383593529E+02  0.29911016071E+02 -0.11070168111E+03  0.11569868639E+03  0.00000000000E+00 0. -1.
        -11    1    4    4    0    0  0.12096620081E+03  0.53143971376E+02 -0.42299146139E+03  0.44314656700E+03  0.00000000000E+00 0. -1.
         11    1    4    4    0    0  0.55233894285E+01  0.53054435067E+02 -0.27020810424E+03  0.27542276687E+03  0.00000000000E+00 0.  1.
          1    1    1    2  501    0 -0.12374047413E+03 -0.87807416461E+02 -0.44110006880E+03  0.46646663119E+03  0.00000000000E+00 0. -1.
<scales pt_clust_5="13000.00000" pt_clust_6="13000.00000" pt_clust_7="13000.00000" pt_clust_8="13000.00000" pt_clust_9="156.85926"></scales>
<clustering>
<clus scale="   81.748">  5  6 -1 -1</clus>
<clus scale="   83.836">  2  5  1 -1</clus>
<clus scale="   92.404">  7  8 -1 -1</clus>
<clus scale="  156.859">  1  9  2 -1</clus>
<clus scale="  156.859">  1  5  2 -1</clus>
</clustering>
</event>
<event>
 9    2  0.7820252E-005  0.1346190E+03  0.7546771E-02  0.1229700E+00
         21   -1    0    0  501  502  0.00000000000E+00  0.00000000000E+00  0.29962811090E+02  0.29962811090E+02  0.00000000000E+00 0. -1.
          2   -1    0    0  502    0 -0.00000000000E+00 -0.00000000000E+00 -0.68210633413E+03  0.68210633413E+03  0.00000000000E+00 0. -1.
         24    2    1    2    0    0  0.50301602490E+02  0.50110881779E+02 -0.36309550600E+03  0.37887484424E+03  0.81648327831E+02 0.  0.
         23    2    1    2    0    0 -0.53423707286E+02 -0.70829053678E+02 -0.26903872539E+03  0.30422255720E+03  0.11089941932E+03 0.  0.
        -11    1    3    3    0    0 -0.19542849074E+02  0.27187233643E+02 -0.14138618674E+03  0.14529667038E+03  0.00000000000E+00 0.  1.
         12    1    3    3    0    0  0.69844451564E+02  0.22923648136E+02 -0.22170931926E+03  0.23357817386E+03  0.00000000000E+00 0. -1.
        -11    1    4    4    0    0 -0.31968794953E+02 -0.29149751656E+02 -0.14840145601E+02  0.45737750205E+02  0.00000000000E+00 0. -1.
         11    1    4    4    0    0 -0.21454912333E+02 -0.41679302021E+02 -0.25419857979E+03  0.25848480699E+03  0.00000000000E+00 0.  1.
          1    1    1    2  501    0  0.31221047954E+01  0.20718171899E+02 -0.20009291653E+02  0.28971743779E+02  0.00000000000E+00 0. -1.
<scales pt_clust_5="13000.00000" pt_clust_6="13000.00000" pt_clust_7="13000.00000" pt_clust_8="13000.00000" pt_clust_9="20.95209"></scales>
<clustering>
<clus scale="   20.952">  1  9  2 -1</clus>
<clus scale="   81.648">  5  6 -1 -1</clus>
<clus scale="  110.899">  7  8 -1 -1</clus>
<clus scale="  111.759">  2  5  1 -1</clus>
<clus scale="   20.952">  1  5  2 -1</clus>
</clustering>
</event>
<event>
 9    2  0.7820252E-005  0.1257424E+03  0.7546771E-02  0.1237552E+00
         21   -1    0    0  501  502  0.00000000000E+00  0.00000000000E+00  0.10410950797E+04  0.10410950797E+04  0.00000000000E+00 0.  1.
         -1   -1    0    0    0  501 -0.00000000000E+00 -0.00000000000E+00 -0.30627241136E+02  0.30627241136E+02  0.00000000000E+00 0.  1.
         23    2    1    2    0    0  0.76843891240E+02  0.29126495741E+02  0.19680892620E+03  0.23182341950E+03  0.90857074701E+02 0.  0.
         24    2    1    2    0    0 -0.82031607495E+02 -0.71498236484E+02  0.75816600331E+03  0.76988647551E+03  0.77899384770E+02 0.  0.
        -13    1    4    4    0    0 -0.75482668234E+02 -0.16078165970E+02  0.39660848493E+03  0.40404756025E+03  0.00000000000E+00 0.  1.
         14    1    4    4    0    0 -0.65489392608E+01 -0.55420070515E+02  0.36155751839E+03  0.36583891527E+03  0.00000000000E+00 0. -1.
        -13    1    3    3    0    0  0.65676235100E+01  0.31049661713E+02  0.13348677577E+03  0.13720763272E+03  0.00000000000E+00 0. -1.
         13    1    3    3    0    0  0.70276267730E+02 -0.19231659715E+01  0.63322150426E+02  0.94615786780E+02  0.00000000000E+00 0.  1.
         -2    1    1    2    0  502  0.51877162545E+01  0.42371740743E+02  0.55492909027E+02  0.70012425796E+02  0.00000000000E+00 0.  1.
<scales pt_clust_5="13000.00000" pt_clust_6="13000.00000" pt_clust_7="13000.00000" pt_clust_8="13000.00000" pt_clust_9="42.68816"></scales>
<clustering>
<clus scale="   42.688">  1  9  2 -1</clus>
<clus scale="   77.899">  5  6 -1 -1</clus>
<clus scale="   90.857">  7  8 -1 -1</clus>
<clus scale="  116.724">  1  5  2 -1</clus>
<clus scale="   42.688">  1  5  2 -1</clus>
</clustering>
</event>
<event>
 9    2  0.7820252E-005  0.1212850E+03  0.7546771E-02  0.1244456E+00
          2   -1    0    0  502    0 -0.00000000000E+00  0.00000000000E+00  0.49645717677E+03  0.49645717677E+03  0.00000000000E+00 0. -1.
         21   -1    0    0  501  502  0.00000000000E+00 -0.00000000000E+00 -0.50589940687E+02  0.50589940687E+02  0.00000000000E+00 0. -1.
         24    2    1    2    0    0 -0.89244684726E+02  0.44424084142E+02  0.18099422746E+03  0.22115579469E+03  0.78821711152E+02 0.  0.
         23    2    1    2    0    0  0.61600884335E+02  0.20623576579E+01  0.86038212538E+02  0.13905702917E+03  0.90196236479E+02 0.  0.
        -11    1    3    3    0    0 -0.48969858898E+01 -0.20189173469E+02  0.32178700554E+02  0.38302114374E+02  0.00000000000E+00 0.  1.
         12    1    3    3    0    0 -0.84347698836E+02  0.64613257611E+02  0.14881552690E+03  0.18285368032E+03  0.00000000000E+00 0. -1.
        -11    1    4    4    0    0  0.17526994897E+02  0.29865631926E+02 -0.41701118622E+01  0.34878952871E+02  0.00000000000E+00 0.  1.
         11    1    4    4    0    0  0.44073889439E+02 -0.27803274268E+02  0.90208324400E+02  0.10417807630E+03  0.00000000000E+00 0. -1.
          1    1    1    2  501    0  0.27643800391E+02 -0.46486441800E+02  0.17883479609E+03  0.18683429360E+03  0.00000000000E+00 0. -1.
<scales pt_clust_5="13000.00000" pt_clust_6="13000.00000" pt_clust_7="13000.00000" pt_clust_8="13000.00000" pt_clust_9="54.08486"></scales>
<clustering>
<clus scale="   54.085">  2  9  1 -1</clus>
<clus scale="   78.822">  5  6 -1 -1</clus>
<clus scale="   90.196">  7  8 -1 -1</clus>
<clus scale="  113.082">  1  5  2 -1</clus>
<clus scale="   54.085">  2  5  1 -1</clus>
</clustering>
</event>
<event>
 9    2  0.7820252E-005  0.1681274E+03  0.7546771E-02  0.1179904E+00
          2   -1    0    0  502    0 -0.00000000000E+00  0.00000000000E+00  0.42540254312E+03  0.42540254312E+03  0.00000000000E+00 0. -1.
         21   -1    0    0  501  502  0.00000000000E+00 -0.00000000000E+00 -0.34386436491E+03  0.34386436491E+03  0.00000000000E+00 0. -1.
         24    2    1    2    0    0  0.13380687594E+03 -0.33581714538E+02  0.34630264746E+03  0.38344118806E+03  0.89831005010E+02 0.  0.
         23    2    1    2    0    0 -0.16924773180E+03  0.47405063054E+02 -0.10951346833E+03  0.22598200720E+03  0.90457907928E+02 0.  0.
        -13    1    3    3    0    0  0.48641151867E+02 -0.24602208159E+02  0.46503389689E+02  0.71650509795E+02  0.00000000000E+00 0.  1.
         14    1    3    3    0    0  0.85165724078E+02 -0.89795063783E+01  0.29979925777E+03  0.31179067827E+03  0.00000000000E+00 0. -1.
        -11    1    4    4    0    0 -0.66520507461E+02  0.80112721055E+00  0.30867175216E+01  0.66596903402E+02  0.00000000000E+00 0. -1.
         11    1    4    4    0    0 -0.10272722434E+03  0.46603935843E+02 -0.11260018586E+03  0.15938510380E+03  0.00000000000E+00 0.  1.
          1    1    1    2  501    0  0.35440855858E+02 -0.13823348516E+02 -0.15525100091E+03  0.15984371277E+03  0.00000000000E+00 0. -1.
<scales pt_clust_5="13000.00000" pt_clust_6="13000.00000" pt_clust_7="13000.00000" pt_clust_8="13000.00000" pt_clust_9="38.04128"></scales>
<clustering>
<clus scale="   38.041">  2  9  1 -1</clus>
<clus scale="   89.831">  5  6 -1 -1</clus>
<clus scale="   90.458">  7  8 -1 -1</clus>
<clus scale="  167.791">  1  5  2 -1</clus>
<clus scale="   38.041">  2  5  1 -1</clus>
</clustering>
</event>
<event>
 9    2  0.7820252E-005  0.9162480E+02  0.7546771E-02  0.1305586E+00
         21   -1    0    0  501  502  0.00000000000E+00  0.00000000000E+00  0.81030675292E+02  0.81030675292E+02  0.00000000000E+00 0. -1.
          2   -1    0    0  502    0 -0.00000000000E+00 -0.00000000000E+00 -0.18083304535E+03  0.18083304535E+03  0.00000000000E+00 0. -1.
         24    2    1    2    0    0  0.39331156346E+01  0.28334776204E+01 -0.80548742446E+02  0.11391903310E+03  0.80411119874E+02 0.  0.
         23    2    1    2    0    0 -0.12959128138E+01  0.38039226357E+02 -0.34133687052E+02  0.10436775628E+03  0.90988229060E+02 0.  0.
        -13    1    3    3    0    0 -0.17693717089E+02 -0.31167644430E+02 -0.19587096877E+02  0.40842919188E+02  0.00000000000E+00 0.  1.
         14    1    3    3    0    0  0.21626832724E+02  0.34001122050E+02 -0.60961645570E+02  0.73076113915E+02  0.00000000000E+00 0. -1.
        -13    1    4    4    0    0 -0.31279908771E+01 -0.22569382271E+02 -0.37233840551E+02  0.43652264834E+02  0.00000000000E+00 0.  1.
         13    1    4    4    0    0  0.18320780633E+01  0.60608608628E+02  0.31001534991E+01  0.60715491446E+02  0.00000000000E+00 0. -1.
          1    1    1    2  501    0 -0.26372028208E+01 -0.40872703977E+02  0.14880059440E+02  0.43576931260E+02  0.00000000000E+00 0. -1.
<scales pt_clust_5="13000.00000" pt_clust_6="13000.00000" pt_clust_7="13000.00000" pt_clust_8="13000.00000" pt_clust_9="40.95769"></scales>
<clustering>
<clus scale="   40.958">  1  9  2 -1</clus>
<clus scale="   80.411">  5  6 -1 -1</clus>
<clus scale="   81.131">  2  5  1 -1</clus>
<clus scale="   90.988">  7  8 -1 -1</clus>
<clus scale="   40.958">  1  5  2 -1</clus>
</clustering>
</event>
<event>
 9    2  0.7820252E-005  0.9750784E+02  0.7546771E-02  0.1292953E+00
         21   -1    0    0  501  502  0.00000000000E+00  0.00000000000E+00  0.21590526252E+03  0.21590526252E+03  0.00000000000E+00 0.  1.
          4   -1    0    0  502    0 -0.00000000000E+00 -0.00000000000E+00 -0.10406341954E+03  0.10406341954E+03  0.00000000000E+00 0. -1.
         24    2    1    2    0    0  0.71233484186E+01  0.82479694275E+01 -0.11367922153E+02  0.80451398318E+02  0.78895036250E+02 0.  0.
         23    2    1    2    0    0 -0.42475309609E+02 -0.65962447916E+02  0.30760269220E+02  0.12494140721E+03  0.92244049192E+02 0.  0.
        -11    1    3    3    0    0  0.38166071372E+02  0.11402331468E+01 -0.25180958974E+02  0.45738712602E+02  0.00000000000E+00 0.  1.
         12    1    3    3    0    0 -0.31042722953E+02  0.71077362807E+01  0.13813036821E+02  0.34712685716E+02  0.00000000000E+00 0. -1.
        -11    1    4    4    0    0  0.23094402047E+02 -0.10247424860E+02  0.29563635642E+02  0.38889197402E+02  0.00000000000E+00 0. -1.
         11    1    4    4    0    0 -0.65569711656E+02 -0.55715023056E+02  0.11966335780E+01  0.86052209807E+02  0.00000000000E+00 0.  1.
          3    1    1    2  501    0  0.35351961190E+02  0.57714478489E+02  0.92449495922E+02  0.11457587653E+03  0.00000000000E+00 0. -1.
<scales pt_clust_5="13000.00000" pt_clust_6="13000.00000" pt_clust_7="13000.00000" pt_clust_8="13000.00000" pt_clust_9="67.68103"></scales>
<clustering>
<clus scale="   67.681">  1  9  2 -1</clus>
<clus scale="   78.895">  5  6 -1 -1</clus>
<clus scale="   84.990">  2  5  1 -1</clus>
<clus scale="   92.244">  7  8 -1 -1</clus>
<clus scale="   67.681">  1  5  2 -1</clus>
</clustering>
</event>
<event>
 9    2  0.7820252E-005  0.1530674E+03  0.7546771E-02  0.1213004E+00
         21   -1    0    0  501  502  0.00000000000E+00  0.00000000000E+00  0.17729845467E+03  0.17729845467E+03  0.00000000000E+00 0.  1.
          2   -1    0    0  502    0 -0.00000000000E+00 -0.00000000000E+00 -0.48666675464E+03  0.48666675464E+03  0.00000000000E+00 0. -1.
         24    2    1    2    0    0 -0.57202424948E+02  0.40421323035E+02 -0.30259385933E+03  0.32124312562E+03  0.82025003960E+02 0.  0.
         23    2    1    2    0    0 -0.98807455897E+02 -0.58782402674E+02  0.76184268736E+02  0.16507535665E+03  0.90705823225E+02 0.  0.
        -13    1    3    3    0    0  0.13292724254E+02  0.31638590264E+02 -0.68630539976E+02  0.76732313463E+02  0.00000000000E+00 0.  1.
         14    1    3    3    0    0 -0.70495149202E+02  0.87827327707E+01 -0.23396331936E+03  0.24451081216E+03  0.00000000000E+00 0. -1.
        -13    1    4    4    0    0 -0.72926005010E+02 -0.31549959401E+02  0.94344547815E+02  0.12334705447E+03  0.00000000000E+00 0.  1.
         13    1    4    4    0    0 -0.25881450887E+02 -0.27232443273E+02 -0.18160279080E+02  0.41728302181E+02  0.00000000000E+00 0. -1.
          1    1    1    2  501    0  0.15600988085E+03  0.18361079639E+02 -0.82958709376E+02  0.17764672704E+03  0.00000000000E+00 0. -1.
<scales pt_clust_5="13000.00000" pt_clust_6="13000.00000" pt_clust_7="13000.00000" pt_clust_8="13000.00000" pt_clust_9="123.29673"></scales>
<clustering>
<clus scale="   82.025">  5  6 -1 -1</clus>
<clus scale="   90.706">  7  8 -1 -1</clus>
<clus scale="  107.861">  2  5  1 -1</clus>
<clus scale="  123.297">  1  9  2 -1</clus>
<clus scale="  123.297">  1  5  2 -1</clus>
</clustering>
</event>
<event>
 9    2  0.7820252E-005  0.1735892E+03  0.7546771E-02  0.1204213E+00
          2   -1    0    0  502    0 -0.00000000000E+00  0.00000000000E+00  0.57255414160E+03  0.57255414160E+03  0.00000000000E+00 0. -1.
         21   -1    0    0  501  502  0.00000000000E+00 -0.00000000000E+00 -0.76602372180E+02  0.76602372180E+02  0.00000000000E+00 0. -1.
         24    2    1    2    0    0 -0.98629522095E+01  0.38577794257E+02  0.83929633148E+02  0.12252152686E+03  0.79886276598E+02 0.  0.
         23    2    1    2    0    0 -0.13138140088E+03  0.36497913273E+02  0.17699354155E+03  0.24233801282E+03  0.93850032173E+02 0.  0.
        -13    1    3    3    0    0  0.27547445831E+02  0.49460238836E+01  0.42762481461E+01  0.28312739576E+02  0.00000000000E+00 0.  1.
         14    1    3    3    0    0 -0.37410398041E+02  0.33631770373E+02  0.79653385001E+02  0.94208787288E+02  0.00000000000E+00 0. -1.
        -11    1    4    4    0    0 -0.41392534319E+02  0.29788969677E+02  0.92028267463E+01  0.51821005701E+02  0.00000000000E+00 0. -1.
         11    1    4    4    0    0 -0.89988866561E+02  0.67089435962E+01  0.16779071480E+03  0.19051700712E+03  0.00000000000E+00 0.  1.
          1    1    1    2  501    0  0.14124435309E+03 -0.75075707530E+02  0.23502859472E+03  0.28429697409E+03  0.00000000000E+00 0. -1.
<scales pt_clust_5="13000.00000" pt_clust_6="13000.00000" pt_clust_7="13000.00000" pt_clust_8="13000.00000" pt_clust_9="146.03219"></scales>
<clustering>
<clus scale="   79.886">  5  6 -1 -1</clus>
<clus scale="   89.260">  1  5  2 -1</clus>
<clus scale="   93.850">  7  8 -1 -1</clus>
<clus scale="  146.032">  2  9  1 -1</clus>
<clus scale="  146.032">  2  5  1 -1</clus>
</clustering>
</event>
<event>
 9    2  0.7820252E-005  0.1348815E+03  0.7546771E-02  0.1237940E+00
         -1   -1    0    0    0  501 -0.00000000000E+00  0.00000000000E+00  0.38816087868E+03  0.38816087868E+03  0.00000000000E+00 0.  1.
         21   -1    0    0  501  502  0.00000000000E+00 -0.00000000000E+00 -0.90559871652E+02  0.90559871652E+02  0.00000000000E+00 0. -1.
         24    2    1    2    0    0  0.48273598400E+02 -0.10643184603E+02  0.16582352512E+02  0.95278457424E+02  0.79745798342E+02 0.  0.
         23    2    1    2    0    0  0.49170215329E+02  0.77092438414E+02  0.85507632127E+02  0.15511060426E+03  0.91579420534E+02 0.  0.
        -11    1    3    3    0    0  0.20000695343E+02 -0.15890700853E+02  0.46954303349E+02  0.53453239292E+02  0.00000000000E+00 0.  1.
         12    1    3    3    0    0  0.28272903058E+02  0.52475162504E+01 -0.30371950837E+02  0.41825218132E+02  0.00000000000E+00 0. -1.
        -13    1    4    4    0    0 -0.88983882080E+01  0.65700339334E+02  0.26079730482E+02  0.71245127857E+02  0.00000000000E+00 0.  1.
         13    1    4    4    0    0  0.58068603537E+02  0.11392099080E+02  0.59427901644E+02  0.83865476401E+02  0.00000000000E+00 0. -1.
         -2    1    1    2    0  502 -0.97443813729E+02 -0.66449253811E+02  0.19551102239E+03  0.22833168865E+03  0.00000000000E+00 0.  1.
<scales pt_clust_5="13000.00000" pt_clust_6="13000.00000" pt_clust_7="13000.00000" pt_clust_8="13000.00000" pt_clust_9="99.02652"></scales>
<clustering>
<clus scale="   79.746">  5  6 -1 -1</clus>
<clus scale="   91.579">  7  8 -1 -1</clus>
<clus scale="   93.824">  1  5  2 -1</clus>
<clus scale="   99.027">  2  9  1 -1</clus>
<clus scale="   99.027">  2  5  1 -1</clus>
</clustering>
</event>
<event>
 9    2  0.7820252E-005  0.1591493E+03  0.7546771E-02  0.1191837E+00
         21   -1    0    0  501  502  0.00000000000E+00  0.00000000000E+00  0.81103827173E+02  0.81103827173E+02  0.00000000000E+00 0.  1.
         -1   -1    0    0    0  501 -0.00000000000E+00 -0.00000000000E+00 -0.55295150779E+03  0.55295150779E+03  0.00000000000E+00 0.  1.
         24    2    1    2    0    0 -0.58077833388E+02 -0.10782175164E+03 -0.25073331693E+03  0.29041764994E+03  0.80477638655E+02 0.  0.
         23    2    1    2    0    0  0.11343661540E+03  0.10127668950E+03 -0.87666564949E+02  0.19901490821E+03  0.93790583380E+02 0.  0.
        -13    1    3    3    0    0 -0.49550320744E+02 -0.12042217764E+03 -0.23406759474E+03  0.26785140295E+03  0.00000000000E+00 0.  1.
         14    1    3    3    0    0 -0.85275126442E+01  0.12600426005E+02 -0.16665722189E+02  0.22566246996E+02  0.00000000000E+00 0. -1.
        -11    1    4    4    0    0  0.10757210007E+03  0.67467057170E+02 -0.27761452981E+02  0.12997791654E+03  0.00000000000E+00 0.  1.
         11    1    4    4    0    0  0.58645153226E+01  0.33809632333E+02 -0.59905111968E+02  0.69036991667E+02  0.00000000000E+00 0. -1.
         -2    1    1    2    0  502 -0.55358782008E+02  0.65450621349E+01 -0.13344779874E+03  0.14462277681E+03  0.00000000000E+00 0.  1.
<scales pt_clust_5="13000.00000" pt_clust_6="13000.00000" pt_clust_7="13000.00000" pt_clust_8="13000.00000" pt_clust_9="55.74438"></scales>
<clustering>
<clus scale="   55.744">  1  9  2 -1</clus>
<clus scale="   80.478">  5  6 -1 -1</clus>
<clus scale="   93.791">  7  8 -1 -1</clus>
<clus scale="  151.685">  2  5  1 -1</clus>
<clus scale="   55.744">  1  5  2 -1</clus>
</clustering>
</event>
<event>
 9    2  0.7820252E-005  0.1248476E+03  0.7546771E-02  0.1236823E+00
          2   -1    0    0  502    0 -0.00000000000E+00  0.00000000000E+00  0.82708947927E+02  0.82708947927E+02  0.00000000000E+00 0. -1.
         21   -1    0    0  501  502  0.00000000000E+00 -0.00000000000E+00 -0.50302481781E+03  0.50302481781E+03  0.00000000000E+00 0. -1.
         23    2    1    2    0    0  0.74349338512E+02  0.74066145809E+02 -0.76298579359E+01  0.13812178247E+03  0.89475102500E+02 0.  0.
         24    2    1    2    0    0 -0.41446270035E+02 -0.23438709751E+02 -0.15267420495E+03  0.18068148862E+03  0.84078659945E+02 0.  0.
        -13    1    4    4    0    0 -0.15785891089E+02 -0.53677662540E+02 -0.10194631175E+03  0.11629074036E+03  0.00000000000E+00 0.  1.
         14    1    4    4    0    0 -0.25660378946E+02  0.30238952789E+02 -0.50727893202E+02  0.64390748265E+02  0.00000000000E+00 0. -1.
        -11    1    3    3    0    0  0.86771843380E+02  0.49815039080E+02  0.16885005340E+02  0.10146917920E+03  0.00000000000E+00 0. -1.
         11    1    3    3    0    0 -0.12422504868E+02  0.24251106729E+02 -0.24514863276E+02  0.36652603267E+02  0.00000000000E+00 0.  1.
          1    1    1    2  501    0 -0.32903068476E+02 -0.50627436057E+02 -0.26001180700E+03  0.26693049465E+03  0.00000000000E+00 0. -1.
<scales pt_clust_5="13000.00000" pt_clust_6="13000.00000" pt_clust_7="13000.00000" pt_clust_8="13000.00000" pt_clust_9="60.38004"></scales>
<clustering>
<clus scale="   60.380">  2  9  1 -1</clus>
<clus scale="   84.079">  5  6 -1 -1</clus>
<clus scale="   89.475">  7  8 -1 -1</clus>
<clus scale="  121.039">  2  5  1 -1</clus>
<clus scale="   60.380">  2  5  1 -1</clus>
</clustering>
</event>
<event>
 9    2  0.7820252E-005  0.9956490E+02  0.7546771E-02  0.1286215E+00
         -1   -1    0    0    0  501 -0.00000000000E+00  0.00000000000E+00  0.17183151894E+03  0.17183151894E+03  0.00000000000E+00 0.  1.
         21   -1    0    0  501  502  0.00000000000E+00 -0.00000000000E+00 -0.32964262674E+03  0.32964262674E+03  0.00000000000E+00 0. -1.
         23    2    1    2    0    0  0.24011173388E+02  0.32301405816E+02  0.13300331865E+03  0.16578450529E+03  0.90414059517E+02 0.  0.
         24    2    1    2    0    0 -0.43943944333E+01 -0.75752155667E+02 -0.24834348629E+03  0.27184164562E+03  0.80409534992E+02 0.  0.
        -11    1    4    4    0    0  0.13489552438E+02 -0.36119627020E+02 -0.29039764644E+02  0.48269073035E+02  0.00000000000E+00 0.  1.
         12    1    4    4    0    0 -0.17883946872E+02 -0.39632528648E+02 -0.21930372165E+03  0.22357257258E+03  0.00000000000E+00 0. -1.
        -11    1    3    3    0    0  0.99518483360E+01  0.59604784608E+02  0.54074093393E+02  0.81091166040E+02  0.00000000000E+00 0.  1.
         11    1    3    3    0    0  0.14059325052E+02 -0.27303378792E+02  0.78929225253E+02  0.84693339250E+02  0.00000000000E+00 0. -1.
         -2    1    1    2    0  502 -0.19616778954E+02  0.43450749851E+02 -0.42470940150E+02  0.63847994772E+02  0.00000000000E+00 0.  1.
<scales pt_clust_5="13000.00000" pt_clust_6="13000.00000" pt_clust_7="13000.00000" pt_clust_8="13000.00000" pt_clust_9="47.67374"></scales>
<clustering>
<clus scale="   47.674">  2  9  1 -1</clus>
<clus scale="   80.410">  5  6 -1 -1</clus>
<clus scale="   90.414">  7  8 -1 -1</clus>
<clus scale="   90.577">  2  5  1 -1</clus>
<clus scale="   47.674">  2  5  1 -1</clus>
</clustering>
</event>
<event>
 9    2  0.7820252E-005  0.1194263E+03  0.7546771E-02  0.1255973E+00
         21   -1    0    0  501  502  0.00000000000E+00  0.00000000000E+00  0.93496506672E+02  0.93496506672E+02  0.00000000000E+00 0.  1.
          2   -1    0    0  502    0 -0.00000000000E+00 -0.00000000000E+00 -0.16350193630E+03  0.16350193630E+03  0.00000000000E+00 0. -1.
         23    2    1    2    0    0  0.40112766675E+02  0.43857038315E+01 -0.51703418808E+02  0.12789904651E+03  0.10980279657E+03 0.  0.
         24    2    1    2    0    0 -0.53057006648E+02  0.20135859079E+02 -0.19905672143E+02  0.10132472949E+03  0.81547325196E+02 0.  0.
        -13    1    4    4    0    0 -0.59383451611E+02 -0.13251058478E+02 -0.27074255261E+02  0.66595796969E+02  0.00000000000E+00 0.  1.
         14    1    4    4    0    0  0.63264449635E+01  0.33386917557E+02  0.71685831180E+01  0.34728932516E+02  0.00000000000E+00 0. -1.
        -11    1    3    3    0    0  0.54331127908E+02  0.22195591136E+02 -0.75050172678E+02  0.95273522789E+02  0.00000000000E+00 0. -1.
         11    1    3    3    0    0 -0.14218361232E+02 -0.17809887304E+02  0.23346753870E+02  0.32625523723E+02  0.00000000000E+00 0.  1.
          1    1    1    2  501    0  0.12944239972E+02 -0.24521562910E+02  0.16036613200E+01  0.27774666977E+02  0.00000000000E+00 0. -1.
<scales pt_clust_5="13000.00000" pt_clust_6="13000.00000" pt_clust_7="13000.00000" pt_clust_8="13000.00000" pt_clust_9="27.72833"></scales>
<clustering>
<clus scale="   27.728">  1  9  2 -1</clus>
<clus scale="   81.547">  5  6 -1 -1</clus>
<clus scale="   94.106">  1  5  2 -1</clus>
<clus scale="  109.803">  7  8 -1 -1</clus>
<clus scale="   27.728">  1  5  2 -1</clus>
</clustering>
</event>
<event>
 9    2  0.7820252E-005  0.9436485E+02  0.7546771E-02  0.1300667E+00
          2   -1    0    0  502    0 -0.00000000000E+00  0.00000000000E+00  0.67324435183E+03  0.67324435183E+03  0.00000000000E+00 0. -1.
         21   -1    0    0  501  502  0.00000000000E+00 -0.00000000000E+00 -0.25322018297E+02  0.25322018297E+02  0.00000000000E+00 0.  1.
         24    2    1    2    0    0 -0.78243295464E+01  0.12346327620E+02  0.50153641180E+03  0.50815711202E+03  0.80443932020E+02 0.  0.
         23    2    1    2    0    0  0.94265400023E+01  0.96147272505E+01  0.13695341902E+03  0.16645456928E+03  0.93646046444E+02 0.  0.
        -11    1    3    3    0    0  0.35861615129E+01  0.35542614223E+02  0.10763305953E+03  0.11340640848E+03  0.00000000000E+00 0.  1.
         12    1    3    3    0    0 -0.11410491059E+02 -0.23196286603E+02  0.39390335227E+03  0.39475070355E+03  0.00000000000E+00 0. -1.
        -11    1    4    4    0    0 -0.83583847860E+01 -0.40049002242E+02  0.71634449139E+02  0.82494117852E+02  0.00000000000E+00 0. -1.
         11    1    4    4    0    0  0.17784924788E+02  0.49663729492E+02  0.65318969883E+02  0.83960451424E+02  0.00000000000E+00 0.  1.
          1    1    1    2  501    0 -0.16022104559E+01 -0.21961054871E+02  0.94325027078E+01  0.23954688825E+02  0.00000000000E+00 0. -1.
<scales pt_clust_5="13000.00000" pt_clust_6="13000.00000" pt_clust_7="13000.00000" pt_clust_8="13000.00000" pt_clust_9="22.01942"></scales>
<clustering>
<clus scale="   22.019">  2  9  1 -1</clus>
<clus scale="   80.444">  5  6 -1 -1</clus>
<clus scale="   81.280">  1  5  2 -1</clus>
<clus scale="   93.646">  7  8 -1 -1</clus>
<clus scale="   22.019">  2  5  1 -1</clus>
</clustering>
</event>
<event>
 9    2  0.7820252E-005  0.1406720E+03  0.7546771E-02  0.1215091E+00
         21   -1    0    0  501  502  0.00000000000E+00  0.00000000000E+00  0.29158228190E+02  0.29158228190E+02  0.00000000000E+00 0. -1.
         -1   -1    0    0    0  501 -0.00000000000E+00 -0.00000000000E+00 -0.96995909913E+03  0.96995909913E+03  0.00000000000E+00 0.  1.
         23    2    1    2    0    0 -0.10900935811E+02  0.89742273894E+02 -0.43632965792E+03  0.45511882408E+03  0.92612458798E+02 0.  0.
         24    2    1    2    0    0  0.43414987927E+02 -0.12543889045E+03 -0.37713369335E+03  0.40781386411E+03  0.80389978784E+02 0.  0.
        -11    1    4    4    0    0 -0.22159022765E+02 -0.24111672980E+02 -0.10800967938E+03  0.11286490112E+03  0.00000000000E+00 0.  1.
         12    1    4    4    0    0  0.65574010691E+02 -0.10132721747E+03 -0.26912401396E+03  0.29494896299E+03  0.00000000000E+00 0. -1.
        -13    1    3    3    0    0 -0.40831887561E+02  0.32060379476E+02 -0.10111627337E+03  0.11366446988E+03  0.00000000000E+00 0.  1.
         13    1    3    3    0    0  0.29930951750E+02  0.57681894418E+02 -0.33521338455E+03  0.34145435419E+03  0.00000000000E+00 0. -1.
         -2    1    1    2    0  502 -0.32514052116E+02  0.35696616558E+02 -0.12733751968E+03  0.13618463914E+03  0.00000000000E+00 0.  1.
<scales pt_clust_5="13000.00000" pt_clust_6="13000.00000" pt_clust_7="13000.00000" pt_clust_8="13000.00000" pt_clust_9="48.28470"></scales>
<clustering>
<clus scale="   48.285">  1  9  2 -1</clus>
<clus scale="   80.390">  5  6 -1 -1</clus>
<clus scale="   92.612">  7  8 -1 -1</clus>
<clus scale="  132.944">  1  5  2 -1</clus>
<clus scale="   48.285">  1  5  2 -1</clus>
</clustering>
</event>
<event>
 9    2  0.7820252E-005  0.1133652E+03  0.7546771E-02  0.1259485E+00
         21   -1    0    0  501  502  0.00000000000E+00  0.00000000000E+00  0.25391363478E+03  0.25391363478E+03  0.00000000000E+00 0. -1.
          2   -1    0    0  502    0 -0.00000000000E+00 -0.00000000000E+00 -0.37574865018E+03  0.37574865018E+03  0.00000000000E+00 0. -1.
         24    2    1    2    0    0  0.29217483351E+02 -0.53222546978E+02 -0.30157013335E+03  0.31789950263E+03  0.80182589157E+02 0.  0.
         23    2    1    2    0    0 -0.51536296797E+02  0.76353199753E+02  0.21307770477E+01  0.13127328556E+03  0.93500450751E+02 0.  0.
        -11    1    3    3    0    0  0.21544300245E+02 -0.46758732342E+02 -0.74219315535E+02  0.90327419546E+02  0.00000000000E+00 0.  1.
         12    1    3    3    0    0  0.76731831059E+01 -0.64638146367E+01 -0.22735081782E+03  0.22757208309E+03  0.00000000000E+00 0. -1.
        -13    1    4    4    0    0 -0.63245697828E+01  0.76676057922E+02  0.24615128296E+02  0.80778230870E+02  0.00000000000E+00 0.  1.
         13    1    4    4    0    0 -0.45211727014E+02 -0.32285816940E+00 -0.22484351249E+02  0.50495054689E+02  0.00000000000E+00 0. -1.
          1    1    1    2  501    0  0.22318813446E+02 -0.23130652775E+02  0.17760434091E+03  0.18048949676E+03  0.00000000000E+00 0. -1.
<scales pt_clust_5="13000.00000" pt_clust_6="13000.00000" pt_clust_7="13000.00000" pt_clust_8="13000.00000" pt_clust_9="32.14275"></scales>
<clustering>
<clus scale="   32.143">  1  9  2 -1</clus>
<clus scale="   80.183">  5  6 -1 -1</clus>
<clus scale="   93.500">  7  8 -1 -1</clus>
<clus scale="  102.658">  2  5  1 -1</clus>
<clus scale="   32.143">  1  5  2 -1</clus>
</clustering>
</event>
<event>
 9    2  0.7820252E-005  0.2560293E+03  0.7546771E-02  0.1154832E+00
          2   -1    0    0  502    0 -0.00000000000E+00  0.00000000000E+00  0.65132153839E+03  0.65132153839E+03  0.00000000000E+00 0. -1.
         21   -1    0    0  501  502  0.00000000000E+00 -0.00000000000E+00 -0.49784160823E+03  0.49784160823E+03  0.00000000000E+00 0. -1.
         24    2    1    2    0    0 -0.13092061719E+02 -0.25973349879E+02  0.52050611912E+03  0.52732679333E+03  0.79378271213E+02 0.  0.
         23    2    1    2    0    0 -0.22931309854E+03  0.64377932011E+02 -0.14674270630E+03  0.29204856336E+03  0.83844655271E+02 0.  0.
        -11    1    3    3    0    0 -0.20412235276E+02  0.59363806388E+01  0.36684115842E+02  0.42398399960E+02  0.00000000000E+00 0.  1.
         12    1    3    3    0    0  0.73201735568E+01 -0.31909730518E+02  0.48382200328E+03  0.48492839337E+03  0.00000000000E+00 0. -1.
        -11    1    4    4    0    0 -0.71803087556E+02  0.60880345411E+02 -0.43639351052E+02  0.10376171163E+03  0.00000000000E+00 0.  1.
         11    1    4    4    0    0 -0.15751001098E+03  0.34975866005E+01 -0.10310335525E+03  0.18828685173E+03  0.00000000000E+00 0. -1.
          1    1    1    2  501    0  0.24240516026E+03 -0.38404582132E+02 -0.22028348266E+03  0.32978778992E+03  0.00000000000E+00 0. -1.
<scales pt_clust_5="13000.00000" pt_clust_6="13000.00000" pt_clust_7="13000.00000" pt_clust_8="13000.00000" pt_clust_9="241.91130"></scales>
<clustering>
<clus scale="   79.378">  5  6 -1 -1</clus>
<clus scale="   83.845">  7  8 -1 -1</clus>
<clus scale="   84.539">  1  5  2 -1</clus>
<clus scale="  241.911">  2  9  1 -1</clus>
<clus scale="  241.911">  2  5  1 -1</clus>
</clustering>
</event>
<event>
 9    2  0.7820252E-005  0.1009371E+03  0.7546771E-02  0.1285922E+00
         21   -1    0    0  501  502  0.00000000000E+00  0.00000000000E+00  0.16577505503E+03  0.16577505503E+03  0.00000000000E+00 0.  1.
         -1   -1    0    0    0  501 -0.00000000000E+00 -0.00000000000E+00 -0.15269784790E+03  0.15269784790E+03  0.00000000000E+00 0.  1.
         23    2    1    2    0    0  0.55337375699E+01 -0.12420981197E+02  0.36756553121E+02  0.10071021841E+03  0.92771767630E+02 0.  0.
         24    2    1    2    0    0 -0.50261675009E+02  0.53596969762E+02  0.53375289620E+02  0.11961245634E+03  0.77841807715E+02 0.  0.
        -11    1    4    4    0    0 -0.31885321848E+02  0.56774385809E+02  0.22081769854E+01  0.65152748821E+02  0.00000000000E+00 0.  1.
         12    1    4    4    0    0 -0.18376353161E+02 -0.31774160465E+01  0.51167112635E+02  0.54459707524E+02  0.00000000000E+00 0. -1.
        -11    1    3    3    0    0  0.41259051994E+02 -0.31151332289E+02  0.30113508475E+02  0.59829242578E+02  0.00000000000E+00 0. -1.
         11    1    3    3    0    0 -0.35725314424E+02  0.18730351092E+02  0.66430446456E+01  0.40880975831E+02  0.00000000000E+00 0.  1.
         -2    1    1    2    0  502  0.44727937439E+02 -0.41175988566E+02 -0.77054635613E+02  0.98150228178E+02  0.00000000000E+00 0.  1.
<scales pt_clust_5="13000.00000" pt_clust_6="13000.00000" pt_clust_7="13000.00000" pt_clust_8="13000.00000" pt_clust_9="60.79518"></scales>
<clustering>
<clus scale="   60.795">  1  9  2 -1</clus>
<clus scale="   77.842">  5  6 -1 -1</clus>
<clus scale="   87.413">  1  5  2 -1</clus>
<clus scale="   92.772">  7  8 -1 -1</clus>
<clus scale="   60.795">  1  5  2 -1</clus>
</clustering>
</event>
<event>
 9    2  0.7820252E-005  0.1421413E+03  0.7546771E-02  0.1212687E+00
         21   -1    0    0  501  502  0.00000000000E+00  0.00000000000E+00  0.48213787431E+02  0.48213787431E+02  0.00000000000E+00 0. -1.
          2   -1    0    0  502    0 -0.00000000000E+00 -0.00000000000E+00 -0.72559027497E+03  0.72559027497E+03  0.00000000000E+00 0. -1.
         24    2    1    2    0    0  0.11537665500E+03  0.59037697184E+02 -0.23856969372E+03  0.28323538119E+03  0.80681845461E+02 0.  0.
         23    2    1    2    0    0 -0.78233678499E+02 -0.37030192487E+02 -0.13812090545E+03  0.18679913956E+03  0.91240289420E+02 0.  0.
        -13    1    3    3    0    0  0.18453148338E+02 -0.18565892497E+02 -0.25005301953E+02  0.36200499631E+02  0.00000000000E+00 0.  1.
         14    1    3    3    0    0  0.96923506665E+02  0.77603589680E+02 -0.21356439176E+03  0.24703488155E+03  0.00000000000E+00 0. -1.
        -13    1    4    4    0    0 -0.18067973435E+01  0.26384325295E+02 -0.29894766780E+02  0.39913584388E+02  0.00000000000E+00 0.  1.
         13    1    4    4    0    0 -0.76426881156E+02 -0.63414517782E+02 -0.10822613867E+03  0.14688555518E+03  0.00000000000E+00 0. -1.
          1    1    1    2  501    0 -0.37142976503E+02 -0.22007504697E+02 -0.30068588838E+03  0.30376954166E+03  0.00000000000E+00 0. -1.
<scales pt_clust_5="13000.00000" pt_clust_6="13000.00000" pt_clust_7="13000.00000" pt_clust_8="13000.00000" pt_clust_9="43.17329"></scales>
<clustering>
<clus scale="   43.173">  1  9  2 -1</clus>
<clus scale="   80.682">  5  6 -1 -1</clus>
<clus scale="   91.240">  7  8 -1 -1</clus>
<clus scale="  135.606">  2  5  1 -1</clus>
<clus scale="   43.173">  1  5  2 -1</clus>
</clustering>
</event>
<event>
 9    2  0.7820252E-005  0.1508505E+03  0.7546771E-02  0.1201291E+00
         21   -1    0    0  501  502  0.00000000000E+00  0.00000000000E+00  0.23257745433E+03  0.23257745433E+03  0.00000000000E+00 0. -1.
         -1   -1    0    0    0  501 -0.00000000000E+00 -0.00000000000E+00 -0.21444681094E+03  0.21444681094E+03  0.00000000000E+00 0.  1.
         23    2    1    2    0    0 -0.13492047790E+03  0.71866633551E+01 -0.66020007169E+02  0.17636759721E+03  0.92150444985E+02 0.  0.
         24    2    1    2    0    0  0.83435966541E+02  0.89329669544E+02  0.38741545874E+02  0.15221662325E+03  0.82022208230E+02 0.  0.
        -11    1    4    4    0    0  0.96986501889E+02  0.90975974629E+02  0.31072200940E+02  0.13655947854E+03  0.00000000000E+00 0.  1.
         12    1    4    4    0    0 -0.13550535348E+02 -0.16463050848E+01  0.76693449336E+01  0.15657144707E+02  0.00000000000E+00 0. -1.
        -11    1    3    3    0    0 -0.38673035443E+02  0.40171305344E+02 -0.12842083450E+01  0.55776219256E+02  0.00000000000E+00 0.  1.
         11    1    3    3    0    0 -0.96247442460E+02 -0.32984641989E+02 -0.64735798824E+02  0.12059137795E+03  0.00000000000E+00 0. -1.
         -2    1    1    2    0  502  0.51484511362E+02 -0.96516332899E+02  0.45409104683E+02  0.11844004481E+03  0.00000000000E+00 0.  1.
<scales pt_clust_5="13000.00000" pt_clust_6="13000.00000" pt_clust_7="13000.00000" pt_clust_8="13000.00000" pt_clust_9="109.38948"></scales>
<clustering>
<clus scale="   82.022">  5  6 -1 -1</clus>
<clus scale="   92.150">  7  8 -1 -1</clus>
<clus scale="  109.389">  1  9  2 -1</clus>
<clus scale="  144.885">  1  5  2 -1</clus>
<clus scale="  109.389">  1  5  2 -1</clus>
</clustering>
</event>
<event>
 9    2  0.7820252E-005  0.1282229E+03  0.7546771E-02  0.1235907E+00
         21   -1    0    0  501  502  0.00000000000E+00  0.00000000000E+00  0.24490945328E+03  0.24490945328E+03  0.00000000000E+00 0. -1.
          2   -1    0    0  502    0 -0.00000000000E+00 -0.00000000000E+00 -0.28175508988E+03  0.28175508988E+03  0.00000000000E+00 0. -1.
         24    2    1    2    0    0 -0.84483687430E+02  0.39761570552E+02 -0.17775526149E+03  0.21298521707E+03  0.71044308503E+02 0.  0.
         23    2    1    2    0    0  0.56023337678E+02 -0.59894040853E+02 -0.39702116750E+02  0.12973392906E+03  0.92351089760E+02 0.  0.
        -11    1    3    3    0    0 -0.33474232709E+02 -0.18508055683E+02 -0.42903104119E+02  0.57478245655E+02  0.00000000000E+00 0.  1.
         12    1    3    3    0    0 -0.51009454721E+02  0.58269626234E+02 -0.13485215737E+03  0.15550697142E+03  0.00000000000E+00 0. -1.
        -11    1    4    4    0    0 -0.21195927270E+02 -0.23716192442E+02  0.69134384740E+01  0.32550280311E+02  0.00000000000E+00 0. -1.
         11    1    4    4    0    0  0.77219264948E+02 -0.36177848410E+02 -0.46615555224E+02  0.97183648746E+02  0.00000000000E+00 0.  1.
          1    1    1    2  501    0  0.28460349752E+02  0.20132470301E+02  0.18061174164E+03  0.18394539703E+03  0.00000000000E+00 0. -1.
<scales pt_clust_5="13000.00000" pt_clust_6="13000.00000" pt_clust_7="13000.00000" pt_clust_8="13000.00000" pt_clust_9="34.86127"></scales>
<clustering>
<clus scale="   34.861">  1  9  2 -1</clus>
<clus scale="   71.044">  5  6 -1 -1</clus>
<clus scale="   92.351">  7  8 -1 -1</clus>
<clus scale="  113.841">  2  5  1 -1</clus>
<clus scale="   34.861">  1  5  2 -1</clus>
</clustering>
</event>
<event>
 9    2  0.7820252E-005  0.1036685E+03  0.7546771E-02  0.1276503E+00
         21   -1    0    0  501  502  0.00000000000E+00  0.00000000000E+00  0.19326213925E+03  0.19326213925E+03  0.00000000000E+00 0. -1.
          2   -1    0    0  502    0 -0.00000000000E+00 -0.00000000000E+00 -0.74896513577E+03  0.74896513577E+03  0.00000000000E+00 0. -1.
         24    2    1    2    0    0  0.68560144155E+01 -0.48324969010E+02 -0.69419366696E+03  0.70083990869E+03  0.83002546968E+02 0.  0.
         23    2    1    2    0    0 -0.27217400015E+02  0.52655128402E+02  0.78427569539E+01  0.10909143441E+03  0.91247371546E+02 0.  0.
        -13    1    3    3    0    0 -0.17922189843E+02 -0.12824668038E+02 -0.44038499842E+02  0.49244963878E+02  0.00000000000E+00 0.  1.
         14    1    3    3    0    0  0.24778204258E+02 -0.35500300972E+02 -0.65015516712E+03  0.65159494482E+03  0.00000000000E+00 0. -1.
        -13    1    4    4    0    0  0.10346566451E+01  0.44529220613E+02  0.43920301419E+02  0.62553296312E+02  0.00000000000E+00 0.  1.
         13    1    4    4    0    0 -0.28252056660E+02  0.81259077890E+01 -0.36077544465E+02  0.46538138097E+02  0.00000000000E+00 0. -1.
          1    1    1    2  501    0  0.20361385599E+02 -0.43301593920E+01  0.13064791349E+03  0.13229593192E+03  0.00000000000E+00 0. -1.
<scales pt_clust_5="13000.00000" pt_clust_6="13000.00000" pt_clust_7="13000.00000" pt_clust_8="13000.00000" pt_clust_9="20.81673"></scales>
<clustering>
<clus scale="   20.817">  1  9  2 -1</clus>
<clus scale="   83.003">  5  6 -1 -1</clus>
<clus scale="   91.247">  7  8 -1 -1</clus>
<clus scale="   96.491">  2  5  1 -1</clus>
<clus scale="   20.817">  1  5  2 -1</clus>
</clustering>
</event>
<event>
 9    2  0.7820252E-005  0.1033656E+03  0.7546771E-02  0.1283109E+00
         21   -1    0    0  501  502  0.00000000000E+00  0.00000000000E+00  0.18694700411E+02  0.18694700411E+02  0.00000000000E+00 0.  1.
          2   -1    0    0  502    0 -0.00000000000E+00 -0.00000000000E+00 -0.76935305246E+03  0.76935305246E+03  0.00000000000E+00 0. -1.
         24    2    1    2    0    0  0.41649687880E+02 -0.16618114207E+01 -0.39006968931E+03  0.40024723826E+03  0.79410522608E+02 0.  0.
         23    2    1    2    0    0 -0.15779545714E+02  0.19689223743E+02 -0.32418741955E+03  0.33964137886E+03  0.98092423978E+02 0.  0.
        -11    1    3    3    0    0  0.28910124154E+02 -0.24330813892E+02 -0.73805467353E+02  0.82915805456E+02  0.00000000000E+00 0.  1.
         12    1    3    3    0    0  0.12739563726E+02  0.22669002471E+02 -0.31626422196E+03  0.31733143281E+03  0.00000000000E+00 0. -1.
        -13    1    4    4    0    0 -0.24031479678E+02 -0.36576270017E+02 -0.12215863825E+03  0.12976158308E+03  0.00000000000E+00 0.  1.
         13    1    4    4    0    0  0.82519339632E+01  0.56265493759E+02 -0.20202878130E+03  0.20987979578E+03  0.00000000000E+00 0. -1.
          1    1    1    2  501    0 -0.25870142166E+02 -0.18027412322E+02 -0.36401243188E+02  0.48159135752E+02  0.00000000000E+00 0. -1.
<scales pt_clust_5="13000.00000" pt_clust_6="13000.00000" pt_clust_7="13000.00000" pt_clust_8="13000.00000" pt_clust_9="31.53176"></scales>
<clustering>
<clus scale="   31.532">  1  9  2 -1</clus>
<clus scale="   79.411">  5  6 -1 -1</clus>
<clus scale="   85.839">  2  5  1 -1</clus>
<clus scale="   98.092">  7  8 -1 -1</clus>
<clus scale="   31.532">  1  5  2 -1</clus>
</clustering>
</event>
<event>
 9    2  0.7820252E-005  0.1125622E+03  0.7546771E-02  0.1268490E+00
          2   -1    0    0  502    0 -0.00000000000E+00  0.00000000000E+00  0.43236148825E+03  0.43236148825E+03  0.00000000000E+00 0. -1.
         21   -1    0    0  501  502  0.00000000000E+00 -0.00000000000E+00 -0.43302511038E+02  0.43302511038E+02  0.00000000000E+00 0.  1.
         24    2    1    2    0    0  0.14110085899E+02  0.22612337358E+02  0.22720151264E+03  0.24243024116E+03  0.80258844711E+02 0.  0.
         23    2    1    2    0    0 -0.34145226063E+02 -0.58643473094E+02  0.12781913391E+03  0.17977108389E+03  0.10665344911E+03 0.  0.
        -13    1    3    3    0    0  0.31568837542E+02 -0.20683538018E+02  0.94572449853E+02  0.10182508787E+03  0.00000000000E+00 0.  1.
         14    1    3    3    0    0 -0.17458751643E+02  0.43295875377E+02  0.13262906279E+03  0.14060515329E+03  0.00000000000E+00 0. -1.
        -11    1    4    4    0    0 -0.20349007851E+02 -0.83836971409E+02  0.57139221336E+02  0.10347758458E+03  0.00000000000E+00 0.  1.
         11    1    4    4    0    0 -0.13796218212E+02  0.25193498314E+02  0.70679912579E+02  0.76293499307E+02  0.00000000000E+00 0. -1.
          1    1    1    2  501    0  0.20035140164E+02  0.36031135736E+02  0.34038330653E+02  0.53462674245E+02  0.00000000000E+00 0. -1.
<scales pt_clust_5="13000.00000" pt_clust_6="13000.00000" pt_clust_7="13000.00000" pt_clust_8="13000.00000" pt_clust_9="41.22681"></scales>
<clustering>
<clus scale="   41.227">  2  9  1 -1</clus>
<clus scale="   80.259">  5  6 -1 -1</clus>
<clus scale="   87.959">  1  5  2 -1</clus>
<clus scale="  106.653">  7  8 -1 -1</clus>
<clus scale="   41.227">  2  5  1 -1</clus>
</clustering>
</event>
<event>
 9    2  0.7820252E-005  0.1574133E+03  0.7546771E-02  0.1193306E+00
          2   -1    0    0  502    0 -0.00000000000E+00  0.00000000000E+00  0.37647418787E+03  0.37647418787E+03  0.00000000000E+00 0. -1.
         21   -1    0    0  501  502  0.00000000000E+00 -0.00000000000E+00 -0.12666285458E+03  0.12666285458E+03  0.00000000000E+00 0. -1.
         24    2    1    2    0    0 -0.12718373914E+03 -0.11869983362E+02  0.24846430445E+03  0.29094816175E+03  0.81238674523E+02 0.  0.
         23    2    1    2    0    0  0.12571753090E+03  0.46658270621E+02 -0.30396524364E+02  0.16507170901E+03  0.91339085986E+02 0.  0.
        -11    1    3    3    0    0 -0.76078348579E+02  0.13865939948E+02  0.72829693867E+02  0.10622779166E+03  0.00000000000E+00 0.  1.
         12    1    3    3    0    0 -0.51105390557E+02 -0.25735923309E+02  0.17563461058E+03  0.18472037009E+03  0.00000000000E+00 0. -1.
        -11    1    4    4    0    0  0.26189719160E+02  0.52280527620E+02  0.63737556295E+01  0.58819892203E+02  0.00000000000E+00 0.  1.
         11    1    4    4    0    0  0.99527811745E+02 -0.56222569999E+01 -0.36770279994E+02  0.10625181681E+03  0.00000000000E+00 0. -1.
          1    1    1    2  501    0  0.14662082311E+01 -0.34788287259E+02  0.31743553209E+02  0.47117171682E+02  0.00000000000E+00 0. -1.
<scales pt_clust_5="13000.00000" pt_clust_6="13000.00000" pt_clust_7="13000.00000" pt_clust_8="13000.00000" pt_clust_9="34.81919"></scales>
<clustering>
<clus scale="   34.819">  2  9  1 -1</clus>
<clus scale="   81.239">  5  6 -1 -1</clus>
<clus scale="   91.339">  7  8 -1 -1</clus>
<clus scale="  151.776">  1  5  2 -1</clus>
<clus scale="   34.819">  2  5  1 -1</clus>
</clustering>
</event>
<event>
 9    2  0.7820252E-005  0.8981211E+02  0.7546771E-02  0.1307408E+00
         21   -1    0    0  501  502  0.00000000000E+00  0.00000000000E+00  0.37496705834E+03  0.37496705834E+03  0.00000000000E+00 0. -1.
          4   -1    0    0  502    0 -0.00000000000E+00 -0.00000000000E+00 -0.23316462679E+03  0.23316462679E+03  0.00000000000E+00 0. -1.
         24    2    1    2    0    0 -0.15042506876E+01 -0.19225110121E+02 -0.21443380738E+03  0.23003444788E+03  0.81006924624E+02 0.  0.
         23    2    1    2    0    0 -0.18193653831E+02  0.27195506264E+02  0.20463251184E+03  0.22501155952E+03  0.87664887013E+02 0.  0.
        -11    1    3    3    0    0  0.19143347098E+02  0.26102458900E+02 -0.10321159154E+03  0.10816856626E+03  0.00000000000E+00 0.  1.
         12    1    3    3    0    0 -0.20647597786E+02 -0.45327569021E+02 -0.11122221584E+03  0.12186588162E+03  0.00000000000E+00 0. -1.
        -11    1    4    4    0    0 -0.31241754033E+02 -0.19556461028E+02  0.13629151447E+03  0.14118739065E+03  0.00000000000E+00 0.  1.
         11    1    4    4    0    0  0.13048100201E+02  0.46751967292E+02  0.68340997366E+02  0.83824168863E+02  0.00000000000E+00 0. -1.
          3    1    1    2  501    0  0.19697904519E+02 -0.79703961432E+01  0.15160372710E+03  0.15308567773E+03  0.00000000000E+00 0. -1.
<scales pt_clust_5="13000.00000" pt_clust_6="13000.00000" pt_clust_7="13000.00000" pt_clust_8="13000.00000" pt_clust_9="21.24934"></scales>
<clustering>
<clus scale="   21.249">  1  9  2 -1</clus>
<clus scale="   81.007">  5  6 -1 -1</clus>
<clus scale="   83.326">  2  5  1 -1</clus>
<clus scale="   87.665">  7  8 -1 -1</clus>
<clus scale="   21.249">  1  5  2 -1</clus>
</clustering>
</event>
<event>
 9    2  0.7820252E-005  0.1230074E+03  0.7546771E-02  0.1241530E+00
         21   -1    0    0  501  502  0.00000000000E+00  0.00000000000E+00  0.33736065794E+03  0.33736065794E+03  0.00000000000E+00 0. -1.
         -3   -1    0    0    0  501 -0.00000000000E+00 -0.00000000000E+00 -0.12871120742E+03  0.12871120742E+03  0.00000000000E+00 0.  1.
         24    2    1    2    0    0  0.26127685083E+02 -0.80738341248E+02 -0.83377244967E+02  0.14378941156E+03  0.80760722034E+02 0.  0.
         23    2    1    2    0    0 -0.22890772313E+02  0.54190685436E+02  0.22222982887E+03  0.24753716483E+03  0.91803775994E+02 0.  0.
        -13    1    3    3    0    0 -0.40966907054E+01 -0.84909208597E+02 -0.71389154387E+02  0.11100796342E+03  0.00000000000E+00 0.  1.
         14    1    3    3    0    0  0.30224375788E+02  0.41708673491E+01 -0.11988090580E+02  0.32781448137E+02  0.00000000000E+00 0. -1.
        -13    1    4    4    0    0  0.28343224796E+02  0.79658929790E+01  0.25133123739E+02  0.38710047167E+02  0.00000000000E+00 0.  1.
         13    1    4    4    0    0 -0.51233997109E+02  0.46224792457E+02  0.19709670513E+03  0.20882711766E+03  0.00000000000E+00 0. -1.
         -4    1    1    2    0  502 -0.32369127701E+01  0.26547655812E+02  0.69796866620E+02  0.74745288971E+02  0.00000000000E+00 0.  1.
<scales pt_clust_5="13000.00000" pt_clust_6="13000.00000" pt_clust_7="13000.00000" pt_clust_8="13000.00000" pt_clust_9="26.74426"></scales>
<clustering>
<clus scale="   26.744">  1  9  2 -1</clus>
<clus scale="   80.761">  5  6 -1 -1</clus>
<clus scale="   91.804">  7  8 -1 -1</clus>
<clus scale="  115.001">  2  5  1 -1</clus>
<clus scale="   26.744">  1  5  2 -1</clus>
</clustering>
</event>
<event>
 9    2  0.7820252E-005  0.2121217E+03  0.7546771E-02  0.1140778E+00
          2   -1    0    0  502    0 -0.00000000000E+00  0.00000000000E+00  0.11090545489E+04  0.11090545489E+04  0.00000000000E+00 0. -1.
         21   -1    0    0  501  502  0.00000000000E+00 -0.00000000000E+00 -0.12376948772E+03  0.12376948772E+03  0.00000000000E+00 0.  1.
         23    2    1    2    0    0  0.13575114319E+03  0.69204674956E+02  0.35539168678E+03  0.39703200731E+03  0.90074990333E+02 0.  0.
         24    2    1    2    0    0 -0.14225053112E+03 -0.22177995783E+03  0.62516657353E+03  0.68300524447E+03  0.79002253212E+02 0.  0.
        -13    1    4    4    0    0  0.71638622839E+01 -0.27043389572E+02  0.44120074075E+02  0.52242193472E+02  0.00000000000E+00 0.  1.
         14    1    4    4    0    0 -0.14941439341E+03 -0.19473656826E+03  0.58104649945E+03  0.63076305100E+03  0.00000000000E+00 0. -1.
        -13    1    3    3    0    0  0.75283523521E+02  0.84238594278E+02  0.20160869753E+03  0.23110563948E+03  0.00000000000E+00 0.  1.
         13    1    3    3    0    0  0.60467619668E+02 -0.15033919323E+02  0.15378298925E+03  0.16592636783E+03  0.00000000000E+00 0. -1.
          1    1    1    2  501    0  0.64993879341E+01  0.15257528287E+03  0.47268009048E+01  0.15278678488E+03  0.00000000000E+00 0. -1.
<scales pt_clust_5="13000.00000" pt_clust_6="13000.00000" pt_clust_7="13000.00000" pt_clust_8="13000.00000" pt_clust_9="152.71365"></scales>
<clustering>
<clus scale="   79.002">  5  6 -1 -1</clus>
<clus scale="   90.075">  7  8 -1 -1</clus>
<clus scale="  152.714">  2  9  1 -1</clus>
<clus scale="  207.662">  2  5  1 -1</clus>
<clus scale="  152.714">  2  5  1 -1</clus>
</clustering>
</event>
<event>
 9    2  0.7820252E-005  0.1453984E+03  0.7546771E-02  0.1225942E+00
          2   -1    0    0  502    0 -0.00000000000E+00  0.00000000000E+00  0.88941669124E+03  0.88941669124E+03  0.00000000000E+00 0. -1.
         21   -1    0    0  501  502  0.00000000000E+00 -0.00000000000E+00 -0.39774687007E+02  0.39774687007E+02  0.00000000000E+00 0. -1.
         24    2    1    2    0    0  0.43672971496E+02  0.27175866578E+02  0.20319729628E+03  0.22468402953E+03  0.80919192682E+02 0.  0.
         23    2    1    2    0    0 -0.10395465318E+03  0.65683494266E+02  0.24400648801E+03  0.28711872536E+03  0.88187895552E+02 0.  0.
        -11    1    3    3    0    0 -0.38661577867E+01  0.41985759985E+02  0.12557129040E+03  0.13246093836E+03  0.00000000000E+00 0.  1.
         12    1    3    3    0    0  0.47539129283E+02 -0.14809893407E+02  0.77626005879E+02  0.92223091167E+02  0.00000000000E+00 0. -1.
        -13    1    4    4    0    0 -0.20242459310E+02  0.39731408077E+02  0.24760296053E+02  0.51004060695E+02  0.00000000000E+00 0.  1.
         13    1    4    4    0    0 -0.83712193875E+02  0.25952086189E+02  0.21924619196E+03  0.23611466466E+03  0.00000000000E+00 0. -1.
          1    1    1    2  501    0  0.60281681689E+02 -0.92859360845E+02  0.40243821994E+03  0.41738862336E+03  0.00000000000E+00 0. -1.
<scales pt_clust_5="13000.00000" pt_clust_6="13000.00000" pt_clust_7="13000.00000" pt_clust_8="13000.00000" pt_clust_9="115.60109"></scales>
<clustering>
<clus scale="   80.919">  5  6 -1 -1</clus>
<clus scale="   88.188">  7  8 -1 -1</clus>
<clus scale="   95.884">  1  5  2 -1</clus>
<clus scale="  115.601">  2  9  1 -1</clus>
<clus scale="  115.601">  2  5  1 -1</clus>
</clustering>
</event>
<event>
 9    2  0.7820252E-005  0.1785369E+03  0.7546771E-02  0.1197471E+00
         21   -1    0    0  501  502  0.00000000000E+00  0.00000000000E+00  0.43941525009E+03  0.43941525009E+03  0.00000000000E+00 0.  1.
          2   -1    0    0  502    0 -0.00000000000E+00 -0.00000000000E+00 -0.13927678030E+03  0.13927678030E+03  0.00000000000E+00 0. -1.
         24    2    1    2    0    0 -0.50470704981E+02 -0.19757074254E+02 -0.72198051229E+01  0.95235764940E+02  0.77974940162E+02 0.  0.
         23    2    1    2    0    0 -0.13491359764E+03 -0.18694863180E+02  0.22031959175E+03  0.27507770724E+03  0.92605862530E+02 0.  0.
        -13    1    3    3    0    0 -0.19332000784E+02 -0.45271282172E+02  0.11938060840E+02  0.50653060524E+02  0.00000000000E+00 0.  1.
         14    1    3    3    0    0 -0.31138704197E+02  0.25514207918E+02 -0.19157865963E+02  0.44582704416E+02  0.00000000000E+00 0. -1.
        -11    1    4    4    0    0 -0.89806798034E+02  0.25278550297E+02  0.17204423817E+03  0.19571276393E+03  0.00000000000E+00 0.  1.
         11    1    4    4    0    0 -0.45106799606E+02 -0.43973413477E+02  0.48275353585E+02  0.79364943314E+02  0.00000000000E+00 0. -1.
          1    1    1    2  501    0  0.18538430262E+03  0.38451937434E+02  0.87038683161E+02  0.20837855820E+03  0.00000000000E+00 0. -1.
<scales pt_clust_5="13000.00000" pt_clust_6="13000.00000" pt_clust_7="13000.00000" pt_clust_8="13000.00000" pt_clust_9="152.64211"></scales>
<clustering>
<clus scale="   77.975">  5  6 -1 -1</clus>
<clus scale="   92.606">  7  8 -1 -1</clus>
<clus scale="   94.962">  2  5  1 -1</clus>
<clus scale="  152.642">  1  9  2 -1</clus>
<clus scale="  152.642">  1  5  2 -1</clus>
</clustering>
</event>
<event>
 9    2  0.7820252E-005  0.1243528E+03  0.7546771E-02  0.1257659E+00
          2   -1    0    0  502    0 -0.00000000000E+00  0.00000000000E+00  0.52730353802E+03  0.52730353802E+03  0.00000000000E+00 0. -1.
         21   -1    0    0  501  502  0.00000000000E+00 -0.00000000000E+00 -0.95327643686E+02  0.95327643686E+02  0.00000000000E+00 0.  1.
         24    2    1    2    0    0 -0.24905158656E+02 -0.13193828410E+02  0.37118774620E+03  0.37984389780E+03  0.75542701355E+02 0.  0.
         23    2    1    2    0    0 -0.46351530586E+01  0.93433670074E+02 -0.15554523981E+02  0.12816064742E+03  0.86208311571E+02 0.  0.
        -13    1    3    3    0    0 -0.37441102451E+02  0.21488356455E+02  0.17727013721E+03  0.18245078011E+03  0.00000000000E+00 0.  1.
         14    1    3    3    0    0  0.12535943795E+02 -0.34682184864E+02  0.19391760899E+03  0.19739311769E+03  0.00000000000E+00 0. -1.
        -11    1    4    4    0    0  0.36401631949E+02  0.51245965066E+02  0.10618055652E+02  0.63749281171E+02  0.00000000000E+00 0. -1.
         11    1    4    4    0    0 -0.41036785007E+02  0.42187705008E+02 -0.26172579633E+02  0.64411366251E+02  0.00000000000E+00 0.  1.
          1    1    1    2  501    0  0.29540311715E+02 -0.80239841664E+02  0.76342672110E+02  0.11462663648E+03  0.00000000000E+00 0. -1.
<scales pt_clust_5="13000.00000" pt_clust_6="13000.00000" pt_clust_7="13000.00000" pt_clust_8="13000.00000" pt_clust_9="89.62000"></scales>
<clustering>
<clus scale="   75.543">  5  6 -1 -1</clus>
<clus scale="   80.629">  1  5  2 -1</clus>
<clus scale="   86.208">  7  8 -1 -1</clus>
<clus scale="   89.620">  2  9  1 -1</clus>
<clus scale="   89.620">  2  5  1 -1</clus>
</clustering>
</event>
<event>
 9    2  0.7820252E-005  0.1468911E+03  0.7546771E-02  0.1223667E+00
         21   -1    0    0  501  502  0.00000000000E+00  0.00000000000E+00  0.37415350159E+02  0.37415350159E+02  0.00000000000E+00 0. -1.
          2   -1    0    0  502    0 -0.00000000000E+00 -0.00000000000E+00 -0.10968873364E+04  0.10968873364E+04  0.00000000000E+00 0. -1.
         24    2    1    2    0    0 -0.16058781177E+02 -0.52593163082E+02 -0.55283800232E+03  0.56137025632E+03  0.80515729021E+02 0.  0.
         23    2    1    2    0    0 -0.72594419093E+02  0.11069194986E+03 -0.30564580237E+03  0.34570763391E+03  0.92583768474E+02 0.  0.
        -13    1    3    3    0    0 -0.57880518910E+01 -0.20529672208E+02 -0.26782513398E+02  0.34238458049E+02  0.00000000000E+00 0.  1.
         14    1    3    3    0    0 -0.10270729286E+02 -0.32063490874E+02 -0.52605548892E+03  0.52713179827E+03  0.00000000000E+00 0. -1.
        -13    1    4    4    0    0 -0.22694247369E+01  0.86947622000E+02 -0.15376860652E+03  0.17666302276E+03  0.00000000000E+00 0.  1.
         13    1    4    4    0    0 -0.70324994356E+02  0.23744327863E+02 -0.15187719586E+03  0.16904461115E+03  0.00000000000E+00 0. -1.
          1    1    1    2  501    0  0.88653200269E+02 -0.58098786781E+02 -0.20098818151E+03  0.22722479629E+03  0.00000000000E+00 0. -1.
<scales pt_clust_5="13000.00000" pt_clust_6="13000.00000" pt_clust_7="13000.00000" pt_clust_8="13000.00000" pt_clust_9="114.04055"></scales>
<clustering>
<clus scale="   80.516">  5  6 -1 -1</clus>
<clus scale="   92.584">  7  8 -1 -1</clus>
<clus scale="   97.502">  2  5  1 -1</clus>
<clus scale="  114.041">  1  9  2 -1</clus>
<clus scale="  114.041">  1  5  2 -1</clus>
</clustering>
</event>
<event>
 9    2  0.7820252E-005  0.1084850E+03  0.7546771E-02  0.1268772E+00
          2   -1    0    0  502    0 -0.00000000000E+00  0.00000000000E+00  0.15481527518E+03  0.15481527518E+03  0.00000000000E+00 0. -1.
         21   -1    0    0  501  502  0.00000000000E+00 -0.00000000000E+00 -0.37376818062E+03  0.37376818062E+03  0.00000000000E+00 0. -1.
         24    2    1    2    0    0  0.45678563921E+02 -0.31128362903E+02 -0.87065170324E+02  0.13087896887E+03  0.80581973354E+02 0.  0.
         23    2    1    2    0    0  0.55397672545E+02 -0.17051814603E+01 -0.22981463249E+03  0.25319108117E+03  0.90659519686E+02 0.  0.
        -11    1    3    3    0    0 -0.10604300478E+02  0.18052422906E+02 -0.89612716169E+01  0.22773790866E+02  0.00000000000E+00 0.  1.
         12    1    3    3    0    0  0.56282864399E+02 -0.49180785809E+02 -0.78103898707E+02  0.10810517800E+03  0.00000000000E+00 0. -1.
        -13    1    4    4    0    0 -0.38696521334E+01  0.33228343869E+02 -0.45643130269E+02  0.56589684437E+02  0.00000000000E+00 0.  1.
         13    1    4    4    0    0  0.59267324679E+02 -0.34933525330E+02 -0.18417150222E+03  0.19660139673E+03  0.00000000000E+00 0. -1.
          1    1    1    2  501    0 -0.10107623647E+03  0.32833544363E+02  0.97926897384E+02  0.14451340576E+03  0.00000000000E+00 0. -1.
<scales pt_clust_5="13000.00000" pt_clust_6="13000.00000" pt_clust_7="13000.00000" pt_clust_8="13000.00000" pt_clust_9="59.58063"></scales>
<clustering>
<clus scale="   80.582">  5  6 -1 -1</clus>
<clus scale="   90.660">  7  8 -1 -1</clus>
<clus scale="   97.719">  1  5  2 -1</clus>
<clus scale="   59.581">  2  9  1 -1</clus>
<clus scale="   59.581">  2  5  1 -1</clus>
</clustering>
</event>
<event>
 9    2  0.7820252E-005  0.9036793E+02  0.7546771E-02  0.1308340E+00
         21   -1    0    0  501  502  0.00000000000E+00  0.00000000000E+00  0.60801869101E+02  0.60801869101E+02  0.00000000000E+00 0. -1.
          2   -1    0    0  502    0 -0.00000000000E+00 -0.00000000000E+00 -0.50739071056E+03  0.50739071056E+03  0.00000000000E+00 0. -1.
         24    2    1    2    0    0  0.43666702220E+01  0.23557652716E+02 -0.40370582603E+03  0.41194538749E+03  0.78400111567E+02 0.  0.
         23    2    1    2    0    0 -0.45930757578E+01  0.18397641040E+02 -0.62379593192E+02  0.10998257849E+03  0.88574174475E+02 0.  0.
        -13    1    3    3    0    0  0.56817602613E+01  0.20276271156E+02 -0.22849457706E+02  0.31072613168E+02  0.00000000000E+00 0.  1.
         14    1    3    3    0    0 -0.13150900393E+01  0.32813815609E+01 -0.38085636833E+03  0.38087277433E+03  0.00000000000E+00 0. -1.
        -11    1    4    4    0    0 -0.37082967904E+02  0.25378940355E+02 -0.62220856234E+02  0.76750713824E+02  0.00000000000E+00 0.  1.
         11    1    4    4    0    0  0.32489892146E+02 -0.69812993148E+01 -0.15873695803E+00  0.33231864666E+02  0.00000000000E+00 0. -1.
          1    1    1    2  501    0  0.22640553587E+00 -0.41955293756E+02  0.19496577769E+02  0.46264613673E+02  0.00000000000E+00 0. -1.
<scales pt_clust_5="13000.00000" pt_clust_6="13000.00000" pt_clust_7="13000.00000" pt_clust_8="13000.00000" pt_clust_9="41.95590"></scales>
<clustering>
<clus scale="   41.956">  1  9  2 -1</clus>
<clus scale="   78.400">  5  6 -1 -1</clus>
<clus scale="   80.421">  2  5  1 -1</clus>
<clus scale="   88.574">  7  8 -1 -1</clus>
<clus scale="   41.956">  1  5  2 -1</clus>
</clustering>
</event>
<event>
 9    2  0.7820252E-005  0.9328273E+02  0.7546771E-02  0.1302221E+00
          2   -1    0    0  502    0 -0.00000000000E+00  0.00000000000E+00  0.32081725569E+03  0.32081725569E+03  0.00000000000E+00 0. -1.
         21   -1    0    0  501  502  0.00000000000E+00 -0.00000000000E+00 -0.15062133619E+03  0.15062133619E+03  0.00000000000E+00 0. -1.
         24    2    1    2    0    0  0.54940718672E+01 -0.23511493209E+02  0.23339180776E+03  0.24772110658E+03  0.79442026509E+02 0.  0.
         23    2    1    2    0    0 -0.12265223640E+01  0.16353223808E+01  0.52905558389E+02  0.10549597819E+03  0.91248148852E+02 0.  0.
        -13    1    3    3    0    0  0.26566073935E+02  0.16869426417E+01  0.24230233993E+02  0.35995920591E+02  0.00000000000E+00 0.  1.
         14    1    3    3    0    0 -0.21072002068E+02 -0.25198435850E+02  0.20916157377E+03  0.21172518599E+03  0.00000000000E+00 0. -1.
        -11    1    4    4    0    0  0.33979343327E+02 -0.29873848436E+01  0.60250568698E+02  0.69236199127E+02  0.00000000000E+00 0. -1.
         11    1    4    4    0    0 -0.35205865691E+02  0.46227072243E+01 -0.73450103089E+01  0.36259779061E+02  0.00000000000E+00 0.  1.
          1    1    1    2  501    0 -0.42675495031E+01  0.21876170828E+02 -0.11610144665E+03  0.11822150711E+03  0.00000000000E+00 0. -1.
<scales pt_clust_5="13000.00000" pt_clust_6="13000.00000" pt_clust_7="13000.00000" pt_clust_8="13000.00000" pt_clust_9="22.28854"></scales>
<clustering>
<clus scale="   22.289">  2  9  1 -1</clus>
<clus scale="   79.442">  5  6 -1 -1</clus>
<clus scale="   81.771">  1  5  2 -1</clus>
<clus scale="   91.248">  7  8 -1 -1</clus>
<clus scale="   22.289">  2  5  1 -1</clus>
</clustering>
</event>
<event>
 9    2  0.7820252E-005  0.9195915E+02  0.7546771E-02  0.1302672E+00
         21   -1    0    0  501  502  0.00000000000E+00  0.00000000000E+00  0.41608742638E+03  0.41608742638E+03  0.00000000000E+00 0. -1.
          2   -1    0    0  502    0 -0.00000000000E+00 -0.00000000000E+00 -0.12790985707E+03  0.12790985707E+03  0.00000000000E+00 0. -1.
         23    2    1    2    0    0  0.11355816858E+02  0.13035917906E+02 -0.82262528034E+02  0.12374592890E+03  0.90813224081E+02 0.  0.
         24    2    1    2    0    0  0.43526805731E+02 -0.20632969602E+02  0.81862828886E+02  0.12640333716E+03  0.83402509803E+02 0.  0.
        -11    1    4    4    0    0  0.49406885620E+02 -0.45709996562E+02  0.43312880456E+02  0.80040300760E+02  0.00000000000E+00 0.  1.
         12    1    4    4    0    0 -0.58800798893E+01  0.25077026960E+02  0.38549948430E+02  0.46363036404E+02  0.00000000000E+00 0. -1.
        -11    1    3    3    0    0  0.49446965726E+02  0.19383836651E+01 -0.61594848878E+02  0.79010664843E+02  0.00000000000E+00 0. -1.
         11    1    3    3    0    0 -0.38091148867E+02  0.11097534241E+02 -0.20667679156E+02  0.44735264054E+02  0.00000000000E+00 0.  1.
          1    1    1    2  501    0 -0.54882622589E+02  0.75970516962E+01  0.28857726845E+03  0.29384801739E+03  0.00000000000E+00 0. -1.
<scales pt_clust_5="13000.00000" pt_clust_6="13000.00000" pt_clust_7="13000.00000" pt_clust_8="13000.00000" pt_clust_9="55.40593"></scales>
<clustering>
<clus scale="   55.406">  1  9  2 -1</clus>
<clus scale="   83.403">  5  6 -1 -1</clus>
<clus scale="   84.649">  1  5  2 -1</clus>
<clus scale="   90.813">  7  8 -1 -1</clus>
<clus scale="   55.406">  1  5  2 -1</clus>
</clustering>
</event>
<event>
 9    2  0.7820252E-005  0.9140709E+02  0.7546771E-02  0.1305608E+00
         21   -1    0    0  501  502  0.00000000000E+00  0.00000000000E+00  0.18499817263E+03  0.18499817263E+03  0.00000000000E+00 0. -1.
          4   -1    0    0  502    0 -0.00000000000E+00 -0.00000000000E+00 -0.12555457952E+03  0.12555457952E+03  0.00000000000E+00 0. -1.
         24    2    1    2    0    0 -0.88546347525E+01 -0.24360373808E+01 -0.34815120671E+02  0.88101052360E+02  0.80407486995E+02 0.  0.
         23    2    1    2    0    0 -0.46788754057E+02 -0.50894703205E+02  0.20047229208E+02  0.11545777915E+03  0.90272637315E+02 0.  0.
        -11    1    3    3    0    0 -0.11201591154E+02 -0.26610872426E+02  0.15105626097E+02  0.32585182452E+02  0.00000000000E+00 0.  1.
         12    1    3    3    0    0  0.23469564011E+01  0.24174835045E+02 -0.49920746768E+02  0.55515869908E+02  0.00000000000E+00 0. -1.
        -13    1    4    4    0    0  0.15642133807E+02 -0.45906021780E+02 -0.33185215727E+01  0.48611230916E+02  0.00000000000E+00 0.  1.
         13    1    4    4    0    0 -0.62430887864E+02 -0.49886814248E+01  0.23365750780E+02  0.66846548238E+02  0.00000000000E+00 0. -1.
          3    1    1    2  501    0  0.55643388810E+02  0.53330740586E+02  0.74211484577E+02  0.10699392063E+03  0.00000000000E+00 0. -1.
<scales pt_clust_5="13000.00000" pt_clust_6="13000.00000" pt_clust_7="13000.00000" pt_clust_8="13000.00000" pt_clust_9="77.07370"></scales>
<clustering>
<clus scale="   77.074">  1  9  2 -1</clus>
<clus scale="   80.407">  5  6 -1 -1</clus>
<clus scale="   81.679">  2  5  1 -1</clus>
<clus scale="   90.273">  7  8 -1 -1</clus>
<clus scale="   77.074">  1  5  2 -1</clus>
</clustering>
</event>
<event>
 9    2  0.7820252E-005  0.9491774E+02  0.7546771E-02  0.1295057E+00
         21   -1    0    0  501  502  0.00000000000E+00  0.00000000000E+00  0.17339717652E+02  0.17339717652E+02  0.00000000000E+00 0. -1.
          2   -1    0    0  502    0 -0.00000000000E+00 -0.00000000000E+00 -0.97671122518E+03  0.97671122518E+03  0.00000000000E+00 0. -1.
         24    2    1    2    0    0 -0.18178753883E+01 -0.31255791695E+02 -0.73061453511E+03  0.73605600999E+03  0.83669718147E+02 0.  0.
         23    2    1    2    0    0  0.20229681312E+02  0.16848655482E+02 -0.16302378489E+03  0.18822809177E+03  0.90332402238E+02 0.  0.
        -11    1    3    3    0    0 -0.31926901213E+02 -0.74153260979E+01 -0.12502722571E+03  0.12925216150E+03  0.00000000000E+00 0.  1.
         12    1    3    3    0    0  0.30109025825E+02 -0.23840465598E+02 -0.60558730940E+03  0.60680384849E+03  0.00000000000E+00 0. -1.
        -13    1    4    4    0    0  0.55561922679E+01 -0.36195936504E+02 -0.86827034442E+02  0.94233491933E+02  0.00000000000E+00 0.  1.
         13    1    4    4    0    0  0.14673489044E+02  0.53044591986E+02 -0.76196750444E+02  0.93994599834E+02  0.00000000000E+00 0. -1.
          1    1    1    2  501    0 -0.18411805924E+02  0.14407136214E+02 -0.65733187527E+02  0.69766841076E+02  0.00000000000E+00 0. -1.
<scales pt_clust_5="13000.00000" pt_clust_6="13000.00000" pt_clust_7="13000.00000" pt_clust_8="13000.00000" pt_clust_9="23.37863"></scales>
<clustering>
<clus scale="   23.379">  1  9  2 -1</clus>
<clus scale="   83.670">  5  6 -1 -1</clus>
<clus scale="   88.601">  2  5  1 -1</clus>
<clus scale="   90.332">  7  8 -1 -1</clus>
<clus scale="   23.379">  1  5  2 -1</clus>
</clustering>
</event>
<event>
 9    2  0.7820252E-005  0.2905865E+03  0.7546771E-02  0.1137040E+00
         21   -1    0    0  501  502  0.00000000000E+00  0.00000000000E+00  0.92258011030E+03  0.92258011030E+03  0.00000000000E+00 0.  1.
         -1   -1    0    0    0  501 -0.00000000000E+00 -0.00000000000E+00 -0.16773978363E+03  0.16773978363E+03  0.00000000000E+00 0.  1.
         24    2    1    2    0    0 -0.22428301890E+02 -0.27505741656E+02 -0.38809171554E+02  0.96556787158E+02  0.80978187186E+02 0.  0.
         23    2    1    2    0    0  0.25022770523E+03  0.14222775185E+03  0.60652987843E+03  0.67742869527E+03  0.90490363484E+02 0.  0.
        -13    1    3    3    0    0  0.16390187918E+02 -0.40917599923E+02 -0.70475338534E+01  0.44638055254E+02  0.00000000000E+00 0.  1.
         14    1    3    3    0    0 -0.38818489808E+02  0.13411858267E+02 -0.31761637700E+02  0.51918731904E+02  0.00000000000E+00 0. -1.
        -11    1    4    4    0    0  0.15808204400E+03  0.96825290489E+02  0.47933706014E+03  0.51393490515E+03  0.00000000000E+00 0.  1.
         11    1    4    4    0    0  0.92145661228E+02  0.45402461365E+02  0.12719281830E+03  0.16349379012E+03  0.00000000000E+00 0. -1.
         -2    1    1    2    0  502 -0.22779940334E+03 -0.11472201020E+03  0.18711961980E+03  0.31633441150E+03  0.00000000000E+00 0.  1.
<scales pt_clust_5="13000.00000" pt_clust_6="13000.00000" pt_clust_7="13000.00000" pt_clust_8="13000.00000" pt_clust_9="276.13777"></scales>
<clustering>
<clus scale="   80.978">  5  6 -1 -1</clus>
<clus scale="   88.414">  2  5  1 -1</clus>
<clus scale="   90.490">  7  8 -1 -1</clus>
<clus scale="  276.138">  1  9  2 -1</clus>
<clus scale="  276.138">  1  5  2 -1</clus>
</clustering>
</event>
<event>
 9    2  0.7820252E-005  0.6089313E+03  0.7546771E-02  0.1021278E+00
          2   -1    0    0  502    0 -0.00000000000E+00  0.00000000000E+00  0.54707863760E+03  0.54707863760E+03  0.00000000000E+00 0. -1.
         21   -1    0    0  501  502  0.00000000000E+00 -0.00000000000E+00 -0.10048938239E+04  0.10048938239E+04  0.00000000000E+00 0.  1.
         23    2    1    2    0    0 -0.14203603611E+03 -0.13634654876E+03 -0.14543783093E+03  0.26401565301E+03  0.98931721188E+02 0.  0.
         24    2    1    2    0    0 -0.41897685510E+03  0.42580929619E+03 -0.25418461225E+03  0.65399265998E+03  0.79002660516E+02 0.  0.
        -11    1    4    4    0    0 -0.40367853315E+03  0.38698265146E+03 -0.24827881671E+03  0.61184499792E+03  0.00000000000E+00 0.  1.
         12    1    4    4    0    0 -0.15298321950E+02  0.38826644736E+02 -0.59057955379E+01  0.42147662057E+02  0.00000000000E+00 0. -1.
        -11    1    3    3    0    0 -0.83845989170E+02 -0.63072596236E+02 -0.18850205013E+02  0.10660034017E+03  0.00000000000E+00 0.  1.
         11    1    3    3    0    0 -0.58190046940E+02 -0.73273952528E+02 -0.12658762591E+03  0.15741531284E+03  0.00000000000E+00 0. -1.
          1    1    1    2  501    0  0.56101289121E+03 -0.28946274743E+03 -0.58192743131E+02  0.63396414852E+03  0.00000000000E+00 0. -1.
<scales pt_clust_5="13000.00000" pt_clust_6="13000.00000" pt_clust_7="13000.00000" pt_clust_8="13000.00000" pt_clust_9="603.78495"></scales>
<clustering>
<clus scale="   79.003">  5  6 -1 -1</clus>
<clus scale="   98.932">  7  8 -1 -1</clus>
<clus scale="  220.346">  1  7  2 -1</clus>
<clus scale="  603.785">  2  9  1 -1</clus>
<clus scale="  603.785">  2  5  1 -1</clus>
</clustering>
</event>
<event>
 9    2  0.7820252E-005  0.1158196E+03  0.7546771E-02  0.1252953E+00
         21   -1    0    0  501  502  0.00000000000E+00  0.00000000000E+00  0.39476735314E+03  0.39476735314E+03  0.00000000000E+00 0.  1.
          2   -1    0    0  502    0 -0.00000000000E+00 -0.00000000000E+00 -0.25321262614E+03  0.25321262614E+03  0.00000000000E+00 0. -1.
         23    2    1    2    0    0  0.21611746025E+02 -0.75090133393E+02 -0.19124392591E+03  0.22512872345E+03  0.89460087335E+02 0.  0.
         24    2    1    2    0    0  0.50211569645E+02  0.62999897782E+02  0.40041539679E+02  0.12117014967E+03  0.81170754731E+02 0.  0.
        -13    1    4    4    0    0  0.25898257985E+02 -0.16839559590E+02  0.10042479039E+02  0.32482948128E+02  0.00000000000E+00 0.  1.
         14    1    4    4    0    0  0.24313311660E+02  0.79839457372E+02  0.29999060640E+02  0.88687201538E+02  0.00000000000E+00 0. -1.
        -13    1    3    3    0    0 -0.29196947852E+02 -0.51669306460E+02 -0.12533594999E+03  0.13867688832E+03  0.00000000000E+00 0. -1.
         13    1    3    3    0    0  0.50808693877E+02 -0.23420826933E+02 -0.65907975913E+02  0.86451835126E+02  0.00000000000E+00 0.  1.
          1    1    1    2  501    0 -0.71823315669E+02  0.12090235611E+02  0.29275711322E+03  0.30168110616E+03  0.00000000000E+00 0. -1.
<scales pt_clust_5="13000.00000" pt_clust_6="13000.00000" pt_clust_7="13000.00000" pt_clust_8="13000.00000" pt_clust_9="72.83380"></scales>
<clustering>
<clus scale="   72.834">  1  9  2 -1</clus>
<clus scale="   81.171">  5  6 -1 -1</clus>
<clus scale="   89.460">  7  8 -1 -1</clus>
<clus scale="  109.543">  1  5  2 -1</clus>
<clus scale="   72.834">  1  5  2 -1</clus>
</clustering>
</event>
<event>
 9    2  0.7820252E-005  0.1203230E+03  0.7546771E-02  0.1248981E+00
         21   -1    0    0  501  502  0.00000000000E+00  0.00000000000E+00  0.14505689932E+03  0.14505689932E+03  0.00000000000E+00 0.  1.
          2   -1    0    0  502    0 -0.00000000000E+00 -0.00000000000E+00 -0.75733683440E+03  0.75733683440E+03  0.00000000000E+00 0. -1.
         24    2    1    2    0    0  0.13375189898E+02  0.50463948973E+02 -0.71659900616E+03  0.72656976824E+03  0.10799993816E+03 0.  0.
         23    2    1    2    0    0 -0.72477767790E+01 -0.70662003117E+02  0.69417016582E+02  0.13503597716E+03  0.91489584024E+02 0.  0.
        -13    1    3    3    0    0  0.42376075087E+02  0.42922150191E+02 -0.19510571650E+03  0.20421626607E+03  0.00000000000E+00 0.  1.
         14    1    3    3    0    0 -0.29000885189E+02  0.75417987820E+01 -0.52149328967E+03  0.52235350218E+03  0.00000000000E+00 0. -1.
        -13    1    4    4    0    0  0.24773633265E+02 -0.48759214216E+02 -0.93076331098E+00  0.54699727572E+02  0.00000000000E+00 0. -1.
         13    1    4    4    0    0 -0.32021410044E+02 -0.21902788901E+02  0.70347779893E+02  0.80336249593E+02  0.00000000000E+00 0.  1.
          1    1    1    2  501    0 -0.61274131192E+01  0.20198054144E+02  0.34902054499E+02  0.40787988317E+02  0.00000000000E+00 0. -1.
<scales pt_clust_5="13000.00000" pt_clust_6="13000.00000" pt_clust_7="13000.00000" pt_clust_8="13000.00000" pt_clust_9="21.10703"></scales>
<clustering>
<clus scale="   21.107">  1  9  2 -1</clus>
<clus scale="   91.490">  7  8 -1 -1</clus>
<clus scale="  105.754">  1  7  2 -1</clus>
<clus scale="  108.000">  5  6 -1 -1</clus>
<clus scale="   21.107">  1  5  2 -1</clus>
</clustering>
</event>
<event>
 9    2  0.7820252E-005  0.9443742E+02  0.7546771E-02  0.1294425E+00
          2   -1    0    0  502    0 -0.00000000000E+00  0.00000000000E+00  0.48548807684E+03  0.48548807684E+03  0.00000000000E+00 0. -1.
         21   -1    0    0  501  502  0.00000000000E+00 -0.00000000000E+00 -0.37630675641E+02  0.37630675641E+02  0.00000000000E+00 0.  1.
         23    2    1    2    0    0 -0.24162625130E+02 -0.56339937090E+01  0.20862670009E+03  0.22968091965E+03  0.92804366933E+02 0.  0.
         24    2    1    2    0    0 -0.90273291081E+00  0.45542314016E+00  0.49782532034E+02  0.10226853997E+03  0.89328223062E+02 0.  0.
        -11    1    4    4    0    0  0.40152047318E+02 -0.55444423959E+01  0.43889088533E+01  0.40769967700E+02  0.00000000000E+00 0.  1.
         12    1    4    4    0    0 -0.41054780229E+02  0.59998655361E+01  0.45393623181E+02  0.61498572272E+02  0.00000000000E+00 0. -1.
        -13    1    3    3    0    0 -0.13055784641E+02 -0.48651985596E+02  0.12919919939E+03  0.13867192340E+03  0.00000000000E+00 0. -1.
         13    1    3    3    0    0 -0.11106840489E+02  0.43017991887E+02  0.79427500702E+02  0.91008996256E+02  0.00000000000E+00 0.  1.
          1    1    1    2  501    0  0.25065358041E+02  0.51785705688E+01  0.18944816907E+03  0.19116929286E+03  0.00000000000E+00 0. -1.
<scales pt_clust_5="13000.00000" pt_clust_6="13000.00000" pt_clust_7="13000.00000" pt_clust_8="13000.00000" pt_clust_9="25.59473"></scales>
<clustering>
<clus scale="   25.595">  2  9  1 -1</clus>
<clus scale="   89.328">  5  6 -1 -1</clus>
<clus scale="   91.024">  2  5  1 -1</clus>
<clus scale="   92.804">  7  8 -1 -1</clus>
<clus scale="   25.595">  2  5  1 -1</clus>
</clustering>
</event>
<event>
 9    2  0.7820252E-005  0.1541726E+03  0.7546771E-02  0.1197350E+00
          4   -1    0    0  502    0 -0.00000000000E+00  0.00000000000E+00  0.20398176432E+03  0.20398176432E+03  0.00000000000E+00 0. -1.
         21   -1    0    0  501  502  0.00000000000E+00 -0.00000000000E+00 -0.22939137605E+03  0.22939137605E+03  0.00000000000E+00 0. -1.
         24    2    1    2    0    0  0.54334311467E+02  0.11473990222E+03  0.10316330168E+03  0.18219198851E+03  0.80210917581E+02 0.  0.
         23    2    1    2    0    0 -0.20614035896E+02 -0.11309064778E+03 -0.15103369998E+03  0.21063162710E+03  0.91323987598E+02 0.  0.
        -11    1    3    3    0    0  0.17247360485E+02  0.11117777270E+03  0.71569904996E+02  0.13334249093E+03  0.00000000000E+00 0.  1.
         12    1    3    3    0    0  0.37086950981E+02  0.35621295226E+01  0.31593396679E+02  0.48849497578E+02  0.00000000000E+00 0. -1.
        -13    1    4    4    0    0 -0.53248158407E+02 -0.86081272786E+02 -0.12526312677E+03  0.16104720683E+03  0.00000000000E+00 0. -1.
         13    1    4    4    0    0  0.32634122511E+02 -0.27009374995E+02 -0.25770573211E+02  0.49584420268E+02  0.00000000000E+00 0.  1.
          3    1    1    2  501    0 -0.33720275571E+02 -0.16492544435E+01  0.22460786585E+02  0.40549524767E+02  0.00000000000E+00 0. -1.
<scales pt_clust_5="13000.00000" pt_clust_6="13000.00000" pt_clust_7="13000.00000" pt_clust_8="13000.00000" pt_clust_9="33.76060"></scales>
<clustering>
<clus scale="   33.761">  2  9  1 -1</clus>
<clus scale="   80.211">  5  6 -1 -1</clus>
<clus scale="   91.324">  7  8 -1 -1</clus>
<clus scale="  147.861">  1  5  2 -1</clus>
<clus scale="   33.761">  2  5  1 -1</clus>
</clustering>
</event>
<event>
 9    2  0.7820252E-005  0.1045431E+03  0.7546771E-02  0.1275327E+00
         21   -1    0    0  501  502  0.00000000000E+00  0.00000000000E+00  0.35054057756E+02  0.35054057756E+02  0.00000000000E+00 0.  1.
          2   -1    0    0  502    0 -0.00000000000E+00 -0.00000000000E+00 -0.57517414488E+03  0.57517414488E+03  0.00000000000E+00 0. -1.
         24    2    1    2    0    0 -0.82583726131E+01  0.38218360674E+02 -0.14902314891E+03  0.17433295438E+03  0.81579631410E+02 0.  0.
         23    2    1    2    0    0 -0.14986325675E+02 -0.72019578103E+02 -0.14518069640E+03  0.18658091597E+03  0.91233732840E+02 0.  0.
        -11    1    3    3    0    0  0.13609671608E+02 -0.17462071810E+02 -0.12847005152E+02  0.25596731326E+02  0.00000000000E+00 0.  1.
         12    1    3    3    0    0 -0.21868044221E+02  0.55680432484E+02 -0.13617614376E+03  0.14873622305E+03  0.00000000000E+00 0. -1.
        -13    1    4    4    0    0 -0.48197458483E+02 -0.62238052840E+02 -0.77013841422E+02  0.11012584618E+03  0.00000000000E+00 0.  1.
         13    1    4    4    0    0  0.33211132807E+02 -0.97815252628E+01 -0.68166854982E+02  0.76455069792E+02  0.00000000000E+00 0. -1.
          1    1    1    2  501    0  0.23244698289E+02  0.33801217429E+02 -0.24591624181E+03  0.24931433229E+03  0.00000000000E+00 0. -1.
<scales pt_clust_5="13000.00000" pt_clust_6="13000.00000" pt_clust_7="13000.00000" pt_clust_8="13000.00000" pt_clust_9="41.02243"></scales>
<clustering>
<clus scale="   41.022">  1  9  2 -1</clus>
<clus scale="   81.580">  5  6 -1 -1</clus>
<clus scale="   91.234">  7  8 -1 -1</clus>
<clus scale="   96.234">  2  5  1 -1</clus>
<clus scale="   41.022">  1  5  2 -1</clus>
</clustering>
</event>
<event>
 9    2  0.7820252E-005  0.1907275E+03  0.7546771E-02  0.1159205E+00
          4   -1    0    0  502    0 -0.00000000000E+00  0.00000000000E+00  0.28764677866E+03  0.28764677866E+03  0.00000000000E+00 0. -1.
         21   -1    0    0  501  502  0.00000000000E+00 -0.00000000000E+00 -0.22474915038E+03  0.22474915038E+03  0.00000000000E+00 0.  1.
         24    2    1    2    0    0 -0.14854826972E+03 -0.86654741909E+02  0.17709316616E+03  0.25886458147E+03  0.77931054816E+02 0.  0.
         23    2    1    2    0    0  0.12076721502E+03  0.85208722029E+02 -0.13391486637E+03  0.21943252223E+03  0.91499693128E+02 0.  0.
        -13    1    3    3    0    0 -0.68479152726E+02 -0.84357497970E+02  0.98885498639E+02  0.14691468158E+03  0.00000000000E+00 0.  1.
         14    1    3    3    0    0 -0.80069116996E+02 -0.22972439386E+01  0.78207667523E+02  0.11194989989E+03  0.00000000000E+00 0. -1.
        -13    1    4    4    0    0  0.53980892012E+02 -0.12384218927E+02 -0.37971429715E+02  0.67150093488E+02  0.00000000000E+00 0. -1.
         13    1    4    4    0    0  0.66786323007E+02  0.97592940957E+02 -0.95943436658E+02  0.15228242874E+03  0.00000000000E+00 0.  1.
          3    1    1    2  501    0  0.27781054704E+02  0.14460198796E+01  0.19719328492E+02  0.34098825348E+02  0.00000000000E+00 0. -1.
<scales pt_clust_5="13000.00000" pt_clust_6="13000.00000" pt_clust_7="13000.00000" pt_clust_8="13000.00000" pt_clust_9="27.81868"></scales>
<clustering>
<clus scale="   27.819">  2  9  1 -1</clus>
<clus scale="   77.931">  5  6 -1 -1</clus>
<clus scale="   91.500">  7  8 -1 -1</clus>
<clus scale="  184.602">  1  5  2 -1</clus>
<clus scale="   27.819">  2  5  1 -1</clus>
</clustering>
</event>
<event>
 9    2  0.7820252E-005  0.5443291E+03  0.7546771E-02  0.1002919E+00
         21   -1    0    0  501  502  0.00000000000E+00  0.00000000000E+00  0.10832573939E+04  0.10832573939E+04  0.00000000000E+00 0. -1.
          2   -1    0    0  502    0 -0.00000000000E+00 -0.00000000000E+00 -0.41520177803E+03  0.41520177803E+03  0.00000000000E+00 0. -1.
         24    2    1    2    0    0  0.68076563489E+02 -0.54326710417E+03  0.27807432561E+03  0.61948424774E+03  0.81620081297E+02 0.  0.
         23    2    1    2    0    0 -0.22162519944E+03  0.48791393248E+03  0.44917444619E+03  0.70535180668E+03  0.92659341378E+02 0.  0.
        -13    1    3    3    0    0 -0.16756009428E+02 -0.10192236194E+03  0.38829713036E+02  0.11034798743E+03  0.00000000000E+00 0.  1.
         14    1    3    3    0    0  0.84832572916E+02 -0.44134474222E+03  0.23924461258E+03  0.50913626031E+03  0.00000000000E+00 0. -1.
        -13    1    4    4    0    0 -0.44082419598E+02  0.50600510812E+02  0.89913654914E+02  0.11219686605E+03  0.00000000000E+00 0.  1.
         13    1    4    4    0    0 -0.17754277984E+03  0.43731342167E+03  0.35926079128E+03  0.59315494063E+03  0.00000000000E+00 0. -1.
          1    1    1    2  501    0  0.15354863595E+03  0.55353171684E+02 -0.59193155953E+02  0.17362311749E+03  0.00000000000E+00 0. -1.
<scales pt_clust_5="13000.00000" pt_clust_6="13000.00000" pt_clust_7="13000.00000" pt_clust_8="13000.00000" pt_clust_9="163.22127"></scales>
<clustering>
<clus scale="   81.620">  5  6 -1 -1</clus>
<clus scale="   92.659">  7  8 -1 -1</clus>
<clus scale="  163.221">  1  9  2 -1</clus>
<clus scale="  542.559">  2  5  1 -1</clus>
<clus scale="  163.221">  1  5  2 -1</clus>
</clustering>
</event>
<event>
 9    2  0.7820252E-005  0.1788788E+03  0.7546771E-02  0.1203053E+00
          2   -1    0    0  502    0 -0.00000000000E+00  0.00000000000E+00  0.86502640146E+03  0.86502640146E+03  0.00000000000E+00 0. -1.
         21   -1    0    0  501  502  0.00000000000E+00 -0.00000000000E+00 -0.50931823891E+02  0.50931823891E+02  0.00000000000E+00 0.  1.
         24    2    1    2    0    0  0.23613771745E+01  0.35730010229E+01  0.13208807450E+03  0.15634363121E+03  0.83532802893E+02 0.  0.
         23    2    1    2    0    0  0.60949173127E+02 -0.14243074181E+03  0.32705141143E+03  0.37324325069E+03  0.91359622068E+02 0.  0.
        -11    1    3    3    0    0 -0.31704795008E+02 -0.23782087165E+02  0.69671759376E+02  0.80155696934E+02  0.00000000000E+00 0.  1.
         12    1    3    3    0    0  0.34066172183E+02  0.27355088188E+02  0.62416315119E+02  0.76187934281E+02  0.00000000000E+00 0. -1.
        -13    1    4    4    0    0 -0.18773876891E+02 -0.38375074890E+02  0.12768638216E+03  0.13464366682E+03  0.00000000000E+00 0. -1.
         13    1    4    4    0    0  0.79723050018E+02 -0.10405566692E+03  0.19936502927E+03  0.23859958386E+03  0.00000000000E+00 0.  1.
          1    1    1    2  501    0 -0.63310550301E+02  0.13885774079E+03  0.35495509164E+03  0.38637134345E+03  0.00000000000E+00 0. -1.
<scales pt_clust_5="13000.00000" pt_clust_6="13000.00000" pt_clust_7="13000.00000" pt_clust_8="13000.00000" pt_clust_9="153.78907"></scales>
<clustering>
<clus scale="   83.533">  5  6 -1 -1</clus>
<clus scale="   83.643">  1  5  2 -1</clus>
<clus scale="   91.360">  7  8 -1 -1</clus>
<clus scale="  153.789">  2  9  1 -1</clus>
<clus scale="  153.789">  2  5  1 -1</clus>
</clustering>
</event>
<event>
 9    2  0.7820252E-005  0.1060354E+03  0.7546771E-02  0.1276494E+00
          2   -1    0    0  502    0 -0.00000000000E+00  0.00000000000E+00  0.18131517645E+03  0.18131517645E+03  0.00000000000E+00 0. -1.
         21   -1    0    0  501  502  0.00000000000E+00 -0.00000000000E+00 -0.22863587924E+03  0.22863587924E+03  0.00000000000E+00 0. -1.
         24    2    1    2    0    0  0.58590257097E+02  0.28661713243E+02  0.80092262576E+02  0.13115076123E+03  0.80817322482E+02 0.  0.
         23    2    1    2    0    0  0.47087024591E+01 -0.16835702425E+02  0.33717817086E+02  0.10527870542E+03  0.98189112789E+02 0.  0.
        -13    1    3    3    0    0  0.39434462187E+02  0.51783488863E+02  0.27645023329E+02  0.70716715433E+02  0.00000000000E+00 0.  1.
         14    1    3    3    0    0  0.19155794910E+02 -0.23121775620E+02  0.52447239246E+02  0.60434045793E+02  0.00000000000E+00 0. -1.
        -11    1    4    4    0    0 -0.27018878617E+02  0.31683547093E+02  0.16663430032E+02  0.44850160072E+02  0.00000000000E+00 0.  1.
         11    1    4    4    0    0  0.31727581076E+02 -0.48519249518E+02  0.17054387055E+02  0.60428545345E+02  0.00000000000E+00 0. -1.
          1    1    1    2  501    0 -0.63298959556E+02 -0.11826010819E+02 -0.16113078245E+03  0.17352158905E+03  0.00000000000E+00 0. -1.
<scales pt_clust_5="13000.00000" pt_clust_6="13000.00000" pt_clust_7="13000.00000" pt_clust_8="13000.00000" pt_clust_9="64.39420"></scales>
<clustering>
<clus scale="   64.394">  2  9  1 -1</clus>
<clus scale="   80.817">  5  6 -1 -1</clus>
<clus scale="   90.188">  1  5  2 -1</clus>
<clus scale="   98.189">  7  8 -1 -1</clus>
<clus scale="   64.394">  2  5  1 -1</clus>
</clustering>
</event>
<event>
 9    2  0.8576307E-005  0.1157149E+03  0.7546771E-02  0.1254295E+00
          2   -1    0    0  502    0 -0.00000000000E+00  0.00000000000E+00  0.31681950947E+03  0.31681950947E+03  0.00000000000E+00 0. -1.
         21   -1    0    0  501  502  0.00000000000E+00 -0.00000000000E+00 -0.31512839946E+03  0.31512839946E+03  0.00000000000E+00 0. -1.
         23    2    1    2    0    0  0.84821943624E+02  0.19288019754E+02  0.22269081148E+03  0.25612562194E+03  0.91882244585E+02 0.  0.
         24    2    1    2    0    0 -0.30030459365E+02 -0.39002545226E+02  0.44239849458E+02  0.10426605223E+03  0.80568097558E+02 0.  0.
        -11    1    4    4    0    0 -0.47123201166E+02  0.16402037780E+00  0.71135793925E+01  0.47657381408E+02  0.00000000000E+00 0.  1.
         12    1    4    4    0    0  0.17092741802E+02 -0.39166565604E+02  0.37126270066E+02  0.56608670824E+02  0.00000000000E+00 0. -1.
        -13    1    3    3    0    0  0.13042699080E+02 -0.18133819612E+02  0.36856097948E+01  0.22639150438E+02  0.00000000000E+00 0.  1.
         13    1    3    3    0    0  0.71779244544E+02  0.37421839365E+02  0.21900520169E+03  0.23348647150E+03  0.00000000000E+00 0. -1.
          1    1    1    2  501    0 -0.54791484259E+02  0.19714525472E+02 -0.26523955092E+03  0.27155623476E+03  0.00000000000E+00 0. -1.
<scales pt_clust_5="13000.00000" pt_clust_6="13000.00000" pt_clust_7="13000.00000" pt_clust_8="13000.00000" pt_clust_9="58.23031"></scales>
<clustering>
<clus scale="   58.230">  2  9  1 -1</clus>
<clus scale="   80.568">  5  6 -1 -1</clus>
<clus scale="   91.882">  7  8 -1 -1</clus>
<clus scale="  106.952">  2  5  1 -1</clus>
<clus scale="   58.230">  2  5  1 -1</clus>
</clustering>
</event>
<event>
 9    2  0.7820252E-005  0.1851732E+03  0.7546771E-02  0.1162888E+00
          2   -1    0    0  502    0 -0.00000000000E+00  0.00000000000E+00  0.55826598540E+03  0.55826598540E+03  0.00000000000E+00 0. -1.
         21   -1    0    0  501  502  0.00000000000E+00 -0.00000000000E+00 -0.53668172754E+02  0.53668172754E+02  0.00000000000E+00 0. -1.
         24    2    1    2    0    0 -0.25620745266E+02  0.49191780604E+01  0.22830308611E+03  0.24433723494E+03  0.83052780505E+02 0.  0.
         23    2    1    2    0    0 -0.45581374029E+02  0.50935543992E+02  0.25696366014E+03  0.27505946110E+03  0.70393843514E+02 0.  0.
        -11    1    3    3    0    0 -0.34870029002E+02  0.21266895804E+02  0.22007188725E+03  0.22382992503E+03  0.00000000000E+00 0.  1.
         12    1    3    3    0    0  0.92492837368E+01 -0.16347717744E+02  0.82311988569E+01  0.20507309909E+02  0.00000000000E+00 0. -1.
        -13    1    4    4    0    0 -0.26118336426E+02 -0.82970743746E+01  0.34699698347E+02  0.44216264046E+02  0.00000000000E+00 0.  1.
         13    1    4    4    0    0 -0.19463037603E+02  0.59232618366E+02  0.22226396180E+03  0.23084319705E+03  0.00000000000E+00 0. -1.
          1    1    1    2  501    0  0.71202119295E+02 -0.55854722052E+02  0.19331066394E+02  0.92537462120E+02  0.00000000000E+00 0. -1.
<scales pt_clust_5="13000.00000" pt_clust_6="13000.00000" pt_clust_7="13000.00000" pt_clust_8="13000.00000" pt_clust_9="90.49581"></scales>
<clustering>
<clus scale="   70.394">  7  8 -1 -1</clus>
<clus scale="   83.053">  5  6 -1 -1</clus>
<clus scale="   86.410">  5  7 -1 -1</clus>
<clus scale="   90.496">  2  9  1 -1</clus>
<clus scale="   90.496">  2  5  1 -1</clus>
</clustering>
</event>
<event>
 9    2  0.7820252E-005  0.1002488E+03  0.7546771E-02  0.1287105E+00
          2   -1    0    0  502    0 -0.00000000000E+00  0.00000000000E+00  0.46199692571E+03  0.46199692571E+03  0.00000000000E+00 0. -1.
         21   -1    0    0  501  502  0.00000000000E+00 -0.00000000000E+00 -0.69014813250E+02  0.69014813250E+02  0.00000000000E+00 0.  1.
         24    2    1    2    0    0  0.40231807359E+02  0.25750605968E+01  0.35846305646E+03  0.36913791620E+03  0.78369694829E+02 0.  0.
         23    2    1    2    0    0 -0.16597320536E+02  0.67250621640E+01 -0.24639813588E+02  0.97493289201E+02  0.92612761084E+02 0.  0.
        -13    1    3    3    0    0  0.12861469503E+02 -0.35132118263E+02  0.21693449603E+03  0.22013690899E+03  0.00000000000E+00 0.  1.
         14    1    3    3    0    0  0.27370337856E+02  0.37707178859E+02  0.14152856043E+03  0.14900100721E+03  0.00000000000E+00 0. -1.
        -13    1    4    4    0    0 -0.50317303884E+02 -0.59222835947E+01  0.49182964817E+01  0.50902791215E+02  0.00000000000E+00 0. -1.
         13    1    4    4    0    0  0.33719983349E+02  0.12647345759E+02 -0.29558110069E+02  0.46590497987E+02  0.00000000000E+00 0.  1.
          1    1    1    2  501    0 -0.23634486823E+02 -0.93001227608E+01  0.59158869591E+02  0.64380533565E+02  0.00000000000E+00 0. -1.
<scales pt_clust_5="13000.00000" pt_clust_6="13000.00000" pt_clust_7="13000.00000" pt_clust_8="13000.00000" pt_clust_9="25.39846"></scales>
<clustering>
<clus scale="   25.398">  2  9  1 -1</clus>
<clus scale="   78.370">  5  6 -1 -1</clus>
<clus scale="   87.261">  1  5  2 -1</clus>
<clus scale="   92.613">  7  8 -1 -1</clus>
<clus scale="   25.398">  2  5  1 -1</clus>
</clustering>
</event>
<event>
 9    2  0.7820252E-005  0.9903950E+02  0.7546771E-02  0.1283508E+00
         21   -1    0    0  501  502  0.00000000000E+00  0.00000000000E+00  0.20491653490E+03  0.20491653490E+03  0.00000000000E+00 0. -1.
         -3   -1    0    0    0  501 -0.00000000000E+00 -0.00000000000E+00 -0.14957418172E+03  0.14957418172E+03  0.00000000000E+00 0.  1.
         24    2    1    2    0    0  0.44899247028E+02 -0.19575964884E+02 -0.92963470967E+02  0.13414707515E+03  0.83391066986E+02 0.  0.
         23    2    1    2    0    0 -0.56859940925E+02 -0.97515675112E+01  0.46014249690E+02  0.11326082978E+03  0.85921815841E+02 0.  0.
        -11    1    3    3    0    0  0.41418747280E+02  0.21308940541E+02 -0.77254654589E+02  0.90210117109E+02  0.00000000000E+00 0.  1.
         12    1    3    3    0    0  0.34804997477E+01 -0.40884905426E+02 -0.15708816379E+02  0.43936958044E+02  0.00000000000E+00 0. -1.
        -13    1    4    4    0    0  0.79886058117E+01 -0.33464710250E+02  0.13836795385E+02  0.37083170866E+02  0.00000000000E+00 0.  1.
         13    1    4    4    0    0 -0.64848546737E+02  0.23713142739E+02  0.32177454305E+02  0.76177658916E+02  0.00000000000E+00 0. -1.
         -4    1    1    2    0  502  0.11960693897E+02  0.29327532396E+02  0.10229157445E+03  0.10708281168E+03  0.00000000000E+00 0.  1.
<scales pt_clust_5="13000.00000" pt_clust_6="13000.00000" pt_clust_7="13000.00000" pt_clust_8="13000.00000" pt_clust_9="31.67274"></scales>
<clustering>
<clus scale="   31.673">  1  9  2 -1</clus>
<clus scale="   83.391">  5  6 -1 -1</clus>
<clus scale="   85.922">  7  8 -1 -1</clus>
<clus scale="   96.852">  2  5  1 -1</clus>
<clus scale="   31.673">  1  5  2 -1</clus>
</clustering>
</event>
<event>
 9    2  0.7820252E-005  0.1178993E+03  0.7546771E-02  0.1250417E+00
         -1   -1    0    0    0  501 -0.00000000000E+00  0.00000000000E+00  0.79264216906E+03  0.79264216906E+03  0.00000000000E+00 0.  1.
         21   -1    0    0  501  502  0.00000000000E+00 -0.00000000000E+00 -0.42977084286E+02  0.42977084286E+02  0.00000000000E+00 0.  1.
         23    2    1    2    0    0  0.42845091181E+01  0.89687006046E+02  0.62069524914E+03  0.63390891344E+03  0.92281103999E+02 0.  0.
         24    2    1    2    0    0 -0.20421149298E+02 -0.23346241098E+02  0.76746163339E+02  0.11575220942E+03  0.80910630237E+02 0.  0.
        -13    1    4    4    0    0 -0.34313345151E+02  0.12530975719E+02  0.66605479266E+02  0.75965260983E+02  0.00000000000E+00 0.  1.
         14    1    4    4    0    0  0.13892195853E+02 -0.35877216817E+02  0.10140684073E+02  0.39786948433E+02  0.00000000000E+00 0. -1.
        -13    1    3    3    0    0  0.35899455630E+02  0.36471861504E+01  0.14174521407E+03  0.14626612251E+03  0.00000000000E+00 0. -1.
         13    1    3    3    0    0 -0.31614946512E+02  0.86039819896E+02  0.47895003507E+03  0.48764279093E+03  0.00000000000E+00 0.  1.
         -2    1    1    2    0  502  0.16136640180E+02 -0.66340764948E+02  0.52223672293E+02  0.85958130494E+02  0.00000000000E+00 0.  1.
<scales pt_clust_5="13000.00000" pt_clust_6="13000.00000" pt_clust_7="13000.00000" pt_clust_8="13000.00000" pt_clust_9="68.27509"></scales>
<clustering>
<clus scale="   68.275">  2  9  1 -1</clus>
<clus scale="   80.911">  5  6 -1 -1</clus>
<clus scale="   92.281">  7  8 -1 -1</clus>
<clus scale="  109.229">  2  5  1 -1</clus>
<clus scale="   68.275">  2  5  1 -1</clus>
</clustering>
</event>
<event>
 9    2  0.7820252E-005  0.9399431E+02  0.7546771E-02  0.1300049E+00
          2   -1    0    0  502    0 -0.00000000000E+00  0.00000000000E+00  0.11859074845E+03  0.11859074845E+03  0.00000000000E+00 0. -1.
         21   -1    0    0  501  502  0.00000000000E+00 -0.00000000000E+00 -0.24492452523E+03  0.24492452523E+03  0.00000000000E+00 0.  1.
         24    2    1    2    0    0 -0.30288887490E+02  0.13225044517E+02 -0.52871562365E+02  0.10074246168E+03  0.79128521851E+02 0.  0.
         23    2    1    2    0    0 -0.36168244834E+02 -0.46385351659E+02 -0.13036706813E+03  0.16920829531E+03  0.90421966177E+02 0.  0.
        -13    1    3    3    0    0 -0.20800051842E+02  0.34888030590E+02  0.23333926301E+01  0.40684905755E+02  0.00000000000E+00 0.  1.
         14    1    3    3    0    0 -0.94888356481E+01 -0.21662986073E+02 -0.55204954995E+02  0.60057555924E+02  0.00000000000E+00 0. -1.
        -11    1    4    4    0    0 -0.59931643336E+02 -0.55673608438E+02 -0.10633257535E+03  0.13415650983E+03  0.00000000000E+00 0.  1.
         11    1    4    4    0    0  0.23763398503E+02  0.92882567787E+01 -0.24034492782E+02  0.35051785485E+02  0.00000000000E+00 0. -1.
          1    1    1    2  501    0  0.66457132324E+02  0.33160307142E+02  0.56904853709E+02  0.93564516683E+02  0.00000000000E+00 0. -1.
<scales pt_clust_5="13000.00000" pt_clust_6="13000.00000" pt_clust_7="13000.00000" pt_clust_8="13000.00000" pt_clust_9="74.27087"></scales>
<clustering>
<clus scale="   74.271">  2  9  1 -1</clus>
<clus scale="   79.129">  5  6 -1 -1</clus>
<clus scale="   83.187">  1  5  2 -1</clus>
<clus scale="   90.422">  7  8 -1 -1</clus>
<clus scale="   74.271">  2  5  1 -1</clus>
</clustering>
</event>
<event>
 9    2  0.7820252E-005  0.1060932E+03  0.7546771E-02  0.1273234E+00
         -3   -1    0    0    0  501 -0.00000000000E+00  0.00000000000E+00  0.15128278361E+03  0.15128278361E+03  0.00000000000E+00 0.  1.
         21   -1    0    0  501  502  0.00000000000E+00 -0.00000000000E+00 -0.52254382899E+03  0.52254382899E+03  0.00000000000E+00 0.  1.
         24    2    1    2    0    0 -0.17410645697E+02  0.53804383111E+02  0.11164526016E+03  0.14835980432E+03  0.79673867706E+02 0.  0.
         23    2    1    2    0    0  0.59450088481E+02 -0.27997733967E+01 -0.14752592726E+03  0.18363529555E+03  0.91738055391E+02 0.  0.
        -11    1    3    3    0    0  0.99885557773E+01  0.36287132775E+02  0.10947860077E+03  0.11576740162E+03  0.00000000000E+00 0.  1.
         12    1    3    3    0    0 -0.27399201474E+02  0.17517250336E+02  0.21666593929E+01  0.32592402699E+02  0.00000000000E+00 0. -1.
        -13    1    4    4    0    0  0.83822520463E+02  0.35617598698E+01 -0.11866428427E+03  0.14532760726E+03  0.00000000000E+00 0. -1.
         13    1    4    4    0    0 -0.24372431983E+02 -0.63615332666E+01 -0.28861642987E+02  0.38307688290E+02  0.00000000000E+00 0.  1.
         -4    1    1    2    0  502 -0.42039442784E+02 -0.51004609714E+02 -0.33538037828E+03  0.34183151273E+03  0.00000000000E+00 0.  1.
<scales pt_clust_5="13000.00000" pt_clust_6="13000.00000" pt_clust_7="13000.00000" pt_clust_8="13000.00000" pt_clust_9="66.09678"></scales>
<clustering>
<clus scale="   66.097">  2  9  1 -1</clus>
<clus scale="   79.674">  5  6 -1 -1</clus>
<clus scale="   91.738">  7  8 -1 -1</clus>
<clus scale="   95.853">  1  5  2 -1</clus>
<clus scale="   66.097">  2  5  1 -1</clus>
</clustering>
</event>
<event>
 9    2  0.7820252E-005  0.1316051E+03  0.7546771E-02  0.1225813E+00
          2   -1    0    0  502    0 -0.00000000000E+00  0.00000000000E+00  0.54682945149E+03  0.54682945149E+03  0.00000000000E+00 0. -1.
         21   -1    0    0  501  502  0.00000000000E+00 -0.00000000000E+00 -0.23770517862E+03  0.23770517862E+03  0.00000000000E+00 0. -1.
         24    2    1    2    0    0 -0.78160018081E+02 -0.74511628752E+02  0.46594445350E+03  0.48485521132E+03  0.79494471197E+02 0.  0.
         23    2    1    2    0    0  0.38855014396E+02  0.67406688575E+02  0.22714008582E+02  0.11575582437E+03  0.82644484885E+02 0.  0.
        -13    1    3    3    0    0 -0.73580381721E+02 -0.26810167915E+02  0.20304175253E+03  0.21762079622E+03  0.00000000000E+00 0.  1.
         14    1    3    3    0    0 -0.45796363596E+01 -0.47701460838E+02  0.26290270097E+03  0.26723441510E+03  0.00000000000E+00 0. -1.
        -11    1    4    4    0    0  0.38787035535E+02  0.25189841652E+02 -0.24567934749E+02  0.52369319891E+02  0.00000000000E+00 0.  1.
         11    1    4    4    0    0  0.67978860756E-01  0.42216846923E+02  0.47281943331E+02  0.63386504481E+02  0.00000000000E+00 0. -1.
          1    1    1    2  501    0  0.39305003686E+02  0.71049401776E+01 -0.17953418921E+03  0.18392359442E+03  0.00000000000E+00 0. -1.
<scales pt_clust_5="13000.00000" pt_clust_6="13000.00000" pt_clust_7="13000.00000" pt_clust_8="13000.00000" pt_clust_9="39.94200"></scales>
<clustering>
<clus scale="   39.942">  2  9  1 -1</clus>
<clus scale="   79.494">  5  6 -1 -1</clus>
<clus scale="   82.644">  7  8 -1 -1</clus>
<clus scale="  129.650">  1  5  2 -1</clus>
<clus scale="   39.942">  2  5  1 -1</clus>
</clustering>
</event>
<event>
 9    2  0.7820252E-005  0.2392735E+03  0.7546771E-02  0.1120965E+00
          2   -1    0    0  502    0 -0.00000000000E+00  0.00000000000E+00  0.41763638860E+03  0.41763638860E+03  0.00000000000E+00 0. -1.
         21   -1    0    0  501  502  0.00000000000E+00 -0.00000000000E+00 -0.38627897820E+03  0.38627897820E+03  0.00000000000E+00 0. -1.
         24    2    1    2    0    0 -0.16413943956E+03  0.13854181756E+03  0.21238087556E+03  0.31271743187E+03  0.80938032220E+02 0.  0.
         23    2    1    2    0    0  0.25301650132E+03 -0.96395943728E+02 -0.24270289716E+03  0.37509557010E+03  0.92100285068E+02 0.  0.
        -13    1    3    3    0    0 -0.30500829808E+02 -0.55018970995E+01  0.44772378941E+02  0.54453075273E+02  0.00000000000E+00 0.  1.
         14    1    3    3    0    0 -0.13363860975E+03  0.14404371466E+03  0.16760849662E+03  0.25826435660E+03  0.00000000000E+00 0. -1.
        -11    1    4    4    0    0  0.20934210690E+03 -0.37898238752E+02 -0.18736871955E+03  0.28349150126E+03  0.00000000000E+00 0. -1.
         11    1    4    4    0    0  0.43674394419E+02 -0.58497704976E+02 -0.55334177606E+02  0.91604068832E+02  0.00000000000E+00 0.  1.
          1    1    1    2  501    0 -0.88877061761E+02 -0.42145873834E+02  0.61679431996E+02  0.11610236483E+03  0.00000000000E+00 0. -1.
<scales pt_clust_5="13000.00000" pt_clust_6="13000.00000" pt_clust_7="13000.00000" pt_clust_8="13000.00000" pt_clust_9="98.36369"></scales>
<clustering>
<clus scale="   80.938">  5  6 -1 -1</clus>
<clus scale="   92.100">  7  8 -1 -1</clus>
<clus scale="   98.364">  2  9  1 -1</clus>
<clus scale="  235.203">  1  5  2 -1</clus>
<clus scale="   98.364">  2  5  1 -1</clus>
</clustering>
</event>
<event>
 9    2  0.7820252E-005  0.1286266E+03  0.7546771E-02  0.1234212E+00
         -1   -1    0    0    0  501 -0.00000000000E+00  0.00000000000E+00  0.13847301425E+03  0.13847301425E+03  0.00000000000E+00 0.  1.
         21   -1    0    0  501  502  0.00000000000E+00 -0.00000000000E+00 -0.19326569237E+03  0.19326569237E+03  0.00000000000E+00 0.  1.
         24    2    1    2    0    0 -0.20672833865E+02  0.95282084694E+02  0.43496434042E+02  0.13032838213E+03  0.74749620005E+02 0.  0.
         23    2    1    2    0    0  0.10657036233E+02 -0.63622442823E+02 -0.11779135012E+03  0.16290076190E+03  0.92197984863E+02 0.  0.
        -13    1    3    3    0    0  0.20280341081E+02  0.53799740686E+02  0.43399730973E+02  0.72036386505E+02  0.00000000000E+00 0.  1.
         14    1    3    3    0    0 -0.40953174946E+02  0.41482344008E+02  0.96703069241E-01  0.58291995626E+02  0.00000000000E+00 0. -1.
        -11    1    4    4    0    0 -0.13626647874E+02 -0.78561879210E+02 -0.64878082663E+02  0.10279503883E+03  0.00000000000E+00 0. -1.
         11    1    4    4    0    0  0.24283684106E+02  0.14939436387E+02 -0.52913267457E+02  0.60105723075E+02  0.00000000000E+00 0.  1.
         -2    1    1    2    0  502  0.10015797632E+02 -0.31659641871E+02  0.19502237952E+02  0.38509562589E+02  0.00000000000E+00 0.  1.
<scales pt_clust_5="13000.00000" pt_clust_6="13000.00000" pt_clust_7="13000.00000" pt_clust_8="13000.00000" pt_clust_9="33.20618"></scales>
<clustering>
<clus scale="   33.206">  2  9  1 -1</clus>
<clus scale="   74.750">  5  6 -1 -1</clus>
<clus scale="   92.198">  7  8 -1 -1</clus>
<clus scale="  116.755">  1  5  2 -1</clus>
<clus scale="   33.206">  2  5  1 -1</clus>
</clustering>
</event>
<event>
 9    2  0.7820252E-005  0.1445709E+03  0.7546771E-02  0.1214370E+00
          2   -1    0    0  502    0 -0.00000000000E+00  0.00000000000E+00  0.30466370459E+03  0.30466370459E+03  0.00000000000E+00 0. -1.
         21   -1    0    0  501  502  0.00000000000E+00 -0.00000000000E+00 -0.15039310627E+03  0.15039310627E+03  0.00000000000E+00 0. -1.
         23    2    1    2    0    0 -0.89271407063E+01 -0.28192790675E+02  0.14326818968E+02  0.12518248228E+03  0.12079266882E+03 0.  0.
         24    2    1    2    0    0  0.27846909814E+02 -0.96636459273E+02  0.15628422007E+03  0.20256639753E+03  0.80587420346E+02 0.  0.
        -11    1    4    4    0    0  0.27532536482E+02 -0.45127986787E+02  0.19399353971E+02  0.56310839908E+02  0.00000000000E+00 0.  1.
         12    1    4    4    0    0  0.31437333176E+00 -0.51508472485E+02  0.13688486610E+03  0.14625555762E+03  0.00000000000E+00 0. -1.
        -13    1    3    3    0    0  0.45948144562E+02  0.20488234850E+02  0.12335222085E+02  0.51799203274E+02  0.00000000000E+00 0.  1.
         13    1    3    3    0    0 -0.54875285269E+02 -0.48681025525E+02  0.19915968829E+01  0.73383279006E+02  0.00000000000E+00 0. -1.
          1    1    1    2  501    0 -0.18919769108E+02  0.12482924995E+03 -0.16340440718E+02  0.12730793105E+03  0.00000000000E+00 0. -1.
<scales pt_clust_5="13000.00000" pt_clust_6="13000.00000" pt_clust_7="13000.00000" pt_clust_8="13000.00000" pt_clust_9="120.02673"></scales>
<clustering>
<clus scale="   80.587">  5  6 -1 -1</clus>
<clus scale="  120.793">  7  8 -1 -1</clus>
<clus scale="  124.360">  1  7  2 -1</clus>
<clus scale="  120.027">  2  9  1 -1</clus>
<clus scale="  120.027">  2  5  1 -1</clus>
</clustering>
</event>
<event>
 9    2  0.7820252E-005  0.1228818E+03  0.7546771E-02  0.1241984E+00
          2   -1    0    0  502    0 -0.00000000000E+00  0.00000000000E+00  0.62520963046E+03  0.62520963046E+03  0.00000000000E+00 0. -1.
         21   -1    0    0  501  502  0.00000000000E+00 -0.00000000000E+00 -0.29267772585E+02  0.29267772585E+02  0.00000000000E+00 0.  1.
         24    2    1    2    0    0 -0.71489151202E+02  0.13329269036E+02  0.24997926128E+03  0.27216487722E+03  0.79345580642E+02 0.  0.
         23    2    1    2    0    0  0.90048267748E+02 -0.35123340258E+02  0.26581538122E+03  0.29720671828E+03  0.91278020018E+02 0.  0.
        -13    1    3    3    0    0 -0.89417512841E+01 -0.28689292244E+02  0.98459471573E+02  0.10294317825E+03  0.00000000000E+00 0.  1.
         14    1    3    3    0    0 -0.62547399918E+02  0.42018561281E+02  0.15151978971E+03  0.16922169897E+03  0.00000000000E+00 0. -1.
        -13    1    4    4    0    0  0.89782962447E+02  0.63593850965E+01  0.20128216290E+03  0.22049020665E+03  0.00000000000E+00 0. -1.
         13    1    4    4    0    0  0.26530530097E+00 -0.41482725354E+02  0.64533218320E+02  0.76716511629E+02  0.00000000000E+00 0.  1.
          1    1    1    2  501    0 -0.18559116546E+02  0.21794071221E+02  0.80147215370E+02  0.85105807551E+02  0.00000000000E+00 0. -1.
<scales pt_clust_5="13000.00000" pt_clust_6="13000.00000" pt_clust_7="13000.00000" pt_clust_8="13000.00000" pt_clust_9="28.62557"></scales>
<clustering>
<clus scale="   28.626">  2  9  1 -1</clus>
<clus scale="   79.346">  5  6 -1 -1</clus>
<clus scale="   91.278">  7  8 -1 -1</clus>
<clus scale="  114.298">  1  5  2 -1</clus>
<clus scale="   28.626">  2  5  1 -1</clus>
</clustering>
</event>
<event>
 9    2  0.7820252E-005  0.2514159E+03  0.7546771E-02  0.1113259E+00
          2   -1    0    0  502    0 -0.00000000000E+00  0.00000000000E+00  0.39250931617E+03  0.39250931617E+03  0.00000000000E+00 0. -1.
         21   -1    0    0  501  502  0.00000000000E+00 -0.00000000000E+00 -0.23363375661E+03  0.23363375661E+03  0.00000000000E+00 0. -1.
         23    2    1    2    0    0 -0.13555772679E+02  0.24495351055E+03  0.68435778386E+02  0.27211432735E+03  0.95795459603E+02 0.  0.
         24    2    1    2    0    0  0.57991743406E+02 -0.21170077633E+03 -0.15531696068E+02  0.23440327232E+03  0.80767564599E+02 0.  0.
        -13    1    4    4    0    0 -0.16938752519E+02 -0.12502417451E+02 -0.78237502056E+00  0.21067602847E+02  0.00000000000E+00 0.  1.
         14    1    4    4    0    0  0.74930495926E+02 -0.19919835888E+03 -0.14749321048E+02  0.21333566947E+03  0.00000000000E+00 0. -1.
        -11    1    3    3    0    0 -0.37198357788E+02  0.12141257782E+03 -0.38470283955E+01  0.12704145584E+03  0.00000000000E+00 0. -1.
         11    1    3    3    0    0  0.23642585109E+02  0.12354093273E+03  0.72282806782E+02  0.14507287151E+03  0.00000000000E+00 0.  1.
          1    1    1    2  501    0 -0.44435970727E+02 -0.33252734226E+02  0.10597147724E+03  0.11962547310E+03  0.00000000000E+00 0. -1.
<scales pt_clust_5="13000.00000" pt_clust_6="13000.00000" pt_clust_7="13000.00000" pt_clust_8="13000.00000" pt_clust_9="55.50048"></scales>
<clustering>
<clus scale="   55.500">  2  9  1 -1</clus>
<clus scale="   80.768">  5  6 -1 -1</clus>
<clus scale="   95.795">  7  8 -1 -1</clus>
<clus scale="  246.082">  2  5  1 -1</clus>
<clus scale="   55.500">  2  5  1 -1</clus>
</clustering>
</event>
<event>
 9    2  0.7820252E-005  0.1885527E+03  0.7546771E-02  0.1161423E+00
          4   -1    0    0  502    0 -0.00000000000E+00  0.00000000000E+00  0.21925862563E+03  0.21925862563E+03  0.00000000000E+00 0. -1.
         21   -1    0    0  501  502  0.00000000000E+00 -0.00000000000E+00 -0.61643311101E+03  0.61643311101E+03  0.00000000000E+00 0. -1.
         24    2    1    2    0    0  0.39565039382E+01  0.17380808810E+03  0.14871362991E+03  0.24277307575E+03  0.81228795220E+02 0.  0.
         23    2    1    2    0    0 -0.13448079284E+02 -0.69714175751E+02 -0.36449847755E+03  0.38356767982E+03  0.96042218497E+02 0.  0.
        -11    1    3    3    0    0 -0.10154357614E+02  0.41803890702E+02 -0.53760047756E+00  0.43022845916E+02  0.00000000000E+00 0.  1.
         12    1    3    3    0    0  0.14110861553E+02  0.13200419740E+03  0.14925123039E+03  0.19975022983E+03  0.00000000000E+00 0. -1.
        -11    1    4    4    0    0  0.29686972247E+02 -0.36897591346E+02 -0.27414143313E+03  0.27820185824E+03  0.00000000000E+00 0.  1.
         11    1    4    4    0    0 -0.43135051531E+02 -0.32816584406E+02 -0.90357044417E+02  0.10536582159E+03  0.00000000000E+00 0. -1.
          3    1    1    2  501    0  0.94915753462E+01 -0.10409391235E+03 -0.18138963774E+03  0.20935098106E+03  0.00000000000E+00 0. -1.
<scales pt_clust_5="13000.00000" pt_clust_6="13000.00000" pt_clust_7="13000.00000" pt_clust_8="13000.00000" pt_clust_9="104.52575"></scales>
<clustering>
<clus scale="   81.229">  5  6 -1 -1</clus>
<clus scale="   96.042">  7  8 -1 -1</clus>
<clus scale="  104.526">  2  9  1 -1</clus>
<clus scale="  181.456">  1  5  2 -1</clus>
<clus scale="  104.526">  2  5  1 -1</clus>
</clustering>
</event>
<event>
 9    2  0.7820252E-005  0.1590077E+03  0.7546771E-02  0.1213882E+00
          2   -1    0    0  502    0 -0.00000000000E+00  0.00000000000E+00  0.71506177703E+03  0.71506177703E+03  0.00000000000E+00 0. -1.
         21   -1    0    0  501  502  0.00000000000E+00 -0.00000000000E+00 -0.55628542025E+02  0.55628542025E+02  0.00000000000E+00 0. -1.
         24    2    1    2    0    0 -0.41578195334E+02 -0.17960344448E+02  0.10245358251E+03  0.13934008086E+03  0.82870991690E+02 0.  0.
         23    2    1    2    0    0 -0.84254400153E+01  0.13789958534E+03  0.35218154627E+03  0.38880529521E+03  0.89724201728E+02 0.  0.
        -11    1    3    3    0    0  0.69865058926E+01  0.26307615065E+02  0.19357824450E+02  0.33401006608E+02  0.00000000000E+00 0.  1.
         12    1    3    3    0    0 -0.48564701226E+02 -0.44267959513E+02  0.83095758064E+02  0.10593907425E+03  0.00000000000E+00 0. -1.
        -11    1    4    4    0    0  0.28719605970E+02  0.29883553901E+02  0.45524044245E+02  0.61565259402E+02  0.00000000000E+00 0.  1.
         11    1    4    4    0    0 -0.37145045985E+02  0.10801603144E+03  0.30665750202E+03  0.32724003581E+03  0.00000000000E+00 0. -1.
          1    1    1    2  501    0  0.50003635349E+02 -0.11993924090E+03  0.20479810623E+03  0.24254494299E+03  0.00000000000E+00 0. -1.
<scales pt_clust_5="13000.00000" pt_clust_6="13000.00000" pt_clust_7="13000.00000" pt_clust_8="13000.00000" pt_clust_9="131.27458"></scales>
<clustering>
<clus scale="   82.871">  5  6 -1 -1</clus>
<clus scale="   89.724">  7  8 -1 -1</clus>
<clus scale="   94.440">  1  5  2 -1</clus>
<clus scale="  131.275">  2  9  1 -1</clus>
<clus scale="  131.275">  2  5  1 -1</clus>
</clustering>
</event>
<event>
 9    2  0.7820252E-005  0.1032785E+03  0.7546771E-02  0.1281959E+00
         21   -1    0    0  501  502  0.00000000000E+00  0.00000000000E+00  0.71011389899E+02  0.71011389899E+02  0.00000000000E+00 0.  1.
         -1   -1    0    0    0  501 -0.00000000000E+00 -0.00000000000E+00 -0.42654280494E+03  0.42654280494E+03  0.00000000000E+00 0.  1.
         23    2    1    2    0    0  0.10611788516E+02 -0.52870172012E+02 -0.33992644127E+03  0.35623028028E+03  0.91881238404E+02 0.  0.
         24    2    1    2    0    0 -0.11865565905E+02  0.27432223228E+02 -0.53066105452E+02  0.96024934621E+02  0.74239194470E+02 0.  0.
        -11    1    4    4    0    0  0.25875747696E+02  0.31525978237E+02 -0.36007402299E+02  0.54405648999E+02  0.00000000000E+00 0.  1.
         12    1    4    4    0    0 -0.37741313601E+02 -0.40937550091E+01 -0.17058703153E+02  0.41619285622E+02  0.00000000000E+00 0. -1.
        -11    1    3    3    0    0  0.31133171567E+02  0.12833043584E+02 -0.16179334228E+03  0.16526054274E+03  0.00000000000E+00 0. -1.
         11    1    3    3    0    0 -0.20521383051E+02 -0.65703215596E+02 -0.17813309899E+03  0.19096973754E+03  0.00000000000E+00 0.  1.
         -2    1    1    2    0  502  0.12537773884E+01  0.25437948784E+02  0.37461131683E+02  0.45298979934E+02  0.00000000000E+00 0.  1.
<scales pt_clust_5="13000.00000" pt_clust_6="13000.00000" pt_clust_7="13000.00000" pt_clust_8="13000.00000" pt_clust_9="25.46883"></scales>
<clustering>
<clus scale="   25.469">  1  9  2 -1</clus>
<clus scale="   74.239">  5  6 -1 -1</clus>
<clus scale="   87.953">  1  5  2 -1</clus>
<clus scale="   91.881">  7  8 -1 -1</clus>
<clus scale="   25.469">  1  5  2 -1</clus>
</clustering>
</event>
<event>
 9    2  0.7820252E-005  0.9875018E+02  0.7546771E-02  0.1288442E+00
         21   -1    0    0  501  502  0.00000000000E+00  0.00000000000E+00  0.95209138750E+02  0.95209138750E+02  0.00000000000E+00 0.  1.
         -1   -1    0    0    0  501 -0.00000000000E+00 -0.00000000000E+00 -0.17159374962E+03  0.17159374962E+03  0.00000000000E+00 0.  1.
         24    2    1    2    0    0 -0.43395593346E+02  0.15198612274E+02 -0.97693197681E+02  0.13451776414E+03  0.80230247789E+02 0.  0.
         23    2    1    2    0    0  0.22278467528E+02  0.40961311321E+00 -0.67795907875E+01  0.93833915879E+02  0.90897431315E+02 0.  0.
        -11    1    3    3    0    0 -0.48523321007E+02 -0.21051813513E+02 -0.73809268617E+02  0.90804733728E+02  0.00000000000E+00 0.  1.
         12    1    3    3    0    0  0.51277276600E+01  0.36250425786E+02 -0.23883929065E+02  0.43713030417E+02  0.00000000000E+00 0. -1.
        -13    1    4    4    0    0 -0.81287744050E+01  0.41600842527E+02 -0.27437826028E+01  0.42476292391E+02  0.00000000000E+00 0.  1.
         13    1    4    4    0    0  0.30407241933E+02 -0.41191229414E+02 -0.40358081847E+01  0.51357623488E+02  0.00000000000E+00 0. -1.
         -2    1    1    2    0  502  0.21117125819E+02 -0.15608225387E+02  0.28088177599E+02  0.38451208348E+02  0.00000000000E+00 0.  1.
<scales pt_clust_5="13000.00000" pt_clust_6="13000.00000" pt_clust_7="13000.00000" pt_clust_8="13000.00000" pt_clust_9="26.25928"></scales>
<clustering>
<clus scale="   26.259">  1  9  2 -1</clus>
<clus scale="   80.230">  5  6 -1 -1</clus>
<clus scale="   89.029">  2  5  1 -1</clus>
<clus scale="   90.897">  7  8 -1 -1</clus>
<clus scale="   26.259">  1  5  2 -1</clus>
</clustering>
</event>
<event>
 9    2  0.7820252E-005  0.1269363E+03  0.7546771E-02  0.1235818E+00
         21   -1    0    0  501  502  0.00000000000E+00  0.00000000000E+00  0.16878319905E+03  0.16878319905E+03  0.00000000000E+00 0.  1.
          2   -1    0    0  502    0 -0.00000000000E+00 -0.00000000000E+00 -0.22898586081E+03  0.22898586081E+03  0.00000000000E+00 0. -1.
         23    2    1    2    0    0 -0.74836102118E+02  0.46616865056E+02 -0.16511459271E+03  0.20924376329E+03  0.93522988939E+02 0.  0.
         24    2    1    2    0    0  0.76760191456E+02 -0.21629107428E+02  0.41872222026E+02  0.12068655357E+03  0.80324441827E+02 0.  0.
        -13    1    4    4    0    0  0.58894731808E+02  0.24425710821E+02  0.25023191233E+02  0.68493538990E+02  0.00000000000E+00 0.  1.
         14    1    4    4    0    0  0.17865459648E+02 -0.46054818249E+02  0.16849030792E+02  0.52193014581E+02  0.00000000000E+00 0. -1.
        -13    1    3    3    0    0 -0.32695177033E+02  0.45467674463E+02 -0.22201684721E+02  0.60242832161E+02  0.00000000000E+00 0.  1.
         13    1    3    3    0    0 -0.42140925085E+02  0.11491905927E+01 -0.14291290799E+03  0.14900093112E+03  0.00000000000E+00 0. -1.
          1    1    1    2  501    0 -0.19240893381E+01 -0.24987757627E+02  0.63039708920E+02  0.67838742999E+02  0.00000000000E+00 0. -1.
<scales pt_clust_5="13000.00000" pt_clust_6="13000.00000" pt_clust_7="13000.00000" pt_clust_8="13000.00000" pt_clust_9="25.06173"></scales>
<clustering>
<clus scale="   25.062">  1  9  2 -1</clus>
<clus scale="   80.324">  5  6 -1 -1</clus>
<clus scale="   93.523">  7  8 -1 -1</clus>
<clus scale="  117.551">  1  5  2 -1</clus>
<clus scale="   25.062">  1  5  2 -1</clus>
</clustering>
</event>
<event>
 9    2  0.7820252E-005  0.1180511E+03  0.7546771E-02  0.1248897E+00
          2   -1    0    0  502    0 -0.00000000000E+00  0.00000000000E+00  0.46337053977E+03  0.46337053977E+03  0.00000000000E+00 0. -1.
         21   -1    0    0  501  502  0.00000000000E+00 -0.00000000000E+00 -0.42479514311E+02  0.42479514311E+02  0.00000000000E+00 0.  1.
         23    2    1    2    0    0  0.27906055828E+01  0.89541054921E+02  0.26526585931E+03  0.29429061506E+03  0.90639958084E+02 0.  0.
         24    2    1    2    0    0 -0.22046301244E+02 -0.53216243361E+02  0.97001059593E+02  0.13995595014E+03  0.82827860421E+02 0.  0.
        -13    1    4    4    0    0 -0.12655720340E+02 -0.38853520600E+02 -0.59068148107E+00  0.40867006557E+02  0.00000000000E+00 0.  1.
         14    1    4    4    0    0 -0.93905809040E+01 -0.14362722761E+02  0.97591741074E+02  0.99088943585E+02  0.00000000000E+00 0. -1.
        -13    1    3    3    0    0 -0.31371309302E+02  0.35391368820E+01  0.41487991711E+02  0.52133846908E+02  0.00000000000E+00 0.  1.
         13    1    3    3    0    0  0.34161914885E+02  0.86001918039E+02  0.22377786760E+03  0.24215676815E+03  0.00000000000E+00 0. -1.
          1    1    1    2  501    0  0.19255695661E+02 -0.36324811560E+02  0.58624106558E+02  0.71603488881E+02  0.00000000000E+00 0. -1.
<scales pt_clust_5="13000.00000" pt_clust_6="13000.00000" pt_clust_7="13000.00000" pt_clust_8="13000.00000" pt_clust_9="41.11294"></scales>
<clustering>
<clus scale="   41.113">  2  9  1 -1</clus>
<clus scale="   82.828">  5  6 -1 -1</clus>
<clus scale="   90.640">  7  8 -1 -1</clus>
<clus scale="  112.165">  2  5  1 -1</clus>
<clus scale="   41.113">  2  5  1 -1</clus>
</clustering>
</event>
<event>
 9    2  0.7820252E-005  0.9319599E+02  0.7546771E-02  0.1301973E+00
          2   -1    0    0  502    0 -0.00000000000E+00  0.00000000000E+00  0.42488283083E+03  0.42488283083E+03  0.00000000000E+00 0. -1.
         21   -1    0    0  501  502  0.00000000000E+00 -0.00000000000E+00 -0.93698581132E+02  0.93698581132E+02  0.00000000000E+00 0.  1.
         24    2    1    2    0    0 -0.82142638349E+01  0.10070365633E+02  0.25334217951E+03  0.26634825787E+03  0.81180343409E+02 0.  0.
         23    2    1    2    0    0  0.45240115801E+02  0.81511369355E+01 -0.52450068860E+02  0.11556209510E+03  0.92143795173E+02 0.  0.
        -11    1    3    3    0    0  0.85130533546E+01  0.42594908651E+02  0.10644846914E+03  0.11496988693E+03  0.00000000000E+00 0.  1.
         12    1    3    3    0    0 -0.16727317189E+02 -0.32524543018E+02  0.14689371038E+03  0.15137837094E+03  0.00000000000E+00 0. -1.
        -13    1    4    4    0    0 -0.94942095868E+01 -0.23347821805E+02  0.96543653147E+01  0.26990138354E+02  0.00000000000E+00 0. -1.
         13    1    4    4    0    0  0.54734325387E+02  0.31498958741E+02 -0.62104434174E+02  0.88571956744E+02  0.00000000000E+00 0.  1.
          1    1    1    2  501    0 -0.37025851966E+02 -0.18221502568E+02  0.13029213904E+03  0.13667105899E+03  0.00000000000E+00 0. -1.
<scales pt_clust_5="13000.00000" pt_clust_6="13000.00000" pt_clust_7="13000.00000" pt_clust_8="13000.00000" pt_clust_9="41.26668"></scales>
<clustering>
<clus scale="   41.267">  2  9  1 -1</clus>
<clus scale="   81.180">  5  6 -1 -1</clus>
<clus scale="   82.373">  1  5  2 -1</clus>
<clus scale="   92.144">  7  8 -1 -1</clus>
<clus scale="   41.267">  2  5  1 -1</clus>
</clustering>
</event>
<event>
 9    2  0.7820252E-005  0.2080959E+03  0.7546771E-02  0.1175281E+00
         21   -1    0    0  501  502  0.00000000000E+00  0.00000000000E+00  0.96308876840E+02  0.96308876840E+02  0.00000000000E+00 0. -1.
          2   -1    0    0  502    0 -0.00000000000E+00 -0.00000000000E+00 -0.11885311983E+04  0.11885311983E+04  0.00000000000E+00 0. -1.
         24    2    1    2    0    0 -0.57174633424E+02  0.67762253318E+01 -0.61836660929E+03  0.62611893803E+03  0.79578923933E+02 0.  0.
         23    2    1    2    0    0 -0.13824253245E+03  0.35376949398E+02 -0.41793363038E+03  0.45113491869E+03  0.92150253027E+02 0.  0.
        -11    1    3    3    0    0 -0.18127587328E+02  0.15557353628E+02 -0.41641605470E+02  0.48006915964E+02  0.00000000000E+00 0.  1.
         12    1    3    3    0    0 -0.39047046096E+02 -0.87811282959E+01 -0.57672500382E+03  0.57811202207E+03  0.00000000000E+00 0. -1.
        -13    1    4    4    0    0 -0.10712757667E+03  0.18912676433E+02 -0.39356039327E+03  0.40831824618E+03  0.00000000000E+00 0. -1.
         13    1    4    4    0    0 -0.31114955784E+02  0.16464272965E+02 -0.24373237108E+02  0.42816672510E+02  0.00000000000E+00 0.  1.
          1    1    1    2  501    0  0.19541716588E+03 -0.42153174730E+02 -0.55922081830E+02  0.20758621846E+03  0.00000000000E+00 0. -1.
<scales pt_clust_5="13000.00000" pt_clust_6="13000.00000" pt_clust_7="13000.00000" pt_clust_8="13000.00000" pt_clust_9="186.58041"></scales>
<clustering>
<clus scale="   79.579">  5  6 -1 -1</clus>
<clus scale="   92.150">  7  8 -1 -1</clus>
<clus scale="   98.223">  2  5  1 -1</clus>
<clus scale="  186.580">  1  9  2 -1</clus>
<clus scale="  186.580">  1  5  2 -1</clus>
</clustering>
</event>
<event>
 9    2  0.7820252E-005  0.1442110E+03  0.7546771E-02  0.1210852E+00
          2   -1    0    0  502    0 -0.00000000000E+00  0.00000000000E+00  0.69380311941E+03  0.69380311941E+03  0.00000000000E+00 0. -1.
         21   -1    0    0  501  502  0.00000000000E+00 -0.00000000000E+00 -0.68032961458E+02  0.68032961458E+02  0.00000000000E+00 0.  1.
         24    2    1    2    0    0 -0.71940604080E+02 -0.77185646599E+02  0.54424091736E+03  0.56017690488E+03  0.80417125557E+02 0.  0.
         23    2    1    2    0    0  0.95785677939E+02  0.84541700028E+02  0.74045982455E+02  0.17560733878E+03  0.95041752792E+02 0.  0.
        -11    1    3    3    0    0 -0.20787220601E+02  0.93449567596E+01  0.40206447432E+02  0.46216827804E+02  0.00000000000E+00 0.  1.
         12    1    3    3    0    0 -0.51153383479E+02 -0.86530603359E+02  0.50403446993E+03  0.51396007708E+03  0.00000000000E+00 0. -1.
        -11    1    4    4    0    0  0.11092674925E+03  0.56049079651E+02  0.44955035268E+02  0.13216352835E+03  0.00000000000E+00 0.  1.
         11    1    4    4    0    0 -0.15141071315E+02  0.28492620377E+02  0.29090947187E+02  0.43443810431E+02  0.00000000000E+00 0. -1.
          1    1    1    2  501    0 -0.23845073859E+02 -0.73560534289E+01  0.74832581399E+01  0.26051837206E+02  0.00000000000E+00 0. -1.
<scales pt_clust_5="13000.00000" pt_clust_6="13000.00000" pt_clust_7="13000.00000" pt_clust_8="13000.00000" pt_clust_9="24.95394"></scales>
<clustering>
<clus scale="   24.954">  2  9  1 -1</clus>
<clus scale="   80.417">  5  6 -1 -1</clus>
<clus scale="   95.042">  7  8 -1 -1</clus>
<clus scale="  135.021">  1  5  2 -1</clus>
<clus scale="   24.954">  2  5  1 -1</clus>
</clustering>
</event>
<event>
 9    2  0.7820252E-005  0.1607145E+03  0.7546771E-02  0.1189689E+00
         21   -1    0    0  501  502  0.00000000000E+00  0.00000000000E+00  0.32833833500E+03  0.32833833500E+03  0.00000000000E+00 0. -1.
          4   -1    0    0  502    0 -0.00000000000E+00 -0.00000000000E+00 -0.14503412588E+03  0.14503412588E+03  0.00000000000E+00 0. -1.
         23    2    1    2    0    0  0.13294401712E+03 -0.35955839476E+02 -0.35638369060E+02  0.16962125380E+03  0.92381504156E+02 0.  0.
         24    2    1    2    0    0 -0.12312147658E+03 -0.19947770312E+02  0.12633514327E+03  0.19513337757E+03  0.80991697600E+02 0.  0.
        -11    1    4    4    0    0 -0.10865160302E+03  0.13609762449E+02  0.77558068520E+02  0.13418513504E+03  0.00000000000E+00 0.  1.
         12    1    4    4    0    0 -0.14469873555E+02 -0.33557532761E+02  0.48777074753E+02  0.60948242527E+02  0.00000000000E+00 0. -1.
        -11    1    3    3    0    0  0.97532664199E+00  0.20760339448E+02 -0.12147909854E+02  0.24073110930E+02  0.00000000000E+00 0.  1.
         11    1    3    3    0    0  0.13196869048E+03 -0.56716178924E+02 -0.23490459205E+02  0.14554814287E+03  0.00000000000E+00 0. -1.
          3    1    1    2  501    0 -0.98225405453E+01  0.55903609788E+02  0.92607434898E+02  0.10861782951E+03  0.00000000000E+00 0. -1.
<scales pt_clust_5="13000.00000" pt_clust_6="13000.00000" pt_clust_7="13000.00000" pt_clust_8="13000.00000" pt_clust_9="56.75998"></scales>
<clustering>
<clus scale="   56.760">  1  9  2 -1</clus>
<clus scale="   80.992">  5  6 -1 -1</clus>
<clus scale="   92.382">  7  8 -1 -1</clus>
<clus scale="  154.449">  1  5  2 -1</clus>
<clus scale="   56.760">  1  5  2 -1</clus>
</clustering>
</event>
<event>
 9    2  0.7820252E-005  0.1678256E+03  0.7546771E-02  0.1205781E+00
         21   -1    0    0  501  502  0.00000000000E+00  0.00000000000E+00  0.44727764350E+03  0.44727764350E+03  0.00000000000E+00 0. -1.
         -3   -1    0    0    0  501 -0.00000000000E+00 -0.00000000000E+00 -0.10427975115E+03  0.10427975115E+03  0.00000000000E+00 0.  1.
         23    2    1    2    0    0  0.30501385096E+02 -0.11861671166E+02  0.97854701564E+02  0.13672983083E+03  0.89713267053E+02 0.  0.
         24    2    1    2    0    0 -0.15737305011E+03 -0.14746594378E+02  0.22042017826E+03  0.28285920955E+03  0.80252965632E+02 0.  0.
        -11    1    4    4    0    0 -0.63793452440E+02 -0.36408648504E+02  0.13783015508E+03  0.15618049145E+03  0.00000000000E+00 0.  1.
         12    1    4    4    0    0 -0.93579597672E+02  0.21662054126E+02  0.82590023183E+02  0.12667871810E+03  0.00000000000E+00 0. -1.
        -13    1    3    3    0    0  0.39442084110E+02 -0.44900508738E+02  0.73453757688E+02  0.94695238541E+02  0.00000000000E+00 0. -1.
         13    1    3    3    0    0 -0.89406990136E+01  0.33038837572E+02  0.24400943875E+02  0.42034592290E+02  0.00000000000E+00 0.  1.
         -4    1    1    2    0  502  0.12687166502E+03  0.26608265544E+02  0.24723012522E+02  0.13196835426E+03  0.00000000000E+00 0.  1.
<scales pt_clust_5="13000.00000" pt_clust_6="13000.00000" pt_clust_7="13000.00000" pt_clust_8="13000.00000" pt_clust_9="147.39374"></scales>
<clustering>
<clus scale="   80.253">  5  6 -1 -1</clus>
<clus scale="   89.713">  7  8 -1 -1</clus>
<clus scale="   95.496">  2  7  1 -1</clus>
<clus scale="  147.394">  1  9  2 -1</clus>
<clus scale="  147.394">  1  5  2 -1</clus>
</clustering>
</event>
<event>
 9    2  0.7820252E-005  0.1822922E+03  0.7546771E-02  0.1166254E+00
          2   -1    0    0  502    0 -0.00000000000E+00  0.00000000000E+00  0.18103705558E+04  0.18103705558E+04  0.00000000000E+00 0. -1.
         21   -1    0    0  501  502  0.00000000000E+00 -0.00000000000E+00 -0.23214494176E+02  0.23214494176E+02  0.00000000000E+00 0.  1.
         23    2    1    2    0    0  0.19399480169E+02  0.14828786732E+03  0.80503237256E+03  0.82353423737E+03  0.88124274914E+02 0.  0.
         24    2    1    2    0    0  0.20146688725E+01 -0.17071565766E+03  0.93222558871E+03  0.95130226388E+03  0.82362335784E+02 0.  0.
        -13    1    4    4    0    0  0.24639033740E+02 -0.63706799130E+02  0.20967443297E+03  0.22051985416E+03  0.00000000000E+00 0.  1.
         14    1    4    4    0    0 -0.22624364867E+02 -0.10700885853E+03  0.72255115574E+03  0.73078240972E+03  0.00000000000E+00 0. -1.
        -11    1    3    3    0    0 -0.86952183963E+01  0.13167921118E+03  0.72814444116E+03  0.74000631664E+03  0.00000000000E+00 0. -1.
         11    1    3    3    0    0  0.28094698565E+02  0.16608656143E+02  0.76887931400E+02  0.83527920729E+02  0.00000000000E+00 0.  1.
          1    1    1    2  501    0 -0.21414149041E+02  0.22427790345E+02  0.49898100391E+02  0.58748548762E+02  0.00000000000E+00 0. -1.
<scales pt_clust_5="13000.00000" pt_clust_6="13000.00000" pt_clust_7="13000.00000" pt_clust_8="13000.00000" pt_clust_9="31.00922"></scales>
<clustering>
<clus scale="   31.009">  2  9  1 -1</clus>
<clus scale="   82.362">  5  6 -1 -1</clus>
<clus scale="   88.124">  7  8 -1 -1</clus>
<clus scale="  179.578">  2  5  1 -1</clus>
<clus scale="   31.009">  2  5  1 -1</clus>
</clustering>
</event>
<event>
 9    2  0.7820252E-005  0.1289070E+03  0.7546771E-02  0.1232099E+00
         21   -1    0    0  501  502  0.00000000000E+00  0.00000000000E+00  0.18336676941E+03  0.18336676941E+03  0.00000000000E+00 0. -1.
          2   -1    0    0  502    0 -0.00000000000E+00 -0.00000000000E+00 -0.25435070131E+03  0.25435070131E+03  0.00000000000E+00 0. -1.
         24    2    1    2    0    0 -0.66098736024E+02  0.58884774867E+02 -0.11175344756E+03  0.16292099631E+03  0.78854032118E+02 0.  0.
         23    2    1    2    0    0  0.11946736614E+03 -0.29548962510E+02  0.10577076289E+03  0.18572367998E+03  0.90334037143E+02 0.  0.
        -13    1    3    3    0    0 -0.28707663650E+02 -0.17328380173E+02 -0.28286377684E+02  0.43869372848E+02  0.00000000000E+00 0.  1.
         14    1    3    3    0    0 -0.37391072375E+02  0.76213155041E+02 -0.83467069880E+02  0.11905162346E+03  0.00000000000E+00 0. -1.
        -11    1    4    4    0    0  0.23642017865E+02 -0.49244295016E+02  0.33285761161E+02  0.63967862997E+02  0.00000000000E+00 0.  1.
         11    1    4    4    0    0  0.95825348272E+02  0.19695332506E+02  0.72485001729E+02  0.12175581699E+03  0.00000000000E+00 0. -1.
          1    1    1    2  501    0 -0.53368630113E+02 -0.29335812357E+02 -0.65001247227E+02  0.89072794432E+02  0.00000000000E+00 0. -1.
<scales pt_clust_5="13000.00000" pt_clust_6="13000.00000" pt_clust_7="13000.00000" pt_clust_8="13000.00000" pt_clust_9="60.89995"></scales>
<clustering>
<clus scale="   60.900">  1  9  2 -1</clus>
<clus scale="   78.854">  5  6 -1 -1</clus>
<clus scale="   90.334">  7  8 -1 -1</clus>
<clus scale="  121.139">  2  5  1 -1</clus>
<clus scale="   60.900">  1  5  2 -1</clus>
</clustering>
</event>
<event>
 9    2  0.7820252E-005  0.1193370E+03  0.7546771E-02  0.1244647E+00
          4   -1    0    0  502    0 -0.00000000000E+00  0.00000000000E+00  0.10404653098E+04  0.10404653098E+04  0.00000000000E+00 0. -1.
         21   -1    0    0  501  502  0.00000000000E+00 -0.00000000000E+00 -0.31355352124E+02  0.31355352124E+02  0.00000000000E+00 0. -1.
         24    2    1    2    0    0 -0.69024565861E+02  0.12646871106E+02  0.69794252041E+03  0.70766347428E+03  0.93485276901E+02 0.  0.
         23    2    1    2    0    0  0.87050871324E+02  0.15946022776E+02  0.14489135417E+03  0.19448032688E+03  0.94852323053E+02 0.  0.
        -11    1    3    3    0    0  0.34581497964E+01 -0.29936563817E+02  0.12470534461E+03  0.12829489323E+03  0.00000000000E+00 0.  1.
         12    1    3    3    0    0 -0.72482715658E+02  0.42583434923E+02  0.57323717579E+03  0.57936858105E+03  0.00000000000E+00 0. -1.
        -11    1    4    4    0    0  0.89275780195E+02 -0.41066792322E+01  0.61016390717E+02  0.10821289054E+03  0.00000000000E+00 0. -1.
         11    1    4    4    0    0 -0.22249088715E+01  0.20052702008E+02  0.83874963452E+02  0.86267436332E+02  0.00000000000E+00 0.  1.
          3    1    1    2  501    0 -0.18026305462E+02 -0.28592893881E+02  0.16627608313E+03  0.16967686080E+03  0.00000000000E+00 0. -1.
<scales pt_clust_5="13000.00000" pt_clust_6="13000.00000" pt_clust_7="13000.00000" pt_clust_8="13000.00000" pt_clust_9="33.80092"></scales>
<clustering>
<clus scale="   33.801">  2  9  1 -1</clus>
<clus scale="   93.485">  5  6 -1 -1</clus>
<clus scale="   94.852">  7  8 -1 -1</clus>
<clus scale="  118.253">  1  5  2 -1</clus>
<clus scale="   33.801">  2  5  1 -1</clus>
</clustering>
</event>
<event>
 9    2  0.7820252E-005  0.1021243E+03  0.7546771E-02  0.1281268E+00
         -3   -1    0    0    0  501 -0.00000000000E+00  0.00000000000E+00  0.68122684537E+02  0.68122684537E+02  0.00000000000E+00 0.  1.
         21   -1    0    0  501  502  0.00000000000E+00 -0.00000000000E+00 -0.23609812899E+03  0.23609812899E+03  0.00000000000E+00 0.  1.
         24    2    1    2    0    0  0.13363350892E+02 -0.56009942247E+02 -0.81090111358E+02  0.12774906387E+03  0.80178079193E+02 0.  0.
         23    2    1    2    0    0  0.13687836361E+02  0.33425000285E+02 -0.98688115247E+02  0.13930789622E+03  0.91448118346E+02 0.  0.
        -11    1    3    3    0    0  0.30745047540E+02  0.68285583499E+01 -0.14900530074E+02  0.34841253620E+02  0.00000000000E+00 0.  1.
         12    1    3    3    0    0 -0.17381696647E+02 -0.62838500597E+02 -0.66189581284E+02  0.92907810254E+02  0.00000000000E+00 0. -1.
        -11    1    4    4    0    0  0.39619574770E+02  0.52333078284E+02 -0.58912288243E+02  0.88199316855E+02  0.00000000000E+00 0. -1.
         11    1    4    4    0    0 -0.25931738409E+02 -0.18908077999E+02 -0.39775827004E+02  0.51108579362E+02  0.00000000000E+00 0.  1.
         -4    1    1    2    0  502 -0.27051187254E+02  0.22584941963E+02  0.11802782156E+02  0.37163853432E+02  0.00000000000E+00 0.  1.
<scales pt_clust_5="13000.00000" pt_clust_6="13000.00000" pt_clust_7="13000.00000" pt_clust_8="13000.00000" pt_clust_9="35.23986"></scales>
<clustering>
<clus scale="   35.240">  2  9  1 -1</clus>
<clus scale="   80.178">  5  6 -1 -1</clus>
<clus scale="   91.448">  7  8 -1 -1</clus>
<clus scale="   92.169">  1  5  2 -1</clus>
<clus scale="   35.240">  2  5  1 -1</clus>
</clustering>
</event>
<event>
 9    2  0.7820252E-005  0.9421467E+02  0.7546771E-02  0.1299736E+00
         21   -1    0    0  501  502  0.00000000000E+00  0.00000000000E+00  0.69811593895E+02  0.69811593895E+02  0.00000000000E+00 0.  1.
          2   -1    0    0  502    0 -0.00000000000E+00 -0.00000000000E+00 -0.12881409033E+04  0.12881409033E+04  0.00000000000E+00 0. -1.
         24    2    1    2    0    0  0.23913624950E+02 -0.14302009796E+01 -0.12283171623E+04  0.12311398230E+04  0.79801664086E+02 0.  0.
         23    2    1    2    0    0  0.92492498255E+01  0.47410708575E+01  0.14904994411E+02  0.93124153869E+02  0.91334127248E+02 0.  0.
        -13    1    3    3    0    0  0.13853052473E+02 -0.20595281323E+02 -0.11662711101E+03  0.11923906951E+03  0.00000000000E+00 0.  1.
         14    1    3    3    0    0  0.10060572477E+02  0.19165080343E+02 -0.11116900513E+04  0.11119007535E+04  0.00000000000E+00 0. -1.
        -13    1    4    4    0    0 -0.36073250003E+02  0.21629147820E+02  0.15296721904E+02  0.44755883437E+02  0.00000000000E+00 0.  1.
         13    1    4    4    0    0  0.45322499828E+02 -0.16888076963E+02 -0.39172749245E+00  0.48368270432E+02  0.00000000000E+00 0. -1.
          1    1    1    2  501    0 -0.33162874776E+02 -0.33108698780E+01 -0.49171415214E+01  0.33688520351E+02  0.00000000000E+00 0. -1.
<scales pt_clust_5="13000.00000" pt_clust_6="13000.00000" pt_clust_7="13000.00000" pt_clust_8="13000.00000" pt_clust_9="33.32774"></scales>
<clustering>
<clus scale="   33.328">  1  9  2 -1</clus>
<clus scale="   79.802">  5  6 -1 -1</clus>
<clus scale="   83.083">  2  5  1 -1</clus>
<clus scale="   91.334">  7  8 -1 -1</clus>
<clus scale="   33.328">  1  5  2 -1</clus>
</clustering>
</event>
<event>
 9    2  0.8636062E-005  0.9474617E+02  0.7546771E-02  0.1296621E+00
         -3   -1    0    0    0  501 -0.00000000000E+00  0.00000000000E+00  0.13791964315E+03  0.13791964315E+03  0.00000000000E+00 0.  1.
         21   -1    0    0  501  502  0.00000000000E+00 -0.00000000000E+00 -0.32403850263E+03  0.32403850263E+03  0.00000000000E+00 0.  1.
         23    2    1    2    0    0  0.27393096456E+02 -0.14652224610E+02  0.10808741812E+03  0.14422934326E+03  0.90300299457E+02 0.  0.
         24    2    1    2    0    0 -0.18159485419E+00  0.14041850411E+02 -0.15363380455E+03  0.17454549848E+03  0.81642994806E+02 0.  0.
        -13    1    4    4    0    0  0.16868653806E+02 -0.30180046156E+02 -0.52572782330E+02  0.62922842506E+02  0.00000000000E+00 0.  1.
         14    1    4    4    0    0 -0.17050248660E+02  0.44221896567E+02 -0.10106102222E+03  0.11162265597E+03  0.00000000000E+00 0. -1.
        -13    1    3    3    0    0 -0.20617179597E+02 -0.13278005903E+01 -0.44692674911E+01  0.21137774264E+02  0.00000000000E+00 0. -1.
         13    1    3    3    0    0  0.48010276053E+02 -0.13324424020E+02  0.11255668561E+03  0.12309156900E+03  0.00000000000E+00 0.  1.
         -4    1    1    2    0  502 -0.27211501602E+02  0.61037419894E+00 -0.14057247305E+03  0.14318330404E+03  0.00000000000E+00 0.  1.
<scales pt_clust_5="13000.00000" pt_clust_6="13000.00000" pt_clust_7="13000.00000" pt_clust_8="13000.00000" pt_clust_9="27.21835"></scales>
<clustering>
<clus scale="   27.218">  2  9  1 -1</clus>
<clus scale="   81.643">  5  6 -1 -1</clus>
<clus scale="   86.535">  2  5  1 -1</clus>
<clus scale="   90.300">  7  8 -1 -1</clus>
<clus scale="   27.218">  2  5  1 -1</clus>
</clustering>
</event>
<event>
 9    2  0.7820252E-005  0.9808778E+02  0.7546771E-02  0.1290190E+00
         21   -1    0    0  501  502  0.00000000000E+00  0.00000000000E+00  0.55291935056E+02  0.55291935056E+02  0.00000000000E+00 0.  1.
          2   -1    0    0  502    0 -0.00000000000E+00 -0.00000000000E+00 -0.39704212567E+03  0.39704212567E+03  0.00000000000E+00 0. -1.
         24    2    1    2    0    0  0.13810545319E+02  0.29093639937E+02 -0.27039332093E+03  0.28400116518E+03  0.80665623242E+02 0.  0.
         23    2    1    2    0    0 -0.30239521709E+02 -0.44931695974E+02 -0.14967476720E+02  0.10750100487E+03  0.91646902364E+02 0.  0.
        -11    1    3    3    0    0 -0.27478630681E+02  0.13596767760E+02 -0.45769730853E+02  0.55089159551E+02  0.00000000000E+00 0.  1.
         12    1    3    3    0    0  0.41289176000E+02  0.15496872178E+02 -0.22462359007E+03  0.22891200563E+03  0.00000000000E+00 0. -1.
        -11    1    4    4    0    0 -0.60696294729E+02 -0.12543364436E+02 -0.77984220996E+01  0.62467524142E+02  0.00000000000E+00 0.  1.
         11    1    4    4    0    0  0.30456773020E+02 -0.32388331537E+02 -0.71690546206E+01  0.45033480730E+02  0.00000000000E+00 0. -1.
          1    1    1    2  501    0  0.16428976390E+02  0.15838056036E+02 -0.56389392970E+02  0.60831890681E+02  0.00000000000E+00 0. -1.
<scales pt_clust_5="13000.00000" pt_clust_6="13000.00000" pt_clust_7="13000.00000" pt_clust_8="13000.00000" pt_clust_9="22.82007"></scales>
<clustering>
<clus scale="   22.820">  1  9  2 -1</clus>
<clus scale="   80.666">  5  6 -1 -1</clus>
<clus scale="   87.915">  2  5  1 -1</clus>
<clus scale="   91.647">  7  8 -1 -1</clus>
<clus scale="   22.820">  1  5  2 -1</clus>
</clustering>
</event>
<event>
 9    2  0.7820252E-005  0.9225140E+02  0.7546771E-02  0.1299633E+00
          2   -1    0    0  502    0 -0.00000000000E+00  0.00000000000E+00  0.13119464118E+04  0.13119464118E+04  0.00000000000E+00 0. -1.
         21   -1    0    0  501  502  0.00000000000E+00 -0.00000000000E+00 -0.28349821708E+02  0.28349821708E+02  0.00000000000E+00 0. -1.
         24    2    1    2    0    0  0.35461637369E+02  0.23174248394E+02  0.11342688657E+04  0.11378650708E+04  0.79852902496E+02 0.  0.
         23    2    1    2    0    0 -0.28799840239E+01 -0.19705357908E+02  0.14596885533E+03  0.16949365621E+03  0.83812870922E+02 0.  0.
        -13    1    3    3    0    0 -0.10163051409E+02  0.28375805986E+02  0.18112964460E+03  0.18362032059E+03  0.00000000000E+00 0.  1.
         14    1    3    3    0    0  0.45624688778E+02 -0.52015575921E+01  0.95313922112E+03  0.95424475019E+03  0.00000000000E+00 0. -1.
        -13    1    4    4    0    0  0.25145395341E+02 -0.77100818561E+01  0.69944025163E+01  0.27215031428E+02  0.00000000000E+00 0. -1.
         13    1    4    4    0    0 -0.28025379365E+02 -0.11995276052E+02  0.13897445281E+03  0.14227862479E+03  0.00000000000E+00 0.  1.
          1    1    1    2  501    0 -0.32581653345E+02 -0.34688904864E+01  0.33588690683E+01  0.32937506544E+02  0.00000000000E+00 0. -1.
<scales pt_clust_5="13000.00000" pt_clust_6="13000.00000" pt_clust_7="13000.00000" pt_clust_8="13000.00000" pt_clust_9="32.76580"></scales>
<clustering>
<clus scale="   32.766">  2  9  1 -1</clus>
<clus scale="   79.853">  5  6 -1 -1</clus>
<clus scale="   83.813">  7  8 -1 -1</clus>
<clus scale="   88.669">  1  5  2 -1</clus>
<clus scale="   32.766">  2  5  1 -1</clus>
</clustering>
</event>
<event>
 9    2  0.7820252E-005  0.1040781E+03  0.7546771E-02  0.1276352E+00
         21   -1    0    0  501  502  0.00000000000E+00  0.00000000000E+00  0.12675429977E+03  0.12675429977E+03  0.00000000000E+00 0.  1.
          2   -1    0    0  502    0 -0.00000000000E+00 -0.00000000000E+00 -0.35068772064E+03  0.35068772064E+03  0.00000000000E+00 0. -1.
         24    2    1    2    0    0  0.48394901175E+02  0.99503821870E+01 -0.23555368127E+03  0.25349268135E+03  0.79573401184E+02 0.  0.
         23    2    1    2    0    0 -0.86658818638E+02  0.62217415454E+02 -0.94158142785E+01  0.13959985872E+03  0.89547224206E+02 0.  0.
        -11    1    3    3    0    0 -0.65585630348E+01 -0.21062325704E+02 -0.11829079913E+03  0.12033016859E+03  0.00000000000E+00 0.  1.
         12    1    3    3    0    0  0.54953464210E+02  0.31012707891E+02 -0.11726288214E+03  0.13316251277E+03  0.00000000000E+00 0. -1.
        -11    1    4    4    0    0 -0.94171549617E+02  0.30337538371E+02  0.13175788870E+02  0.99811063535E+02  0.00000000000E+00 0.  1.
         11    1    4    4    0    0  0.75127309788E+01  0.31879877083E+02 -0.22591603148E+02  0.39788795187E+02  0.00000000000E+00 0. -1.
          1    1    1    2  501    0  0.38263917463E+02 -0.72167797641E+02  0.21036074679E+02  0.84349480341E+02  0.00000000000E+00 0. -1.
<scales pt_clust_5="13000.00000" pt_clust_6="13000.00000" pt_clust_7="13000.00000" pt_clust_8="13000.00000" pt_clust_9="81.68426"></scales>
<clustering>
<clus scale="   79.573">  5  6 -1 -1</clus>
<clus scale="   81.684">  1  9  2 -1</clus>
<clus scale="   89.547">  7  8 -1 -1</clus>
<clus scale="   95.632">  2  5  1 -1</clus>
<clus scale="   81.684">  1  5  2 -1</clus>
</clustering>
</event>
<event>
 9    2  0.7820252E-005  0.9231804E+02  0.7546771E-02  0.1302853E+00
         21   -1    0    0  501  502  0.00000000000E+00  0.00000000000E+00  0.99816361823E+02  0.99816361823E+02  0.00000000000E+00 0. -1.
          2   -1    0    0  502    0 -0.00000000000E+00 -0.00000000000E+00 -0.59513599090E+03  0.59513599090E+03  0.00000000000E+00 0. -1.
         24    2    1    2    0    0 -0.19804421691E+02  0.25574308171E+02 -0.45757973008E+03  0.46550847867E+03  0.79200214536E+02 0.  0.
         23    2    1    2    0    0  0.45999480070E+01  0.64182921981E+00 -0.11571561289E+03  0.14578579712E+03  0.88554074492E+02 0.  0.
        -11    1    3    3    0    0  0.17602990342E+02 -0.19963756056E+02 -0.14080413207E+03  0.14329766374E+03  0.00000000000E+00 0.  1.
         12    1    3    3    0    0 -0.37407412033E+02  0.45538064227E+02 -0.31677559800E+03  0.32221081493E+03  0.00000000000E+00 0. -1.
        -13    1    4    4    0    0  0.26281423473E+02  0.14795722533E+01  0.17041448620E+01  0.26378143671E+02  0.00000000000E+00 0.  1.
         13    1    4    4    0    0 -0.21681475466E+02 -0.83774303345E+00 -0.11741975775E+03  0.11940765345E+03  0.00000000000E+00 0. -1.
          1    1    1    2  501    0  0.15204473684E+02 -0.26216137391E+02  0.77975713887E+02  0.83658076932E+02  0.00000000000E+00 0. -1.
<scales pt_clust_5="13000.00000" pt_clust_6="13000.00000" pt_clust_7="13000.00000" pt_clust_8="13000.00000" pt_clust_9="30.30614"></scales>
<clustering>
<clus scale="   30.306">  1  9  2 -1</clus>
<clus scale="   79.200">  5  6 -1 -1</clus>
<clus scale="   83.387">  2  5  1 -1</clus>
<clus scale="   88.554">  7  8 -1 -1</clus>
<clus scale="   30.306">  1  5  2 -1</clus>
</clustering>
</event>
<event>
 9    2  0.7820252E-005  0.1773844E+03  0.7546771E-02  0.1172412E+00
          2   -1    0    0  502    0 -0.00000000000E+00  0.00000000000E+00  0.52733063133E+03  0.52733063133E+03  0.00000000000E+00 0. -1.
         21   -1    0    0  501  502  0.00000000000E+00 -0.00000000000E+00 -0.17694617973E+03  0.17694617973E+03  0.00000000000E+00 0. -1.
         24    2    1    2    0    0 -0.12955829884E+02 -0.13296353648E+03  0.21398909882E+03  0.26413879248E+03  0.78299500132E+02 0.  0.
         23    2    1    2    0    0  0.77798197269E+02  0.22815050542E+03 -0.34563820538E+01  0.25896517459E+03  0.94582252286E+02 0.  0.
        -11    1    3    3    0    0 -0.30639771910E+02 -0.11607745017E+03  0.13130479149E+03  0.17791491879E+03  0.00000000000E+00 0.  1.
         12    1    3    3    0    0  0.17683942026E+02 -0.16886086316E+02  0.82684307330E+02  0.86223873697E+02  0.00000000000E+00 0. -1.
        -13    1    4    4    0    0 -0.93097569607E+01  0.43533654500E+02 -0.29160157964E+02  0.53218093364E+02  0.00000000000E+00 0.  1.
         13    1    4    4    0    0  0.87107954230E+02  0.18461685092E+03  0.25703775910E+02  0.20574708122E+03  0.00000000000E+00 0. -1.
          1    1    1    2  501    0 -0.64842367386E+02 -0.95186968942E+02  0.13985173484E+03  0.18117284400E+03  0.00000000000E+00 0. -1.
<scales pt_clust_5="13000.00000" pt_clust_6="13000.00000" pt_clust_7="13000.00000" pt_clust_8="13000.00000" pt_clust_9="115.17424"></scales>
<clustering>
<clus scale="   78.300">  5  6 -1 -1</clus>
<clus scale="   94.582">  7  8 -1 -1</clus>
<clus scale="  115.174">  2  9  1 -1</clus>
<clus scale="  169.264">  1  5  2 -1</clus>
<clus scale="  115.174">  2  5  1 -1</clus>
</clustering>
</event>
<event>
 9    2  0.7820252E-005  0.1313356E+03  0.7546771E-02  0.1228199E+00
         21   -1    0    0  501  502  0.00000000000E+00  0.00000000000E+00  0.25714090913E+03  0.25714090913E+03  0.00000000000E+00 0. -1.
          2   -1    0    0  502    0 -0.00000000000E+00 -0.00000000000E+00 -0.92349087048E+02  0.92349087048E+02  0.00000000000E+00 0. -1.
         24    2    1    2    0    0  0.38036737226E+02 -0.10711562390E+03  0.57138856427E+02  0.15057872790E+03  0.80551561870E+02 0.  0.
         23    2    1    2    0    0 -0.19741924126E+02  0.67743375778E+02  0.10406088938E+03  0.15534778447E+03  0.91243393796E+02 0.  0.
        -13    1    3    3    0    0  0.50964524588E+02 -0.45662049097E+02  0.54918584411E+02  0.87740848001E+02  0.00000000000E+00 0.  1.
         14    1    3    3    0    0 -0.12927787362E+02 -0.61453574807E+02  0.22202720156E+01  0.62837879901E+02  0.00000000000E+00 0. -1.
        -13    1    4    4    0    0 -0.30604369273E+02 -0.11336770871E+02  0.47030101839E+02  0.57244914808E+02  0.00000000000E+00 0.  1.
         13    1    4    4    0    0  0.10862445146E+02  0.79080146649E+02  0.57030787541E+02  0.98102869663E+02  0.00000000000E+00 0. -1.
          1    1    1    2  501    0 -0.18294813100E+02  0.39372248126E+02  0.35920762713E+01  0.43563483800E+02  0.00000000000E+00 0. -1.
<scales pt_clust_5="13000.00000" pt_clust_6="13000.00000" pt_clust_7="13000.00000" pt_clust_8="13000.00000" pt_clust_9="43.41516"></scales>
<clustering>
<clus scale="   43.415">  1  9  2 -1</clus>
<clus scale="   80.552">  5  6 -1 -1</clus>
<clus scale="   91.243">  7  8 -1 -1</clus>
<clus scale="  124.146">  2  5  1 -1</clus>
<clus scale="   43.415">  1  5  2 -1</clus>
</clustering>
</event>
<event>
 9    2  0.7820252E-005  0.1338329E+03  0.7546771E-02  0.1232882E+00
          2   -1    0    0  502    0 -0.00000000000E+00  0.00000000000E+00  0.32849669777E+03  0.32849669777E+03  0.00000000000E+00 0. -1.
         21   -1    0    0  501  502  0.00000000000E+00 -0.00000000000E+00 -0.12617023127E+03  0.12617023127E+03  0.00000000000E+00 0.  1.
         23    2    1    2    0    0 -0.25841260084E+02  0.45056561978E+02  0.17717861874E+03  0.22122824370E+03  0.12186799568E+03 0.  0.
         24    2    1    2    0    0  0.85680640040E+02  0.34303746080E+01  0.70995997205E+02  0.14380728893E+03  0.91033868335E+02 0.  0.
        -11    1    4    4    0    0  0.68796022714E+02  0.24958468137E+02  0.61686240451E+01  0.73442969681E+02  0.00000000000E+00 0.  1.
         12    1    4    4    0    0  0.16884617326E+02 -0.21528093529E+02  0.64827373160E+02  0.70364319253E+02  0.00000000000E+00 0. -1.
        -11    1    3    3    0    0 -0.14577995301E+02 -0.21433964684E+02 -0.55005687513E+01  0.26498849893E+02  0.00000000000E+00 0.  1.
         11    1    3    3    0    0 -0.11263264783E+02  0.66490526662E+02  0.18267918750E+03  0.19472939381E+03  0.00000000000E+00 0. -1.
          1    1    1    2  501    0 -0.59839379956E+02 -0.48486936586E+02 -0.45848149451E+02  0.89631396402E+02  0.00000000000E+00 0. -1.
<scales pt_clust_5="13000.00000" pt_clust_6="13000.00000" pt_clust_7="13000.00000" pt_clust_8="13000.00000" pt_clust_9="77.01775"></scales>
<clustering>
<clus scale="   77.018">  2  9  1 -1</clus>
<clus scale="   91.034">  5  6 -1 -1</clus>
<clus scale="  106.520">  2  5  1 -1</clus>
<clus scale="  121.868">  7  8 -1 -1</clus>
<clus scale="   77.018">  2  5  1 -1</clus>
</clustering>
</event>
<event>
 9    2  0.7820252E-005  0.1184294E+03  0.7546771E-02  0.1250456E+00
         -1   -1    0    0    0  501 -0.00000000000E+00  0.00000000000E+00  0.15830019568E+03  0.15830019568E+03  0.00000000000E+00 0.  1.
         21   -1    0    0  501  502  0.00000000000E+00 -0.00000000000E+00 -0.28855935933E+03  0.28855935933E+03  0.00000000000E+00 0. -1.
         24    2    1    2    0    0 -0.54800581932E+02 -0.37766103312E+02  0.96255667032E+02  0.14217993418E+03  0.80750219249E+02 0.  0.
         23    2    1    2    0    0  0.79783790800E+02  0.53223579271E+02 -0.83092373196E+02  0.15827915771E+03  0.94603100460E+02 0.  0.
        -11    1    3    3    0    0 -0.62411932336E+02 -0.56608062783E+02  0.75595271158E+02  0.11320056136E+03  0.00000000000E+00 0.  1.
         12    1    3    3    0    0  0.76113504047E+01  0.18841959471E+02  0.20660395874E+02  0.28979372826E+02  0.00000000000E+00 0. -1.
        -11    1    4    4    0    0  0.52483733381E+02  0.52675777568E+02 -0.10115112875E+03  0.12554214694E+03  0.00000000000E+00 0. -1.
         11    1    4    4    0    0  0.27300057419E+02  0.54780170294E+00  0.18058755552E+02  0.32737010765E+02  0.00000000000E+00 0.  1.
         -2    1    1    2    0  502 -0.24983208868E+02 -0.15457475959E+02 -0.14342245749E+03  0.14640046312E+03  0.00000000000E+00 0.  1.
<scales pt_clust_5="13000.00000" pt_clust_6="13000.00000" pt_clust_7="13000.00000" pt_clust_8="13000.00000" pt_clust_9="29.37847"></scales>
<clustering>
<clus scale="   29.378">  2  9  1 -1</clus>
<clus scale="   80.750">  5  6 -1 -1</clus>
<clus scale="   94.603">  7  8 -1 -1</clus>
<clus scale="  107.686">  1  5  2 -1</clus>
<clus scale="   29.378">  2  5  1 -1</clus>
</clustering>
</event>
<event>
 9    2  0.7820252E-005  0.8825001E+02  0.7546771E-02  0.1309979E+00
         21   -1    0    0  501  502  0.00000000000E+00  0.00000000000E+00  0.10729568786E+03  0.10729568786E+03  0.00000000000E+00 0.  1.
         -3   -1    0    0    0  501 -0.00000000000E+00 -0.00000000000E+00 -0.14912298098E+03  0.14912298098E+03  0.00000000000E+00 0.  1.
         24    2    1    2    0    0  0.23508026466E+02 -0.32532477117E+02 -0.62214106207E+02  0.10958026064E+03  0.80785203689E+02 0.  0.
         23    2    1    2    0    0  0.19591209083E+01 -0.19370649811E+02  0.13846558018E+02  0.88655205162E+02  0.85375394609E+02 0.  0.
        -11    1    3    3    0    0  0.19967568580E+02 -0.59619328506E+02 -0.42443258467E+02  0.75859068778E+02  0.00000000000E+00 0.  1.
         12    1    3    3    0    0  0.35404578859E+01  0.27086851389E+02 -0.19770847741E+02  0.33721191862E+02  0.00000000000E+00 0. -1.
        -13    1    4    4    0    0  0.27982828422E+02  0.95431168648E+01  0.33824700138E+02  0.44924604678E+02  0.00000000000E+00 0.  1.
         13    1    4    4    0    0 -0.26023707514E+02 -0.28913766676E+02 -0.19978142120E+02  0.43730600484E+02  0.00000000000E+00 0. -1.
         -4    1    1    2    0  502 -0.25467147374E+02  0.51903126928E+02  0.65402550692E+01  0.58183203046E+02  0.00000000000E+00 0.  1.
<scales pt_clust_5="13000.00000" pt_clust_6="13000.00000" pt_clust_7="13000.00000" pt_clust_8="13000.00000" pt_clust_9="57.81445"></scales>
<clustering>
<clus scale="   57.814">  1  9  2 -1</clus>
<clus scale="   80.785">  5  6 -1 -1</clus>
<clus scale="   83.817">  2  5  1 -1</clus>
<clus scale="   85.375">  7  8 -1 -1</clus>
<clus scale="   57.814">  1  5  2 -1</clus>
</clustering>
</event>
<event>
 9    2  0.7820252E-005  0.1285035E+03  0.7546771E-02  0.1232522E+00
          2   -1    0    0  502    0 -0.00000000000E+00  0.00000000000E+00  0.11033099254E+04  0.11033099254E+04  0.00000000000E+00 0. -1.
         21   -1    0    0  501  502  0.00000000000E+00 -0.00000000000E+00 -0.69060282666E+02  0.69060282666E+02  0.00000000000E+00 0. -1.
         24    2    1    2    0    0 -0.12482424581E+03 -0.24644502000E+02  0.78583452518E+03  0.80008898077E+03  0.80112622940E+02 0.  0.
         23    2    1    2    0    0  0.35339974909E+02  0.31241281302E+02  0.26225491921E+03  0.28149305437E+03  0.90751118590E+02 0.  0.
        -13    1    3    3    0    0 -0.68285070482E+02 -0.32691911462E+02  0.24978813718E+03  0.26100905234E+03  0.00000000000E+00 0.  1.
         14    1    3    3    0    0 -0.56539175329E+02  0.80474094621E+01  0.53604638800E+03  0.53907992843E+03  0.00000000000E+00 0. -1.
        -11    1    4    4    0    0  0.37027734596E+01  0.59599524849E+02  0.14782949011E+03  0.15943453842E+03  0.00000000000E+00 0.  1.
         11    1    4    4    0    0  0.31637201450E+02 -0.28358243547E+02  0.11442542910E+03  0.12205851595E+03  0.00000000000E+00 0. -1.
          1    1    1    2  501    0  0.89484270901E+02 -0.65967793026E+01 -0.13839801648E+02  0.90788172939E+02  0.00000000000E+00 0. -1.
<scales pt_clust_5="13000.00000" pt_clust_6="13000.00000" pt_clust_7="13000.00000" pt_clust_8="13000.00000" pt_clust_9="89.72710"></scales>
<clustering>
<clus scale="   80.113">  5  6 -1 -1</clus>
<clus scale="   89.727">  2  9  1 -1</clus>
<clus scale="   90.751">  7  8 -1 -1</clus>
<clus scale="  121.225">  1  5  2 -1</clus>
<clus scale="   89.727">  2  5  1 -1</clus>
</clustering>
</event>
<event>
 9    2  0.7820252E-005  0.1349783E+03  0.7546771E-02  0.1227239E+00
         21   -1    0    0  501  502  0.00000000000E+00  0.00000000000E+00  0.14703375730E+03  0.14703375730E+03  0.00000000000E+00 0. -1.
          2   -1    0    0  502    0 -0.00000000000E+00 -0.00000000000E+00 -0.22537568806E+03  0.22537568806E+03  0.00000000000E+00 0. -1.
         23    2    1    2    0    0  0.10209984267E+03 -0.79983839230E+02 -0.12994738846E+03  0.20510626092E+03  0.91435562491E+02 0.  0.
         24    2    1    2    0    0 -0.45335318786E+02  0.39316315081E+02  0.10801597061E+02  0.86426650546E+02  0.61252164570E+02 0.  0.
        -13    1    4    4    0    0 -0.32609119265E+02  0.25395631319E+02  0.36095869104E+02  0.54874443193E+02  0.00000000000E+00 0.  1.
         14    1    4    4    0    0 -0.12726199521E+02  0.13920683763E+02 -0.25294272043E+02  0.31552207353E+02  0.00000000000E+00 0. -1.
        -11    1    3    3    0    0  0.39050430245E+02  0.17176727983E+02 -0.30453050495E+02  0.52415306647E+02  0.00000000000E+00 0.  1.
         11    1    3    3    0    0  0.63049412430E+02 -0.97160567213E+02 -0.99494337964E+02  0.15269095427E+03  0.00000000000E+00 0. -1.
          1    1    1    2  501    0 -0.56764523889E+02  0.40667524149E+02  0.40803860638E+02  0.80876533900E+02  0.00000000000E+00 0. -1.
<scales pt_clust_5="13000.00000" pt_clust_6="13000.00000" pt_clust_7="13000.00000" pt_clust_8="13000.00000" pt_clust_9="69.82878"></scales>
<clustering>
<clus scale="   61.252">  5  6 -1 -1</clus>
<clus scale="   69.829">  1  9  2 -1</clus>
<clus scale="   91.436">  7  8 -1 -1</clus>
<clus scale="  116.664">  1  5  2 -1</clus>
<clus scale="   69.829">  1  5  2 -1</clus>
</clustering>
</event>
<event>
 9    2  0.7820252E-005  0.1020145E+03  0.7546771E-02  0.1286318E+00
         21   -1    0    0  501  502  0.00000000000E+00  0.00000000000E+00  0.74210423551E+02  0.74210423551E+02  0.00000000000E+00 0.  1.
         -1   -1    0    0    0  501 -0.00000000000E+00 -0.00000000000E+00 -0.19492563526E+03  0.19492563526E+03  0.00000000000E+00 0.  1.
         24    2    1    2    0    0  0.44738292900E+01  0.19243311602E+00 -0.27769598509E+02  0.85095801057E+02  0.80312468380E+02 0.  0.
         23    2    1    2    0    0 -0.49449640009E+02  0.74781981780E+01 -0.50942071690E+02  0.12202445627E+03  0.98963038126E+02 0.  0.
        -13    1    3    3    0    0  0.78815498910E+01  0.39019623439E+02 -0.22606545281E+02  0.45778878662E+02  0.00000000000E+00 0.  1.
         14    1    3    3    0    0 -0.34077206010E+01 -0.38827190323E+02 -0.51630532276E+01  0.39316922396E+02  0.00000000000E+00 0. -1.
        -13    1    4    4    0    0  0.28653130192E+02 -0.54836817687E+01 -0.25833751711E+02  0.38967362793E+02  0.00000000000E+00 0. -1.
         13    1    4    4    0    0 -0.78102770201E+02  0.12961879947E+02 -0.25108319980E+02  0.83057093478E+02  0.00000000000E+00 0.  1.
         -2    1    1    2    0  502  0.44975810719E+02 -0.76706312941E+01 -0.42003541514E+02  0.62015801487E+02  0.00000000000E+00 0.  1.
<scales pt_clust_5="13000.00000" pt_clust_6="13000.00000" pt_clust_7="13000.00000" pt_clust_8="13000.00000" pt_clust_9="45.62526"></scales>
<clustering>
<clus scale="   45.625">  1  9  2 -1</clus>
<clus scale="   80.312">  5  6 -1 -1</clus>
<clus scale="   84.044">  2  5  1 -1</clus>
<clus scale="   98.963">  7  8 -1 -1</clus>
<clus scale="   45.625">  1  5  2 -1</clus>
</clustering>
</event>
<event>
 9    2  0.7820252E-005  0.1010033E+03  0.7546771E-02  0.1284270E+00
         21   -1    0    0  501  502  0.00000000000E+00  0.00000000000E+00  0.34756830204E+02  0.34756830204E+02  0.00000000000E+00 0. -1.
          2   -1    0    0  502    0 -0.00000000000E+00 -0.00000000000E+00 -0.14651543656E+04  0.14651543656E+04  0.00000000000E+00 0. -1.
         24    2    1    2    0    0  0.41922804327E+02  0.18687242372E+02 -0.10907465175E+04  0.10946352892E+04  0.79948209427E+02 0.  0.
         23    2    1    2    0    0  0.53808416185E+00 -0.47041360872E+02 -0.33876182762E+03  0.35421051969E+03  0.92153878026E+02 0.  0.
        -11    1    3    3    0    0  0.16243114011E+02 -0.12555677548E+02 -0.66643933758E+02  0.69734479981E+02  0.00000000000E+00 0.  1.
         12    1    3    3    0    0  0.25679690316E+02  0.31242919920E+02 -0.10241025838E+04  0.10249008092E+04  0.00000000000E+00 0. -1.
        -11    1    4    4    0    0 -0.37840964184E+02 -0.91065826205E+01 -0.22447541913E+03  0.22782467428E+03  0.00000000000E+00 0.  1.
         11    1    4    4    0    0  0.38379048346E+02 -0.37934778252E+02 -0.11428640849E+03  0.12638584541E+03  0.00000000000E+00 0. -1.
          1    1    1    2  501    0 -0.42460888489E+02  0.28354118500E+02 -0.88919024254E+00  0.51065386971E+02  0.00000000000E+00 0. -1.
<scales pt_clust_5="13000.00000" pt_clust_6="13000.00000" pt_clust_7="13000.00000" pt_clust_8="13000.00000" pt_clust_9="51.05764"></scales>
<clustering>
<clus scale="   51.058">  1  9  2 -1</clus>
<clus scale="   79.948">  5  6 -1 -1</clus>
<clus scale="   90.006">  2  5  1 -1</clus>
<clus scale="   92.154">  7  8 -1 -1</clus>
<clus scale="   51.058">  1  5  2 -1</clus>
</clustering>
</event>
<event>
 9    2  0.7820252E-005  0.9624447E+02  0.7546771E-02  0.1294729E+00
         -3   -1    0    0    0  501 -0.00000000000E+00  0.00000000000E+00  0.30147667564E+03  0.30147667564E+03  0.00000000000E+00 0.  1.
         21   -1    0    0  501  502  0.00000000000E+00 -0.00000000000E+00 -0.70322697480E+02  0.70322697480E+02  0.00000000000E+00 0. -1.
         24    2    1    2    0    0  0.71639034433E+01 -0.27929044528E+02  0.21023077925E+03  0.22709407476E+03  0.80891193614E+02 0.  0.
         23    2    1    2    0    0  0.28344166700E+02  0.25669974592E+02 -0.61816715102E+01  0.99977226161E+02  0.92167745480E+02 0.  0.
        -13    1    3    3    0    0 -0.49796370790E+01 -0.53306111635E+02  0.10116398962E+03  0.11445737686E+03  0.00000000000E+00 0.  1.
         14    1    3    3    0    0  0.12143540522E+02  0.25377067107E+02  0.10906678964E+03  0.11263669790E+03  0.00000000000E+00 0. -1.
        -13    1    4    4    0    0 -0.21346220576E+02 -0.21790125785E+02 -0.68360800802E+01  0.31260241609E+02  0.00000000000E+00 0.  1.
         13    1    4    4    0    0  0.49690387275E+02  0.47460100377E+02  0.65440856998E+00  0.68716984552E+02  0.00000000000E+00 0. -1.
         -4    1    1    2    0  502 -0.35508070143E+02  0.22590699364E+01  0.27104870412E+02  0.44728072196E+02  0.00000000000E+00 0.  1.
<scales pt_clust_5="13000.00000" pt_clust_6="13000.00000" pt_clust_7="13000.00000" pt_clust_8="13000.00000" pt_clust_9="35.57986"></scales>
<clustering>
<clus scale="   35.580">  2  9  1 -1</clus>
<clus scale="   80.891">  5  6 -1 -1</clus>
<clus scale="   85.507">  1  5  2 -1</clus>
<clus scale="   92.168">  7  8 -1 -1</clus>
<clus scale="   35.580">  2  5  1 -1</clus>
</clustering>
</event>
<event>
 9    2  0.7820252E-005  0.1388524E+03  0.7546771E-02  0.1217048E+00
          2   -1    0    0  502    0 -0.00000000000E+00  0.00000000000E+00  0.44110862201E+03  0.44110862201E+03  0.00000000000E+00 0. -1.
         21   -1    0    0  501  502  0.00000000000E+00 -0.00000000000E+00 -0.94024433352E+02  0.94024433352E+02  0.00000000000E+00 0.  1.
         23    2    1    2    0    0  0.31824193714E+02 -0.10537420297E+03  0.32227192064E+03  0.35218474813E+03  0.89768613826E+02 0.  0.
         24    2    1    2    0    0 -0.87121722718E+01  0.96157401332E+02  0.60759036955E+02  0.13923005973E+03  0.79819804468E+02 0.  0.
        -11    1    4    4    0    0 -0.76213344594E+01  0.67319190366E+02 -0.44758100397E+01  0.67896914554E+02  0.00000000000E+00 0.  1.
         12    1    4    4    0    0 -0.10908378124E+01  0.28838210966E+02  0.65234846995E+02  0.71333145180E+02  0.00000000000E+00 0. -1.
        -11    1    3    3    0    0  0.26213685635E+02 -0.79196639152E+02  0.31288427724E+03  0.32381450850E+03  0.00000000000E+00 0. -1.
         11    1    3    3    0    0  0.56105080799E+01 -0.26177563821E+02  0.93876433960E+01  0.28370239637E+02  0.00000000000E+00 0.  1.
          1    1    1    2  501    0 -0.23112021443E+02  0.92168016415E+01 -0.35946768932E+02  0.43718247498E+02  0.00000000000E+00 0. -1.
<scales pt_clust_5="13000.00000" pt_clust_6="13000.00000" pt_clust_7="13000.00000" pt_clust_8="13000.00000" pt_clust_9="24.88202"></scales>
<clustering>
<clus scale="   24.882">  2  9  1 -1</clus>
<clus scale="   79.820">  5  6 -1 -1</clus>
<clus scale="   89.769">  7  8 -1 -1</clus>
<clus scale="  132.638">  2  5  1 -1</clus>
<clus scale="   24.882">  2  5  1 -1</clus>
</clustering>
</event>
<event>
 9    2  0.7820252E-005  0.2356594E+03  0.7546771E-02  0.1151703E+00
         21   -1    0    0  501  502  0.00000000000E+00  0.00000000000E+00  0.99229758294E+02  0.99229758294E+02  0.00000000000E+00 0. -1.
          2   -1    0    0  502    0 -0.00000000000E+00 -0.00000000000E+00 -0.90518397416E+03  0.90518397416E+03  0.00000000000E+00 0. -1.
         24    2    1    2    0    0 -0.64210045704E+01 -0.83053185033E+02 -0.22818316118E+03  0.25629444579E+03  0.81732655999E+02 0.  0.
         23    2    1    2    0    0 -0.20339784292E+03 -0.11981389983E+02 -0.39697311056E+03  0.45529951989E+03  0.90530470513E+02 0.  0.
        -13    1    3    3    0    0  0.22729569789E+02 -0.41258952224E+02 -0.41490064775E+02  0.62772286532E+02  0.00000000000E+00 0.  1.
         14    1    3    3    0    0 -0.29150574359E+02 -0.41794232809E+02 -0.18669309640E+03  0.19352215926E+03  0.00000000000E+00 0. -1.
        -11    1    4    4    0    0 -0.50492500461E+02 -0.43719962054E+02 -0.11993517773E+03  0.13727845622E+03  0.00000000000E+00 0.  1.
         11    1    4    4    0    0 -0.15290534246E+03  0.31738572071E+02 -0.27703793283E+03  0.31802106367E+03  0.00000000000E+00 0. -1.
          1    1    1    2  501    0  0.20981884749E+03  0.95034575016E+02 -0.18079794413E+03  0.29281976677E+03  0.00000000000E+00 0. -1.
<scales pt_clust_5="13000.00000" pt_clust_6="13000.00000" pt_clust_7="13000.00000" pt_clust_8="13000.00000" pt_clust_9="217.57667"></scales>
<clustering>
<clus scale="   81.733">  5  6 -1 -1</clus>
<clus scale="   90.530">  7  8 -1 -1</clus>
<clus scale="  116.702">  2  5  1 -1</clus>
<clus scale="  217.577">  1  9  2 -1</clus>
<clus scale="  217.577">  1  5  2 -1</clus>
</clustering>
</event>
<event>
 9    2  0.7820252E-005  0.9987484E+02  0.7546771E-02  0.1287671E+00
         21   -1    0    0  501  502  0.00000000000E+00  0.00000000000E+00  0.39179308848E+03  0.39179308848E+03  0.00000000000E+00 0. -1.
          2   -1    0    0  502    0 -0.00000000000E+00 -0.00000000000E+00 -0.91702052068E+02  0.91702052068E+02  0.00000000000E+00 0. -1.
         23    2    1    2    0    0  0.38360550001E+01  0.31142536318E+02 -0.24907963219E+02  0.10059248966E+03  0.92270631616E+02 0.  0.
         24    2    1    2    0    0 -0.44898422475E+02 -0.43943018750E+02  0.65801870360E+02  0.12016110070E+03  0.78498068383E+02 0.  0.
        -13    1    4    4    0    0  0.81884734754E+01 -0.22481482642E+02 -0.93430764009E+01  0.25685817804E+02  0.00000000000E+00 0.  1.
         14    1    4    4    0    0 -0.53086895950E+02 -0.21461536108E+02  0.75144946761E+02  0.94475282891E+02  0.00000000000E+00 0. -1.
        -13    1    3    3    0    0 -0.21089512558E+01 -0.30710795524E+02 -0.22996947859E+02  0.38424734846E+02  0.00000000000E+00 0.  1.
         13    1    3    3    0    0  0.59450062559E+01  0.61853331843E+02 -0.19110153591E+01  0.62167754818E+02  0.00000000000E+00 0. -1.
          1    1    1    2  501    0  0.41062367475E+02  0.12800482432E+02  0.25919712927E+03  0.26274155019E+03  0.00000000000E+00 0. -1.
<scales pt_clust_5="13000.00000" pt_clust_6="13000.00000" pt_clust_7="13000.00000" pt_clust_8="13000.00000" pt_clust_9="43.01128"></scales>
<clustering>
<clus scale="   43.011">  1  9  2 -1</clus>
<clus scale="   78.498">  5  6 -1 -1</clus>
<clus scale="   87.310">  1  5  2 -1</clus>
<clus scale="   92.271">  7  8 -1 -1</clus>
<clus scale="   43.011">  1  5  2 -1</clus>
</clustering>
</event>
<event>
 9    2  0.7820252E-005  0.1717015E+03  0.7546771E-02  0.1203513E+00
         21   -1    0    0  501  502  0.00000000000E+00  0.00000000000E+00  0.18098958413E+03  0.18098958413E+03  0.00000000000E+00 0. -1.
          2   -1    0    0  502    0 -0.00000000000E+00 -0.00000000000E+00 -0.24730647952E+03  0.24730647952E+03  0.00000000000E+00 0. -1.
         24    2    1    2    0    0 -0.18040391479E+02 -0.43175300931E+02  0.15081097784E+02  0.94846741800E+02  0.81110434498E+02 0.  0.
         23    2    1    2    0    0 -0.13084528283E+03 -0.18066706353E+02 -0.28701181614E+02  0.16405486674E+03  0.92969605556E+02 0.  0.
        -11    1    3    3    0    0 -0.76432140204E+01  0.24094488116E+02  0.74445519798E+01  0.26351175160E+02  0.00000000000E+00 0.  1.
         12    1    3    3    0    0 -0.10397177458E+02 -0.67269789047E+02  0.76365458038E+01  0.68495566640E+02  0.00000000000E+00 0. -1.
        -11    1    4    4    0    0 -0.78064234604E+02 -0.54979734602E+02 -0.56604189070E+01  0.95649549311E+02  0.00000000000E+00 0. -1.
         11    1    4    4    0    0 -0.52781048229E+02  0.36913028248E+02 -0.23040762707E+02  0.68405317430E+02  0.00000000000E+00 0.  1.
          1    1    1    2  501    0  0.14888567431E+03  0.61242007284E+02 -0.52696811556E+02  0.16939445510E+03  0.00000000000E+00 0. -1.
<scales pt_clust_5="13000.00000" pt_clust_6="13000.00000" pt_clust_7="13000.00000" pt_clust_8="13000.00000" pt_clust_9="144.35403"></scales>
<clustering>
<clus scale="   81.110">  5  6 -1 -1</clus>
<clus scale="   92.970">  7  8 -1 -1</clus>
<clus scale="   93.640">  2  5  1 -1</clus>
<clus scale="  144.354">  1  9  2 -1</clus>
<clus scale="  144.354">  1  5  2 -1</clus>
</clustering>
</event>
<event>
 9    2  0.7820252E-005  0.9716998E+02  0.7546771E-02  0.1291601E+00
         21   -1    0    0  501  502  0.00000000000E+00  0.00000000000E+00  0.29897745439E+02  0.29897745439E+02  0.00000000000E+00 0. -1.
         -3   -1    0    0    0  501 -0.00000000000E+00 -0.00000000000E+00 -0.43010685839E+03  0.43010685839E+03  0.00000000000E+00 0.  1.
         24    2    1    2    0    0  0.14491926887E+02  0.25858596350E+02 -0.17406248259E+03  0.19424163422E+03  0.80952959614E+02 0.  0.
         23    2    1    2    0    0 -0.47943721830E+02 -0.11984962003E+02 -0.17010307848E+03  0.19903681265E+03  0.90765388245E+02 0.  0.
        -13    1    3    3    0    0  0.47349830985E+02  0.22669565846E+02 -0.11857614243E+03  0.12967735833E+03  0.00000000000E+00 0.  1.
         14    1    3    3    0    0 -0.32857904098E+02  0.31890305041E+01 -0.55486340160E+02  0.64564275893E+02  0.00000000000E+00 0. -1.
        -11    1    4    4    0    0 -0.72954294911E+02 -0.19269074892E+02 -0.14141297538E+03  0.16028492131E+03  0.00000000000E+00 0. -1.
         11    1    4    4    0    0  0.25010573081E+02  0.72841128883E+01 -0.28690103102E+02  0.38751891340E+02  0.00000000000E+00 0.  1.
         -4    1    1    2    0  502  0.33451794943E+02 -0.13873634347E+02 -0.56043551883E+02  0.66726156959E+02  0.00000000000E+00 0.  1.
<scales pt_clust_5="13000.00000" pt_clust_6="13000.00000" pt_clust_7="13000.00000" pt_clust_8="13000.00000" pt_clust_9="36.21464"></scales>
<clustering>
<clus scale="   36.215">  1  9  2 -1</clus>
<clus scale="   80.953">  5  6 -1 -1</clus>
<clus scale="   88.074">  2  5  1 -1</clus>
<clus scale="   90.765">  7  8 -1 -1</clus>
<clus scale="   36.215">  1  5  2 -1</clus>
</clustering>
</event>
<event>
 9    2  0.7820252E-005  0.9118360E+02  0.7546771E-02  0.1303915E+00
         21   -1    0    0  501  502  0.00000000000E+00  0.00000000000E+00  0.39700921006E+02  0.39700921006E+02  0.00000000000E+00 0.  1.
          2   -1    0    0  502    0 -0.00000000000E+00 -0.00000000000E+00 -0.69935796349E+03  0.69935796349E+03  0.00000000000E+00 0. -1.
         24    2    1    2    0    0 -0.96626942486E+01 -0.77431548179E+01 -0.49908790419E+03  0.50620707981E+03  0.83687199956E+02 0.  0.
         23    2    1    2    0    0  0.27421430804E+02 -0.12053351627E+02 -0.17752308195E+03  0.20131277178E+03  0.90084234505E+02 0.  0.
        -11    1    3    3    0    0 -0.68310041106E+01  0.21232533159E+02 -0.36999156512E+02  0.43202090970E+02  0.00000000000E+00 0.  1.
         12    1    3    3    0    0 -0.28316901380E+01 -0.28975687977E+02 -0.46208874767E+03  0.46300498884E+03  0.00000000000E+00 0. -1.
        -11    1    4    4    0    0  0.93564619717E+01  0.38561128498E+02 -0.93518577055E+02  0.10158852428E+03  0.00000000000E+00 0. -1.
         11    1    4    4    0    0  0.18064968833E+02 -0.50614480125E+02 -0.84004504890E+02  0.99724247498E+02  0.00000000000E+00 0.  1.
          1    1    1    2  501    0 -0.17758736556E+02  0.19796506445E+02  0.16953943647E+02  0.31539032906E+02  0.00000000000E+00 0. -1.
<scales pt_clust_5="13000.00000" pt_clust_6="13000.00000" pt_clust_7="13000.00000" pt_clust_8="13000.00000" pt_clust_9="26.59463"></scales>
<clustering>
<clus scale="   26.595">  1  9  2 -1</clus>
<clus scale="   83.687">  5  6 -1 -1</clus>
<clus scale="   84.869">  2  5  1 -1</clus>
<clus scale="   90.084">  7  8 -1 -1</clus>
<clus scale="   26.595">  1  5  2 -1</clus>
</clustering>
</event>
<event>
 9    2  0.7820252E-005  0.1218932E+03  0.7546771E-02  0.1243561E+00
         21   -1    0    0  501  502  0.00000000000E+00  0.00000000000E+00  0.23548085221E+03  0.23548085221E+03  0.00000000000E+00 0. -1.
         -3   -1    0    0    0  501 -0.00000000000E+00 -0.00000000000E+00 -0.18097859184E+03  0.18097859184E+03  0.00000000000E+00 0.  1.
         24    2    1    2    0    0  0.28141081216E+02 -0.83384487943E+02 -0.13063510820E+03  0.17594936520E+03  0.78407616581E+02 0.  0.
         23    2    1    2    0    0  0.47223314113E+01  0.44075197325E+02  0.13915293256E+03  0.17166392738E+03  0.90222180695E+02 0.  0.
        -11    1    3    3    0    0 -0.15646571251E+02 -0.62490074448E+02 -0.98709710057E+02  0.11787040110E+03  0.00000000000E+00 0.  1.
         12    1    3    3    0    0  0.43787652468E+02 -0.20894413495E+02 -0.31925398141E+02  0.58078964095E+02  0.00000000000E+00 0. -1.
        -11    1    4    4    0    0 -0.35635171304E+02  0.35752194587E+02  0.11047190408E+03  0.12145833213E+03  0.00000000000E+00 0.  1.
         11    1    4    4    0    0  0.40357502715E+02  0.83230027387E+01  0.28681028481E+02  0.50205595253E+02  0.00000000000E+00 0. -1.
         -4    1    1    2    0  502 -0.32863412628E+02  0.39309290617E+02  0.45984436002E+02  0.68846151474E+02  0.00000000000E+00 0.  1.
<scales pt_clust_5="13000.00000" pt_clust_6="13000.00000" pt_clust_7="13000.00000" pt_clust_8="13000.00000" pt_clust_9="51.23694"></scales>
<clustering>
<clus scale="   51.237">  1  9  2 -1</clus>
<clus scale="   78.408">  5  6 -1 -1</clus>
<clus scale="   90.222">  7  8 -1 -1</clus>
<clus scale="  113.427">  2  5  1 -1</clus>
<clus scale="   51.237">  1  5  2 -1</clus>
</clustering>
</event>
<event>
 9    2  0.7820252E-005  0.1084852E+03  0.7546771E-02  0.1266604E+00
         -3   -1    0    0    0  501 -0.00000000000E+00  0.00000000000E+00  0.51844039738E+02  0.51844039738E+02  0.00000000000E+00 0.  1.
         21   -1    0    0  501  502  0.00000000000E+00 -0.00000000000E+00 -0.45510263948E+03  0.45510263948E+03  0.00000000000E+00 0.  1.
         24    2    1    2    0    0  0.40930398441E+02  0.12518115934E+02 -0.98084774591E+02  0.13543195705E+03  0.83001152046E+02 0.  0.
         23    2    1    2    0    0 -0.96056719705E+02 -0.27710171164E+02 -0.27601629571E+03  0.30732849809E+03  0.90945386104E+02 0.  0.
        -11    1    3    3    0    0  0.65620808681E+02  0.16647297176E+02 -0.64172518734E+02  0.93280947657E+02  0.00000000000E+00 0.  1.
         12    1    3    3    0    0 -0.24690410240E+02 -0.41291812421E+01 -0.33912255858E+02  0.42151009393E+02  0.00000000000E+00 0. -1.
        -13    1    4    4    0    0 -0.48444578809E+02  0.32536769689E+02 -0.11789604031E+03  0.13154845084E+03  0.00000000000E+00 0. -1.
         13    1    4    4    0    0 -0.47612140896E+02 -0.60246940853E+02 -0.15812025541E+03  0.17578004725E+03  0.00000000000E+00 0.  1.
         -4    1    1    2    0  502  0.55126321264E+02  0.15192055230E+02 -0.29157529439E+02  0.64186224076E+02  0.00000000000E+00 0.  1.
<scales pt_clust_5="13000.00000" pt_clust_6="13000.00000" pt_clust_7="13000.00000" pt_clust_8="13000.00000" pt_clust_9="57.18141"></scales>
<clustering>
<clus scale="   57.181">  2  9  1 -1</clus>
<clus scale="   83.001">  5  6 -1 -1</clus>
<clus scale="   90.945">  7  8 -1 -1</clus>
<clus scale="  101.917">  1  5  2 -1</clus>
<clus scale="   57.181">  2  5  1 -1</clus>
</clustering>
</event>
<event>
 9    2  0.7820252E-005  0.5101260E+03  0.7546771E-02  0.1063132E+00
          2   -1    0    0  502    0 -0.00000000000E+00  0.00000000000E+00  0.76930639546E+03  0.76930639546E+03  0.00000000000E+00 0. -1.
         21   -1    0    0  501  502  0.00000000000E+00 -0.00000000000E+00 -0.41940695284E+03  0.41940695284E+03  0.00000000000E+00 0. -1.
         23    2    1    2    0    0  0.58173787528E+02 -0.26815312633E+02  0.11333005480E+02  0.11200248905E+03  0.91174941690E+02 0.  0.
         24    2    1    2    0    0 -0.80820345066E+02 -0.48887522431E+03  0.11904053478E+03  0.51578197046E+03  0.79558022924E+02 0.  0.
        -11    1    4    4    0    0  0.81784191753E+01 -0.15963900192E+03  0.23237720833E+02  0.16152860163E+03  0.00000000000E+00 0.  1.
         12    1    4    4    0    0 -0.88998764242E+02 -0.32923622239E+03  0.95802813946E+02  0.35425336884E+03  0.00000000000E+00 0. -1.
        -11    1    3    3    0    0  0.38573097576E+02 -0.40988609191E+02  0.43938879284E+02  0.71404306962E+02  0.00000000000E+00 0.  1.
         11    1    3    3    0    0  0.19600689952E+02  0.14173296558E+02 -0.32605873805E+02  0.40598182083E+02  0.00000000000E+00 0. -1.
          1    1    1    2  501    0  0.22646557538E+02  0.51569053695E+03  0.21952590236E+03  0.56092888878E+03  0.00000000000E+00 0. -1.
<scales pt_clust_5="13000.00000" pt_clust_6="13000.00000" pt_clust_7="13000.00000" pt_clust_8="13000.00000" pt_clust_9="503.88420"></scales>
<clustering>
<clus scale="   79.558">  5  6 -1 -1</clus>
<clus scale="   91.175">  7  8 -1 -1</clus>
<clus scale="  111.428">  1  7  2 -1</clus>
<clus scale="  503.884">  2  9  1 -1</clus>
<clus scale="  503.884">  2  5  1 -1</clus>
</clustering>
</event>
<event>
 9    2  0.7820252E-005  0.1063895E+03  0.7546771E-02  0.1272006E+00
          2   -1    0    0  502    0 -0.00000000000E+00  0.00000000000E+00  0.96121663826E+03  0.96121663826E+03  0.00000000000E+00 0. -1.
         21   -1    0    0  501  502  0.00000000000E+00 -0.00000000000E+00 -0.32183211148E+02  0.32183211148E+02  0.00000000000E+00 0.  1.
         24    2    1    2    0    0 -0.50761803736E+02 -0.99052473022E+01  0.75490112702E+03  0.76102851884E+03  0.81325397423E+02 0.  0.
         23    2    1    2    0    0  0.64555404699E+02 -0.56630410120E+01  0.17861091490E+03  0.21109474675E+03  0.91976425652E+02 0.  0.
        -11    1    3    3    0    0 -0.21569809389E+02  0.28456604250E+02  0.14925219431E+03  0.15346417337E+03  0.00000000000E+00 0.  1.
         12    1    3    3    0    0 -0.29191994347E+02 -0.38361851552E+02  0.60564893271E+03  0.60756434546E+03  0.00000000000E+00 0. -1.
        -11    1    4    4    0    0  0.83474870774E+02  0.10617532322E+02  0.11294559965E+03  0.14084564077E+03  0.00000000000E+00 0.  1.
         11    1    4    4    0    0 -0.18919466075E+02 -0.16280573334E+02  0.65665315246E+02  0.70249105980E+02  0.00000000000E+00 0. -1.
          1    1    1    2  501    0 -0.13793600963E+02  0.15568288314E+02 -0.44786148036E+01  0.21276583822E+02  0.00000000000E+00 0. -1.
<scales pt_clust_5="13000.00000" pt_clust_6="13000.00000" pt_clust_7="13000.00000" pt_clust_8="13000.00000" pt_clust_9="20.79988"></scales>
<clustering>
<clus scale="   20.800">  2  9  1 -1</clus>
<clus scale="   81.325">  5  6 -1 -1</clus>
<clus scale="   91.976">  7  8 -1 -1</clus>
<clus scale="   97.329">  1  5  2 -1</clus>
<clus scale="   20.800">  2  5  1 -1</clus>
</clustering>
</event>
<event>
 9    2  0.7820252E-005  0.2244365E+03  0.7546771E-02  0.1131818E+00
         21   -1    0    0  501  502  0.00000000000E+00  0.00000000000E+00  0.13064589852E+03  0.13064589852E+03  0.00000000000E+00 0.  1.
          2   -1    0    0  502    0 -0.00000000000E+00 -0.00000000000E+00 -0.54105923801E+03  0.54105923801E+03  0.00000000000E+00 0. -1.
         24    2    1    2    0    0 -0.18848960872E+03 -0.11327416013E+03 -0.32854913531E+03  0.40280757105E+03  0.77136483162E+02 0.  0.
         23    2    1    2    0    0  0.15833222255E+03  0.78503706648E+02 -0.94260451470E+02  0.22123081267E+03  0.93947406074E+02 0.  0.
        -13    1    3    3    0    0 -0.99052503081E+02 -0.69771468890E+02 -0.11414384402E+03  0.16645802284E+03  0.00000000000E+00 0.  1.
         14    1    3    3    0    0 -0.89437105637E+02 -0.43502691243E+02 -0.21440529129E+03  0.23634954822E+03  0.00000000000E+00 0. -1.
        -11    1    4    4    0    0  0.32394599577E+02  0.29046612849E+02 -0.71979089770E+02  0.84107699790E+02  0.00000000000E+00 0. -1.
         11    1    4    4    0    0  0.12593762297E+03  0.49457093799E+02 -0.22281361700E+02  0.13712311288E+03  0.00000000000E+00 0.  1.
          1    1    1    2  501    0  0.30157386173E+02  0.34770453485E+02  0.12396247287E+02  0.47666752807E+02  0.00000000000E+00 0. -1.
<scales pt_clust_5="13000.00000" pt_clust_6="13000.00000" pt_clust_7="13000.00000" pt_clust_8="13000.00000" pt_clust_9="46.02665"></scales>
<clustering>
<clus scale="   46.027">  1  9  2 -1</clus>
<clus scale="   77.136">  5  6 -1 -1</clus>
<clus scale="   93.947">  7  8 -1 -1</clus>
<clus scale="  217.935">  2  5  1 -1</clus>
<clus scale="   46.027">  1  5  2 -1</clus>
</clustering>
</event>
<event>
 9    2  0.7820252E-005  0.1111564E+03  0.7546771E-02  0.1264020E+00
          2   -1    0    0  502    0 -0.00000000000E+00  0.00000000000E+00  0.21332253513E+03  0.21332253513E+03  0.00000000000E+00 0. -1.
         21   -1    0    0  501  502  0.00000000000E+00 -0.00000000000E+00 -0.42904009981E+03  0.42904009981E+03  0.00000000000E+00 0. -1.
         24    2    1    2    0    0 -0.63369538653E+01 -0.59766475020E+02  0.16466092220E+03  0.19168531875E+03  0.77574825829E+02 0.  0.
         23    2    1    2    0    0  0.65357838761E+02  0.11158876888E+03 -0.29294508455E+03  0.33314598064E+03  0.91900606235E+02 0.  0.
        -11    1    3    3    0    0 -0.20217738993E+02 -0.23491157021E+02  0.10526060078E+02  0.32732084702E+02  0.00000000000E+00 0.  1.
         12    1    3    3    0    0  0.13880785127E+02 -0.36275317999E+02  0.15413486212E+03  0.15895323405E+03  0.00000000000E+00 0. -1.
        -13    1    4    4    0    0 -0.23243544955E+02  0.30076191293E+02 -0.62629245305E+02  0.73261599984E+02  0.00000000000E+00 0.  1.
         13    1    4    4    0    0  0.88601383716E+02  0.81512577586E+02 -0.23031583924E+03  0.25988438065E+03  0.00000000000E+00 0. -1.
          1    1    1    2  501    0 -0.59020884895E+02 -0.51822293859E+02 -0.87433402334E+02  0.11753133556E+03  0.00000000000E+00 0. -1.
<scales pt_clust_5="13000.00000" pt_clust_6="13000.00000" pt_clust_7="13000.00000" pt_clust_8="13000.00000" pt_clust_9="78.54308"></scales>
<clustering>
<clus scale="   77.575">  5  6 -1 -1</clus>
<clus scale="   78.543">  2  9  1 -1</clus>
<clus scale="   91.901">  7  8 -1 -1</clus>
<clus scale="   99.639">  1  5  2 -1</clus>
<clus scale="   78.543">  2  5  1 -1</clus>
</clustering>
</event>
<event>
 9    2  0.7820252E-005  0.9652395E+02  0.7546771E-02  0.1294934E+00
         21   -1    0    0  501  502  0.00000000000E+00  0.00000000000E+00  0.10428620167E+03  0.10428620167E+03  0.00000000000E+00 0. -1.
          4   -1    0    0  502    0 -0.00000000000E+00 -0.00000000000E+00 -0.11741269618E+03  0.11741269618E+03  0.00000000000E+00 0. -1.
         23    2    1    2    0    0 -0.28439551487E+02  0.28697336834E+02 -0.25164094734E+02  0.10466976878E+03  0.93221154265E+02 0.  0.
         24    2    1    2    0    0  0.12199693449E+02  0.18675381510E+01  0.52292613930E+01  0.81754519932E+02  0.80648224627E+02 0.  0.
        -11    1    4    4    0    0 -0.21109153289E+02 -0.90841890404E+01 -0.26070671139E+02  0.34753398924E+02  0.00000000000E+00 0.  1.
         12    1    4    4    0    0  0.33308846738E+02  0.10951727191E+02  0.31299932532E+02  0.47001121008E+02  0.00000000000E+00 0. -1.
        -11    1    3    3    0    0 -0.57188854635E+02  0.39938523785E+02 -0.10662995723E+02  0.70564511296E+02  0.00000000000E+00 0. -1.
         11    1    3    3    0    0  0.28749303148E+02 -0.11241186951E+02 -0.14501099011E+02  0.34105257484E+02  0.00000000000E+00 0.  1.
          3    1    1    2  501    0  0.16239858038E+02 -0.30564874985E+02  0.68083388261E+01  0.35274609134E+02  0.00000000000E+00 0. -1.
<scales pt_clust_5="13000.00000" pt_clust_6="13000.00000" pt_clust_7="13000.00000" pt_clust_8="13000.00000" pt_clust_9="34.61134"></scales>
<clustering>
<clus scale="   34.611">  1  9  2 -1</clus>
<clus scale="   80.648">  5  6 -1 -1</clus>
<clus scale="   84.444">  1  5  2 -1</clus>
<clus scale="   93.221">  7  8 -1 -1</clus>
<clus scale="   34.611">  1  5  2 -1</clus>
</clustering>
</event>
<event>
 9    2  0.7820252E-005  0.1424532E+03  0.7546771E-02  0.1212156E+00
          2   -1    0    0  502    0 -0.00000000000E+00  0.00000000000E+00  0.45703306088E+03  0.45703306088E+03  0.00000000000E+00 0. -1.
         21   -1    0    0  501  502  0.00000000000E+00 -0.00000000000E+00 -0.15979835462E+03  0.15979835462E+03  0.00000000000E+00 0. -1.
         23    2    1    2    0    0 -0.10085023286E+03  0.56490813525E+02  0.35054315139E+03  0.37993852459E+03  0.90059980026E+02 0.  0.
         24    2    1    2    0    0  0.58715082679E+02 -0.22764423365E+02 -0.11592611580E+03  0.15422601148E+03  0.79881902764E+02 0.  0.
        -11    1    4    4    0    0  0.38593774956E+02 -0.16083798274E+02 -0.59588198741E+01  0.42233583397E+02  0.00000000000E+00 0.  1.
         12    1    4    4    0    0  0.20121307723E+02 -0.66806250910E+01 -0.10996729592E+03  0.11199242809E+03  0.00000000000E+00 0. -1.
        -13    1    3    3    0    0 -0.10601409012E+03  0.27618473510E+02  0.21551115304E+03  0.24175778058E+03  0.00000000000E+00 0. -1.
         13    1    3    3    0    0  0.51638572597E+01  0.28872340015E+02  0.13503199834E+03  0.13818074401E+03  0.00000000000E+00 0.  1.
          1    1    1    2  501    0  0.42135150177E+02 -0.33726390161E+02  0.62617670668E+02  0.82666879423E+02  0.00000000000E+00 0. -1.
<scales pt_clust_5="13000.00000" pt_clust_6="13000.00000" pt_clust_7="13000.00000" pt_clust_8="13000.00000" pt_clust_9="53.97076"></scales>
<clustering>
<clus scale="   53.971">  2  9  1 -1</clus>
<clus scale="   79.882">  5  6 -1 -1</clus>
<clus scale="   90.060">  7  8 -1 -1</clus>
<clus scale="  136.247">  2  5  1 -1</clus>
<clus scale="   53.971">  2  5  1 -1</clus>
</clustering>
</event>
<event>
 9    2  0.7820252E-005  0.9889503E+02  0.7546771E-02  0.1287327E+00
         -1   -1    0    0    0  501 -0.00000000000E+00  0.00000000000E+00  0.20989410180E+03  0.20989410180E+03  0.00000000000E+00 0.  1.
         21   -1    0    0  501  502  0.00000000000E+00 -0.00000000000E+00 -0.69593904722E+02  0.69593904722E+02  0.00000000000E+00 0.  1.
         23    2    1    2    0    0  0.50575343393E+02  0.24582546784E+02  0.10223571811E+03  0.14738393434E+03  0.90042851351E+02 0.  0.
         24    2    1    2    0    0 -0.12828139248E+02 -0.22829175006E+02  0.40865409293E+02  0.94212503936E+02  0.80748262106E+02 0.  0.
        -13    1    4    4    0    0 -0.16606226154E+02  0.17096861347E+02 -0.12928191596E+02  0.27114711006E+02  0.00000000000E+00 0.  1.
         14    1    4    4    0    0  0.37780869052E+01 -0.39926036353E+02  0.53793600889E+02  0.67097792931E+02  0.00000000000E+00 0. -1.
        -13    1    3    3    0    0  0.28716559411E+02  0.29100978648E+02  0.11473502044E+03  0.12180161188E+03  0.00000000000E+00 0.  1.
         13    1    3    3    0    0  0.21858783982E+02 -0.45184318640E+01 -0.12499302329E+02  0.25582322459E+02  0.00000000000E+00 0. -1.
         -2    1    1    2    0  502 -0.37747204145E+02 -0.17533717779E+01 -0.28009303239E+01  0.37891568244E+02  0.00000000000E+00 0.  1.
<scales pt_clust_5="13000.00000" pt_clust_6="13000.00000" pt_clust_7="13000.00000" pt_clust_8="13000.00000" pt_clust_9="37.78790"></scales>
<clustering>
<clus scale="   37.788">  2  9  1 -1</clus>
<clus scale="   80.748">  5  6 -1 -1</clus>
<clus scale="   90.043">  7  8 -1 -1</clus>
<clus scale="   90.514">  2  5  1 -1</clus>
<clus scale="   37.788">  2  5  1 -1</clus>
</clustering>
</event>
<event>
 9    2  0.7820252E-005  0.1008063E+03  0.7546771E-02  0.1284462E+00
         21   -1    0    0  501  502  0.00000000000E+00  0.00000000000E+00  0.26689192763E+02  0.26689192763E+02  0.00000000000E+00 0. -1.
          2   -1    0    0  502    0 -0.00000000000E+00 -0.00000000000E+00 -0.59102775271E+03  0.59102775271E+03  0.00000000000E+00 0. -1.
         23    2    1    2    0    0  0.66313535840E+02  0.13994425413E+02 -0.35214448966E+03  0.36960915147E+03  0.89508961992E+02 0.  0.
         24    2    1    2    0    0 -0.19593955458E+02 -0.80602910153E-01 -0.13298592445E+03  0.15510110599E+03  0.77376788442E+02 0.  0.
        -11    1    4    4    0    0 -0.49530004699E+02 -0.32594695137E+01 -0.86064887561E+02  0.99352958577E+02  0.00000000000E+00 0.  1.
         12    1    4    4    0    0  0.29936049242E+02  0.31788666036E+01 -0.46921036891E+02  0.55748147413E+02  0.00000000000E+00 0. -1.
        -13    1    3    3    0    0  0.18786045368E+02 -0.27325129217E+02 -0.44006347883E+02  0.55101150998E+02  0.00000000000E+00 0. -1.
         13    1    3    3    0    0  0.47527490473E+02  0.41319554630E+02 -0.30813814178E+03  0.31450800048E+03  0.00000000000E+00 0.  1.
          1    1    1    2  501    0 -0.46719580383E+02 -0.13913822503E+02 -0.79208145830E+02  0.93006688005E+02  0.00000000000E+00 0. -1.
<scales pt_clust_5="13000.00000" pt_clust_6="13000.00000" pt_clust_7="13000.00000" pt_clust_8="13000.00000" pt_clust_9="48.74745"></scales>
<clustering>
<clus scale="   48.747">  1  9  2 -1</clus>
<clus scale="   77.377">  5  6 -1 -1</clus>
<clus scale="   89.509">  7  8 -1 -1</clus>
<clus scale="   90.207">  1  5  2 -1</clus>
<clus scale="   48.747">  1  5  2 -1</clus>
</clustering>
</event>
<event>
 9    2  0.7820252E-005  0.2067953E+03  0.7546771E-02  0.1176972E+00
         21   -1    0    0  501  502  0.00000000000E+00  0.00000000000E+00  0.23189582026E+03  0.23189582026E+03  0.00000000000E+00 0.  1.
         -1   -1    0    0    0  501 -0.00000000000E+00 -0.00000000000E+00 -0.27206765522E+03  0.27206765522E+03  0.00000000000E+00 0.  1.
         24    2    1    2    0    0  0.72620957731E+01  0.38980148935E+02 -0.54313525551E+02  0.11058682157E+03  0.87791206852E+02 0.  0.
         23    2    1    2    0    0 -0.73951309091E+02  0.15013991902E+03 -0.45544340462E+01  0.19197308803E+03  0.93926206454E+02 0.  0.
        -11    1    3    3    0    0  0.25881285827E+02  0.60536956338E+02 -0.47820028033E+02  0.81371488372E+02  0.00000000000E+00 0.  1.
         12    1    3    3    0    0 -0.18619190054E+02 -0.21556807403E+02 -0.64934975175E+01  0.29215333195E+02  0.00000000000E+00 0. -1.
        -11    1    4    4    0    0 -0.50998885810E+02  0.15855668570E+03 -0.10248855478E+02  0.16687165119E+03  0.00000000000E+00 0.  1.
         11    1    4    4    0    0 -0.22952423280E+02 -0.84167666795E+01  0.56944214319E+01  0.25101436836E+02  0.00000000000E+00 0. -1.
         -2    1    1    2    0  502  0.66689213318E+02 -0.18912006795E+03  0.18696124634E+02  0.20140356588E+03  0.00000000000E+00 0.  1.
<scales pt_clust_5="13000.00000" pt_clust_6="13000.00000" pt_clust_7="13000.00000" pt_clust_8="13000.00000" pt_clust_9="184.23404"></scales>
<clustering>
<clus scale="   87.791">  5  6 -1 -1</clus>
<clus scale="   93.926">  7  8 -1 -1</clus>
<clus scale="   96.330">  2  5  1 -1</clus>
<clus scale="  184.234">  1  9  2 -1</clus>
<clus scale="  184.234">  1  5  2 -1</clus>
</clustering>
</event>
<event>
 9    2  0.7820252E-005  0.9079529E+02  0.7546771E-02  0.1316287E+00
         21   -1    0    0  501  502  0.00000000000E+00  0.00000000000E+00  0.22476976160E+03  0.22476976160E+03  0.00000000000E+00 0.  1.
         -1   -1    0    0    0  501 -0.00000000000E+00 -0.00000000000E+00 -0.53321351759E+02  0.53321351759E+02  0.00000000000E+00 0.  1.
         23    2    1    2    0    0  0.52748033508E+01  0.34096437826E+02  0.58936526328E+02  0.11321179217E+03  0.90293992755E+02 0.  0.
         24    2    1    2    0    0  0.66602983497E+01  0.14809637109E+02  0.70701621158E+02  0.99439663060E+02  0.68013545927E+02 0.  0.
        -11    1    4    4    0    0  0.19583643424E+02  0.33913804834E+02  0.20522561562E+02  0.44213581411E+02  0.00000000000E+00 0.  1.
         12    1    4    4    0    0 -0.12923345074E+02 -0.19104167725E+02  0.50179059596E+02  0.55226081649E+02  0.00000000000E+00 0. -1.
        -13    1    3    3    0    0  0.36893268140E+02 -0.10116162633E+02  0.87765245536E+01  0.39248915447E+02  0.00000000000E+00 0.  1.
         13    1    3    3    0    0 -0.31618464790E+02  0.44212600459E+02  0.50160001774E+02  0.73962876722E+02  0.00000000000E+00 0. -1.
         -2    1    1    2    0  502 -0.11935101700E+02 -0.48906074935E+02  0.41810262359E+02  0.65439658134E+02  0.00000000000E+00 0.  1.
<scales pt_clust_5="13000.00000" pt_clust_6="13000.00000" pt_clust_7="13000.00000" pt_clust_8="13000.00000" pt_clust_9="50.34134"></scales>
<clustering>
<clus scale="   50.341">  1  9  2 -1</clus>
<clus scale="   68.014">  5  6 -1 -1</clus>
<clus scale="   68.678">  1  5  2 -1</clus>
<clus scale="   90.294">  7  8 -1 -1</clus>
<clus scale="   50.341">  1  5  2 -1</clus>
</clustering>
</event>
<event>
 9    2  0.7820252E-005  0.1159615E+03  0.7546771E-02  0.1264377E+00
          2   -1    0    0  502    0 -0.00000000000E+00  0.00000000000E+00  0.11149789883E+04  0.11149789883E+04  0.00000000000E+00 0. -1.
         21   -1    0    0  501  502  0.00000000000E+00 -0.00000000000E+00 -0.27065252546E+02  0.27065252546E+02  0.00000000000E+00 0. -1.
         24    2    1    2    0    0 -0.24783910123E+02 -0.25369416111E+02  0.29070259423E+03  0.30348466728E+03  0.79605876060E+02 0.  0.
         23    2    1    2    0    0 -0.58038924414E+02 -0.29787430863E+02  0.16802660269E+03  0.20155479839E+03  0.90197504182E+02 0.  0.
        -11    1    3    3    0    0 -0.22803100166E+02 -0.76097171094E+00  0.16460959075E+02  0.28134029729E+02  0.00000000000E+00 0.  1.
         12    1    3    3    0    0 -0.19808099574E+01 -0.24608444400E+02  0.27424163516E+03  0.27535063755E+03  0.00000000000E+00 0. -1.
        -13    1    4    4    0    0 -0.49869344621E+02 -0.51907174691E+02  0.68828171459E+02  0.99592286367E+02  0.00000000000E+00 0. -1.
         13    1    4    4    0    0 -0.81695797930E+01  0.22119743828E+02  0.99198431228E+02  0.10196251203E+03  0.00000000000E+00 0.  1.
          1    1    1    2  501    0  0.82822834537E+02  0.55156846974E+02  0.62918453888E+03  0.63700477522E+03  0.00000000000E+00 0. -1.
<scales pt_clust_5="13000.00000" pt_clust_6="13000.00000" pt_clust_7="13000.00000" pt_clust_8="13000.00000" pt_clust_9="72.87997"></scales>
<clustering>
<clus scale="   79.606">  5  6 -1 -1</clus>
<clus scale="   87.149">  1  5  2 -1</clus>
<clus scale="   72.880">  2  9  1 -1</clus>
<clus scale="   90.198">  7  8 -1 -1</clus>
<clus scale="   72.880">  2  5  1 -1</clus>
</clustering>
</event>
<event>
 9    2  0.7820252E-005  0.2066728E+03  0.7546771E-02  0.1145101E+00
          2   -1    0    0  502    0 -0.00000000000E+00  0.00000000000E+00  0.75902738006E+03  0.75902738006E+03  0.00000000000E+00 0. -1.
         21   -1    0    0  501  502  0.00000000000E+00 -0.00000000000E+00 -0.96806531047E+02  0.96806531047E+02  0.00000000000E+00 0.  1.
         24    2    1    2    0    0 -0.97398005406E+02 -0.15957631735E+03  0.47217516683E+03  0.51395729267E+03  0.79067932864E+02 0.  0.
         23    2    1    2    0    0  0.12338361323E+03  0.14041840122E+03  0.21683324767E+03  0.29992603764E+03  0.89432250009E+02 0.  0.
        -11    1    3    3    0    0 -0.66218808905E+02 -0.72910203823E+02  0.15470976239E+03  0.18340103340E+03  0.00000000000E+00 0.  1.
         12    1    3    3    0    0 -0.31179196501E+02 -0.86666113529E+02  0.31746540444E+03  0.33055625927E+03  0.00000000000E+00 0. -1.
        -11    1    4    4    0    0  0.10556619666E+03  0.61243790753E+02  0.10058759439E+03  0.15815463296E+03  0.00000000000E+00 0.  1.
         11    1    4    4    0    0  0.17817416572E+02  0.79174610467E+02  0.11624565328E+03  0.14177140468E+03  0.00000000000E+00 0. -1.
          1    1    1    2  501    0 -0.25985607824E+02  0.19157916133E+02 -0.26787565486E+02  0.41950580797E+02  0.00000000000E+00 0. -1.
<scales pt_clust_5="13000.00000" pt_clust_6="13000.00000" pt_clust_7="13000.00000" pt_clust_8="13000.00000" pt_clust_9="32.28432"></scales>
<clustering>
<clus scale="   32.284">  2  9  1 -1</clus>
<clus scale="   79.068">  5  6 -1 -1</clus>
<clus scale="   89.432">  7  8 -1 -1</clus>
<clus scale="  202.404">  1  5  2 -1</clus>
<clus scale="   32.284">  2  5  1 -1</clus>
</clustering>
</event>
<event>
 9    2  0.7820252E-005  0.9217663E+02  0.7546771E-02  0.1304357E+00
          2   -1    0    0  502    0 -0.00000000000E+00  0.00000000000E+00  0.13819743454E+03  0.13819743454E+03  0.00000000000E+00 0. -1.
         21   -1    0    0  501  502  0.00000000000E+00 -0.00000000000E+00 -0.16099654160E+03  0.16099654160E+03  0.00000000000E+00 0.  1.
         23    2    1    2    0    0 -0.75656221821E+01 -0.21314668827E+01 -0.33527573858E+02  0.97444486089E+02  0.91156721477E+02 0.  0.
         24    2    1    2    0    0 -0.10636004280E+02 -0.35480329818E+02 -0.68695206348E+02  0.11200504001E+03  0.80337533080E+02 0.  0.
        -13    1    4    4    0    0 -0.28996345236E+02 -0.18277043850E+02 -0.77984329074E+02  0.85184470122E+02  0.00000000000E+00 0.  1.
         14    1    4    4    0    0  0.18360340955E+02 -0.17203285968E+02  0.92891227259E+01  0.26820569888E+02  0.00000000000E+00 0. -1.
        -11    1    3    3    0    0  0.13510418034E+02 -0.27010266615E+02 -0.51878678025E+02  0.60029019080E+02  0.00000000000E+00 0.  1.
         11    1    3    3    0    0 -0.21076040216E+02  0.24878799733E+02  0.18351104168E+02  0.37415467009E+02  0.00000000000E+00 0. -1.
          1    1    1    2  501    0  0.18201626463E+02  0.37611796701E+02  0.79423673143E+02  0.89744450037E+02  0.00000000000E+00 0. -1.
<scales pt_clust_5="13000.00000" pt_clust_6="13000.00000" pt_clust_7="13000.00000" pt_clust_8="13000.00000" pt_clust_9="41.78455"></scales>
<clustering>
<clus scale="   41.785">  2  9  1 -1</clus>
<clus scale="   80.338">  5  6 -1 -1</clus>
<clus scale="   81.493">  2  5  1 -1</clus>
<clus scale="   91.157">  7  8 -1 -1</clus>
<clus scale="   41.785">  2  5  1 -1</clus>
</clustering>
</event>
<event>
 9    2  0.7820252E-005  0.4353272E+03  0.7546771E-02  0.1032360E+00
          2   -1    0    0  502    0 -0.00000000000E+00  0.00000000000E+00  0.25253252260E+03  0.25253252260E+03  0.00000000000E+00 0. -1.
         21   -1    0    0  501  502  0.00000000000E+00 -0.00000000000E+00 -0.93614128344E+03  0.93614128344E+03  0.00000000000E+00 0. -1.
         23    2    1    2    0    0  0.38593867766E+03 -0.18217831297E+03 -0.16338818121E+03  0.46615181731E+03  0.92001186931E+02 0.  0.
         24    2    1    2    0    0 -0.36315149249E+03  0.21990259760E+03 -0.52285055618E+03  0.67837117633E+03  0.81108506646E+02 0.  0.
        -11    1    4    4    0    0 -0.82966592206E+01  0.26499478671E+02 -0.40321608743E+02  0.48958033617E+02  0.00000000000E+00 0.  1.
         12    1    4    4    0    0 -0.35485483327E+03  0.19340311893E+03 -0.48252894743E+03  0.62941314271E+03  0.00000000000E+00 0. -1.
        -11    1    3    3    0    0  0.34444498005E+03 -0.13720928362E+03 -0.16286608414E+03  0.40496184161E+03  0.00000000000E+00 0.  1.
         11    1    3    3    0    0  0.41493697605E+02 -0.44969029346E+02 -0.52209706838E+00  0.61189975704E+02  0.00000000000E+00 0. -1.
          1    1    1    2  501    0 -0.22787185165E+02 -0.37724284630E+02  0.26299765532E+01  0.44150812397E+02  0.00000000000E+00 0. -1.
<scales pt_clust_5="13000.00000" pt_clust_6="13000.00000" pt_clust_7="13000.00000" pt_clust_8="13000.00000" pt_clust_9="44.07243"></scales>
<clustering>
<clus scale="   44.072">  2  9  1 -1</clus>
<clus scale="   81.109">  5  6 -1 -1</clus>
<clus scale="   92.001">  7  8 -1 -1</clus>
<clus scale="  433.156">  2  5  1 -1</clus>
<clus scale="   44.072">  2  5  1 -1</clus>
</clustering>
</event>
<event>
 9    2  0.7820252E-005  0.9433219E+02  0.7546771E-02  0.1300924E+00
         21   -1    0    0  501  502  0.00000000000E+00  0.00000000000E+00  0.69690759109E+02  0.69690759109E+02  0.00000000000E+00 0.  1.
          2   -1    0    0  502    0 -0.00000000000E+00 -0.00000000000E+00 -0.22536908838E+03  0.22536908838E+03  0.00000000000E+00 0. -1.
         24    2    1    2    0    0  0.18565404548E+02  0.17141072298E+02 -0.10367349664E+03  0.13168457373E+03  0.77163089931E+02 0.  0.
         23    2    1    2    0    0 -0.34185697379E+02  0.10977920413E+02  0.48866577583E+01  0.98019991049E+02  0.91076136168E+02 0.  0.
        -13    1    3    3    0    0 -0.17036348049E+02  0.28723629094E+02 -0.17441594819E+02  0.37676162929E+02  0.00000000000E+00 0.  1.
         14    1    3    3    0    0  0.35601752597E+02 -0.11582556796E+02 -0.86231901824E+02  0.94008410805E+02  0.00000000000E+00 0. -1.
        -13    1    4    4    0    0 -0.76894575587E+01 -0.33330461817E+02 -0.21132702688E+02  0.40207444154E+02  0.00000000000E+00 0. -1.
         13    1    4    4    0    0 -0.26496239820E+02  0.44308382230E+02  0.26019360447E+02  0.57812546895E+02  0.00000000000E+00 0.  1.
          1    1    1    2  501    0  0.15620292831E+02 -0.28118992711E+02 -0.56891490385E+02  0.65355282705E+02  0.00000000000E+00 0. -1.
<scales pt_clust_5="13000.00000" pt_clust_6="13000.00000" pt_clust_7="13000.00000" pt_clust_8="13000.00000" pt_clust_9="32.16632"></scales>
<clustering>
<clus scale="   32.166">  1  9  2 -1</clus>
<clus scale="   77.163">  5  6 -1 -1</clus>
<clus scale="   80.981">  2  5  1 -1</clus>
<clus scale="   91.076">  7  8 -1 -1</clus>
<clus scale="   32.166">  1  5  2 -1</clus>
</clustering>
</event>
<event>
 9    2  0.7820252E-005  0.1022407E+03  0.7546771E-02  0.1285931E+00
          4   -1    0    0  502    0 -0.00000000000E+00  0.00000000000E+00  0.25861430494E+03  0.25861430494E+03  0.00000000000E+00 0. -1.
         21   -1    0    0  501  502  0.00000000000E+00 -0.00000000000E+00 -0.10919569476E+03  0.10919569476E+03  0.00000000000E+00 0. -1.
         24    2    1    2    0    0  0.57994151941E+01 -0.37354853449E+02  0.76277780140E+02  0.11628759850E+03  0.79217974784E+02 0.  0.
         23    2    1    2    0    0 -0.40669242198E+02 -0.23278168267E+02 -0.42093658153E+02  0.11672160215E+03  0.98265945132E+02 0.  0.
        -13    1    3    3    0    0  0.41509013238E+02 -0.30157566586E+02  0.46330221028E+02  0.69130068587E+02  0.00000000000E+00 0.  1.
         14    1    3    3    0    0 -0.35709598044E+02 -0.71972868631E+01  0.29947559111E+02  0.47157529912E+02  0.00000000000E+00 0. -1.
        -13    1    4    4    0    0 -0.56717392489E+02 -0.77206324397E+01  0.11740268266E+02  0.58432051778E+02  0.00000000000E+00 0.  1.
         13    1    4    4    0    0  0.16048150291E+02 -0.15557535827E+02 -0.53833926419E+02  0.58289550371E+02  0.00000000000E+00 0. -1.
          3    1    1    2  501    0  0.34869827004E+02  0.60633021715E+02  0.11523448819E+03  0.13480079906E+03  0.00000000000E+00 0. -1.
<scales pt_clust_5="13000.00000" pt_clust_6="13000.00000" pt_clust_7="13000.00000" pt_clust_8="13000.00000" pt_clust_9="69.94479"></scales>
<clustering>
<clus scale="   69.945">  2  9  1 -1</clus>
<clus scale="   79.218">  5  6 -1 -1</clus>
<clus scale="   84.098">  1  5  2 -1</clus>
<clus scale="   98.266">  7  8 -1 -1</clus>
<clus scale="   69.945">  2  5  1 -1</clus>
</clustering>
</event>
<event>
 9    2  0.7820252E-005  0.9756999E+02  0.7546771E-02  0.1298276E+00
         -3   -1    0    0    0  501 -0.00000000000E+00  0.00000000000E+00  0.46203867368E+03  0.46203867368E+03  0.00000000000E+00 0.  1.
         21   -1    0    0  501  502  0.00000000000E+00 -0.00000000000E+00 -0.35572802183E+02  0.35572802183E+02  0.00000000000E+00 0. -1.
         23    2    1    2    0    0 -0.21140115595E+02  0.27084569664E+01  0.28190959422E+03  0.29793411993E+03  0.94007873507E+02 0.  0.
         24    2    1    2    0    0  0.42325639686E+02  0.10353373068E+02  0.42226705776E+02  0.94364588239E+02  0.72269832739E+02 0.  0.
        -11    1    4    4    0    0  0.19746058641E+02  0.31435615240E+02  0.50224052519E+02  0.62454464923E+02  0.00000000000E+00 0.  1.
         12    1    4    4    0    0  0.22579581045E+02 -0.21082242172E+02 -0.79973467422E+01  0.31910123316E+02  0.00000000000E+00 0. -1.
        -11    1    3    3    0    0  0.35988252956E+02  0.21046625322E+01  0.14836755453E+03  0.15268436460E+03  0.00000000000E+00 0.  1.
         11    1    3    3    0    0 -0.57128368551E+02  0.60379443419E+00  0.13354203968E+03  0.14524975533E+03  0.00000000000E+00 0. -1.
         -4    1    1    2    0  502 -0.21185524091E+02 -0.13061830035E+02  0.10232957150E+03  0.10531276769E+03  0.00000000000E+00 0.  1.
<scales pt_clust_5="13000.00000" pt_clust_6="13000.00000" pt_clust_7="13000.00000" pt_clust_8="13000.00000" pt_clust_9="24.88852"></scales>
<clustering>
<clus scale="   24.889">  2  9  1 -1</clus>
<clus scale="   72.270">  5  6 -1 -1</clus>
<clus scale="   76.846">  2  5  1 -1</clus>
<clus scale="   94.008">  7  8 -1 -1</clus>
<clus scale="   24.889">  2  5  1 -1</clus>
</clustering>
</event>
<event>
 9    2  0.7820252E-005  0.9557764E+02  0.7546771E-02  0.1295099E+00
         21   -1    0    0  501  502  0.00000000000E+00  0.00000000000E+00  0.20839271578E+03  0.20839271578E+03  0.00000000000E+00 0.  1.
         -3   -1    0    0    0  501 -0.00000000000E+00 -0.00000000000E+00 -0.11695864273E+03  0.11695864273E+03  0.00000000000E+00 0.  1.
         24    2    1    2    0    0 -0.16544057598E+02  0.52525653509E+02 -0.38309155388E+02  0.10271817380E+03  0.77786770874E+02 0.  0.
         23    2    1    2    0    0 -0.20571846350E+02  0.19135603345E+02  0.10190851464E+03  0.13726517343E+03  0.87561465846E+02 0.  0.
        -11    1    3    3    0    0 -0.14909836147E+02  0.51542101363E+02 -0.60259460905E+02  0.80685153873E+02  0.00000000000E+00 0.  1.
         12    1    3    3    0    0 -0.16342214515E+01  0.98355214565E+00  0.21950305518E+02  0.22033019922E+02  0.00000000000E+00 0. -1.
        -11    1    4    4    0    0  0.78816117908E+01 -0.29336553952E+02  0.15288159033E+02  0.34007072924E+02  0.00000000000E+00 0. -1.
         11    1    4    4    0    0 -0.28453458140E+02  0.48472157297E+02  0.86620355610E+02  0.10325810050E+03  0.00000000000E+00 0.  1.
         -4    1    1    2    0  502  0.37115903948E+02 -0.71661256853E+02  0.27834713794E+02  0.85368011290E+02  0.00000000000E+00 0.  1.
<scales pt_clust_5="13000.00000" pt_clust_6="13000.00000" pt_clust_7="13000.00000" pt_clust_8="13000.00000" pt_clust_9="80.70270"></scales>
<clustering>
<clus scale="   77.787">  5  6 -1 -1</clus>
<clus scale="   80.703">  1  9  2 -1</clus>
<clus scale="   86.711">  2  5  1 -1</clus>
<clus scale="   87.561">  7  8 -1 -1</clus>
<clus scale="   80.703">  1  5  2 -1</clus>
</clustering>
</event>
<event>
 9    2  0.7820252E-005  0.1022829E+03  0.7546771E-02  0.1287100E+00
         21   -1    0    0  501  502  0.00000000000E+00  0.00000000000E+00  0.27317560530E+03  0.27317560530E+03  0.00000000000E+00 0. -1.
          2   -1    0    0  502    0 -0.00000000000E+00 -0.00000000000E+00 -0.17389332194E+03  0.17389332194E+03  0.00000000000E+00 0. -1.
         24    2    1    2    0    0  0.14669760552E+00  0.86328616057E+01 -0.10139696715E+03  0.12962188712E+03  0.80286616905E+02 0.  0.
         23    2    1    2    0    0 -0.20999220762E+02 -0.52656595664E+02  0.49385302371E+01  0.11573599319E+03  0.10078068614E+03 0.  0.
        -13    1    3    3    0    0 -0.24828108181E+02  0.71457002762E+01 -0.68099562559E+00  0.25844917166E+02  0.00000000000E+00 0.  1.
         14    1    3    3    0    0  0.24974805787E+02  0.14871613295E+01 -0.10071597153E+03  0.10377696996E+03  0.00000000000E+00 0. -1.
        -13    1    4    4    0    0  0.37735245005E+02 -0.18870526441E+01 -0.16727964936E+01  0.37819412098E+02  0.00000000000E+00 0. -1.
         13    1    4    4    0    0 -0.58734465767E+02 -0.50769543020E+02  0.66113267308E+01  0.77916581089E+02  0.00000000000E+00 0.  1.
          1    1    1    2  501    0  0.20852523156E+02  0.44023734058E+02  0.19574072027E+03  0.20171104693E+03  0.00000000000E+00 0. -1.
<scales pt_clust_5="13000.00000" pt_clust_6="13000.00000" pt_clust_7="13000.00000" pt_clust_8="13000.00000" pt_clust_9="48.71259"></scales>
<clustering>
<clus scale="   48.713">  1  9  2 -1</clus>
<clus scale="   80.287">  5  6 -1 -1</clus>
<clus scale="   82.164">  2  5  1 -1</clus>
<clus scale="  100.781">  7  8 -1 -1</clus>
<clus scale="   48.713">  1  5  2 -1</clus>
</clustering>
</event>
<event>
 9    2  0.7820252E-005  0.1608354E+03  0.7546771E-02  0.1189928E+00
          2   -1    0    0  502    0 -0.00000000000E+00  0.00000000000E+00  0.59339891150E+03  0.59339891150E+03  0.00000000000E+00 0. -1.
         21   -1    0    0  501  502  0.00000000000E+00 -0.00000000000E+00 -0.10590602514E+03  0.10590602514E+03  0.00000000000E+00 0.  1.
         23    2    1    2    0    0 -0.12050407308E+03 -0.45417169856E+02  0.47719866708E+03  0.50264972094E+03  0.91401439551E+02 0.  0.
         24    2    1    2    0    0  0.89191270220E+02  0.44406335854E+02  0.44333572382E+02  0.15039301765E+03  0.10356441845E+03 0.  0.
        -11    1    4    4    0    0  0.72895367855E+02 -0.21330816406E+02  0.21875543950E+02  0.79039722965E+02  0.00000000000E+00 0.  1.
         12    1    4    4    0    0  0.16295902366E+02  0.65737152260E+02  0.22458028432E+02  0.71353294683E+02  0.00000000000E+00 0. -1.
        -13    1    3    3    0    0 -0.70223254758E+02 -0.15848166755E+02  0.39704202534E+03  0.40351560042E+03  0.00000000000E+00 0. -1.
         13    1    3    3    0    0 -0.50280818326E+02 -0.29569003101E+02  0.80156641738E+02  0.99134120517E+02  0.00000000000E+00 0.  1.
          1    1    1    2  501    0  0.31312802864E+02  0.10108340020E+01 -0.34039353104E+02  0.46262198049E+02  0.00000000000E+00 0. -1.
<scales pt_clust_5="13000.00000" pt_clust_6="13000.00000" pt_clust_7="13000.00000" pt_clust_8="13000.00000" pt_clust_9="31.32911"></scales>
<clustering>
<clus scale="   31.329">  2  9  1 -1</clus>
<clus scale="   91.401">  7  8 -1 -1</clus>
<clus scale="  103.564">  5  6 -1 -1</clus>
<clus scale="  153.286">  1  7  2 -1</clus>
<clus scale="   31.329">  2  5  1 -1</clus>
</clustering>
</event>
<event>
 9    2  0.7820252E-005  0.1035022E+03  0.7546771E-02  0.1278827E+00
         -3   -1    0    0    0  501 -0.00000000000E+00  0.00000000000E+00  0.59788386428E+03  0.59788386428E+03  0.00000000000E+00 0.  1.
         21   -1    0    0  501  502  0.00000000000E+00 -0.00000000000E+00 -0.26239001733E+02  0.26239001733E+02  0.00000000000E+00 0.  1.
         24    2    1    2    0    0 -0.22166031835E+01 -0.46202093550E+02  0.37010114188E+03  0.38159210986E+03  0.80611018562E+02 0.  0.
         23    2    1    2    0    0  0.30314840728E+02  0.41095393696E+02  0.15028817560E+03  0.18385605771E+03  0.92783044138E+02 0.  0.
        -11    1    3    3    0    0 -0.23952623180E+02 -0.23365725755E+02  0.51380092464E+02  0.61315570607E+02  0.00000000000E+00 0.  1.
         12    1    3    3    0    0  0.21736019997E+02 -0.22836367795E+02  0.31872104941E+03  0.32027653926E+03  0.00000000000E+00 0. -1.
        -13    1    4    4    0    0 -0.70703650398E+01  0.25813253955E+02  0.13951067785E+03  0.14205471965E+03  0.00000000000E+00 0.  1.
         13    1    4    4    0    0  0.37385205768E+02  0.15282139740E+02  0.10777497747E+02  0.41801338053E+02  0.00000000000E+00 0. -1.
         -4    1    1    2    0  502 -0.28098237544E+02  0.51066998548E+01  0.51255545069E+02  0.58674698438E+02  0.00000000000E+00 0.  1.
<scales pt_clust_5="13000.00000" pt_clust_6="13000.00000" pt_clust_7="13000.00000" pt_clust_8="13000.00000" pt_clust_9="28.55852"></scales>
<clustering>
<clus scale="   28.559">  2  9  1 -1</clus>
<clus scale="   80.611">  5  6 -1 -1</clus>
<clus scale="   92.748">  1  5  2 -1</clus>
<clus scale="   92.783">  7  8 -1 -1</clus>
<clus scale="   28.559">  2  5  1 -1</clus>
</clustering>
</event>
<event>
 9    2  0.7820252E-005  0.1065045E+03  0.7546771E-02  0.1272691E+00
          2   -1    0    0  502    0 -0.00000000000E+00  0.00000000000E+00  0.20286980563E+03  0.20286980563E+03  0.00000000000E+00 0. -1.
         21   -1    0    0  501  502  0.00000000000E+00 -0.00000000000E+00 -0.33190308274E+03  0.33190308274E+03  0.00000000000E+00 0. -1.
         23    2    1    2    0    0 -0.58923204896E+02  0.40298082934E+02  0.12962924690E+03  0.17513323539E+03  0.93659110200E+02 0.  0.
         24    2    1    2    0    0  0.23319937198E+02  0.44630592562E+02 -0.11950526192E+02  0.96300931051E+02  0.81211729336E+02 0.  0.
        -13    1    4    4    0    0  0.47087073440E+02  0.49476323583E+02 -0.19264144374E+02  0.70966233793E+02  0.00000000000E+00 0.  1.
         14    1    4    4    0    0 -0.23767136241E+02 -0.48457310204E+01  0.73136181820E+01  0.25334697258E+02  0.00000000000E+00 0. -1.
        -11    1    3    3    0    0 -0.58697995451E+02  0.15297497305E+02  0.13635857673E+03  0.14924184916E+03  0.00000000000E+00 0. -1.
         11    1    3    3    0    0 -0.22520944463E+00  0.25000585629E+02 -0.67293298256E+01  0.25891386231E+02  0.00000000000E+00 0.  1.
          1    1    1    2  501    0  0.35603267697E+02 -0.84928675496E+02 -0.24671199782E+03  0.26333872192E+03  0.00000000000E+00 0. -1.
<scales pt_clust_5="13000.00000" pt_clust_6="13000.00000" pt_clust_7="13000.00000" pt_clust_8="13000.00000" pt_clust_9="92.08948"></scales>
<clustering>
<clus scale="   81.212">  5  6 -1 -1</clus>
<clus scale="   92.089">  2  9  1 -1</clus>
<clus scale="   93.659">  7  8 -1 -1</clus>
<clus scale="   95.742">  2  5  1 -1</clus>
<clus scale="   92.089">  2  5  1 -1</clus>
</clustering>
</event>
<event>
 9    2  0.7820252E-005  0.2147714E+03  0.7546771E-02  0.1149393E+00
          2   -1    0    0  502    0 -0.00000000000E+00  0.00000000000E+00  0.41167906320E+03  0.41167906320E+03  0.00000000000E+00 0. -1.
         21   -1    0    0  501  502  0.00000000000E+00 -0.00000000000E+00 -0.30811641499E+03  0.30811641499E+03  0.00000000000E+00 0. -1.
         23    2    1    2    0    0 -0.12032308601E+03  0.67750930092E+02 -0.13469747473E+03  0.21132814089E+03  0.86303765145E+02 0.  0.
         24    2    1    2    0    0 -0.13289927944E+03  0.60636055077E+02  0.10458773933E+03  0.19466311414E+03  0.74941197884E+02 0.  0.
        -11    1    4    4    0    0 -0.85166981192E+02  0.73507555759E+02  0.86902497987E+02  0.14215772788E+03  0.00000000000E+00 0.  1.
         12    1    4    4    0    0 -0.47732298247E+02 -0.12871500682E+02  0.17685241339E+02  0.52505386266E+02  0.00000000000E+00 0. -1.
        -13    1    3    3    0    0 -0.89867712542E+02  0.25394397540E+02 -0.12841635253E+03  0.15878236923E+03  0.00000000000E+00 0. -1.
         13    1    3    3    0    0 -0.30455373470E+02  0.42356532552E+02 -0.62811222084E+01  0.52545771659E+02  0.00000000000E+00 0.  1.
          1    1    1    2  501    0  0.25322236545E+03 -0.12838698517E+03  0.13367238361E+03  0.31380422315E+03  0.00000000000E+00 0. -1.
<scales pt_clust_5="13000.00000" pt_clust_6="13000.00000" pt_clust_7="13000.00000" pt_clust_8="13000.00000" pt_clust_9="201.27253"></scales>
<clustering>
<clus scale="   74.941">  5  6 -1 -1</clus>
<clus scale="   86.304">  7  8 -1 -1</clus>
<clus scale="  162.838">  1  7  2 -1</clus>
<clus scale="  201.273">  2  9  1 -1</clus>
<clus scale="  201.273">  2  5  1 -1</clus>
</clustering>
</event>
<event>
 9    2  0.7820252E-005  0.1004606E+03  0.7546771E-02  0.1285894E+00
          4   -1    0    0  502    0 -0.00000000000E+00  0.00000000000E+00  0.17008327515E+03  0.17008327515E+03  0.00000000000E+00 0. -1.
         21   -1    0    0  501  502  0.00000000000E+00 -0.00000000000E+00 -0.31733594605E+03  0.31733594605E+03  0.00000000000E+00 0. -1.
         24    2    1    2    0    0  0.31163598696E+02 -0.10176432936E+02  0.14323358869E+03  0.16879367261E+03  0.83070532159E+02 0.  0.
         23    2    1    2    0    0 -0.76804578298E+01  0.20482144558E+01 -0.16600529633E+03  0.19168841433E+03  0.95517041211E+02 0.  0.
        -13    1    3    3    0    0 -0.18353545849E+01 -0.34128369572E+02  0.21416309085E+02  0.40333267050E+02  0.00000000000E+00 0.  1.
         14    1    3    3    0    0  0.32998953281E+02  0.23951936636E+02  0.12181727961E+03  0.12846040556E+03  0.00000000000E+00 0. -1.
        -13    1    4    4    0    0  0.44655510573E+01  0.45036914633E+02 -0.11663437421E+03  0.12510732222E+03  0.00000000000E+00 0. -1.
         13    1    4    4    0    0 -0.12146008887E+02 -0.42988700177E+02 -0.49370922122E+02  0.66581092106E+02  0.00000000000E+00 0.  1.
          3    1    1    2  501    0 -0.23483140866E+02  0.81282184806E+01 -0.12448096326E+03  0.12693713427E+03  0.00000000000E+00 0. -1.
<scales pt_clust_5="13000.00000" pt_clust_6="13000.00000" pt_clust_7="13000.00000" pt_clust_8="13000.00000" pt_clust_9="24.85007"></scales>
<clustering>
<clus scale="   24.850">  2  9  1 -1</clus>
<clus scale="   83.071">  5  6 -1 -1</clus>
<clus scale="   88.710">  1  5  2 -1</clus>
<clus scale="   95.517">  7  8 -1 -1</clus>
<clus scale="   24.850">  2  5  1 -1</clus>
</clustering>
</event>
<event>
 9    2  0.7820252E-005  0.2639958E+03  0.7546771E-02  0.1145116E+00
         -3   -1    0    0    0  501 -0.00000000000E+00  0.00000000000E+00  0.77860160446E+03  0.77860160446E+03  0.00000000000E+00 0.  1.
         21   -1    0    0  501  502  0.00000000000E+00 -0.00000000000E+00 -0.14702909463E+03  0.14702909463E+03  0.00000000000E+00 0.  1.
         24    2    1    2    0    0 -0.95437724866E+01 -0.47941629456E+02  0.26249706727E+03  0.27987260586E+03  0.83871817428E+02 0.  0.
         23    2    1    2    0    0 -0.50498478580E+02  0.27342567725E+03  0.25141085512E+03  0.38442864050E+03  0.85242385274E+02 0.  0.
        -13    1    3    3    0    0 -0.28443065092E+02 -0.65204562776E+02  0.18223643973E+03  0.19562914641E+03  0.00000000000E+00 0.  1.
         14    1    3    3    0    0  0.18899292605E+02  0.17262933321E+02  0.80260627539E+02  0.84243459454E+02  0.00000000000E+00 0. -1.
        -11    1    4    4    0    0 -0.61626360099E+02  0.25057488861E+03  0.24950567988E+03  0.35894103604E+03  0.00000000000E+00 0.  1.
         11    1    4    4    0    0  0.11127881519E+02  0.22850788638E+02  0.19051752419E+01  0.25487604462E+02  0.00000000000E+00 0. -1.
         -4    1    1    2    0  502  0.60042251067E+02 -0.22548404779E+03  0.11766458744E+03  0.26132945272E+03  0.00000000000E+00 0.  1.
<scales pt_clust_5="13000.00000" pt_clust_6="13000.00000" pt_clust_7="13000.00000" pt_clust_8="13000.00000" pt_clust_9="249.85500"></scales>
<clustering>
<clus scale="   83.872">  5  6 -1 -1</clus>
<clus scale="   85.242">  7  8 -1 -1</clus>
<clus scale="   97.077">  1  5  2 -1</clus>
<clus scale="  249.855">  2  9  1 -1</clus>
<clus scale="  249.855">  2  5  1 -1</clus>
</clustering>
</event>
<event>
 9    2  0.7820252E-005  0.9274590E+02  0.7546771E-02  0.1304158E+00
         -1   -1    0    0    0  501 -0.00000000000E+00  0.00000000000E+00  0.13868981874E+03  0.13868981874E+03  0.00000000000E+00 0.  1.
         21   -1    0    0  501  502  0.00000000000E+00 -0.00000000000E+00 -0.17465971606E+03  0.17465971606E+03  0.00000000000E+00 0.  1.
         23    2    1    2    0    0  0.47047739930E+01 -0.82294505264E+01  0.70776469270E+02  0.11691532282E+03  0.92574431420E+02 0.  0.
         24    2    1    2    0    0  0.96760767145E+00 -0.30156872196E+02 -0.29721009377E+01  0.85642588221E+02  0.80096481370E+02 0.  0.
        -13    1    4    4    0    0 -0.31856241839E+02 -0.29868555656E+02 -0.20710845465E+02  0.48331044691E+02  0.00000000000E+00 0.  1.
         14    1    4    4    0    0  0.32823849511E+02 -0.28831654071E+00  0.17738744528E+02  0.37311543529E+02  0.00000000000E+00 0. -1.
        -13    1    3    3    0    0  0.15398195570E+02 -0.38836358953E+02  0.31225857982E+01  0.41894125431E+02  0.00000000000E+00 0.  1.
         13    1    3    3    0    0 -0.10693421577E+02  0.30606908427E+02  0.67653883472E+02  0.75021197387E+02  0.00000000000E+00 0. -1.
         -2    1    1    2    0  502 -0.56723816644E+01  0.38386322723E+02 -0.10377426565E+03  0.11079162377E+03  0.00000000000E+00 0.  1.
<scales pt_clust_5="13000.00000" pt_clust_6="13000.00000" pt_clust_7="13000.00000" pt_clust_8="13000.00000" pt_clust_9="38.80317"></scales>
<clustering>
<clus scale="   38.803">  2  9  1 -1</clus>
<clus scale="   80.096">  5  6 -1 -1</clus>
<clus scale="   80.295">  2  5  1 -1</clus>
<clus scale="   92.574">  7  8 -1 -1</clus>
<clus scale="   38.803">  2  5  1 -1</clus>
</clustering>
</event>
<event>
 9    2  0.7820252E-005  0.9979772E+02  0.7546771E-02  0.1289179E+00
          2   -1    0    0  502    0 -0.00000000000E+00  0.00000000000E+00  0.17002812426E+03  0.17002812426E+03  0.00000000000E+00 0. -1.
         21   -1    0    0  501  502  0.00000000000E+00 -0.00000000000E+00 -0.26683319446E+03  0.26683319446E+03  0.00000000000E+00 0.  1.
         24    2    1    2    0    0 -0.10563493193E+02 -0.18819264426E+02  0.11476467854E+03  0.14248335896E+03  0.81638373559E+02 0.  0.
         23    2    1    2    0    0  0.38778253357E+02  0.16329314701E+02 -0.28884150767E+02  0.10950962758E+03  0.96889962919E+02 0.  0.
        -13    1    3    3    0    0  0.87787738745E+01  0.29148650204E+02  0.59225296186E+02  0.66590888174E+02  0.00000000000E+00 0.  1.
         14    1    3    3    0    0 -0.19342267068E+02 -0.47967914630E+02  0.55539382355E+02  0.75892470784E+02  0.00000000000E+00 0. -1.
        -11    1    4    4    0    0  0.15565995190E+02 -0.39317624318E+02 -0.24924140153E+02  0.49085522821E+02  0.00000000000E+00 0. -1.
         11    1    4    4    0    0  0.23212258167E+02  0.55646939020E+02 -0.39600106144E+01  0.60424104756E+02  0.00000000000E+00 0.  1.
          1    1    1    2  501    0 -0.28214760163E+02  0.24899497250E+01 -0.18268559797E+03  0.18486833219E+03  0.00000000000E+00 0. -1.
<scales pt_clust_5="13000.00000" pt_clust_6="13000.00000" pt_clust_7="13000.00000" pt_clust_8="13000.00000" pt_clust_9="28.32442"></scales>
<clustering>
<clus scale="   28.324">  2  9  1 -1</clus>
<clus scale="   81.638">  5  6 -1 -1</clus>
<clus scale="   85.069">  1  5  2 -1</clus>
<clus scale="   96.890">  7  8 -1 -1</clus>
<clus scale="   28.324">  2  5  1 -1</clus>
</clustering>
</event>
<event>
 9    2  0.7820252E-005  0.1704321E+03  0.7546771E-02  0.1178968E+00
         21   -1    0    0  501  502  0.00000000000E+00  0.00000000000E+00  0.29739474112E+03  0.29739474112E+03  0.00000000000E+00 0.  1.
         -3   -1    0    0    0  501 -0.00000000000E+00 -0.00000000000E+00 -0.33314726678E+03  0.33314726678E+03  0.00000000000E+00 0.  1.
         23    2    1    2    0    0  0.58042195879E+02  0.11676444669E+03 -0.98068989466E+02  0.18696538753E+03  0.91300037942E+02 0.  0.
         24    2    1    2    0    0 -0.90861268325E+02 -0.19673978210E+03  0.18335260958E+03  0.29483895071E+03  0.79683846975E+02 0.  0.
        -13    1    4    4    0    0 -0.51824661716E+02 -0.17628368104E+03  0.12728936642E+03  0.22352698846E+03  0.00000000000E+00 0.  1.
         14    1    4    4    0    0 -0.39036606609E+02 -0.20456101059E+02  0.56063243162E+02  0.71311962250E+02  0.00000000000E+00 0. -1.
        -11    1    3    3    0    0  0.70288281727E+02  0.95233796467E+02 -0.41871627673E+02  0.12555139084E+03  0.00000000000E+00 0.  1.
         11    1    3    3    0    0 -0.12246085848E+02  0.21530650222E+02 -0.56197361793E+02  0.61413996695E+02  0.00000000000E+00 0. -1.
         -4    1    1    2    0  502  0.32819072446E+02  0.79975335411E+02 -0.12103614578E+03  0.14873766966E+03  0.00000000000E+00 0.  1.
<scales pt_clust_5="13000.00000" pt_clust_6="13000.00000" pt_clust_7="13000.00000" pt_clust_8="13000.00000" pt_clust_9="86.44740"></scales>
<clustering>
<clus scale="   79.684">  5  6 -1 -1</clus>
<clus scale="   86.447">  1  9  2 -1</clus>
<clus scale="   91.300">  7  8 -1 -1</clus>
<clus scale="  164.502">  1  5  2 -1</clus>
<clus scale="   86.447">  1  5  2 -1</clus>
</clustering>
</event>
<event>
 9    2  0.7820252E-005  0.1311900E+03  0.7546771E-02  0.1243034E+00
         21   -1    0    0  501  502  0.00000000000E+00  0.00000000000E+00  0.10998327961E+03  0.10998327961E+03  0.00000000000E+00 0. -1.
          2   -1    0    0  502    0 -0.00000000000E+00 -0.00000000000E+00 -0.48796165975E+03  0.48796165975E+03  0.00000000000E+00 0. -1.
         23    2    1    2    0    0 -0.54742276842E+01 -0.30060716610E+00 -0.37572217589E+02  0.99335676932E+02  0.91792416046E+02 0.  0.
         24    2    1    2    0    0 -0.66574196335E+02  0.75016322748E+02 -0.36911873017E+03  0.39091606349E+03  0.80666966215E+02 0.  0.
        -13    1    4    4    0    0 -0.60627295515E+02  0.60125320465E+02 -0.16153222048E+03  0.18271119664E+03  0.00000000000E+00 0.  1.
         14    1    4    4    0    0 -0.59469008198E+01  0.14891002283E+02 -0.20758650969E+03  0.20820486685E+03  0.00000000000E+00 0. -1.
        -13    1    3    3    0    0  0.15630252974E+02  0.32448722551E+02 -0.47036306851E+02  0.59242202571E+02  0.00000000000E+00 0.  1.
         13    1    3    3    0    0 -0.21104480658E+02 -0.32749329717E+02  0.94640892627E+01  0.40093474361E+02  0.00000000000E+00 0. -1.
          1    1    1    2  501    0  0.72048424019E+02 -0.74715715582E+02  0.28712567611E+02  0.10769319894E+03  0.00000000000E+00 0. -1.
<scales pt_clust_5="13000.00000" pt_clust_6="13000.00000" pt_clust_7="13000.00000" pt_clust_8="13000.00000" pt_clust_9="103.45846"></scales>
<clustering>
<clus scale="   80.667">  5  6 -1 -1</clus>
<clus scale="   91.792">  7  8 -1 -1</clus>
<clus scale="   91.956">  2  7  1 -1</clus>
<clus scale="  103.458">  1  9  2 -1</clus>
<clus scale="  103.458">  1  5  2 -1</clus>
</clustering>
</event>
<event>
 9    2  0.7820252E-005  0.9904942E+02  0.7546771E-02  0.1287053E+00
          2   -1    0    0  502    0 -0.00000000000E+00  0.00000000000E+00  0.51415550592E+03  0.51415550592E+03  0.00000000000E+00 0. -1.
         21   -1    0    0  501  502  0.00000000000E+00 -0.00000000000E+00 -0.77018788275E+03  0.77018788275E+03  0.00000000000E+00 0. -1.
         24    2    1    2    0    0  0.49904833735E+01  0.39465616843E+02  0.50058272439E+03  0.50876048125E+03  0.81680618828E+02 0.  0.
         23    2    1    2    0    0  0.32534827912E+02  0.13435606432E+02 -0.33196851482E+03  0.34601171221E+03  0.91005382292E+02 0.  0.
        -13    1    3    3    0    0  0.87569704077E+01  0.47875175339E+02  0.14293004679E+03  0.15098912285E+03  0.00000000000E+00 0.  1.
         14    1    3    3    0    0 -0.37664870343E+01 -0.84095584955E+01  0.35765267760E+03  0.35777135840E+03  0.00000000000E+00 0. -1.
        -11    1    4    4    0    0  0.47179084703E+02 -0.25925368347E+02 -0.21809724323E+03  0.22464282375E+03  0.00000000000E+00 0.  1.
         11    1    4    4    0    0 -0.14644256790E+02  0.39360974779E+02 -0.11387127160E+03  0.12136888847E+03  0.00000000000E+00 0. -1.
          1    1    1    2  501    0 -0.37525311286E+02 -0.52901223275E+02 -0.42464658640E+03  0.42957119521E+03  0.00000000000E+00 0. -1.
<scales pt_clust_5="13000.00000" pt_clust_6="13000.00000" pt_clust_7="13000.00000" pt_clust_8="13000.00000" pt_clust_9="64.85899"></scales>
<clustering>
<clus scale="   64.859">  2  9  1 -1</clus>
<clus scale="   81.681">  5  6 -1 -1</clus>
<clus scale="   90.557">  1  5  2 -1</clus>
<clus scale="   91.005">  7  8 -1 -1</clus>
<clus scale="   64.859">  2  5  1 -1</clus>
</clustering>
</event>
<event>
 9    2  0.7820252E-005  0.1005003E+03  0.7546771E-02  0.1286788E+00
         21   -1    0    0  501  502  0.00000000000E+00  0.00000000000E+00  0.32271516037E+02  0.32271516037E+02  0.00000000000E+00 0.  1.
          2   -1    0    0  502    0 -0.00000000000E+00 -0.00000000000E+00 -0.65710488120E+03  0.65710488120E+03  0.00000000000E+00 0. -1.
         24    2    1    2    0    0  0.12437179643E+02 -0.33753849944E+02 -0.51903563002E+03  0.52646324151E+03  0.80445966981E+02 0.  0.
         23    2    1    2    0    0  0.48869325297E+01  0.18800537226E+02 -0.66344476602E+02  0.11730300299E+03  0.94768468515E+02 0.  0.
        -11    1    3    3    0    0 -0.20474229216E+02 -0.27865279323E+02 -0.94751707389E+02  0.10086403674E+03  0.00000000000E+00 0.  1.
         12    1    3    3    0    0  0.32911408859E+02 -0.58885706214E+01 -0.42428392264E+03  0.42559920477E+03  0.00000000000E+00 0. -1.
        -13    1    4    4    0    0 -0.44585743801E+02  0.57809734696E+01 -0.37691090969E+02  0.58667934538E+02  0.00000000000E+00 0.  1.
         13    1    4    4    0    0  0.49472676331E+02  0.13019563756E+02 -0.28653385633E+02  0.58635068449E+02  0.00000000000E+00 0. -1.
          1    1    1    2  501    0 -0.17324112172E+02  0.14953312719E+02 -0.39453258540E+02  0.45610152743E+02  0.00000000000E+00 0. -1.
<scales pt_clust_5="13000.00000" pt_clust_6="13000.00000" pt_clust_7="13000.00000" pt_clust_8="13000.00000" pt_clust_9="22.88507"></scales>
<clustering>
<clus scale="   22.885">  1  9  2 -1</clus>
<clus scale="   80.446">  5  6 -1 -1</clus>
<clus scale="   87.125">  2  5  1 -1</clus>
<clus scale="   94.768">  7  8 -1 -1</clus>
<clus scale="   22.885">  1  5  2 -1</clus>
</clustering>
</event>
<event>
 9    2  0.7820252E-005  0.1070822E+03  0.7546771E-02  0.1271294E+00
         21   -1    0    0  501  502  0.00000000000E+00  0.00000000000E+00  0.35187103562E+03  0.35187103562E+03  0.00000000000E+00 0.  1.
          2   -1    0    0  502    0 -0.00000000000E+00 -0.00000000000E+00 -0.21854656611E+03  0.21854656611E+03  0.00000000000E+00 0. -1.
         24    2    1    2    0    0 -0.28432098474E+02  0.42917163450E+02 -0.16360335415E+03  0.18929971015E+03  0.80112768216E+02 0.  0.
         23    2    1    2    0    0  0.21118915760E+02 -0.73166176369E+02  0.45892452013E+02  0.12816089278E+03  0.92302759002E+02 0.  0.
        -13    1    3    3    0    0  0.22005552834E+02 -0.38930154933E+01 -0.19702896949E+02  0.29792684897E+02  0.00000000000E+00 0.  1.
         14    1    3    3    0    0 -0.50437651309E+02  0.46810178943E+02 -0.14390045720E+03  0.15950702525E+03  0.00000000000E+00 0. -1.
        -11    1    4    4    0    0 -0.27524595261E+02 -0.64024556729E+02  0.32437406276E+02  0.76869581334E+02  0.00000000000E+00 0. -1.
         11    1    4    4    0    0  0.48643511021E+02 -0.91416196400E+01  0.13455045737E+02  0.51291311447E+02  0.00000000000E+00 0.  1.
          1    1    1    2  501    0  0.73131827138E+01  0.30249012919E+02  0.25103537165E+03  0.25295699880E+03  0.00000000000E+00 0. -1.
<scales pt_clust_5="13000.00000" pt_clust_6="13000.00000" pt_clust_7="13000.00000" pt_clust_8="13000.00000" pt_clust_9="31.12050"></scales>
<clustering>
<clus scale="   31.120">  1  9  2 -1</clus>
<clus scale="   80.113">  5  6 -1 -1</clus>
<clus scale="   92.303">  7  8 -1 -1</clus>
<clus scale="   96.772">  2  5  1 -1</clus>
<clus scale="   31.120">  1  5  2 -1</clus>
</clustering>
</event>
<event>
 9    2  0.7820252E-005  0.1085741E+03  0.7546771E-02  0.1267458E+00
          4   -1    0    0  502    0 -0.00000000000E+00  0.00000000000E+00  0.53353818428E+02  0.53353818428E+02  0.00000000000E+00 0. -1.
         21   -1    0    0  501  502  0.00000000000E+00 -0.00000000000E+00 -0.10405358501E+04  0.10405358501E+04  0.00000000000E+00 0.  1.
         23    2    1    2    0    0 -0.47401152919E+02  0.31793853110E+02 -0.46440834824E+02  0.11672303923E+03  0.90607937592E+02 0.  0.
         24    2    1    2    0    0  0.85183900173E+02 -0.36404481431E+02 -0.92941970576E+03  0.93745554720E+03  0.80126964276E+02 0.  0.
        -11    1    4    4    0    0  0.79353873874E+02 -0.35994775530E+02 -0.47062398996E+03  0.47862260821E+03  0.00000000000E+00 0.  1.
         12    1    4    4    0    0  0.58300262998E+01 -0.40970590179E+00 -0.45879571580E+03  0.45883293899E+03  0.00000000000E+00 0. -1.
        -11    1    3    3    0    0 -0.17771917574E+02  0.61158385127E+02 -0.37996999206E+02  0.74161722433E+02  0.00000000000E+00 0.  1.
         11    1    3    3    0    0 -0.29629235345E+02 -0.29364532017E+02 -0.84438356178E+01  0.42561316798E+02  0.00000000000E+00 0. -1.
          3    1    1    2  501    0 -0.37782747254E+02  0.46106283215E+01 -0.11321491137E+02  0.39711082146E+02  0.00000000000E+00 0. -1.
<scales pt_clust_5="13000.00000" pt_clust_6="13000.00000" pt_clust_7="13000.00000" pt_clust_8="13000.00000" pt_clust_9="38.06304"></scales>
<clustering>
<clus scale="   38.063">  2  9  1 -1</clus>
<clus scale="   80.127">  5  6 -1 -1</clus>
<clus scale="   90.608">  7  8 -1 -1</clus>
<clus scale="   99.994">  2  5  1 -1</clus>
<clus scale="   38.063">  2  5  1 -1</clus>
</clustering>
</event>
<event>
 9    2  0.7820252E-005  0.9923868E+02  0.7546771E-02  0.1288216E+00
          2   -1    0    0  502    0 -0.00000000000E+00  0.00000000000E+00  0.24764348672E+03  0.24764348672E+03  0.00000000000E+00 0. -1.
         21   -1    0    0  501  502  0.00000000000E+00 -0.00000000000E+00 -0.10701954416E+03  0.10701954416E+03  0.00000000000E+00 0.  1.
         24    2    1    2    0    0 -0.35021566551E+02 -0.68217331138E+01  0.19606226182E+03  0.21471834243E+03  0.79940664873E+02 0.  0.
         23    2    1    2    0    0  0.51232884673E+02 -0.49176060670E+01 -0.56938795392E+02  0.11987305801E+03  0.92078945989E+02 0.  0.
        -11    1    3    3    0    0  0.59984870413E+01  0.30753201846E+02  0.59145729233E+02  0.66932492536E+02  0.00000000000E+00 0.  1.
         12    1    3    3    0    0 -0.41020053592E+02 -0.37574934959E+02  0.13691653259E+03  0.14778584990E+03  0.00000000000E+00 0. -1.
        -13    1    4    4    0    0  0.10102567027E+02 -0.45422871374E+02 -0.16417831239E+02  0.49344141364E+02  0.00000000000E+00 0. -1.
         13    1    4    4    0    0  0.41130317646E+02  0.40505265307E+02 -0.40520964153E+02  0.70528916645E+02  0.00000000000E+00 0.  1.
          1    1    1    2  501    0 -0.16211318122E+02  0.11739339181E+02  0.15004761353E+01  0.20071630435E+02  0.00000000000E+00 0. -1.
<scales pt_clust_5="13000.00000" pt_clust_6="13000.00000" pt_clust_7="13000.00000" pt_clust_8="13000.00000" pt_clust_9="20.01547"></scales>
<clustering>
<clus scale="   20.015">  2  9  1 -1</clus>
<clus scale="   79.941">  5  6 -1 -1</clus>
<clus scale="   88.093">  1  5  2 -1</clus>
<clus scale="   92.079">  7  8 -1 -1</clus>
<clus scale="   20.015">  2  5  1 -1</clus>
</clustering>
</event>
<event>
 9    2  0.7820252E-005  0.9732294E+02  0.7546771E-02  0.1291554E+00
         21   -1    0    0  501  502  0.00000000000E+00  0.00000000000E+00  0.31757252520E+02  0.31757252520E+02  0.00000000000E+00 0. -1.
          2   -1    0    0  502    0 -0.00000000000E+00 -0.00000000000E+00 -0.55655517966E+03  0.55655517966E+03  0.00000000000E+00 0. -1.
         23    2    1    2    0    0 -0.10764411487E+02  0.33095549327E+02 -0.34839144886E+03  0.36165919688E+03  0.90606760800E+02 0.  0.
         24    2    1    2    0    0 -0.24852748893E+02 -0.39911254655E+02 -0.16363137406E+03  0.18820535838E+03  0.80221337372E+02 0.  0.
        -11    1    4    4    0    0  0.12573688405E+02 -0.51783453317E+02 -0.10305034066E+03  0.11601291475E+03  0.00000000000E+00 0.  1.
         12    1    4    4    0    0 -0.37426437298E+02  0.11872198661E+02 -0.60581033396E+02  0.72192443629E+02  0.00000000000E+00 0. -1.
        -13    1    3    3    0    0 -0.29799222013E+02 -0.13300063175E+02 -0.54522301586E+02  0.63541849857E+02  0.00000000000E+00 0.  1.
         13    1    3    3    0    0  0.19034810526E+02  0.46395612501E+02 -0.29386914728E+03  0.29811734702E+03  0.00000000000E+00 0. -1.
          1    1    1    2  501    0  0.35617160379E+02  0.68157053285E+01 -0.12775104219E+02  0.38447876930E+02  0.00000000000E+00 0. -1.
<scales pt_clust_5="13000.00000" pt_clust_6="13000.00000" pt_clust_7="13000.00000" pt_clust_8="13000.00000" pt_clust_9="36.26342"></scales>
<clustering>
<clus scale="   36.263">  1  9  2 -1</clus>
<clus scale="   80.221">  5  6 -1 -1</clus>
<clus scale="   87.736">  1  5  2 -1</clus>
<clus scale="   90.607">  7  8 -1 -1</clus>
<clus scale="   36.263">  1  5  2 -1</clus>
</clustering>
</event>
<event>
 9    2  0.7820252E-005  0.9519861E+02  0.7546771E-02  0.1295473E+00
          2   -1    0    0  502    0 -0.00000000000E+00  0.00000000000E+00  0.14593509407E+03  0.14593509407E+03  0.00000000000E+00 0. -1.
         21   -1    0    0  501  502  0.00000000000E+00 -0.00000000000E+00 -0.18365084783E+03  0.18365084783E+03  0.00000000000E+00 0. -1.
         24    2    1    2    0    0 -0.31889750315E+02 -0.11870956348E+02  0.96082816392E+02  0.13105249342E+03  0.82370945403E+02 0.  0.
         23    2    1    2    0    0 -0.17409498916E+02  0.11241037759E+02 -0.10881491682E+03  0.14326143290E+03  0.90849878655E+02 0.  0.
        -13    1    3    3    0    0 -0.21625919663E+02  0.29350606866E+02  0.14816506319E+02  0.39353111493E+02  0.00000000000E+00 0.  1.
         14    1    3    3    0    0 -0.10263830652E+02 -0.41221563213E+02  0.81266310073E+02  0.91699381930E+02  0.00000000000E+00 0. -1.
        -11    1    4    4    0    0 -0.22610403968E+02  0.40957553980E+02 -0.10216727177E+03  0.11236949327E+03  0.00000000000E+00 0. -1.
         11    1    4    4    0    0  0.52009050521E+01 -0.29716516221E+02 -0.66476450493E+01  0.30891939634E+02  0.00000000000E+00 0.  1.
          1    1    1    2  501    0  0.49299249231E+02  0.62991858932E+00 -0.24983653329E+02  0.55272015576E+02  0.00000000000E+00 0. -1.
<scales pt_clust_5="13000.00000" pt_clust_6="13000.00000" pt_clust_7="13000.00000" pt_clust_8="13000.00000" pt_clust_9="49.30327"></scales>
<clustering>
<clus scale="   49.303">  2  9  1 -1</clus>
<clus scale="   82.371">  5  6 -1 -1</clus>
<clus scale="   87.144">  1  5  2 -1</clus>
<clus scale="   90.850">  7  8 -1 -1</clus>
<clus scale="   49.303">  2  5  1 -1</clus>
</clustering>
</event>
<event>
 9    2  0.7820252E-005  0.1050215E+03  0.7546771E-02  0.1273163E+00
         21   -1    0    0  501  502  0.00000000000E+00  0.00000000000E+00  0.34032953106E+03  0.34032953106E+03  0.00000000000E+00 0.  1.
          2   -1    0    0  502    0 -0.00000000000E+00 -0.00000000000E+00 -0.87207465687E+02  0.87207465687E+02  0.00000000000E+00 0. -1.
         24    2    1    2    0    0  0.58910978168E+01  0.55950417036E+02 -0.12483465924E+02  0.10270071439E+03  0.85008503190E+02 0.  0.
         23    2    1    2    0    0 -0.63112330599E+02 -0.16924500364E+02  0.12701768600E+03  0.16990441824E+03  0.92002248869E+02 0.  0.
        -11    1    3    3    0    0 -0.37164984668E+02  0.91091271586E+01 -0.62598592598E+01  0.38773678197E+02  0.00000000000E+00 0.  1.
         12    1    3    3    0    0  0.43056082485E+02  0.46841289877E+02 -0.62236066640E+01  0.63927036191E+02  0.00000000000E+00 0. -1.
        -11    1    4    4    0    0 -0.16291235137E+02 -0.45448441756E+02  0.25675733233E+02  0.54682798734E+02  0.00000000000E+00 0. -1.
         11    1    4    4    0    0 -0.46821095462E+02  0.28523941392E+02  0.10134195276E+03  0.11522161951E+03  0.00000000000E+00 0.  1.
          1    1    1    2  501    0  0.57221232782E+02 -0.39025916672E+02  0.13858784530E+03  0.15493186412E+03  0.00000000000E+00 0. -1.
<scales pt_clust_5="13000.00000" pt_clust_6="13000.00000" pt_clust_7="13000.00000" pt_clust_8="13000.00000" pt_clust_9="69.26248"></scales>
<clustering>
<clus scale="   69.262">  1  9  2 -1</clus>
<clus scale="   85.009">  5  6 -1 -1</clus>
<clus scale="   92.002">  7  8 -1 -1</clus>
<clus scale="   98.952">  2  5  1 -1</clus>
<clus scale="   69.262">  1  5  2 -1</clus>
</clustering>
</event>
<event>
 9    2  0.7820252E-005  0.2554905E+03  0.7546771E-02  0.1130801E+00
          2   -1    0    0  502    0 -0.00000000000E+00  0.00000000000E+00  0.13990155842E+04  0.13990155842E+04  0.00000000000E+00 0. -1.
         21   -1    0    0  501  502  0.00000000000E+00 -0.00000000000E+00 -0.79794043582E+02  0.79794043582E+02  0.00000000000E+00 0.  1.
         24    2    1    2    0    0  0.11704388693E+03  0.44857587453E+02  0.34522767063E+03  0.37699115833E+03  0.85021845844E+02 0.  0.
         23    2    1    2    0    0 -0.19472735397E+03 -0.21578526896E+03  0.42695089597E+03  0.52345266066E+03  0.85050547896E+02 0.  0.
        -11    1    3    3    0    0  0.55019144625E+02  0.19657426435E+02  0.58981548300E+02  0.83020140503E+02  0.00000000000E+00 0.  1.
         12    1    3    3    0    0  0.62024742307E+02  0.25200161018E+02  0.28624612233E+03  0.29397101783E+03  0.00000000000E+00 0. -1.
        -11    1    4    4    0    0 -0.16390919975E+03 -0.19776305422E+03  0.31787001573E+03  0.40867811084E+03  0.00000000000E+00 0.  1.
         11    1    4    4    0    0 -0.30818154224E+02 -0.18022214749E+02  0.10908088024E+03  0.11477454983E+03  0.00000000000E+00 0. -1.
          1    1    1    2  501    0  0.77683467039E+02  0.17092768151E+03  0.54704297407E+03  0.57836580884E+03  0.00000000000E+00 0. -1.
<scales pt_clust_5="13000.00000" pt_clust_6="13000.00000" pt_clust_7="13000.00000" pt_clust_8="13000.00000" pt_clust_9="240.91881"></scales>
<clustering>
<clus scale="   85.022">  5  6 -1 -1</clus>
<clus scale="   85.051">  7  8 -1 -1</clus>
<clus scale="  151.460">  1  5  2 -1</clus>
<clus scale="  240.919">  2  9  1 -1</clus>
<clus scale="  240.919">  2  5  1 -1</clus>
</clustering>
</event>
<event>
 9    2  0.7820252E-005  0.1000334E+03  0.7546771E-02  0.1288410E+00
         21   -1    0    0  501  502  0.00000000000E+00  0.00000000000E+00  0.28293482740E+03  0.28293482740E+03  0.00000000000E+00 0. -1.
          2   -1    0    0  502    0 -0.00000000000E+00 -0.00000000000E+00 -0.46225573085E+02  0.46225573085E+02  0.00000000000E+00 0. -1.
         24    2    1    2    0    0  0.52279212137E+01  0.32644990297E+02  0.42575609667E+02  0.97096678044E+02  0.80759245892E+02 0.  0.
         23    2    1    2    0    0 -0.20811580592E+02 -0.12271497479E+02  0.17107354892E+03  0.19757172823E+03  0.95836929835E+02 0.  0.
        -11    1    3    3    0    0  0.37353462993E+02  0.12961271051E+02 -0.92412336225E+00  0.39549080253E+02  0.00000000000E+00 0.  1.
         12    1    3    3    0    0 -0.32125541780E+02  0.19683719246E+02  0.43499733029E+02  0.57547597792E+02  0.00000000000E+00 0. -1.
        -11    1    4    4    0    0 -0.57742726331E+02 -0.19985148301E+02  0.10661114442E+03  0.12288028610E+03  0.00000000000E+00 0.  1.
         11    1    4    4    0    0  0.36931145739E+02  0.77136508221E+01  0.64462404498E+02  0.74691442135E+02  0.00000000000E+00 0. -1.
          1    1    1    2  501    0  0.15583659379E+02 -0.20373492818E+02  0.23060095726E+02  0.34491994203E+02  0.00000000000E+00 0. -1.
<scales pt_clust_5="13000.00000" pt_clust_6="13000.00000" pt_clust_7="13000.00000" pt_clust_8="13000.00000" pt_clust_9="25.65015"></scales>
<clustering>
<clus scale="   25.650">  1  9  2 -1</clus>
<clus scale="   80.759">  5  6 -1 -1</clus>
<clus scale="   85.697">  2  5  1 -1</clus>
<clus scale="   95.837">  7  8 -1 -1</clus>
<clus scale="   25.650">  1  5  2 -1</clus>
</clustering>
</event>
<event>
 9    2  0.7820252E-005  0.1286716E+03  0.7546771E-02  0.1239771E+00
          2   -1    0    0  502    0 -0.00000000000E+00  0.00000000000E+00  0.88252067147E+02  0.88252067147E+02  0.00000000000E+00 0. -1.
         21   -1    0    0  501  502  0.00000000000E+00 -0.00000000000E+00 -0.61326197323E+03  0.61326197323E+03  0.00000000000E+00 0. -1.
         24    2    1    2    0    0  0.22837349014E+01  0.56746708397E+02  0.24107948554E+02  0.10687630671E+03  0.87269395517E+02 0.  0.
         23    2    1    2    0    0 -0.56299197455E+02  0.33778435864E+02 -0.19785713888E+03  0.22790000398E+03  0.92088989820E+02 0.  0.
        -11    1    3    3    0    0 -0.71884136200E+01  0.52120464736E+02 -0.23854579287E+02  0.57768997634E+02  0.00000000000E+00 0.  1.
         12    1    3    3    0    0  0.94721485214E+01  0.46262436615E+01  0.47962527841E+02  0.49107309078E+02  0.00000000000E+00 0. -1.
        -11    1    4    4    0    0 -0.29631722949E+02 -0.28881610117E+02 -0.10409299426E+03  0.11201579291E+03  0.00000000000E+00 0.  1.
         11    1    4    4    0    0 -0.26667474505E+02  0.62660045981E+02 -0.93764144618E+02  0.11588421107E+03  0.00000000000E+00 0. -1.
          1    1    1    2  501    0  0.54015462553E+02 -0.90525144261E+02 -0.35126071576E+03  0.36673772969E+03  0.00000000000E+00 0. -1.
<scales pt_clust_5="13000.00000" pt_clust_6="13000.00000" pt_clust_7="13000.00000" pt_clust_8="13000.00000" pt_clust_9="89.86659"></scales>
<clustering>
<clus scale="   87.269">  5  6 -1 -1</clus>
<clus scale="   92.089">  7  8 -1 -1</clus>
<clus scale="  104.122">  1  5  2 -1</clus>
<clus scale="   89.867">  2  9  1 -1</clus>
<clus scale="   89.867">  2  5  1 -1</clus>
</clustering>
</event>
<event>
 9    2  0.7820252E-005  0.1926486E+03  0.7546771E-02  0.1177895E+00
          2   -1    0    0  502    0 -0.00000000000E+00  0.00000000000E+00  0.10897765610E+04  0.10897765610E+04  0.00000000000E+00 0. -1.
         21   -1    0    0  501  502  0.00000000000E+00 -0.00000000000E+00 -0.94238131851E+02  0.94238131851E+02  0.00000000000E+00 0.  1.
         24    2    1    2    0    0  0.81246068191E+02  0.28055694130E+02  0.56304328231E+03  0.57500804139E+03  0.78920620495E+02 0.  0.
         23    2    1    2    0    0 -0.38566566853E+02  0.14622505318E+03  0.38477910155E+03  0.42333990782E+03  0.91063572888E+02 0.  0.
        -11    1    3    3    0    0  0.23899136352E+02  0.48499116666E+02  0.31470824862E+03  0.31931898594E+03  0.00000000000E+00 0.  1.
         12    1    3    3    0    0  0.57346931839E+02 -0.20443422537E+02  0.24833503369E+03  0.25568905545E+03  0.00000000000E+00 0. -1.
        -13    1    4    4    0    0 -0.15005501109E+02  0.39790368943E+02  0.23076230219E+03  0.23464798878E+03  0.00000000000E+00 0. -1.
         13    1    4    4    0    0 -0.23561065744E+02  0.10643468424E+03  0.15401679936E+03  0.18869191904E+03  0.00000000000E+00 0.  1.
          1    1    1    2  501    0 -0.42679501337E+02 -0.17428074731E+03  0.47716045295E+02  0.18566674365E+03  0.00000000000E+00 0. -1.
<scales pt_clust_5="13000.00000" pt_clust_6="13000.00000" pt_clust_7="13000.00000" pt_clust_8="13000.00000" pt_clust_9="169.76727"></scales>
<clustering>
<clus scale="   78.921">  5  6 -1 -1</clus>
<clus scale="   91.064">  7  8 -1 -1</clus>
<clus scale="  116.690">  1  5  2 -1</clus>
<clus scale="  169.767">  2  9  1 -1</clus>
<clus scale="  169.767">  2  5  1 -1</clus>
</clustering>
</event>
<event>
 9    2  0.7820252E-005  0.9526914E+02  0.7546771E-02  0.1294911E+00
         21   -1    0    0  501  502  0.00000000000E+00  0.00000000000E+00  0.13238126549E+03  0.13238126549E+03  0.00000000000E+00 0.  1.
          4   -1    0    0  502    0 -0.00000000000E+00 -0.00000000000E+00 -0.13531307310E+03  0.13531307310E+03  0.00000000000E+00 0. -1.
         24    2    1    2    0    0  0.21111955849E+02 -0.26315501261E+02 -0.85666946061E+02  0.12330739150E+03  0.82022355891E+02 0.  0.
         23    2    1    2    0    0  0.30522444978E+01  0.27692453962E+02  0.65787792397E+02  0.11484008404E+03  0.89911195474E+02 0.  0.
        -13    1    3    3    0    0 -0.59884797265E+01  0.22439222318E+02 -0.27679616458E+01  0.23388933266E+02  0.00000000000E+00 0.  1.
         14    1    3    3    0    0  0.27100435576E+02 -0.48754723579E+02 -0.82898984415E+02  0.99918458239E+02  0.00000000000E+00 0. -1.
        -13    1    4    4    0    0 -0.63582781179E+01 -0.32402935294E+02  0.18976773283E+02  0.38085375678E+02  0.00000000000E+00 0. -1.
         13    1    4    4    0    0  0.94105226157E+01  0.60095389256E+02  0.46811019113E+02  0.76754708365E+02  0.00000000000E+00 0.  1.
          3    1    1    2  501    0 -0.24164200347E+02 -0.13769527012E+01  0.16947346058E+02  0.29546863041E+02  0.00000000000E+00 0. -1.
<scales pt_clust_5="13000.00000" pt_clust_6="13000.00000" pt_clust_7="13000.00000" pt_clust_8="13000.00000" pt_clust_9="24.20340"></scales>
<clustering>
<clus scale="   24.203">  1  9  2 -1</clus>
<clus scale="   82.022">  5  6 -1 -1</clus>
<clus scale="   87.863">  2  5  1 -1</clus>
<clus scale="   89.911">  7  8 -1 -1</clus>
<clus scale="   24.203">  1  5  2 -1</clus>
</clustering>
</event>
<event>
 9    2  0.1141440E-004  0.1060809E+03  0.7546771E-02  0.1273085E+00
         21   -1    0    0  501  502  0.00000000000E+00  0.00000000000E+00  0.25535166965E+03  0.25535166965E+03  0.00000000000E+00 0.  1.
          2   -1    0    0  502    0 -0.00000000000E+00 -0.00000000000E+00 -0.36045478513E+03  0.36045478513E+03  0.00000000000E+00 0. -1.
         24    2    1    2    0    0 -0.21598292783E+02 -0.35385800746E+02 -0.19914152342E+03  0.21886541846E+03  0.80784181000E+02 0.  0.
         23    2    1    2    0    0  0.63922140752E+02  0.52627598341E+02 -0.12326923387E+03  0.17487978603E+03  0.92368454349E+02 0.  0.
        -13    1    3    3    0    0 -0.43362178853E+01  0.22864850723E+02 -0.23759370372E+02  0.33258260096E+02  0.00000000000E+00 0.  1.
         14    1    3    3    0    0 -0.17262074898E+02 -0.58250651469E+02 -0.17538215305E+03  0.18560715836E+03  0.00000000000E+00 0. -1.
        -13    1    4    4    0    0 -0.12436018732E-01  0.51651869645E+02 -0.87513696568E+02  0.10161969730E+03  0.00000000000E+00 0.  1.
         13    1    4    4    0    0  0.63934576771E+02  0.97572869597E+00 -0.35755537300E+02  0.73260088731E+02  0.00000000000E+00 0. -1.
          1    1    1    2  501    0 -0.42323847969E+02 -0.17241797595E+02  0.21730764181E+03  0.22206125029E+03  0.00000000000E+00 0. -1.
<scales pt_clust_5="13000.00000" pt_clust_6="13000.00000" pt_clust_7="13000.00000" pt_clust_8="13000.00000" pt_clust_9="45.70107"></scales>
<clustering>
<clus scale="   45.701">  1  9  2 -1</clus>
<clus scale="   80.784">  5  6 -1 -1</clus>
<clus scale="   92.368">  7  8 -1 -1</clus>
<clus scale="   96.163">  2  5  1 -1</clus>
<clus scale="   45.701">  1  5  2 -1</clus>
</clustering>
</event>
<event>
 9    2  0.7820252E-005  0.1378279E+03  0.7546771E-02  0.1218565E+00
         21   -1    0    0  501  502  0.00000000000E+00  0.00000000000E+00  0.34267526585E+02  0.34267526585E+02  0.00000000000E+00 0. -1.
         -3   -1    0    0    0  501 -0.00000000000E+00 -0.00000000000E+00 -0.72734135568E+03  0.72734135568E+03  0.00000000000E+00 0.  1.
         24    2    1    2    0    0  0.66341282481E+02 -0.88354801478E+02 -0.36792894687E+03  0.39262290011E+03  0.81075859806E+02 0.  0.
         23    2    1    2    0    0 -0.44247464380E+02  0.85674625754E+02 -0.31958164385E+03  0.34604541195E+03  0.91197699759E+02 0.  0.
        -11    1    3    3    0    0  0.57379341628E+02 -0.59115889950E+02 -0.34418107273E+03  0.35390350113E+03  0.00000000000E+00 0.  1.
         12    1    3    3    0    0  0.89619408531E+01 -0.29238911529E+02 -0.23747874145E+02  0.38719398984E+02  0.00000000000E+00 0. -1.
        -11    1    4    4    0    0 -0.42416049818E+02  0.17583636142E+01 -0.62066927161E+02  0.75196519680E+02  0.00000000000E+00 0.  1.
         11    1    4    4    0    0 -0.18314145626E+01  0.83916262140E+02 -0.25751471669E+03  0.27084889227E+03  0.00000000000E+00 0. -1.
         -4    1    1    2    0  502 -0.22093818101E+02  0.26801757243E+01 -0.55632383767E+01  0.22940570207E+02  0.00000000000E+00 0.  1.
<scales pt_clust_5="13000.00000" pt_clust_6="13000.00000" pt_clust_7="13000.00000" pt_clust_8="13000.00000" pt_clust_9="22.25579"></scales>
<clustering>
<clus scale="   22.256">  1  9  2 -1</clus>
<clus scale="   81.076">  5  6 -1 -1</clus>
<clus scale="   91.198">  7  8 -1 -1</clus>
<clus scale="  131.350">  2  5  1 -1</clus>
<clus scale="   22.256">  1  5  2 -1</clus>
</clustering>
</event>
<event>
 9    2  0.7820252E-005  0.1245095E+03  0.7546771E-02  0.1240385E+00
          2   -1    0    0  502    0 -0.00000000000E+00  0.00000000000E+00  0.14982257559E+03  0.14982257559E+03  0.00000000000E+00 0. -1.
         21   -1    0    0  501  502  0.00000000000E+00 -0.00000000000E+00 -0.14703522964E+03  0.14703522964E+03  0.00000000000E+00 0.  1.
         24    2    1    2    0    0 -0.43784567692E+02  0.59471226419E+02  0.23020156048E+02  0.11069123163E+03  0.79175160476E+02 0.  0.
         23    2    1    2    0    0  0.37510356179E+02 -0.83521588959E+02  0.25721327897E+02  0.13392130140E+03  0.94289159601E+02 0.  0.
        -11    1    3    3    0    0 -0.58225402804E+02  0.49032241819E+02 -0.63002227032E+01  0.76380960164E+02  0.00000000000E+00 0.  1.
         12    1    3    3    0    0  0.14440835112E+02  0.10438984600E+02  0.29320378751E+02  0.34310271470E+02  0.00000000000E+00 0. -1.
        -13    1    4    4    0    0  0.63996143149E+02 -0.67829626294E+02 -0.84480014295E+00  0.93258126876E+02  0.00000000000E+00 0.  1.
         13    1    4    4    0    0 -0.26485786970E+02 -0.15691962664E+02  0.26566128040E+02  0.40663174528E+02  0.00000000000E+00 0. -1.
          1    1    1    2  501    0  0.62742115130E+01  0.24050362540E+02 -0.45954137990E+02  0.52245272195E+02  0.00000000000E+00 0. -1.
<scales pt_clust_5="13000.00000" pt_clust_6="13000.00000" pt_clust_7="13000.00000" pt_clust_8="13000.00000" pt_clust_9="24.85529"></scales>
<clustering>
<clus scale="   24.855">  2  9  1 -1</clus>
<clus scale="   79.175">  5  6 -1 -1</clus>
<clus scale="   94.289">  7  8 -1 -1</clus>
<clus scale="  113.494">  1  5  2 -1</clus>
<clus scale="   24.855">  2  5  1 -1</clus>
</clustering>
</event>
<event>
 9    2  0.7820252E-005  0.1852688E+03  0.7546771E-02  0.1196677E+00
         21   -1    0    0  501  502  0.00000000000E+00  0.00000000000E+00  0.11420786968E+03  0.11420786968E+03  0.00000000000E+00 0. -1.
          2   -1    0    0  502    0 -0.00000000000E+00 -0.00000000000E+00 -0.48219614802E+03  0.48219614802E+03  0.00000000000E+00 0. -1.
         24    2    1    2    0    0 -0.18548248623E+02 -0.26545204385E+02 -0.17540396747E+03  0.19555877957E+03  0.80174803142E+02 0.  0.
         23    2    1    2    0    0 -0.91747445449E+02 -0.11614679561E+03 -0.10418455545E+03  0.19999538438E+03  0.85065035714E+02 0.  0.
        -11    1    3    3    0    0 -0.13657694181E+01 -0.54033655881E+02 -0.10974992837E+03  0.12233784398E+03  0.00000000000E+00 0.  1.
         12    1    3    3    0    0 -0.17182479205E+02  0.27488451496E+02 -0.65654039100E+02  0.73220935582E+02  0.00000000000E+00 0. -1.
        -11    1    4    4    0    0 -0.58099049277E+02 -0.65413038247E+02 -0.10290066305E+02  0.88092284363E+02  0.00000000000E+00 0.  1.
         11    1    4    4    0    0 -0.33648396172E+02 -0.50733757361E+02 -0.93894489145E+02  0.11190310001E+03  0.00000000000E+00 0. -1.
          1    1    1    2  501    0  0.11029569407E+03  0.14269199999E+03 -0.88399755423E+02  0.20084985375E+03  0.00000000000E+00 0. -1.
<scales pt_clust_5="13000.00000" pt_clust_6="13000.00000" pt_clust_7="13000.00000" pt_clust_8="13000.00000" pt_clust_9="164.58587"></scales>
<clustering>
<clus scale="   80.175">  5  6 -1 -1</clus>
<clus scale="   85.065">  7  8 -1 -1</clus>
<clus scale="   86.468">  2  5  1 -1</clus>
<clus scale="  164.586">  1  9  2 -1</clus>
<clus scale="  164.586">  1  5  2 -1</clus>
</clustering>
</event>
<event>
 9    2  0.7820252E-005  0.9609138E+02  0.7546771E-02  0.1295274E+00
         -3   -1    0    0    0  501 -0.00000000000E+00  0.00000000000E+00  0.12723278188E+03  0.12723278188E+03  0.00000000000E+00 0.  1.
         21   -1    0    0  501  502  0.00000000000E+00 -0.00000000000E+00 -0.30460615472E+03  0.30460615472E+03  0.00000000000E+00 0. -1.
         23    2    1    2    0    0 -0.10568385297E+02 -0.23673889173E+02  0.91193607036E+02  0.13195317746E+03  0.91778119844E+02 0.  0.
         24    2    1    2    0    0  0.32966320992E+00  0.56310178295E+02 -0.17966172703E+03  0.20462767401E+03  0.80144893489E+02 0.  0.
        -13    1    4    4    0    0  0.26253007986E+02 -0.65383534317E+01 -0.30920210181E+02  0.41085640941E+02  0.00000000000E+00 0.  1.
         14    1    4    4    0    0 -0.25923344776E+02  0.62848531727E+02 -0.14874151685E+03  0.16354203307E+03  0.00000000000E+00 0. -1.
        -11    1    3    3    0    0  0.19461146106E+02  0.68867426903E+01 -0.93490545663E+01  0.22662044346E+02  0.00000000000E+00 0. -1.
         11    1    3    3    0    0 -0.30029531403E+02 -0.30560631864E+02  0.10054266160E+03  0.10929113312E+03  0.00000000000E+00 0.  1.
         -4    1    1    2    0  502  0.10238722087E+02 -0.32636289121E+02 -0.88905252850E+02  0.95258085126E+02  0.00000000000E+00 0.  1.
<scales pt_clust_5="13000.00000" pt_clust_6="13000.00000" pt_clust_7="13000.00000" pt_clust_8="13000.00000" pt_clust_9="34.20466"></scales>
<clustering>
<clus scale="   34.205">  2  9  1 -1</clus>
<clus scale="   80.145">  5  6 -1 -1</clus>
<clus scale="   85.050">  2  5  1 -1</clus>
<clus scale="   91.778">  7  8 -1 -1</clus>
<clus scale="   34.205">  2  5  1 -1</clus>
</clustering>
</event>
<event>
 9    2  0.7820252E-005  0.1738273E+03  0.7546771E-02  0.1175542E+00
         21   -1    0    0  501  502  0.00000000000E+00  0.00000000000E+00  0.43969345415E+02  0.43969345415E+02  0.00000000000E+00 0. -1.
          2   -1    0    0  502    0 -0.00000000000E+00 -0.00000000000E+00 -0.88366545921E+03  0.88366545921E+03  0.00000000000E+00 0. -1.
         23    2    1    2    0    0 -0.89173190190E+00  0.16368576615E+03 -0.41040701611E+03  0.45118712951E+03  0.91334997345E+02 0.  0.
         24    2    1    2    0    0 -0.22382201746E+02 -0.13070307803E+03 -0.25885964124E+03  0.30130278273E+03  0.78681608130E+02 0.  0.
        -13    1    4    4    0    0 -0.31334221715E+02 -0.13882064644E+02 -0.37181393035E+02  0.50566798963E+02  0.00000000000E+00 0.  1.
         14    1    4    4    0    0  0.89520199693E+01 -0.11682101339E+03 -0.22167824821E+03  0.25073598377E+03  0.00000000000E+00 0. -1.
        -11    1    3    3    0    0 -0.44447955584E+02  0.82955010350E+02 -0.17835803906E+03  0.20166493149E+03  0.00000000000E+00 0. -1.
         11    1    3    3    0    0  0.43556223682E+02  0.80730755799E+02 -0.23204897705E+03  0.24952219802E+03  0.00000000000E+00 0.  1.
          1    1    1    2  501    0  0.23273933648E+02 -0.32982688118E+02 -0.17042945645E+03  0.17514489238E+03  0.00000000000E+00 0. -1.
<scales pt_clust_5="13000.00000" pt_clust_6="13000.00000" pt_clust_7="13000.00000" pt_clust_8="13000.00000" pt_clust_9="40.36750"></scales>
<clustering>
<clus scale="   40.368">  1  9  2 -1</clus>
<clus scale="   78.682">  5  6 -1 -1</clus>
<clus scale="   91.335">  7  8 -1 -1</clus>
<clus scale="  167.525">  1  5  2 -1</clus>
<clus scale="   40.368">  1  5  2 -1</clus>
</clustering>
</event>
<event>
 9    2  0.7820252E-005  0.1005099E+03  0.7546771E-02  0.1283343E+00
         21   -1    0    0  501  502  0.00000000000E+00  0.00000000000E+00  0.65516362037E+02  0.65516362037E+02  0.00000000000E+00 0. -1.
          2   -1    0    0  502    0 -0.00000000000E+00 -0.00000000000E+00 -0.32223584125E+03  0.32223584125E+03  0.00000000000E+00 0. -1.
         24    2    1    2    0    0  0.23199045126E+02 -0.39401941934E+02 -0.21403996651E+03  0.23348850532E+03  0.81320760755E+02 0.  0.
         23    2    1    2    0    0 -0.52681323405E+02  0.14170131888E+02 -0.47126540890E+02  0.11520444771E+03  0.89861223246E+02 0.  0.
        -11    1    3    3    0    0  0.23719406971E+02  0.17197250824E+02 -0.34624443867E+02  0.45356452860E+02  0.00000000000E+00 0.  1.
         12    1    3    3    0    0 -0.52036184509E+00 -0.56599192758E+02 -0.17941552264E+03  0.18813205246E+03  0.00000000000E+00 0. -1.
        -11    1    4    4    0    0  0.10459541961E+02  0.36003394415E+02 -0.23953274251E+02  0.44490513312E+02  0.00000000000E+00 0.  1.
         11    1    4    4    0    0 -0.63140865366E+02 -0.21833262528E+02 -0.23173266639E+02  0.70713934401E+02  0.00000000000E+00 0. -1.
          1    1    1    2  501    0  0.29482278279E+02  0.25231810046E+02  0.44470281869E+01  0.39059250254E+02  0.00000000000E+00 0. -1.
<scales pt_clust_5="13000.00000" pt_clust_6="13000.00000" pt_clust_7="13000.00000" pt_clust_8="13000.00000" pt_clust_9="38.80527"></scales>
<clustering>
<clus scale="   38.805">  1  9  2 -1</clus>
<clus scale="   81.321">  5  6 -1 -1</clus>
<clus scale="   89.861">  7  8 -1 -1</clus>
<clus scale="   92.953">  2  5  1 -1</clus>
<clus scale="   38.805">  1  5  2 -1</clus>
</clustering>
</event>
<event>
 9    2  0.7820252E-005  0.9529682E+02  0.7546771E-02  0.1297215E+00
         21   -1    0    0  501  502  0.00000000000E+00  0.00000000000E+00  0.21848481155E+03  0.21848481155E+03  0.00000000000E+00 0.  1.
         -3   -1    0    0    0  501 -0.00000000000E+00 -0.00000000000E+00 -0.58473367905E+02  0.58473367905E+02  0.00000000000E+00 0.  1.
         23    2    1    2    0    0 -0.23764754158E+01  0.12857650205E+02  0.77499270456E+02  0.12084141404E+03  0.91790759996E+02 0.  0.
         24    2    1    2    0    0  0.29877221791E+02 -0.28040179716E+02  0.86044077205E+02  0.12450546048E+03  0.80119450867E+02 0.  0.
        -11    1    4    4    0    0 -0.62517213421E+01 -0.48151197045E+02  0.49152765842E+02  0.69091361157E+02  0.00000000000E+00 0.  1.
         12    1    4    4    0    0  0.36128943133E+02  0.20111017328E+02  0.36891311363E+02  0.55414099325E+02  0.00000000000E+00 0. -1.
        -11    1    3    3    0    0 -0.92887501200E+01  0.33052537642E+02  0.89846169939E+02  0.96182562744E+02  0.00000000000E+00 0.  1.
         11    1    3    3    0    0  0.69122747042E+01 -0.20194887437E+02 -0.12346899482E+02  0.24658851291E+02  0.00000000000E+00 0. -1.
         -4    1    1    2    0  502 -0.27500746376E+02  0.15182529512E+02 -0.35319040212E+01  0.31611304934E+02  0.00000000000E+00 0.  1.
<scales pt_clust_5="13000.00000" pt_clust_6="13000.00000" pt_clust_7="13000.00000" pt_clust_8="13000.00000" pt_clust_9="31.41339"></scales>
<clustering>
<clus scale="   31.413">  1  9  2 -1</clus>
<clus scale="   80.119">  5  6 -1 -1</clus>
<clus scale="   84.113">  1  5  2 -1</clus>
<clus scale="   91.791">  7  8 -1 -1</clus>
<clus scale="   31.413">  1  5  2 -1</clus>
</clustering>
</event>
<event>
 9    2  0.7820252E-005  0.9959552E+02  0.7546771E-02  0.1288579E+00
          2   -1    0    0  502    0 -0.00000000000E+00  0.00000000000E+00  0.39056627984E+03  0.39056627984E+03  0.00000000000E+00 0. -1.
         21   -1    0    0  501  502  0.00000000000E+00 -0.00000000000E+00 -0.16898947826E+03  0.16898947826E+03  0.00000000000E+00 0.  1.
         24    2    1    2    0    0 -0.36467223190E+02  0.18247982251E+02  0.31343144061E+03  0.32488299604E+03  0.75145498424E+02 0.  0.
         23    2    1    2    0    0  0.35778579375E+02 -0.95906248770E+02 -0.42614030026E+02  0.14271669557E+03  0.89855352336E+02 0.  0.
        -11    1    3    3    0    0  0.21237094438E+02 -0.68015537434E+01  0.70766230193E+02  0.74196594593E+02  0.00000000000E+00 0.  1.
         12    1    3    3    0    0 -0.57704317628E+02  0.25049535994E+02  0.24266521042E+03  0.25068640145E+03  0.00000000000E+00 0. -1.
        -11    1    4    4    0    0 -0.23014022364E+02 -0.28820546132E+02 -0.38653827613E+02  0.53426468102E+02  0.00000000000E+00 0.  1.
         11    1    4    4    0    0  0.58792601739E+02 -0.67085702638E+02 -0.39602024125E+01  0.89290227465E+02  0.00000000000E+00 0. -1.
          1    1    1    2  501    0  0.68864381493E+00  0.77658266519E+02 -0.49240609005E+02  0.91956066490E+02  0.00000000000E+00 0. -1.
<scales pt_clust_5="13000.00000" pt_clust_6="13000.00000" pt_clust_7="13000.00000" pt_clust_8="13000.00000" pt_clust_9="77.66132"></scales>
<clustering>
<clus scale="   75.145">  5  6 -1 -1</clus>
<clus scale="   77.661">  2  9  1 -1</clus>
<clus scale="   86.557">  1  5  2 -1</clus>
<clus scale="   89.855">  7  8 -1 -1</clus>
<clus scale="   77.661">  2  5  1 -1</clus>
</clustering>
</event>
<event>
 9    2  0.7820252E-005  0.2672615E+03  0.7546771E-02  0.1103374E+00
         21   -1    0    0  501  502  0.00000000000E+00  0.00000000000E+00  0.15025677954E+03  0.15025677954E+03  0.00000000000E+00 0.  1.
          4   -1    0    0  502    0 -0.00000000000E+00 -0.00000000000E+00 -0.72363048216E+03  0.72363048216E+03  0.00000000000E+00 0. -1.
         24    2    1    2    0    0  0.27014509402E+03  0.87363221591E+02 -0.46274643411E+03  0.54884578016E+03  0.80540199968E+02 0.  0.
         23    2    1    2    0    0 -0.18517652295E+03 -0.65650812445E+02 -0.91716448845E+02  0.23532690145E+03  0.91468408371E+02 0.  0.
        -11    1    3    3    0    0  0.44870428279E+02  0.38165679855E+02 -0.55948673503E+02  0.81241790474E+02  0.00000000000E+00 0.  1.
         12    1    3    3    0    0  0.22527466574E+03  0.49197541736E+02 -0.40679776060E+03  0.46760398968E+03  0.00000000000E+00 0. -1.
        -11    1    4    4    0    0 -0.83843095077E+02  0.10051333571E+01 -0.75732953430E+02  0.11298741134E+03  0.00000000000E+00 0. -1.
         11    1    4    4    0    0 -0.10133342787E+03 -0.66655945802E+02 -0.15983495415E+02  0.12233949011E+03  0.00000000000E+00 0.  1.
          3    1    1    2  501    0 -0.84968571070E+02 -0.21712409147E+02 -0.18910819675E+02  0.89714580094E+02  0.00000000000E+00 0. -1.
<scales pt_clust_5="13000.00000" pt_clust_6="13000.00000" pt_clust_7="13000.00000" pt_clust_8="13000.00000" pt_clust_9="87.69884"></scales>
<clustering>
<clus scale="   80.540">  5  6 -1 -1</clus>
<clus scale="   87.699">  1  9  2 -1</clus>
<clus scale="   91.468">  7  8 -1 -1</clus>
<clus scale="  263.721">  2  5  1 -1</clus>
<clus scale="   87.699">  1  5  2 -1</clus>
</clustering>
</event>
<event>
 9    2  0.7820252E-005  0.9590096E+02  0.7546771E-02  0.1291193E+00
          2   -1    0    0  502    0 -0.00000000000E+00  0.00000000000E+00  0.10606332143E+04  0.10606332143E+04  0.00000000000E+00 0. -1.
         21   -1    0    0  501  502  0.00000000000E+00 -0.00000000000E+00 -0.38912510112E+02  0.38912510112E+02  0.00000000000E+00 0. -1.
         24    2    1    2    0    0 -0.12253115178E+02 -0.36570969385E+02  0.74015822115E+03  0.74564267563E+03  0.81616375464E+02 0.  0.
         23    2    1    2    0    0  0.50314501917E+02  0.83167282212E+02  0.10309550735E+03  0.16556731946E+03  0.85647578507E+02 0.  0.
        -11    1    3    3    0    0 -0.42332674098E+02 -0.32238956347E+02  0.32064743207E+03  0.32503258498E+03  0.00000000000E+00 0.  1.
         12    1    3    3    0    0  0.30079558920E+02 -0.43320130382E+01  0.41951078908E+03  0.42061009065E+03  0.00000000000E+00 0. -1.
        -11    1    4    4    0    0  0.24742548979E+02  0.96568588786E+02  0.88079042497E+02  0.13302482399E+03  0.00000000000E+00 0. -1.
         11    1    4    4    0    0  0.25571952937E+02 -0.13401306574E+02  0.15016464855E+02  0.32542495474E+02  0.00000000000E+00 0.  1.
          1    1    1    2  501    0 -0.38061386739E+02 -0.46596312827E+02  0.17846697568E+03  0.18833572932E+03  0.00000000000E+00 0. -1.
<scales pt_clust_5="13000.00000" pt_clust_6="13000.00000" pt_clust_7="13000.00000" pt_clust_8="13000.00000" pt_clust_9="60.16551"></scales>
<clustering>
<clus scale="   60.166">  2  9  1 -1</clus>
<clus scale="   81.616">  5  6 -1 -1</clus>
<clus scale="   85.648">  7  8 -1 -1</clus>
<clus scale="   92.319">  1  5  2 -1</clus>
<clus scale="   60.166">  2  5  1 -1</clus>
</clustering>
</event>
<event>
 9    2  0.7820252E-005  0.9970221E+02  0.7546771E-02  0.1288844E+00
          2   -1    0    0  502    0 -0.00000000000E+00  0.00000000000E+00  0.50100721821E+03  0.50100721821E+03  0.00000000000E+00 0. -1.
         21   -1    0    0  501  502  0.00000000000E+00 -0.00000000000E+00 -0.29775611882E+02  0.29775611882E+02  0.00000000000E+00 0. -1.
         24    2    1    2    0    0  0.24863857072E+01  0.33024887944E+02  0.25952591799E+03  0.27300498319E+03  0.77982006892E+02 0.  0.
         23    2    1    2    0    0  0.34295413397E+02 -0.38394952944E+02  0.17938515735E+03  0.20851980120E+03  0.93011424151E+02 0.  0.
        -13    1    3    3    0    0  0.48072265992E+01 -0.21180026356E+02  0.29294907637E+02  0.36467719390E+02  0.00000000000E+00 0.  1.
         14    1    3    3    0    0 -0.23208408920E+01  0.54204914300E+02  0.23023101036E+03  0.23653726380E+03  0.00000000000E+00 0. -1.
        -11    1    4    4    0    0 -0.23373520240E+02 -0.32816747556E+02  0.11525208144E+03  0.12209137007E+03  0.00000000000E+00 0.  1.
         11    1    4    4    0    0  0.57668933637E+02 -0.55782053878E+01  0.64133075913E+02  0.86428431133E+02  0.00000000000E+00 0. -1.
          1    1    1    2  501    0 -0.36781799104E+02  0.53700649996E+01  0.32320530982E+02  0.49258045703E+02  0.00000000000E+00 0. -1.
<scales pt_clust_5="13000.00000" pt_clust_6="13000.00000" pt_clust_7="13000.00000" pt_clust_8="13000.00000" pt_clust_9="37.17174"></scales>
<clustering>
<clus scale="   37.172">  2  9  1 -1</clus>
<clus scale="   77.982">  5  6 -1 -1</clus>
<clus scale="   85.852">  1  5  2 -1</clus>
<clus scale="   93.011">  7  8 -1 -1</clus>
<clus scale="   37.172">  2  5  1 -1</clus>
</clustering>
</event>
<event>
 9    2  0.7820252E-005  0.2425753E+03  0.7546771E-02  0.1118089E+00
         21   -1    0    0  501  502  0.00000000000E+00  0.00000000000E+00  0.56937277813E+02  0.56937277813E+02  0.00000000000E+00 0. -1.
          2   -1    0    0  502    0 -0.00000000000E+00 -0.00000000000E+00 -0.70539278612E+03  0.70539278612E+03  0.00000000000E+00 0. -1.
         24    2    1    2    0    0  0.10429756582E+03  0.35114541940E+02 -0.23283577237E+03  0.26814962054E+03  0.74704141859E+02 0.  0.
         23    2    1    2    0    0  0.18829717729E+02  0.57495713160E+02 -0.21573704899E+03  0.24181151534E+03  0.90939646694E+02 0.  0.
        -11    1    3    3    0    0  0.19517029940E+02 -0.62892959731E+01 -0.43666283178E+01  0.20965141173E+02  0.00000000000E+00 0.  1.
         12    1    3    3    0    0  0.84780535883E+02  0.41403837913E+02 -0.22846914405E+03  0.24718447937E+03  0.00000000000E+00 0. -1.
        -13    1    4    4    0    0 -0.94385319796E+01  0.49704378121E+02 -0.42395815992E+02  0.66007698823E+02  0.00000000000E+00 0.  1.
         13    1    4    4    0    0  0.28268249709E+02  0.77913350390E+01 -0.17334123300E+03  0.17580381651E+03  0.00000000000E+00 0. -1.
          1    1    1    2  501    0 -0.12312728355E+03 -0.92610255100E+02 -0.19988268695E+03  0.25236892805E+03  0.00000000000E+00 0. -1.
<scales pt_clust_5="13000.00000" pt_clust_6="13000.00000" pt_clust_7="13000.00000" pt_clust_8="13000.00000" pt_clust_9="154.06813"></scales>
<clustering>
<clus scale="   74.704">  5  6 -1 -1</clus>
<clus scale="   90.940">  7  8 -1 -1</clus>
<clus scale="  106.790">  5  7 -1 -1</clus>
<clus scale="  154.068">  1  9  2 -1</clus>
<clus scale="  154.068">  1  5  2 -1</clus>
</clustering>
</event>
<event>
 9    2  0.7820252E-005  0.2708024E+03  0.7546771E-02  0.1101461E+00
          2   -1    0    0  502    0 -0.00000000000E+00  0.00000000000E+00  0.34132586703E+04  0.34132586703E+04  0.00000000000E+00 0. -1.
         21   -1    0    0  501  502  0.00000000000E+00 -0.00000000000E+00 -0.25999025803E+02  0.25999025803E+02  0.00000000000E+00 0. -1.
         23    2    1    2    0    0  0.24727921996E+03 -0.36043744297E+02  0.15265199829E+04  0.15497271834E+04  0.94577590367E+02 0.  0.
         24    2    1    2    0    0 -0.24457985264E+03  0.90441263365E+02  0.14900418831E+04  0.15148530252E+04  0.80968809753E+02 0.  0.
        -13    1    4    4    0    0 -0.83518892901E+02  0.70614015485E+02  0.52622919225E+03  0.53747456445E+03  0.00000000000E+00 0.  1.
         14    1    4    4    0    0 -0.16106095974E+03  0.19827247880E+02  0.96381269084E+03  0.97737846075E+03  0.00000000000E+00 0. -1.
        -13    1    3    3    0    0  0.10490767299E+01 -0.20370373616E+02  0.10777738648E+03  0.10969055437E+03  0.00000000000E+00 0.  1.
         13    1    3    3    0    0  0.24623014323E+03 -0.15673370681E+02  0.14187425965E+04  0.14400366291E+04  0.00000000000E+00 0. -1.
          1    1    1    2  501    0 -0.26993673147E+01 -0.54397519068E+02  0.37069777844E+03  0.37467748746E+03  0.00000000000E+00 0. -1.
<scales pt_clust_5="13000.00000" pt_clust_6="13000.00000" pt_clust_7="13000.00000" pt_clust_8="13000.00000" pt_clust_9="54.46448"></scales>
<clustering>
<clus scale="   54.464">  2  9  1 -1</clus>
<clus scale="   80.969">  5  6 -1 -1</clus>
<clus scale="   94.578">  7  8 -1 -1</clus>
<clus scale="  266.355">  2  5  1 -1</clus>
<clus scale="   54.464">  2  5  1 -1</clus>
</clustering>
</event>
<event>
 9    2  0.7820252E-005  0.1106526E+03  0.7546771E-02  0.1261872E+00
         21   -1    0    0  501  502  0.00000000000E+00  0.00000000000E+00  0.21364856932E+03  0.21364856932E+03  0.00000000000E+00 0.  1.
          2   -1    0    0  502    0 -0.00000000000E+00 -0.00000000000E+00 -0.87046446554E+03  0.87046446554E+03  0.00000000000E+00 0. -1.
         24    2    1    2    0    0 -0.48256711231E+02  0.45950536104E+02 -0.71676379251E+03  0.72440642864E+03  0.81081302773E+02 0.  0.
         23    2    1    2    0    0  0.72540204308E+02 -0.25122404681E+02 -0.12559150887E+03  0.17142923114E+03  0.87872280794E+02 0.  0.
        -13    1    3    3    0    0  0.21629168777E+02  0.51495891280E+01 -0.10614658246E+03  0.10845015527E+03  0.00000000000E+00 0.  1.
         14    1    3    3    0    0 -0.69885880007E+02  0.40800946976E+02 -0.61061721005E+03  0.61595627338E+03  0.00000000000E+00 0. -1.
        -13    1    4    4    0    0  0.47527341468E+02 -0.56224429374E+02 -0.99383761548E+02  0.12368171532E+03  0.00000000000E+00 0. -1.
         13    1    4    4    0    0  0.25012862840E+02  0.31102024693E+02 -0.26207747324E+02  0.47747515823E+02  0.00000000000E+00 0.  1.
          1    1    1    2  501    0 -0.24283493078E+02 -0.20828131423E+02  0.18553940516E+03  0.18827737507E+03  0.00000000000E+00 0. -1.
<scales pt_clust_5="13000.00000" pt_clust_6="13000.00000" pt_clust_7="13000.00000" pt_clust_8="13000.00000" pt_clust_9="31.99217"></scales>
<clustering>
<clus scale="   31.992">  1  9  2 -1</clus>
<clus scale="   81.081">  5  6 -1 -1</clus>
<clus scale="   87.872">  7  8 -1 -1</clus>
<clus scale="  105.341">  2  5  1 -1</clus>
<clus scale="   31.992">  1  5  2 -1</clus>
</clustering>
</event>
<event>
 9    2  0.7820252E-005  0.9322647E+02  0.7546771E-02  0.1302295E+00
         -1   -1    0    0    0  501 -0.00000000000E+00  0.00000000000E+00  0.12507153161E+03  0.12507153161E+03  0.00000000000E+00 0.  1.
         21   -1    0    0  501  502  0.00000000000E+00 -0.00000000000E+00 -0.14013720484E+03  0.14013720484E+03  0.00000000000E+00 0.  1.
         24    2    1    2    0    0  0.13172949716E+01 -0.36315320385E+02  0.18296971913E+02  0.89216771076E+02  0.79399718509E+02 0.  0.
         23    2    1    2    0    0  0.16043730851E+02 -0.21154771259E+02 -0.57853998695E+02  0.11115337308E+03  0.91121136603E+02 0.  0.
        -13    1    3    3    0    0  0.14415077000E+01 -0.32855842377E+02  0.48619177282E+02  0.58697604060E+02  0.00000000000E+00 0.  1.
         14    1    3    3    0    0 -0.12421272831E+00 -0.34594780083E+01 -0.30322205369E+02  0.30519167016E+02  0.00000000000E+00 0. -1.
        -13    1    4    4    0    0 -0.38205661016E+02 -0.98290473501E+01 -0.25684636615E+02  0.47074231417E+02  0.00000000000E+00 0.  1.
         13    1    4    4    0    0  0.54249391866E+02 -0.11325723908E+02 -0.32169362080E+02  0.64079141665E+02  0.00000000000E+00 0. -1.
         -2    1    1    2    0  502 -0.17361025822E+02  0.57470091644E+02  0.24491353554E+02  0.64838592290E+02  0.00000000000E+00 0.  1.
<scales pt_clust_5="13000.00000" pt_clust_6="13000.00000" pt_clust_7="13000.00000" pt_clust_8="13000.00000" pt_clust_9="60.03516"></scales>
<clustering>
<clus scale="   60.035">  2  9  1 -1</clus>
<clus scale="   79.400">  5  6 -1 -1</clus>
<clus scale="   81.807">  1  5  2 -1</clus>
<clus scale="   91.121">  7  8 -1 -1</clus>
<clus scale="   60.035">  2  5  1 -1</clus>
</clustering>
</event>
<event>
 9    2  0.9251989E-005  0.9272360E+02  0.7546771E-02  0.1302075E+00
          2   -1    0    0  502    0 -0.00000000000E+00  0.00000000000E+00  0.59973434149E+03  0.59973434149E+03  0.00000000000E+00 0. -1.
         21   -1    0    0  501  502  0.00000000000E+00 -0.00000000000E+00 -0.67814124659E+02  0.67814124659E+02  0.00000000000E+00 0. -1.
         23    2    1    2    0    0  0.24618314394E+02 -0.71215528461E+01  0.32999968312E+03  0.34303025490E+03  0.90073231338E+02 0.  0.
         24    2    1    2    0    0  0.70456653170E-01 -0.61472847128E+02 -0.86566974059E+01  0.10167858867E+03  0.80527517568E+02 0.  0.
        -13    1    4    4    0    0 -0.36556928368E+02 -0.37462490236E+02  0.11301451245E+02  0.53549696420E+02  0.00000000000E+00 0.  1.
         14    1    4    4    0    0  0.36627385022E+02 -0.24010356892E+02 -0.19958148651E+02  0.48128892249E+02  0.00000000000E+00 0. -1.
        -11    1    3    3    0    0 -0.20795563656E+02 -0.34540027419E+02  0.12945762541E+03  0.13559036005E+03  0.00000000000E+00 0.  1.
         11    1    3    3    0    0  0.45413878050E+02  0.27418474573E+02  0.20054205770E+03  0.20743989485E+03  0.00000000000E+00 0. -1.
          1    1    1    2  501    0 -0.24688771047E+02  0.68594399974E+02  0.21057723112E+03  0.22283962257E+03  0.00000000000E+00 0. -1.
<scales pt_clust_5="13000.00000" pt_clust_6="13000.00000" pt_clust_7="13000.00000" pt_clust_8="13000.00000" pt_clust_9="72.90221"></scales>
<clustering>
<clus scale="   72.902">  2  9  1 -1</clus>
<clus scale="   80.528">  5  6 -1 -1</clus>
<clus scale="   83.481">  2  5  1 -1</clus>
<clus scale="   90.073">  7  8 -1 -1</clus>
<clus scale="   72.902">  2  5  1 -1</clus>
</clustering>
</event>
<event>
 9    2  0.7820252E-005  0.1055688E+03  0.7546771E-02  0.1272887E+00
         21   -1    0    0  501  502  0.00000000000E+00  0.00000000000E+00  0.13362449720E+03  0.13362449720E+03  0.00000000000E+00 0. -1.
          2   -1    0    0  502    0 -0.00000000000E+00 -0.00000000000E+00 -0.39837370115E+03  0.39837370115E+03  0.00000000000E+00 0. -1.
         23    2    1    2    0    0  0.63985697977E+02 -0.24476190849E+02 -0.42608569403E+02  0.12206931588E+03  0.91608810870E+02 0.  0.
         24    2    1    2    0    0 -0.27141265899E+02 -0.66269570383E+02  0.51011985613E+02  0.11974849157E+03  0.81296828255E+02 0.  0.
        -11    1    4    4    0    0 -0.21712777579E+02 -0.79369250540E+02  0.18587328956E+02  0.84358825497E+02  0.00000000000E+00 0.  1.
         12    1    4    4    0    0 -0.54284883192E+01  0.13099680157E+02  0.32424656657E+02  0.35389666076E+02  0.00000000000E+00 0. -1.
        -13    1    3    3    0    0  0.38586064806E+02  0.25563457071E+02 -0.46766232763E+02  0.65798596197E+02  0.00000000000E+00 0.  1.
         13    1    3    3    0    0  0.25399633171E+02 -0.50039647919E+02  0.41576633601E+01  0.56270719684E+02  0.00000000000E+00 0. -1.
          1    1    1    2  501    0 -0.36844432078E+02  0.90745761232E+02 -0.27315262016E+03  0.29018039089E+03  0.00000000000E+00 0. -1.
<scales pt_clust_5="13000.00000" pt_clust_6="13000.00000" pt_clust_7="13000.00000" pt_clust_8="13000.00000" pt_clust_9="97.94036"></scales>
<clustering>
<clus scale="   81.297">  5  6 -1 -1</clus>
<clus scale="   91.609">  7  8 -1 -1</clus>
<clus scale="   97.940">  1  9  2 -1</clus>
<clus scale="   97.940">  1  5  2 -1</clus>
<clus scale="   97.940">  1  5  2 -1</clus>
</clustering>
</event>
<event>
 9    2  0.7820252E-005  0.2095798E+03  0.7546771E-02  0.1161805E+00
         21   -1    0    0  501  502  0.00000000000E+00  0.00000000000E+00  0.14971657697E+04  0.14971657697E+04  0.00000000000E+00 0.  1.
          2   -1    0    0  502    0 -0.00000000000E+00 -0.00000000000E+00 -0.37034243360E+03  0.37034243360E+03  0.00000000000E+00 0. -1.
         24    2    1    2    0    0 -0.32345424792E+02  0.79786036554E+02 -0.32957267836E+03  0.35464214082E+03  0.98695793184E+02 0.  0.
         23    2    1    2    0    0  0.25050672089E+02 -0.23455605970E+03  0.94984228081E+03  0.98314570366E+03  0.93440006951E+02 0.  0.
        -11    1    3    3    0    0 -0.16406919056E+02 -0.22191756090E+02 -0.62713673590E+02  0.68517631939E+02  0.00000000000E+00 0.  1.
         12    1    3    3    0    0 -0.15938505736E+02  0.10197779264E+03 -0.26685900477E+03  0.28612450888E+03  0.00000000000E+00 0. -1.
        -11    1    4    4    0    0  0.60894463931E+02 -0.14720146584E+03  0.59710161060E+03  0.61798603598E+03  0.00000000000E+00 0.  1.
         11    1    4    4    0    0 -0.35843791843E+02 -0.87354593862E+02  0.35274067021E+03  0.36515966768E+03  0.00000000000E+00 0. -1.
          1    1    1    2  501    0  0.72947527031E+01  0.15477002315E+03  0.50655373366E+03  0.52972035883E+03  0.00000000000E+00 0. -1.
<scales pt_clust_5="13000.00000" pt_clust_6="13000.00000" pt_clust_7="13000.00000" pt_clust_8="13000.00000" pt_clust_9="187.59712"></scales>
<clustering>
<clus scale="   93.440">  7  8 -1 -1</clus>
<clus scale="   98.696">  5  6 -1 -1</clus>
<clus scale="  130.969">  2  5  1 -1</clus>
<clus scale="  187.597">  1  9  2 -1</clus>
<clus scale="  187.597">  1  5  2 -1</clus>
</clustering>
</event>
<event>
 9    2  0.7820252E-005  0.1514974E+03  0.7546771E-02  0.1216658E+00
         21   -1    0    0  501  502  0.00000000000E+00  0.00000000000E+00  0.19873755642E+03  0.19873755642E+03  0.00000000000E+00 0. -1.
          2   -1    0    0  502    0 -0.00000000000E+00 -0.00000000000E+00 -0.18763782765E+03  0.18763782765E+03  0.00000000000E+00 0. -1.
         23    2    1    2    0    0 -0.48919066104E+02  0.13089517128E+02  0.11059277583E+02  0.10355602776E+03  0.89650057320E+02 0.  0.
         24    2    1    2    0    0 -0.82753478230E+02 -0.67927497426E+02 -0.24458089266E+02  0.13809533791E+03  0.83724794162E+02 0.  0.
        -13    1    4    4    0    0 -0.21258435532E+02 -0.70683258715E+02 -0.19476903949E+02  0.76337369166E+02  0.00000000000E+00 0.  1.
         14    1    4    4    0    0 -0.61495042698E+02  0.27557612882E+01 -0.49811853163E+01  0.61757968748E+02  0.00000000000E+00 0. -1.
        -13    1    3    3    0    0 -0.24615343949E+02  0.13989047005E+02 -0.38829128587E+02  0.48055278801E+02  0.00000000000E+00 0.  1.
         13    1    3    3    0    0 -0.24303722155E+02 -0.89952987699E+00  0.49888406171E+02  0.55500748958E+02  0.00000000000E+00 0. -1.
          1    1    1    2  501    0  0.13167254433E+03  0.54837980298E+02  0.24498540451E+02  0.14472401839E+03  0.00000000000E+00 0. -1.
<scales pt_clust_5="13000.00000" pt_clust_6="13000.00000" pt_clust_7="13000.00000" pt_clust_8="13000.00000" pt_clust_9="126.26018"></scales>
<clustering>
<clus scale="   83.725">  5  6 -1 -1</clus>
<clus scale="   89.650">  7  8 -1 -1</clus>
<clus scale="  102.964">  2  7  1 -1</clus>
<clus scale="  126.260">  1  9  2 -1</clus>
<clus scale="  126.260">  1  5  2 -1</clus>
</clustering>
</event>
<event>
 9    2  0.7820252E-005  0.1033194E+03  0.7546771E-02  0.1273622E+00
          2   -1    0    0  502    0 -0.00000000000E+00  0.00000000000E+00  0.83177220528E+03  0.83177220528E+03  0.00000000000E+00 0. -1.
         21   -1    0    0  501  502  0.00000000000E+00 -0.00000000000E+00 -0.18705535746E+02  0.18705535746E+02  0.00000000000E+00 0.  1.
         24    2    1    2    0    0 -0.51409220077E+02  0.54690469275E+02  0.38908734199E+03  0.40434325324E+03  0.80439737719E+02 0.  0.
         23    2    1    2    0    0  0.14644225178E+02 -0.54970208095E+02  0.25622306763E+03  0.27439658910E+03  0.80044054225E+02 0.  0.
        -13    1    3    3    0    0 -0.30695770618E+02 -0.35983337371E+01  0.44086689276E+02  0.53840639956E+02  0.00000000000E+00 0.  1.
         14    1    3    3    0    0 -0.20713449459E+02  0.58288803012E+02  0.34500065272E+03  0.35050261329E+03  0.00000000000E+00 0. -1.
        -13    1    4    4    0    0  0.38420956541E+02 -0.12387949751E+00  0.10063978404E+03  0.10772442332E+03  0.00000000000E+00 0.  1.
         13    1    4    4    0    0 -0.23776731362E+02 -0.54846328597E+02  0.15558328358E+03  0.16667216578E+03  0.00000000000E+00 0. -1.
          1    1    1    2  501    0  0.36764994899E+02  0.27973881919E+00  0.16775625991E+03  0.17173789868E+03  0.00000000000E+00 0. -1.
<scales pt_clust_5="13000.00000" pt_clust_6="13000.00000" pt_clust_7="13000.00000" pt_clust_8="13000.00000" pt_clust_9="36.76608"></scales>
<clustering>
<clus scale="   36.766">  2  9  1 -1</clus>
<clus scale="   80.044">  7  8 -1 -1</clus>
<clus scale="   80.440">  5  6 -1 -1</clus>
<clus scale="  103.012">  2  7  1 -1</clus>
<clus scale="   36.766">  2  5  1 -1</clus>
</clustering>
</event>
<event>
 9    2  0.7820252E-005  0.9736729E+02  0.7546771E-02  0.1292970E+00
         21   -1    0    0  501  502  0.00000000000E+00  0.00000000000E+00  0.48652170123E+02  0.48652170123E+02  0.00000000000E+00 0. -1.
          2   -1    0    0  502    0 -0.00000000000E+00 -0.00000000000E+00 -0.28273150581E+03  0.28273150581E+03  0.00000000000E+00 0. -1.
         24    2    1    2    0    0  0.25252865679E+02  0.13621915411E+02 -0.15326213990E+03  0.17542868714E+03  0.80390776464E+02 0.  0.
         23    2    1    2    0    0 -0.86511114972E+01 -0.35227671432E+02 -0.81164705254E+02  0.12870526040E+03  0.93067202118E+02 0.  0.
        -13    1    3    3    0    0 -0.17438171705E+02 -0.18588760882E+02 -0.21924131188E+02  0.33619925519E+02  0.00000000000E+00 0.  1.
         14    1    3    3    0    0  0.42691037384E+02  0.32210676293E+02 -0.13133800871E+03  0.14180876162E+03  0.00000000000E+00 0. -1.
        -13    1    4    4    0    0 -0.46333459726E+02 -0.16994736139E+02 -0.69516037857E+02  0.85253094172E+02  0.00000000000E+00 0.  1.
         13    1    4    4    0    0  0.37682348229E+02 -0.18232935294E+02 -0.11648667397E+02  0.43452166224E+02  0.00000000000E+00 0. -1.
          1    1    1    2  501    0 -0.16601754182E+02  0.21605756021E+02  0.34750946117E+00  0.27249728402E+02  0.00000000000E+00 0. -1.
<scales pt_clust_5="13000.00000" pt_clust_6="13000.00000" pt_clust_7="13000.00000" pt_clust_8="13000.00000" pt_clust_9="27.24751"></scales>
<clustering>
<clus scale="   27.248">  1  9  2 -1</clus>
<clus scale="   80.391">  5  6 -1 -1</clus>
<clus scale="   85.332">  2  5  1 -1</clus>
<clus scale="   93.067">  7  8 -1 -1</clus>
<clus scale="   27.248">  1  5  2 -1</clus>
</clustering>
</event>
<event>
 9    2  0.7820252E-005  0.1181611E+03  0.7546771E-02  0.1249913E+00
         -3   -1    0    0    0  501 -0.00000000000E+00  0.00000000000E+00  0.16909355246E+03  0.16909355246E+03  0.00000000000E+00 0.  1.
         21   -1    0    0  501  502  0.00000000000E+00 -0.00000000000E+00 -0.31285589493E+03  0.31285589493E+03  0.00000000000E+00 0. -1.
         24    2    1    2    0    0  0.10069256876E+02 -0.72320074212E+02  0.12966250139E+03  0.16935002258E+03  0.80842333044E+02 0.  0.
         23    2    1    2    0    0  0.79293067396E+01  0.87982264460E+02 -0.22797442883E+03  0.26126724463E+03  0.92111237928E+02 0.  0.
        -13    1    3    3    0    0  0.31367744168E+02  0.81325775791E+00  0.26238428678E+02  0.40902957129E+02  0.00000000000E+00 0.  1.
         14    1    3    3    0    0 -0.21298487292E+02 -0.73133331970E+02  0.10342407271E+03  0.12844706545E+03  0.00000000000E+00 0. -1.
        -11    1    4    4    0    0 -0.40694588847E+01  0.49957586527E+02 -0.28116128728E+02  0.57470319660E+02  0.00000000000E+00 0.  1.
         11    1    4    4    0    0  0.11998765624E+02  0.38024677933E+02 -0.19985830010E+03  0.20379692497E+03  0.00000000000E+00 0. -1.
         -4    1    1    2    0  502 -0.17998563615E+02 -0.15662190248E+02 -0.45450415031E+02  0.51332180180E+02  0.00000000000E+00 0.  1.
<scales pt_clust_5="13000.00000" pt_clust_6="13000.00000" pt_clust_7="13000.00000" pt_clust_8="13000.00000" pt_clust_9="23.85901"></scales>
<clustering>
<clus scale="   23.859">  2  9  1 -1</clus>
<clus scale="   80.842">  5  6 -1 -1</clus>
<clus scale="   92.111">  7  8 -1 -1</clus>
<clus scale="  109.604">  1  5  2 -1</clus>
<clus scale="   23.859">  2  5  1 -1</clus>
</clustering>
</event>
<event>
 9    2  0.7820252E-005  0.9362998E+02  0.7546771E-02  0.1301399E+00
         21   -1    0    0  501  502  0.00000000000E+00  0.00000000000E+00  0.40468061491E+02  0.40468061491E+02  0.00000000000E+00 0. -1.
          2   -1    0    0  502    0 -0.00000000000E+00 -0.00000000000E+00 -0.72504096507E+03  0.72504096507E+03  0.00000000000E+00 0. -1.
         24    2    1    2    0    0 -0.52573238885E+02 -0.14240745358E+02 -0.35176927789E+03  0.36469719816E+03  0.79345303596E+02 0.  0.
         23    2    1    2    0    0 -0.20587479802E+02 -0.30682692163E+02 -0.28720237435E+03  0.30360030583E+03  0.91228668425E+02 0.  0.
        -13    1    3    3    0    0 -0.93964316389E+01 -0.43044777062E+02 -0.14773318878E+03  0.15416303327E+03  0.00000000000E+00 0.  1.
         14    1    3    3    0    0 -0.43176807246E+02  0.28804031704E+02 -0.20403608910E+03  0.21053416488E+03  0.00000000000E+00 0. -1.
        -11    1    4    4    0    0  0.12861168706E+02  0.22731958722E+02 -0.15450722471E+03  0.15669918345E+03  0.00000000000E+00 0.  1.
         11    1    4    4    0    0 -0.33448648508E+02 -0.53414650885E+02 -0.13269514965E+03  0.14690112238E+03  0.00000000000E+00 0. -1.
          1    1    1    2  501    0  0.73160718687E+02  0.44923437521E+02 -0.45601251336E+02  0.97211522573E+02  0.00000000000E+00 0. -1.
<scales pt_clust_5="13000.00000" pt_clust_6="13000.00000" pt_clust_7="13000.00000" pt_clust_8="13000.00000" pt_clust_9="85.85223"></scales>
<clustering>
<clus scale="   79.345">  5  6 -1 -1</clus>
<clus scale="   85.852">  1  9  2 -1</clus>
<clus scale="   82.095">  2  5  1 -1</clus>
<clus scale="   91.229">  7  8 -1 -1</clus>
<clus scale="   85.852">  1  5  2 -1</clus>
</clustering>
</event>
<event>
 9    2  0.7820252E-005  0.1100526E+03  0.7546771E-02  0.1264918E+00
         21   -1    0    0  501  502  0.00000000000E+00  0.00000000000E+00  0.20773717551E+03  0.20773717551E+03  0.00000000000E+00 0. -1.
         -1   -1    0    0    0  501 -0.00000000000E+00 -0.00000000000E+00 -0.16877257034E+03  0.16877257034E+03  0.00000000000E+00 0.  1.
         24    2    1    2    0    0  0.57777013120E+02 -0.52702702979E+02 -0.71896340858E+02  0.13285569670E+03  0.79785927152E+02 0.  0.
         23    2    1    2    0    0 -0.10635187386E+02  0.43519364676E+02 -0.20690239179E+02  0.10360977127E+03  0.91103547641E+02 0.  0.
        -11    1    3    3    0    0  0.12307853285E+02 -0.21784080033E+02 -0.73709456405E+02  0.77840306775E+02  0.00000000000E+00 0.  1.
         12    1    3    3    0    0  0.45469159835E+02 -0.30918622947E+02  0.18131155468E+01  0.55015389929E+02  0.00000000000E+00 0. -1.
        -13    1    4    4    0    0  0.17549407981E+02  0.52901238379E+02  0.14467313486E+02  0.57583208508E+02  0.00000000000E+00 0. -1.
         13    1    4    4    0    0 -0.28184595367E+02 -0.93818737038E+01 -0.35157552666E+02  0.46026562762E+02  0.00000000000E+00 0.  1.
         -2    1    1    2    0  502 -0.47141825734E+02  0.91833383039E+01  0.13155118521E+03  0.14004427788E+03  0.00000000000E+00 0.  1.
<scales pt_clust_5="13000.00000" pt_clust_6="13000.00000" pt_clust_7="13000.00000" pt_clust_8="13000.00000" pt_clust_9="48.02797"></scales>
<clustering>
<clus scale="   48.028">  1  9  2 -1</clus>
<clus scale="   79.786">  5  6 -1 -1</clus>
<clus scale="   91.104">  7  8 -1 -1</clus>
<clus scale="  100.884">  2  5  1 -1</clus>
<clus scale="   48.028">  1  5  2 -1</clus>
</clustering>
</event>
<event>
 9    2  0.7820252E-005  0.9175725E+02  0.7546771E-02  0.1305118E+00
          4   -1    0    0  502    0 -0.00000000000E+00  0.00000000000E+00  0.95578220781E+02  0.95578220781E+02  0.00000000000E+00 0. -1.
         21   -1    0    0  501  502  0.00000000000E+00 -0.00000000000E+00 -0.17082001568E+03  0.17082001568E+03  0.00000000000E+00 0.  1.
         24    2    1    2    0    0 -0.45694013631E+01 -0.37765502470E+01 -0.47845239987E+02  0.93390423290E+02  0.79984138505E+02 0.  0.
         23    2    1    2    0    0  0.15730349210E+02 -0.33357247884E+02 -0.66328165355E+02  0.11806096602E+03  0.90436808361E+02 0.  0.
        -11    1    3    3    0    0 -0.41445995827E+02  0.50838883177E+01 -0.30364250240E+02  0.51629489472E+02  0.00000000000E+00 0.  1.
         12    1    3    3    0    0  0.36876594464E+02 -0.88604385647E+01 -0.17480989747E+02  0.41760933818E+02  0.00000000000E+00 0. -1.
        -13    1    4    4    0    0  0.24155883455E+02  0.15762819915E+02 -0.61576714570E+02  0.67997536532E+02  0.00000000000E+00 0.  1.
         13    1    4    4    0    0 -0.84255342455E+01 -0.49120067800E+02 -0.47514507849E+01  0.50063429492E+02  0.00000000000E+00 0. -1.
          3    1    1    2  501    0 -0.11160947847E+02  0.37133798131E+02  0.38931610438E+02  0.54946847151E+02  0.00000000000E+00 0. -1.
<scales pt_clust_5="13000.00000" pt_clust_6="13000.00000" pt_clust_7="13000.00000" pt_clust_8="13000.00000" pt_clust_9="38.77483"></scales>
<clustering>
<clus scale="   38.775">  2  9  1 -1</clus>
<clus scale="   79.984">  5  6 -1 -1</clus>
<clus scale="   81.474">  1  5  2 -1</clus>
<clus scale="   90.437">  7  8 -1 -1</clus>
<clus scale="   38.775">  2  5  1 -1</clus>
</clustering>
</event>
<event>
 9    2  0.7820252E-005  0.1012922E+03  0.7546771E-02  0.1282887E+00
         21   -1    0    0  501  502  0.00000000000E+00  0.00000000000E+00  0.45447156144E+03  0.45447156144E+03  0.00000000000E+00 0.  1.
         -1   -1    0    0    0  501 -0.00000000000E+00 -0.00000000000E+00 -0.32738644769E+02  0.32738644769E+02  0.00000000000E+00 0.  1.
         24    2    1    2    0    0 -0.54579205906E+02  0.16276645837E+02  0.11152490702E+03  0.14923029316E+03  0.81166844171E+02 0.  0.
         23    2    1    2    0    0  0.18071549770E+02 -0.10061846162E+02  0.18836018804E+03  0.21062872804E+03  0.91962378069E+02 0.  0.
        -11    1    3    3    0    0 -0.59853507797E+02  0.32726377463E+02  0.48033093640E+02  0.83430427675E+02  0.00000000000E+00 0.  1.
         12    1    3    3    0    0  0.52743018907E+01 -0.16449731626E+02  0.63491813382E+02  0.65799865483E+02  0.00000000000E+00 0. -1.
        -13    1    4    4    0    0 -0.21381800662E+02  0.14846339208E+02  0.14370958306E+03  0.14604807240E+03  0.00000000000E+00 0.  1.
         13    1    4    4    0    0  0.39453350432E+02 -0.24908185370E+02  0.44650604975E+02  0.64580655644E+02  0.00000000000E+00 0. -1.
         -2    1    1    2    0  502  0.36507656136E+02 -0.62147996743E+01  0.12184782161E+03  0.12735118501E+03  0.00000000000E+00 0.  1.
<scales pt_clust_5="13000.00000" pt_clust_6="13000.00000" pt_clust_7="13000.00000" pt_clust_8="13000.00000" pt_clust_9="37.03286"></scales>
<clustering>
<clus scale="   37.033">  1  9  2 -1</clus>
<clus scale="   81.167">  5  6 -1 -1</clus>
<clus scale="   91.603">  2  5  1 -1</clus>
<clus scale="   91.962">  7  8 -1 -1</clus>
<clus scale="   37.033">  1  5  2 -1</clus>
</clustering>
</event>
<event>
 9    2  0.7820252E-005  0.9515451E+02  0.7546771E-02  0.1295278E+00
         -3   -1    0    0    0  501 -0.00000000000E+00  0.00000000000E+00  0.17924838562E+03  0.17924838562E+03  0.00000000000E+00 0.  1.
         21   -1    0    0  501  502  0.00000000000E+00 -0.00000000000E+00 -0.12173861103E+03  0.12173861103E+03  0.00000000000E+00 0.  1.
         24    2    1    2    0    0  0.26505280275E+02  0.89816294391E+01  0.13020385924E+03  0.15738503216E+03  0.83867775916E+02 0.  0.
         23    2    1    2    0    0 -0.10744775315E+02  0.13449060054E+02 -0.68687385258E+02  0.11589667641E+03  0.91748325849E+02 0.  0.
        -11    1    3    3    0    0  0.48852639012E+02  0.35719151054E+01  0.12436310713E+03  0.13366196665E+03  0.00000000000E+00 0.  1.
         12    1    3    3    0    0 -0.22347358737E+02  0.54097143338E+01  0.58407521137E+01  0.23723065505E+02  0.00000000000E+00 0. -1.
        -13    1    4    4    0    0 -0.40640367966E+02 -0.22333407934E+02 -0.39256701854E+02  0.60757791754E+02  0.00000000000E+00 0. -1.
         13    1    4    4    0    0  0.29895592652E+02  0.35782467988E+02 -0.29430683404E+02  0.55138884654E+02  0.00000000000E+00 0.  1.
         -4    1    1    2    0  502 -0.15760504960E+02 -0.22430689493E+02 -0.40066993905E+01  0.27705288083E+02  0.00000000000E+00 0.  1.
<scales pt_clust_5="13000.00000" pt_clust_6="13000.00000" pt_clust_7="13000.00000" pt_clust_8="13000.00000" pt_clust_9="27.41404"></scales>
<clustering>
<clus scale="   27.414">  2  9  1 -1</clus>
<clus scale="   83.868">  5  6 -1 -1</clus>
<clus scale="   87.581">  1  5  2 -1</clus>
<clus scale="   91.748">  7  8 -1 -1</clus>
<clus scale="   27.414">  2  5  1 -1</clus>
</clustering>
</event>
<event>
 9    2  0.7820252E-005  0.9604759E+02  0.7546771E-02  0.1296560E+00
         21   -1    0    0  501  502  0.00000000000E+00  0.00000000000E+00  0.41977242869E+02  0.41977242869E+02  0.00000000000E+00 0.  1.
          2   -1    0    0  502    0 -0.00000000000E+00 -0.00000000000E+00 -0.43821663484E+03  0.43821663484E+03  0.00000000000E+00 0. -1.
         23    2    1    2    0    0  0.11286996073E+02  0.45337993607E+02 -0.33473040012E+03  0.34558841223E+03  0.72138616313E+02 0.  0.
         24    2    1    2    0    0 -0.30068670296E+01 -0.17236946561E+02 -0.56352891748E+02  0.10485962962E+03  0.86681831661E+02 0.  0.
        -13    1    4    4    0    0 -0.10258208964E+01  0.35336762954E+02 -0.27986637056E+02  0.45088701227E+02  0.00000000000E+00 0.  1.
         14    1    4    4    0    0 -0.19810461332E+01 -0.52573709516E+02 -0.28366254691E+02  0.59770928395E+02  0.00000000000E+00 0. -1.
        -11    1    3    3    0    0  0.77987651956E+01 -0.19174284257E+02 -0.64394477973E+02  0.67639653375E+02  0.00000000000E+00 0. -1.
         11    1    3    3    0    0  0.34882308775E+01  0.64512277864E+02 -0.27033592214E+03  0.27794875886E+03  0.00000000000E+00 0.  1.
          1    1    1    2  501    0 -0.82801290435E+01 -0.28101047046E+02 -0.51561001035E+01  0.29745835849E+02  0.00000000000E+00 0. -1.
<scales pt_clust_5="13000.00000" pt_clust_6="13000.00000" pt_clust_7="13000.00000" pt_clust_8="13000.00000" pt_clust_9="29.29555"></scales>
<clustering>
<clus scale="   29.296">  1  9  2 -1</clus>
<clus scale="   72.139">  7  8 -1 -1</clus>
<clus scale="   83.159">  2  7  1 -1</clus>
<clus scale="   86.682">  5  6 -1 -1</clus>
<clus scale="   29.296">  1  5  2 -1</clus>
</clustering>
</event>
<event>
 9    2  0.7820252E-005  0.1486121E+03  0.7546771E-02  0.1227023E+00
          2   -1    0    0  502    0 -0.00000000000E+00  0.00000000000E+00  0.68515518603E+03  0.68515518603E+03  0.00000000000E+00 0. -1.
         21   -1    0    0  501  502  0.00000000000E+00 -0.00000000000E+00 -0.87021386956E+02  0.87021386956E+02  0.00000000000E+00 0. -1.
         24    2    1    2    0    0  0.34115185955E+01  0.36283430087E+02  0.25587726214E+03  0.27052246835E+03  0.79881830518E+02 0.  0.
         23    2    1    2    0    0 -0.16037399082E+02 -0.12375839096E+03  0.63320871125E+01  0.15429763409E+03  0.90522522368E+02 0.  0.
        -11    1    3    3    0    0  0.23325817532E+02 -0.17810483914E+02  0.10445402596E+03  0.10849862045E+03  0.00000000000E+00 0.  1.
         12    1    3    3    0    0 -0.19914298937E+02  0.54093914001E+02  0.15142323618E+03  0.16202384790E+03  0.00000000000E+00 0. -1.
        -11    1    4    4    0    0  0.35710015323E+02 -0.37666431785E+02 -0.90285504811E+01  0.52682824541E+02  0.00000000000E+00 0. -1.
         11    1    4    4    0    0 -0.51747414405E+02 -0.86091959177E+02  0.15360637594E+02  0.10161480955E+03  0.00000000000E+00 0.  1.
          1    1    1    2  501    0  0.12625880487E+02  0.87474960875E+02  0.33592444982E+03  0.34735647054E+03  0.00000000000E+00 0. -1.
<scales pt_clust_5="13000.00000" pt_clust_6="13000.00000" pt_clust_7="13000.00000" pt_clust_8="13000.00000" pt_clust_9="117.86113"></scales>
<clustering>
<clus scale="   79.882">  5  6 -1 -1</clus>
<clus scale="   87.802">  1  5  2 -1</clus>
<clus scale="   90.523">  7  8 -1 -1</clus>
<clus scale="  117.861">  2  9  1 -1</clus>
<clus scale="  117.861">  2  5  1 -1</clus>
</clustering>
</event>
<event>
 9    2  0.7820252E-005  0.1397792E+03  0.7546771E-02  0.1215842E+00
          2   -1    0    0  502    0 -0.00000000000E+00  0.00000000000E+00  0.94874361990E+02  0.94874361990E+02  0.00000000000E+00 0. -1.
         21   -1    0    0  501  502  0.00000000000E+00 -0.00000000000E+00 -0.10866816972E+04  0.10866816972E+04  0.00000000000E+00 0. -1.
         24    2    1    2    0    0 -0.11839433365E+03 -0.10078915108E+02  0.24461979112E+02  0.14572046081E+03  0.80729557818E+02 0.  0.
         23    2    1    2    0    0  0.32509336932E+02 -0.18149082530E+02 -0.35249115418E+03  0.36592926284E+03  0.90928353372E+02 0.  0.
        -13    1    3    3    0    0 -0.86143253056E+02  0.30753916765E+02  0.12373331256E+02  0.92301477615E+02  0.00000000000E+00 0.  1.
         14    1    3    3    0    0 -0.32251080593E+02 -0.40832831874E+02  0.12088647856E+02  0.53418983192E+02  0.00000000000E+00 0. -1.
        -13    1    4    4    0    0  0.31972402108E+02  0.30145322786E+02 -0.10593846108E+03  0.11469059472E+03  0.00000000000E+00 0.  1.
         13    1    4    4    0    0  0.53693482389E+00 -0.48294405317E+02 -0.24655269310E+03  0.25123866812E+03  0.00000000000E+00 0. -1.
          1    1    1    2  501    0  0.85884996717E+02  0.28227997639E+02 -0.66377816012E+03  0.66990633552E+03  0.00000000000E+00 0. -1.
<scales pt_clust_5="13000.00000" pt_clust_6="13000.00000" pt_clust_7="13000.00000" pt_clust_8="13000.00000" pt_clust_9="90.40494"></scales>
<clustering>
<clus scale="   80.730">  5  6 -1 -1</clus>
<clus scale="   90.405">  2  9  1 -1</clus>
<clus scale="   90.928">  7  8 -1 -1</clus>
<clus scale="  133.370">  1  5  2 -1</clus>
<clus scale="   90.405">  2  5  1 -1</clus>
</clustering>
</event>
<event>
 9    2  0.7820252E-005  0.1003130E+03  0.7546771E-02  0.1284628E+00
          2   -1    0    0  502    0 -0.00000000000E+00  0.00000000000E+00  0.15544128367E+03  0.15544128367E+03  0.00000000000E+00 0. -1.
         21   -1    0    0  501  502  0.00000000000E+00 -0.00000000000E+00 -0.57989894510E+03  0.57989894510E+03  0.00000000000E+00 0.  1.
         24    2    1    2    0    0 -0.35347438104E+02 -0.21033900934E+02  0.10998462238E+03  0.14181277173E+03  0.79513386895E+02 0.  0.
         23    2    1    2    0    0  0.39746337618E+02  0.97473487863E+02 -0.16079404387E+03  0.21211512377E+03  0.89762180220E+02 0.  0.
        -13    1    3    3    0    0  0.19648601891E+02 -0.21123921501E+02  0.16184748319E+02  0.33079203346E+02  0.00000000000E+00 0.  1.
         14    1    3    3    0    0 -0.54996039995E+02  0.90020566583E-01  0.93799874060E+02  0.10873356838E+03  0.00000000000E+00 0. -1.
        -13    1    4    4    0    0 -0.51341683605E+01  0.57114031650E+02 -0.13462224537E+03  0.14632676189E+03  0.00000000000E+00 0.  1.
         13    1    4    4    0    0  0.44880505979E+02  0.40359456213E+02 -0.26171798504E+02  0.65788361886E+02  0.00000000000E+00 0. -1.
          1    1    1    2  501    0 -0.43988995145E+01 -0.76439586929E+02 -0.37364823994E+03  0.38141233328E+03  0.00000000000E+00 0. -1.
<scales pt_clust_5="13000.00000" pt_clust_6="13000.00000" pt_clust_7="13000.00000" pt_clust_8="13000.00000" pt_clust_9="76.56605"></scales>
<clustering>
<clus scale="   76.566">  2  9  1 -1</clus>
<clus scale="   79.513">  5  6 -1 -1</clus>
<clus scale="   89.762">  7  8 -1 -1</clus>
<clus scale="   91.257">  1  5  2 -1</clus>
<clus scale="   76.566">  2  5  1 -1</clus>
</clustering>
</event>
<event>
 9    2  0.7820252E-005  0.9698957E+02  0.7546771E-02  0.1292176E+00
          4   -1    0    0  502    0 -0.00000000000E+00  0.00000000000E+00  0.11360803944E+04  0.11360803944E+04  0.00000000000E+00 0. -1.
         21   -1    0    0  501  502  0.00000000000E+00 -0.00000000000E+00 -0.90806275964E+02  0.90806275964E+02  0.00000000000E+00 0. -1.
         24    2    1    2    0    0 -0.17013816689E+02 -0.36164359651E+02  0.89032779887E+03  0.89467415483E+03  0.78491547397E+02 0.  0.
         23    2    1    2    0    0  0.66960712425E+02 -0.31257334615E+01  0.21669854820E+03  0.24360246226E+03  0.88827876310E+02 0.  0.
        -11    1    3    3    0    0  0.50349344442E+01  0.20143949183E+02  0.10573486050E+03  0.10775430376E+03  0.00000000000E+00 0.  1.
         12    1    3    3    0    0 -0.22048751133E+02 -0.56308308834E+02  0.78459293836E+03  0.78691985107E+03  0.00000000000E+00 0. -1.
        -13    1    4    4    0    0  0.73545909380E+02 -0.29688534614E+02  0.18749560253E+03  0.20358047755E+03  0.00000000000E+00 0. -1.
         13    1    4    4    0    0 -0.65851969543E+01  0.26562801152E+02  0.29202945671E+02  0.40021984707E+02  0.00000000000E+00 0.  1.
          3    1    1    2  501    0 -0.49946895736E+02  0.39290093112E+02 -0.61752228598E+02  0.88610053308E+02  0.00000000000E+00 0. -1.
<scales pt_clust_5="13000.00000" pt_clust_6="13000.00000" pt_clust_7="13000.00000" pt_clust_8="13000.00000" pt_clust_9="63.54844"></scales>
<clustering>
<clus scale="   63.548">  2  9  1 -1</clus>
<clus scale="   78.492">  5  6 -1 -1</clus>
<clus scale="   87.621">  1  5  2 -1</clus>
<clus scale="   88.828">  7  8 -1 -1</clus>
<clus scale="   63.548">  2  5  1 -1</clus>
</clustering>
</event>
<event>
 9    2  0.7820252E-005  0.8914327E+02  0.7546771E-02  0.1308225E+00
          2   -1    0    0  502    0 -0.00000000000E+00  0.00000000000E+00  0.17526259591E+03  0.17526259591E+03  0.00000000000E+00 0. -1.
         21   -1    0    0  501  502  0.00000000000E+00 -0.00000000000E+00 -0.98960876481E+02  0.98960876481E+02  0.00000000000E+00 0. -1.
         23    2    1    2    0    0  0.17580198638E+02 -0.97316886783E+01  0.12725861095E+03  0.15579784579E+03  0.87603912820E+02 0.  0.
         24    2    1    2    0    0 -0.19286012462E+01 -0.70372908841E+01 -0.47228519835E+02  0.95186178853E+02  0.82320304866E+02 0.  0.
        -11    1    4    4    0    0  0.30263320403E+02 -0.16133765920E+02  0.34435910061E+01  0.34467742653E+02  0.00000000000E+00 0.  1.
         12    1    4    4    0    0 -0.32191921649E+02  0.90964750360E+01 -0.50672110841E+02  0.60718436200E+02  0.00000000000E+00 0. -1.
        -13    1    3    3    0    0  0.33079634184E+02  0.19294882650E+02  0.11410637259E+03  0.12036120205E+03  0.00000000000E+00 0. -1.
         13    1    3    3    0    0 -0.15499435546E+02 -0.29026571328E+02  0.13152238369E+02  0.35436643738E+02  0.00000000000E+00 0.  1.
          1    1    1    2  501    0 -0.15651597392E+02  0.16768979562E+02 -0.37283716862E+01  0.23239447754E+02  0.00000000000E+00 0. -1.
<scales pt_clust_5="13000.00000" pt_clust_6="13000.00000" pt_clust_7="13000.00000" pt_clust_8="13000.00000" pt_clust_9="22.93842"></scales>
<clustering>
<clus scale="   22.938">  2  9  1 -1</clus>
<clus scale="   82.320">  5  6 -1 -1</clus>
<clus scale="   83.957">  2  5  1 -1</clus>
<clus scale="   87.604">  7  8 -1 -1</clus>
<clus scale="   22.938">  2  5  1 -1</clus>
</clustering>
</event>
<event>
 9    2  0.7820252E-005  0.2648201E+03  0.7546771E-02  0.1139903E+00
          2   -1    0    0  502    0 -0.00000000000E+00  0.00000000000E+00  0.16449450081E+04  0.16449450081E+04  0.00000000000E+00 0. -1.
         21   -1    0    0  501  502  0.00000000000E+00 -0.00000000000E+00 -0.21008129212E+03  0.21008129212E+03  0.00000000000E+00 0. -1.
         23    2    1    2    0    0  0.31260911318E+02  0.49749577780E+02 -0.67598034749E+02  0.12825845702E+03  0.91806712328E+02 0.  0.
         24    2    1    2    0    0  0.32043670882E+01 -0.29523150681E+03  0.14386111216E+04  0.14707871101E+04  0.80254926616E+02 0.  0.
        -11    1    4    4    0    0  0.23410999884E+02 -0.24410667684E+02  0.18953669870E+03  0.19253081771E+03  0.00000000000E+00 0.  1.
         12    1    4    4    0    0 -0.20206632796E+02 -0.27082083912E+03  0.12490744229E+04  0.12782562924E+04  0.00000000000E+00 0. -1.
        -13    1    3    3    0    0  0.34037412248E+02  0.74341959015E+02 -0.62683335186E+02  0.10302656363E+03  0.00000000000E+00 0. -1.
         13    1    3    3    0    0 -0.27765009302E+01 -0.24592381235E+02 -0.49146995637E+01  0.25231893389E+02  0.00000000000E+00 0.  1.
          1    1    1    2  501    0 -0.34465278406E+02  0.24548192903E+03  0.63850629072E+02  0.25598073312E+03  0.00000000000E+00 0. -1.
<scales pt_clust_5="13000.00000" pt_clust_6="13000.00000" pt_clust_7="13000.00000" pt_clust_8="13000.00000" pt_clust_9="252.36644"></scales>
<clustering>
<clus scale="   80.255">  5  6 -1 -1</clus>
<clus scale="   91.807">  7  8 -1 -1</clus>
<clus scale="  108.999">  1  7  2 -1</clus>
<clus scale="  252.366">  2  9  1 -1</clus>
<clus scale="  252.366">  2  5  1 -1</clus>
</clustering>
</event>
<event>
 9    2  0.7820252E-005  0.9333013E+02  0.7546771E-02  0.1302778E+00
         21   -1    0    0  501  502  0.00000000000E+00  0.00000000000E+00  0.16818857279E+03  0.16818857279E+03  0.00000000000E+00 0. -1.
          2   -1    0    0  502    0 -0.00000000000E+00 -0.00000000000E+00 -0.90582091486E+02  0.90582091486E+02  0.00000000000E+00 0. -1.
         24    2    1    2    0    0  0.38001644105E+00 -0.20611924949E+02 -0.27719959783E+02  0.85290508653E+02  0.77981272325E+02 0.  0.
         23    2    1    2    0    0  0.35914570552E+02  0.17660141137E+02  0.89816716513E+02  0.13390034222E+03  0.90887414519E+02 0.  0.
        -11    1    3    3    0    0 -0.30191888014E+02 -0.73939821872E+00  0.10964732268E+02  0.32129770700E+02  0.00000000000E+00 0.  1.
         12    1    3    3    0    0  0.30571904455E+02 -0.19872526730E+02 -0.38684692051E+02  0.53160737953E+02  0.00000000000E+00 0. -1.
        -13    1    4    4    0    0 -0.15587553665E+02 -0.19457672991E+02  0.57482689203E+02  0.62656463558E+02  0.00000000000E+00 0.  1.
         13    1    4    4    0    0  0.51502124217E+02  0.37117814128E+02  0.32334027310E+02  0.71243878660E+02  0.00000000000E+00 0. -1.
          1    1    1    2  501    0 -0.36294586993E+02  0.29517838119E+01  0.15509724573E+02  0.39579813403E+02  0.00000000000E+00 0. -1.
<scales pt_clust_5="13000.00000" pt_clust_6="13000.00000" pt_clust_7="13000.00000" pt_clust_8="13000.00000" pt_clust_9="36.41442"></scales>
<clustering>
<clus scale="   36.414">  1  9  2 -1</clus>
<clus scale="   77.981">  5  6 -1 -1</clus>
<clus scale="   80.815">  2  5  1 -1</clus>
<clus scale="   90.887">  7  8 -1 -1</clus>
<clus scale="   36.414">  1  5  2 -1</clus>
</clustering>
</event>
<event>
 9    2  0.7820252E-005  0.1174419E+03  0.7546771E-02  0.1254742E+00
          2   -1    0    0  502    0 -0.00000000000E+00  0.00000000000E+00  0.30275222188E+03  0.30275222188E+03  0.00000000000E+00 0. -1.
         21   -1    0    0  501  502  0.00000000000E+00 -0.00000000000E+00 -0.86317197548E+02  0.86317197548E+02  0.00000000000E+00 0.  1.
         24    2    1    2    0    0  0.20712005965E+02  0.61766835345E+02  0.21486162020E+03  0.23844241730E+03  0.80281637967E+02 0.  0.
         23    2    1    2    0    0  0.10831216707E+02 -0.49722081490E+02 -0.15015650487E+02  0.11300722375E+03  0.99777563698E+02 0.  0.
        -13    1    3    3    0    0  0.47625398572E+02  0.36366755968E+02  0.17020358363E+03  0.18044384004E+03  0.00000000000E+00 0.  1.
         14    1    3    3    0    0 -0.26913392607E+02  0.25400079377E+02  0.44658036571E+02  0.57998577261E+02  0.00000000000E+00 0. -1.
        -13    1    4    4    0    0  0.24336349657E+02 -0.67315004724E+02 -0.38022238855E+02  0.81050961889E+02  0.00000000000E+00 0.  1.
         13    1    4    4    0    0 -0.13505132950E+02  0.17592923234E+02  0.23006588368E+02  0.31956261863E+02  0.00000000000E+00 0. -1.
          1    1    1    2  501    0 -0.31543222671E+02 -0.12044753855E+02  0.16589054624E+02  0.37619778378E+02  0.00000000000E+00 0. -1.
<scales pt_clust_5="13000.00000" pt_clust_6="13000.00000" pt_clust_7="13000.00000" pt_clust_8="13000.00000" pt_clust_9="33.76464"></scales>
<clustering>
<clus scale="   33.765">  2  9  1 -1</clus>
<clus scale="   80.282">  5  6 -1 -1</clus>
<clus scale="   99.778">  7  8 -1 -1</clus>
<clus scale="  101.401">  1  5  2 -1</clus>
<clus scale="   33.765">  2  5  1 -1</clus>
</clustering>
</event>
<event>
 9    2  0.7820252E-005  0.1616304E+03  0.7546771E-02  0.1198281E+00
         -1   -1    0    0    0  501 -0.00000000000E+00  0.00000000000E+00  0.11840697058E+04  0.11840697058E+04  0.00000000000E+00 0.  1.
         21   -1    0    0  501  502  0.00000000000E+00 -0.00000000000E+00 -0.55866325060E+02  0.55866325060E+02  0.00000000000E+00 0.  1.
         23    2    1    2    0    0  0.68793819237E+02 -0.52513859362E+02  0.92383947821E+02  0.15603552995E+03  0.91224984527E+02 0.  0.
         24    2    1    2    0    0  0.10839066417E+03  0.49567198609E+01  0.45256060660E+03  0.47247030770E+03  0.81510636522E+02 0.  0.
        -13    1    4    4    0    0  0.15039622423E+02  0.34615249380E+02  0.12235473538E+03  0.12804330128E+03  0.00000000000E+00 0.  1.
         14    1    4    4    0    0  0.93351041749E+02 -0.29658529519E+02  0.33020587122E+03  0.34442700643E+03  0.00000000000E+00 0. -1.
        -11    1    3    3    0    0  0.29200302082E+02 -0.74064094086E+02  0.68473361651E+02  0.10500832791E+03  0.00000000000E+00 0.  1.
         11    1    3    3    0    0  0.39593517156E+02  0.21550234723E+02  0.23910586170E+02  0.51027202043E+02  0.00000000000E+00 0. -1.
         -2    1    1    2    0  502 -0.17718448341E+03  0.47557139502E+02  0.58325882630E+03  0.61143019318E+03  0.00000000000E+00 0.  1.
<scales pt_clust_5="13000.00000" pt_clust_6="13000.00000" pt_clust_7="13000.00000" pt_clust_8="13000.00000" pt_clust_9="139.57223"></scales>
<clustering>
<clus scale="   81.511">  5  6 -1 -1</clus>
<clus scale="   91.225">  7  8 -1 -1</clus>
<clus scale="  125.747">  1  7  2 -1</clus>
<clus scale="  139.572">  2  9  1 -1</clus>
<clus scale="  139.572">  2  5  1 -1</clus>
</clustering>
</event>
<event>
 9    2  0.7820252E-005  0.1697423E+03  0.7546771E-02  0.1179537E+00
         21   -1    0    0  501  502  0.00000000000E+00  0.00000000000E+00  0.16422962638E+03  0.16422962638E+03  0.00000000000E+00 0. -1.
          2   -1    0    0  502    0 -0.00000000000E+00 -0.00000000000E+00 -0.39168987381E+03  0.39168987381E+03  0.00000000000E+00 0. -1.
         23    2    1    2    0    0  0.11747475380E+03 -0.13608894727E+03 -0.25661061268E+03  0.32617725771E+03  0.90675672344E+02 0.  0.
         24    2    1    2    0    0 -0.28952644046E+02  0.85215529406E+02 -0.86336978969E+01  0.12087579224E+03  0.80227640881E+02 0.  0.
        -11    1    4    4    0    0 -0.28168324389E+02  0.68202173872E+02 -0.40917046319E+02  0.84375326365E+02  0.00000000000E+00 0.  1.
         12    1    4    4    0    0 -0.78431965719E+00  0.17013355534E+02  0.32283348422E+02  0.36500465876E+02  0.00000000000E+00 0. -1.
        -11    1    3    3    0    0  0.11217013695E+02 -0.54682965303E+02 -0.31015915550E+02  0.63859495049E+02  0.00000000000E+00 0.  1.
         11    1    3    3    0    0  0.10625774010E+03 -0.81405981972E+02 -0.22559469713E+03  0.26231776266E+03  0.00000000000E+00 0. -1.
          1    1    1    2  501    0 -0.88522109749E+02  0.50873417869E+02  0.37784063151E+02  0.10886645024E+03  0.00000000000E+00 0. -1.
<scales pt_clust_5="13000.00000" pt_clust_6="13000.00000" pt_clust_7="13000.00000" pt_clust_8="13000.00000" pt_clust_9="102.09931"></scales>
<clustering>
<clus scale="   80.228">  5  6 -1 -1</clus>
<clus scale="   90.676">  7  8 -1 -1</clus>
<clus scale="  102.099">  1  9  2 -1</clus>
<clus scale="  164.398">  1  5  2 -1</clus>
<clus scale="  102.099">  1  5  2 -1</clus>
</clustering>
</event>
<event>
 9    2  0.7820252E-005  0.9108733E+02  0.7546771E-02  0.1307284E+00
         21   -1    0    0  501  502  0.00000000000E+00  0.00000000000E+00  0.68705699720E+02  0.68705699720E+02  0.00000000000E+00 0. -1.
         -1   -1    0    0    0  501 -0.00000000000E+00 -0.00000000000E+00 -0.17814350695E+03  0.17814350695E+03  0.00000000000E+00 0.  1.
         24    2    1    2    0    0 -0.14077486656E+02  0.59063267506E+01 -0.72795874926E+02  0.10914385139E+03  0.79875406505E+02 0.  0.
         23    2    1    2    0    0 -0.14417230036E+02  0.19295235810E+02 -0.19917843123E+02  0.96151019836E+02  0.90929288428E+02 0.  0.
        -11    1    3    3    0    0  0.20059010012E+02 -0.24559285986E+02 -0.14052525587E+02  0.34684231089E+02  0.00000000000E+00 0.  1.
         12    1    3    3    0    0 -0.34136496669E+02  0.30465612737E+02 -0.58743349338E+02  0.74459620304E+02  0.00000000000E+00 0. -1.
        -13    1    4    4    0    0  0.21352767596E+02  0.25991505609E+02 -0.41825865549E+02  0.53674035405E+02  0.00000000000E+00 0.  1.
         13    1    4    4    0    0 -0.35769997631E+02 -0.66962697989E+01  0.21908022425E+02  0.42476984431E+02  0.00000000000E+00 0. -1.
         -2    1    1    2    0  502  0.28494716692E+02 -0.25201562561E+02 -0.16724089178E+02  0.41554335438E+02  0.00000000000E+00 0.  1.
<scales pt_clust_5="13000.00000" pt_clust_6="13000.00000" pt_clust_7="13000.00000" pt_clust_8="13000.00000" pt_clust_9="38.04034"></scales>
<clustering>
<clus scale="   38.040">  1  9  2 -1</clus>
<clus scale="   79.875">  5  6 -1 -1</clus>
<clus scale="   80.055">  2  5  1 -1</clus>
<clus scale="   90.929">  7  8 -1 -1</clus>
<clus scale="   38.040">  1  5  2 -1</clus>
</clustering>
</event>
<event>
 9    2  0.7820252E-005  0.9284326E+02  0.7546771E-02  0.1302864E+00
          2   -1    0    0  502    0 -0.00000000000E+00  0.00000000000E+00  0.88793559561E+02  0.88793559561E+02  0.00000000000E+00 0. -1.
         21   -1    0    0  501  502  0.00000000000E+00 -0.00000000000E+00 -0.24635274580E+03  0.24635274580E+03  0.00000000000E+00 0. -1.
         23    2    1    2    0    0  0.33794699671E+02 -0.20588235570E+02 -0.24311977097E+02  0.10272339953E+03  0.91624600473E+02 0.  0.
         24    2    1    2    0    0  0.15558971248E+02 -0.43377048850E+02 -0.22809699477E+02  0.95588019978E+02  0.80580005087E+02 0.  0.
        -11    1    4    4    0    0 -0.23588838301E+02  0.97389674562E+01 -0.13739616865E+02  0.28983751501E+02  0.00000000000E+00 0.  1.
         12    1    4    4    0    0  0.39147809549E+02 -0.53116016306E+02 -0.90700826125E+01  0.66604268477E+02  0.00000000000E+00 0. -1.
        -13    1    3    3    0    0  0.23661536897E+02  0.11385539149E+02  0.29387441544E+02  0.39409650475E+02  0.00000000000E+00 0. -1.
         13    1    3    3    0    0  0.10133162774E+02 -0.31973774718E+02 -0.53699418641E+02  0.63313749059E+02  0.00000000000E+00 0.  1.
          1    1    1    2  501    0 -0.49353670920E+02  0.63965284419E+02 -0.11043750966E+03  0.13683488585E+03  0.00000000000E+00 0. -1.
<scales pt_clust_5="13000.00000" pt_clust_6="13000.00000" pt_clust_7="13000.00000" pt_clust_8="13000.00000" pt_clust_9="80.79197"></scales>
<clustering>
<clus scale="   80.580">  5  6 -1 -1</clus>
<clus scale="   80.792">  2  9  1 -1</clus>
<clus scale="   81.963">  2  5  1 -1</clus>
<clus scale="   91.625">  7  8 -1 -1</clus>
<clus scale="   80.792">  2  5  1 -1</clus>
</clustering>
</event>
<event>
 9    2  0.7820252E-005  0.9307461E+02  0.7546771E-02  0.1302023E+00
         21   -1    0    0  501  502  0.00000000000E+00  0.00000000000E+00  0.20728437680E+02  0.20728437680E+02  0.00000000000E+00 0.  1.
          2   -1    0    0  502    0 -0.00000000000E+00 -0.00000000000E+00 -0.64242720308E+03  0.64242720308E+03  0.00000000000E+00 0. -1.
         23    2    1    2    0    0 -0.19781821828E+02 -0.17958893150E+02 -0.41792621568E+03  0.42869162574E+03  0.91653400947E+02 0.  0.
         24    2    1    2    0    0 -0.77333160857E+01 -0.15066571797E+01 -0.13038841627E+03  0.15370993460E+03  0.81015620109E+02 0.  0.
        -11    1    4    4    0    0 -0.16073931755E+02 -0.34841319251E+02 -0.33598858242E+02  0.51001687074E+02  0.00000000000E+00 0.  1.
         12    1    4    4    0    0  0.83406156694E+01  0.33334662071E+02 -0.96789558033E+02  0.10270824752E+03  0.00000000000E+00 0. -1.
        -13    1    3    3    0    0 -0.84966419497E+01  0.36391683332E+02 -0.12166821149E+03  0.12727804692E+03  0.00000000000E+00 0.  1.
         13    1    3    3    0    0 -0.11285179879E+02 -0.54350576482E+02 -0.29625800419E+03  0.30141357881E+03  0.00000000000E+00 0. -1.
          1    1    1    2  501    0  0.27515137914E+02  0.19465550329E+02 -0.73384133441E+02  0.80754080423E+02  0.00000000000E+00 0. -1.
<scales pt_clust_5="13000.00000" pt_clust_6="13000.00000" pt_clust_7="13000.00000" pt_clust_8="13000.00000" pt_clust_9="33.70446"></scales>
<clustering>
<clus scale="   33.704">  1  9  2 -1</clus>
<clus scale="   81.016">  5  6 -1 -1</clus>
<clus scale="   82.620">  1  5  2 -1</clus>
<clus scale="   91.653">  7  8 -1 -1</clus>
<clus scale="   33.704">  1  5  2 -1</clus>
</clustering>
</event>
<event>
 9    2  0.7820252E-005  0.9441123E+02  0.7546771E-02  0.1297657E+00
          2   -1    0    0  502    0 -0.00000000000E+00  0.00000000000E+00  0.51726401422E+03  0.51726401422E+03  0.00000000000E+00 0. -1.
         21   -1    0    0  501  502  0.00000000000E+00 -0.00000000000E+00 -0.64353743747E+02  0.64353743747E+02  0.00000000000E+00 0.  1.
         24    2    1    2    0    0 -0.15557700503E+01  0.24310492537E+02  0.45146313840E+03  0.45966207402E+03  0.82926693471E+02 0.  0.
         23    2    1    2    0    0 -0.73091209816E+01  0.50440762572E+00  0.13308334284E+02  0.93058388553E+02  0.91809989882E+02 0.  0.
        -11    1    3    3    0    0  0.33511474893E+02 -0.14633072344E+01  0.99132105063E+02  0.10465340163E+03  0.00000000000E+00 0.  1.
         12    1    3    3    0    0 -0.35067244943E+02  0.25773799771E+02  0.35233103334E+03  0.35500867239E+03  0.00000000000E+00 0. -1.
        -11    1    4    4    0    0  0.31772527069E+02  0.23540899032E+02 -0.11723906564E+02  0.41244604359E+02  0.00000000000E+00 0.  1.
         11    1    4    4    0    0 -0.39081648051E+02 -0.23036491406E+02  0.25032240849E+02  0.51813784195E+02  0.00000000000E+00 0. -1.
          1    1    1    2  501    0  0.88648910319E+01 -0.24814900162E+02 -0.11861202212E+02  0.28897295392E+02  0.00000000000E+00 0. -1.
<scales pt_clust_5="13000.00000" pt_clust_6="13000.00000" pt_clust_7="13000.00000" pt_clust_8="13000.00000" pt_clust_9="26.35082"></scales>
<clustering>
<clus scale="   26.351">  2  9  1 -1</clus>
<clus scale="   82.927">  5  6 -1 -1</clus>
<clus scale="   85.798">  1  5  2 -1</clus>
<clus scale="   91.810">  7  8 -1 -1</clus>
<clus scale="   26.351">  2  5  1 -1</clus>
</clustering>
</event>
<event>
 9    2  0.7820252E-005  0.9952314E+02  0.7546771E-02  0.1287805E+00
         21   -1    0    0  501  502  0.00000000000E+00  0.00000000000E+00  0.97245311031E+02  0.97245311031E+02  0.00000000000E+00 0.  1.
          2   -1    0    0  502    0 -0.00000000000E+00 -0.00000000000E+00 -0.22988073802E+03  0.22988073802E+03  0.00000000000E+00 0. -1.
         24    2    1    2    0    0  0.25615762891E+01  0.21970113772E+02 -0.10315559977E+03  0.13233552642E+03  0.79889712826E+02 0.  0.
         23    2    1    2    0    0 -0.26770799848E+02 -0.70997537738E+02 -0.58247925273E+02  0.13300558699E+03  0.92413956105E+02 0.  0.
        -11    1    3    3    0    0 -0.71857381154E+01  0.35355582579E+02 -0.96108646463E+01  0.37336587565E+02  0.00000000000E+00 0.  1.
         12    1    3    3    0    0  0.97473144045E+01 -0.13385468807E+02 -0.93544735125E+02  0.94998938851E+02  0.00000000000E+00 0. -1.
        -13    1    4    4    0    0 -0.54070189127E+02 -0.70422772710E+02 -0.29999079896E+02  0.93717111901E+02  0.00000000000E+00 0.  1.
         13    1    4    4    0    0  0.27299389279E+02 -0.57476502764E+00 -0.28248845377E+02  0.39288475091E+02  0.00000000000E+00 0. -1.
          1    1    1    2  501    0  0.24209223559E+02  0.49027423966E+02  0.28768098058E+02  0.61784935640E+02  0.00000000000E+00 0. -1.
<scales pt_clust_5="13000.00000" pt_clust_6="13000.00000" pt_clust_7="13000.00000" pt_clust_8="13000.00000" pt_clust_9="54.67883"></scales>
<clustering>
<clus scale="   54.679">  1  9  2 -1</clus>
<clus scale="   79.890">  5  6 -1 -1</clus>
<clus scale="   88.016">  2  5  1 -1</clus>
<clus scale="   92.414">  7  8 -1 -1</clus>
<clus scale="   54.679">  1  5  2 -1</clus>
</clustering>
</event>
<event>
 9    2  0.7820252E-005  0.1791192E+03  0.7546771E-02  0.1170471E+00
          2   -1    0    0  502    0 -0.00000000000E+00  0.00000000000E+00  0.28313458615E+03  0.28313458615E+03  0.00000000000E+00 0. -1.
         21   -1    0    0  501  502  0.00000000000E+00 -0.00000000000E+00 -0.18254740112E+03  0.18254740112E+03  0.00000000000E+00 0. -1.
         23    2    1    2    0    0  0.13532791986E+03 -0.48757810649E+02  0.10012481371E+03  0.19880216728E+03  0.93842172837E+02 0.  0.
         24    2    1    2    0    0 -0.13001171304E+03  0.11768024514E+03  0.24004339656E+02  0.19385387730E+03  0.79065996481E+02 0.  0.
        -13    1    4    4    0    0 -0.45577729958E+02 -0.52361894539E+00  0.16227300676E+02  0.48383147192E+02  0.00000000000E+00 0.  1.
         14    1    4    4    0    0 -0.84433983080E+02  0.11820386409E+03  0.77770389796E+01  0.14547073011E+03  0.00000000000E+00 0. -1.
        -13    1    3    3    0    0  0.68336250513E+02  0.19883036384E+02  0.65813397200E+02  0.96935966086E+02  0.00000000000E+00 0.  1.
         13    1    3    3    0    0  0.66991669345E+02 -0.68640847032E+02  0.34311416508E+02  0.10186620119E+03  0.00000000000E+00 0. -1.
          1    1    1    2  501    0 -0.53162068184E+01 -0.68922434493E+02 -0.23541968342E+02  0.73025942684E+02  0.00000000000E+00 0. -1.
<scales pt_clust_5="13000.00000" pt_clust_6="13000.00000" pt_clust_7="13000.00000" pt_clust_8="13000.00000" pt_clust_9="69.12716"></scales>
<clustering>
<clus scale="   69.127">  2  9  1 -1</clus>
<clus scale="   79.066">  5  6 -1 -1</clus>
<clus scale="   93.842">  7  8 -1 -1</clus>
<clus scale="  171.839">  2  5  1 -1</clus>
<clus scale="   69.127">  2  5  1 -1</clus>
</clustering>
</event>
<event>
 9    2  0.7820252E-005  0.3032658E+03  0.7546771E-02  0.1128267E+00
          2   -1    0    0  502    0 -0.00000000000E+00  0.00000000000E+00  0.14389008550E+04  0.14389008550E+04  0.00000000000E+00 0. -1.
         21   -1    0    0  501  502  0.00000000000E+00 -0.00000000000E+00 -0.96339449784E+02  0.96339449784E+02  0.00000000000E+00 0. -1.
         23    2    1    2    0    0 -0.31963677062E+02  0.56568678621E+01  0.43508360125E+03  0.44563177854E+03  0.90753871321E+02 0.  0.
         24    2    1    2    0    0 -0.24900941980E+03  0.12582941981E+03  0.38723695715E+03  0.48389814686E+03  0.79788605127E+02 0.  0.
        -13    1    4    4    0    0 -0.62619585713E+02  0.64527744434E+02  0.16117789187E+03  0.18456260495E+03  0.00000000000E+00 0.  1.
         14    1    4    4    0    0 -0.18638983409E+03  0.61301675378E+02  0.22605906528E+03  0.29933554191E+03  0.00000000000E+00 0. -1.
        -11    1    3    3    0    0 -0.40125192377E+02  0.40319679000E+02  0.32473656411E+03  0.32968097253E+03  0.00000000000E+00 0. -1.
         11    1    3    3    0    0  0.81615153154E+01 -0.34662811138E+02  0.11034703715E+03  0.11595080601E+03  0.00000000000E+00 0.  1.
          1    1    1    2  501    0  0.28097309686E+03 -0.13148628767E+03  0.52024084681E+03  0.60571037938E+03  0.00000000000E+00 0. -1.
<scales pt_clust_5="13000.00000" pt_clust_6="13000.00000" pt_clust_7="13000.00000" pt_clust_8="13000.00000" pt_clust_9="292.58159"></scales>
<clustering>
<clus scale="   79.789">  5  6 -1 -1</clus>
<clus scale="   90.754">  7  8 -1 -1</clus>
<clus scale="   96.384">  1  7  2 -1</clus>
<clus scale="  292.582">  2  9  1 -1</clus>
<clus scale="  292.582">  2  5  1 -1</clus>
</clustering>
</event>
<event>
 9    2  0.7820252E-005  0.1008377E+03  0.7546771E-02  0.1281775E+00
         21   -1    0    0  501  502  0.00000000000E+00  0.00000000000E+00  0.96192123138E+02  0.96192123138E+02  0.00000000000E+00 0. -1.
          2   -1    0    0  502    0 -0.00000000000E+00 -0.00000000000E+00 -0.22349061665E+03  0.22349061665E+03  0.00000000000E+00 0. -1.
         23    2    1    2    0    0 -0.27401621761E+02  0.79369845359E+02 -0.95806363113E+02  0.15504044593E+03  0.88364356121E+02 0.  0.
         24    2    1    2    0    0  0.62249877642E+01 -0.29311132427E+01 -0.91456483438E+01  0.82236621395E+02  0.81436337819E+02 0.  0.
        -13    1    4    4    0    0 -0.62305880104E+01  0.38172637974E+02 -0.23114612837E+01  0.38746785287E+02  0.00000000000E+00 0.  1.
         14    1    4    4    0    0  0.12455575775E+02 -0.41103751216E+02 -0.68341870601E+01  0.43489836108E+02  0.00000000000E+00 0. -1.
        -11    1    3    3    0    0  0.20756835816E+02  0.14876064866E+00 -0.44445759637E+02  0.49053989771E+02  0.00000000000E+00 0.  1.
         11    1    3    3    0    0 -0.48158457577E+02  0.79221084710E+02 -0.51360603477E+02  0.10598645616E+03  0.00000000000E+00 0. -1.
          1    1    1    2  501    0  0.21176633997E+02 -0.76438732116E+02 -0.22346482059E+02  0.82405672471E+02  0.00000000000E+00 0. -1.
<scales pt_clust_5="13000.00000" pt_clust_6="13000.00000" pt_clust_7="13000.00000" pt_clust_8="13000.00000" pt_clust_9="79.31790"></scales>
<clustering>
<clus scale="   79.318">  1  9  2 -1</clus>
<clus scale="   81.436">  5  6 -1 -1</clus>
<clus scale="   88.364">  7  8 -1 -1</clus>
<clus scale="   94.825">  1  5  2 -1</clus>
<clus scale="   79.318">  1  5  2 -1</clus>
</clustering>
</event>
<event>
 9    2  0.7820252E-005  0.1795434E+03  0.7546771E-02  0.1169010E+00
         21   -1    0    0  501  502  0.00000000000E+00  0.00000000000E+00  0.15562644339E+03  0.15562644339E+03  0.00000000000E+00 0. -1.
          4   -1    0    0  502    0 -0.00000000000E+00 -0.00000000000E+00 -0.38999003095E+03  0.38999003095E+03  0.00000000000E+00 0. -1.
         24    2    1    2    0    0  0.13677853721E+03  0.81106377127E+02 -0.24917978090E+03  0.30689975452E+03  0.82524441622E+02 0.  0.
         23    2    1    2    0    0 -0.11640684203E+03 -0.94050564146E+02 -0.40149647856E+02  0.17868504783E+03  0.88996014568E+02 0.  0.
        -11    1    3    3    0    0  0.96893240101E+02  0.38969131204E+02 -0.91376214550E+02  0.13876781237E+03  0.00000000000E+00 0.  1.
         12    1    3    3    0    0  0.39885297104E+02  0.42137245923E+02 -0.15780356635E+03  0.16813194215E+03  0.00000000000E+00 0. -1.
        -13    1    4    4    0    0 -0.47112100013E+02 -0.89431498303E+02 -0.59093041224E+01  0.10125444549E+03  0.00000000000E+00 0. -1.
         13    1    4    4    0    0 -0.69294742014E+02 -0.46190658434E+01 -0.34240343733E+02  0.77430602342E+02  0.00000000000E+00 0.  1.
          3    1    1    2  501    0 -0.20371695177E+02  0.12944187019E+02  0.54965841199E+02  0.60031671980E+02  0.00000000000E+00 0. -1.
<scales pt_clust_5="13000.00000" pt_clust_6="13000.00000" pt_clust_7="13000.00000" pt_clust_8="13000.00000" pt_clust_9="24.13624"></scales>
<clustering>
<clus scale="   24.136">  1  9  2 -1</clus>
<clus scale="   82.524">  5  6 -1 -1</clus>
<clus scale="   88.996">  7  8 -1 -1</clus>
<clus scale="  176.425">  2  5  1 -1</clus>
<clus scale="   24.136">  1  5  2 -1</clus>
</clustering>
</event>
<event>
 9    2  0.7820252E-005  0.9625561E+02  0.7546771E-02  0.1295149E+00
         21   -1    0    0  501  502  0.00000000000E+00  0.00000000000E+00  0.29798783628E+02  0.29798783628E+02  0.00000000000E+00 0.  1.
          2   -1    0    0  502    0 -0.00000000000E+00 -0.00000000000E+00 -0.76133687127E+03  0.76133687127E+03  0.00000000000E+00 0. -1.
         24    2    1    2    0    0  0.33294470481E+02 -0.75451649013E+01 -0.54852268032E+03  0.55535679304E+03  0.79866047039E+02 0.  0.
         23    2    1    2    0    0  0.93951723888E+01  0.44391768709E+01 -0.73370355692E+02  0.11807546294E+03  0.91927309864E+02 0.  0.
        -11    1    3    3    0    0 -0.38079439866E+01  0.23945332466E+02 -0.64718299051E+02  0.69111052780E+02  0.00000000000E+00 0.  1.
         12    1    3    3    0    0  0.37102414467E+02 -0.31490497367E+02 -0.48380438127E+03  0.48624574026E+03  0.00000000000E+00 0. -1.
        -13    1    4    4    0    0 -0.22015783908E+02 -0.33318368474E+02 -0.17259087792E+02  0.43504994314E+02  0.00000000000E+00 0. -1.
         13    1    4    4    0    0  0.31410956297E+02  0.37757545344E+02 -0.56111267899E+02  0.74570468627E+02  0.00000000000E+00 0.  1.
          1    1    1    2  501    0 -0.42689642869E+02  0.31059880304E+01 -0.10964505162E+03  0.11770339891E+03  0.00000000000E+00 0. -1.
<scales pt_clust_5="13000.00000" pt_clust_6="13000.00000" pt_clust_7="13000.00000" pt_clust_8="13000.00000" pt_clust_9="42.80251"></scales>
<clustering>
<clus scale="   42.803">  1  9  2 -1</clus>
<clus scale="   79.866">  5  6 -1 -1</clus>
<clus scale="   84.812">  2  5  1 -1</clus>
<clus scale="   91.927">  7  8 -1 -1</clus>
<clus scale="   42.803">  1  5  2 -1</clus>
</clustering>
</event>
<event>
 9    2  0.7820252E-005  0.1164993E+03  0.7546771E-02  0.1252540E+00
         21   -1    0    0  501  502  0.00000000000E+00  0.00000000000E+00  0.48194791011E+03  0.48194791011E+03  0.00000000000E+00 0.  1.
          2   -1    0    0  502    0 -0.00000000000E+00 -0.00000000000E+00 -0.91254956295E+02  0.91254956295E+02  0.00000000000E+00 0. -1.
         24    2    1    2    0    0 -0.49912354480E+02  0.51566687123E+02 -0.18247104600E+02  0.10860882391E+03  0.79451579300E+02 0.  0.
         23    2    1    2    0    0  0.14984841637E+01 -0.11071982692E+03  0.24123633210E+03  0.28029120311E+03  0.90039241927E+02 0.  0.
        -11    1    3    3    0    0 -0.22710537084E+02 -0.71188579939E+01  0.22013093197E+02  0.32419483430E+02  0.00000000000E+00 0.  1.
         12    1    3    3    0    0 -0.27201817396E+02  0.58685545117E+02 -0.40260197798E+02  0.76189340475E+02  0.00000000000E+00 0. -1.
        -13    1    4    4    0    0 -0.25615636397E+02 -0.20674160984E+02  0.16815569603E+02  0.36964106123E+02  0.00000000000E+00 0. -1.
         13    1    4    4    0    0  0.27114120560E+02 -0.90045665940E+02  0.22442076250E+03  0.24332709699E+03  0.00000000000E+00 0.  1.
          1    1    1    2  501    0  0.48413870316E+02  0.59153139801E+02  0.16770372631E+03  0.18430283939E+03  0.00000000000E+00 0. -1.
<scales pt_clust_5="13000.00000" pt_clust_6="13000.00000" pt_clust_7="13000.00000" pt_clust_8="13000.00000" pt_clust_9="76.43950"></scales>
<clustering>
<clus scale="   76.439">  1  9  2 -1</clus>
<clus scale="   79.452">  5  6 -1 -1</clus>
<clus scale="   90.039">  7  8 -1 -1</clus>
<clus scale="  108.524">  2  5  1 -1</clus>
<clus scale="   76.439">  1  5  2 -1</clus>
</clustering>
</event>
<event>
 9    2  0.7820252E-005  0.1034873E+03  0.7546771E-02  0.1279354E+00
          2   -1    0    0  502    0 -0.00000000000E+00  0.00000000000E+00  0.32360533930E+03  0.32360533930E+03  0.00000000000E+00 0. -1.
         21   -1    0    0  501  502  0.00000000000E+00 -0.00000000000E+00 -0.15964218348E+03  0.15964218348E+03  0.00000000000E+00 0. -1.
         23    2    1    2    0    0  0.20792886413E+02  0.48504784342E+02  0.25404566472E+03  0.27477553512E+03  0.90428627704E+02 0.  0.
         24    2    1    2    0    0  0.97368994438E+01 -0.47739988625E+02  0.20901288648E+02  0.93363099834E+02  0.76849793876E+02 0.  0.
        -13    1    4    4    0    0  0.30583885798E+02 -0.59192924562E+02  0.10695287516E+02  0.67480112357E+02  0.00000000000E+00 0.  1.
         14    1    4    4    0    0 -0.20846986354E+02  0.11452935937E+02  0.10206001132E+02  0.25882987477E+02  0.00000000000E+00 0. -1.
        -13    1    3    3    0    0 -0.33748540790E+02  0.31580689552E+02  0.91920798077E+02  0.10288701122E+03  0.00000000000E+00 0. -1.
         13    1    3    3    0    0  0.54541427203E+02  0.16924094789E+02  0.16212486664E+03  0.17188852390E+03  0.00000000000E+00 0.  1.
          1    1    1    2  501    0 -0.30529785857E+02 -0.76479571660E+00 -0.11098379755E+03  0.11510888782E+03  0.00000000000E+00 0. -1.
<scales pt_clust_5="13000.00000" pt_clust_6="13000.00000" pt_clust_7="13000.00000" pt_clust_8="13000.00000" pt_clust_9="30.53936"></scales>
<clustering>
<clus scale="   30.539">  2  9  1 -1</clus>
<clus scale="   76.850">  5  6 -1 -1</clus>
<clus scale="   90.429">  7  8 -1 -1</clus>
<clus scale="   91.860">  2  5  1 -1</clus>
<clus scale="   30.539">  2  5  1 -1</clus>
</clustering>
</event>
<event>
 9    2  0.7820252E-005  0.9807930E+02  0.7546771E-02  0.1290830E+00
         21   -1    0    0  501  502  0.00000000000E+00  0.00000000000E+00  0.17526583688E+03  0.17526583688E+03  0.00000000000E+00 0. -1.
          2   -1    0    0  502    0 -0.00000000000E+00 -0.00000000000E+00 -0.27919321089E+03  0.27919321089E+03  0.00000000000E+00 0. -1.
         23    2    1    2    0    0  0.30687782181E+02  0.31368462529E+01 -0.11013131702E+03  0.14661623011E+03  0.91737844770E+02 0.  0.
         24    2    1    2    0    0  0.82981020767E+01  0.74516051376E+02 -0.11499304240E+03  0.15871676041E+03  0.79662474367E+02 0.  0.
        -13    1    4    4    0    0  0.25122876693E+02 -0.66789935404E+01 -0.21360938108E+02  0.33646063141E+02  0.00000000000E+00 0.  1.
         14    1    4    4    0    0 -0.16824774616E+02  0.81195044917E+02 -0.93632104295E+02  0.12507069727E+03  0.00000000000E+00 0. -1.
        -13    1    3    3    0    0  0.30711451879E+02 -0.27671410137E+02 -0.10956211382E+02  0.42766093852E+02  0.00000000000E+00 0. -1.
         13    1    3    3    0    0 -0.23669698682E-01  0.30808256390E+02 -0.99175105638E+02  0.10385013626E+03  0.00000000000E+00 0.  1.
          1    1    1    2  501    0 -0.38985884257E+02 -0.77652897629E+02  0.12119698541E+03  0.14912605726E+03  0.00000000000E+00 0. -1.
<scales pt_clust_5="13000.00000" pt_clust_6="13000.00000" pt_clust_7="13000.00000" pt_clust_8="13000.00000" pt_clust_9="86.89000"></scales>
<clustering>
<clus scale="   79.662">  5  6 -1 -1</clus>
<clus scale="   86.890">  1  9  2 -1</clus>
<clus scale="   86.890">  1  5  2 -1</clus>
<clus scale="   91.738">  7  8 -1 -1</clus>
<clus scale="   86.890">  1  5  2 -1</clus>
</clustering>
</event>
<event>
 9    2  0.7820252E-005  0.1366651E+03  0.7546771E-02  0.1220718E+00
         21   -1    0    0  501  502  0.00000000000E+00  0.00000000000E+00  0.49628337334E+03  0.49628337334E+03  0.00000000000E+00 0. -1.
          4   -1    0    0  502    0 -0.00000000000E+00 -0.00000000000E+00 -0.13777546765E+03  0.13777546765E+03  0.00000000000E+00 0. -1.
         23    2    1    2    0    0  0.70943438713E+02  0.69612832312E+02 -0.74987437906E+02  0.15383021141E+03  0.90342128488E+02 0.  0.
         24    2    1    2    0    0 -0.10017644590E+03 -0.70865159372E+02  0.21337046045E+03  0.25816759920E+03  0.77886871525E+02 0.  0.
        -13    1    4    4    0    0  0.59632678599E+01 -0.31538764936E+02  0.44346134917E+02  0.54743346073E+02  0.00000000000E+00 0.  1.
         14    1    4    4    0    0 -0.10613971376E+03 -0.39326394436E+02  0.16902432553E+03  0.20342425312E+03  0.00000000000E+00 0. -1.
        -13    1    3    3    0    0  0.35848845621E+02  0.14966737778E+02  0.16024001511E+02  0.42022750939E+02  0.00000000000E+00 0.  1.
         13    1    3    3    0    0  0.35094593092E+02  0.54646094534E+02 -0.91011439417E+02  0.11180746047E+03  0.00000000000E+00 0. -1.
          3    1    1    2  501    0  0.29233007188E+02  0.12523270597E+01  0.22012488315E+03  0.22206103038E+03  0.00000000000E+00 0. -1.
<scales pt_clust_5="13000.00000" pt_clust_6="13000.00000" pt_clust_7="13000.00000" pt_clust_8="13000.00000" pt_clust_9="29.25982"></scales>
<clustering>
<clus scale="   29.260">  1  9  2 -1</clus>
<clus scale="   77.887">  5  6 -1 -1</clus>
<clus scale="   90.342">  7  8 -1 -1</clus>
<clus scale="  128.771">  1  5  2 -1</clus>
<clus scale="   29.260">  1  5  2 -1</clus>
</clustering>
</event>
<event>
 9    2  0.7820252E-005  0.1367373E+03  0.7546771E-02  0.1221023E+00
         21   -1    0    0  501  502  0.00000000000E+00  0.00000000000E+00  0.30723085364E+03  0.30723085364E+03  0.00000000000E+00 0. -1.
          4   -1    0    0  502    0 -0.00000000000E+00 -0.00000000000E+00 -0.12032206649E+03  0.12032206649E+03  0.00000000000E+00 0. -1.
         24    2    1    2    0    0  0.65042911098E+02  0.69264127603E+02  0.77456936132E+02  0.14658601560E+03  0.80372777458E+02 0.  0.
         23    2    1    2    0    0 -0.15231858601E+02 -0.11758235896E+03  0.13907236861E+03  0.20551382313E+03  0.94006314330E+02 0.  0.
        -11    1    3    3    0    0  0.73223411829E+02  0.34452655004E+02  0.28156829399E+02  0.85682323256E+02  0.00000000000E+00 0.  1.
         12    1    3    3    0    0 -0.81805007308E+01  0.34811472599E+02  0.49300106733E+02  0.60903692339E+02  0.00000000000E+00 0. -1.
        -11    1    4    4    0    0 -0.16815920964E+02 -0.51022267005E+02  0.12693824580E+03  0.13783818475E+03  0.00000000000E+00 0. -1.
         11    1    4    4    0    0  0.15840623633E+01 -0.66560091952E+02  0.12134122807E+02  0.67675638383E+02  0.00000000000E+00 0.  1.
          3    1    1    2  501    0 -0.49811052497E+02  0.48318231354E+02 -0.29620517585E+02  0.75453081409E+02  0.00000000000E+00 0. -1.
<scales pt_clust_5="13000.00000" pt_clust_6="13000.00000" pt_clust_7="13000.00000" pt_clust_8="13000.00000" pt_clust_9="69.39595"></scales>
<clustering>
<clus scale="   69.396">  1  9  2 -1</clus>
<clus scale="   80.373">  5  6 -1 -1</clus>
<clus scale="   94.006">  7  8 -1 -1</clus>
<clus scale="  127.749">  2  5  1 -1</clus>
<clus scale="   69.396">  1  5  2 -1</clus>
</clustering>
</event>
<event>
 9    2  0.7820252E-005  0.9193362E+02  0.7546771E-02  0.1301391E+00
         21   -1    0    0  501  502  0.00000000000E+00  0.00000000000E+00  0.21329608854E+03  0.21329608854E+03  0.00000000000E+00 0.  1.
          4   -1    0    0  502    0 -0.00000000000E+00 -0.00000000000E+00 -0.20362029477E+03  0.20362029477E+03  0.00000000000E+00 0. -1.
         23    2    1    2    0    0  0.23166756658E+01 -0.12959063524E+02 -0.13964251184E+03  0.16738872893E+03  0.91354535455E+02 0.  0.
         24    2    1    2    0    0 -0.58498225757E+02 -0.53124086097E+02  0.75333481790E+02  0.13552281505E+03  0.80293766759E+02 0.  0.
        -13    1    4    4    0    0 -0.55711818032E+02 -0.58990320966E+02  0.88973441617E+02  0.12041568814E+03  0.00000000000E+00 0.  1.
         14    1    4    4    0    0 -0.27864077255E+01  0.58662348699E+01 -0.13639959826E+02  0.15107126915E+02  0.00000000000E+00 0. -1.
        -11    1    3    3    0    0  0.37777518976E+02 -0.17705025654E+02 -0.11895959061E+03  0.12606344859E+03  0.00000000000E+00 0. -1.
         11    1    3    3    0    0 -0.35460843310E+02  0.47459621304E+01 -0.20682921232E+02  0.41325280344E+02  0.00000000000E+00 0.  1.
          3    1    1    2  501    0  0.56181550091E+02  0.66083149621E+02  0.73984823814E+02  0.11400483932E+03  0.00000000000E+00 0. -1.
<scales pt_clust_5="13000.00000" pt_clust_6="13000.00000" pt_clust_7="13000.00000" pt_clust_8="13000.00000" pt_clust_9="86.73724"></scales>
<clustering>
<clus scale="   80.294">  5  6 -1 -1</clus>
<clus scale="   86.737">  1  9  2 -1</clus>
<clus scale="   86.737">  1  5  2 -1</clus>
<clus scale="   91.355">  7  8 -1 -1</clus>
<clus scale="   86.737">  1  5  2 -1</clus>
</clustering>
</event>
<event>
 9    2  0.7820252E-005  0.9320320E+02  0.7546771E-02  0.1298813E+00
          2   -1    0    0  502    0 -0.00000000000E+00  0.00000000000E+00  0.27422114900E+03  0.27422114900E+03  0.00000000000E+00 0. -1.
         21   -1    0    0  501  502  0.00000000000E+00 -0.00000000000E+00 -0.64089703894E+02  0.64089703894E+02  0.00000000000E+00 0.  1.
         24    2    1    2    0    0 -0.14628411510E+02  0.87490174706E+01  0.15782132488E+03  0.17959351595E+03  0.83998361024E+02 0.  0.
         23    2    1    2    0    0  0.12680658641E+02 -0.46431278115E+02  0.62319887634E+02  0.11967963783E+03  0.90126492361E+02 0.  0.
        -11    1    3    3    0    0  0.27059747907E+02  0.22900594851E+02  0.38133242010E+02  0.52065452533E+02  0.00000000000E+00 0.  1.
         12    1    3    3    0    0 -0.41688159416E+02 -0.14151577380E+02  0.11968808287E+03  0.12752806341E+03  0.00000000000E+00 0. -1.
        -13    1    4    4    0    0 -0.33597575300E+02 -0.79376431957E+01  0.45621972919E+02  0.57211604230E+02  0.00000000000E+00 0. -1.
         13    1    4    4    0    0  0.46278233941E+02 -0.38493634919E+02  0.16697914715E+02  0.62468033600E+02  0.00000000000E+00 0.  1.
          1    1    1    2  501    0  0.19477528684E+01  0.37682260644E+02 -0.10009767408E+02  0.39037699113E+02  0.00000000000E+00 0. -1.
<scales pt_clust_5="13000.00000" pt_clust_6="13000.00000" pt_clust_7="13000.00000" pt_clust_8="13000.00000" pt_clust_9="37.73257"></scales>
<clustering>
<clus scale="   37.733">  2  9  1 -1</clus>
<clus scale="   83.998">  5  6 -1 -1</clus>
<clus scale="   87.291">  1  5  2 -1</clus>
<clus scale="   90.126">  7  8 -1 -1</clus>
<clus scale="   37.733">  2  5  1 -1</clus>
</clustering>
</event>
<event>
 9    2  0.7820252E-005  0.9329235E+02  0.7546771E-02  0.1300320E+00
          2   -1    0    0  502    0 -0.00000000000E+00  0.00000000000E+00  0.39188989897E+03  0.39188989897E+03  0.00000000000E+00 0. -1.
         21   -1    0    0  501  502  0.00000000000E+00 -0.00000000000E+00 -0.53985899172E+02  0.53985899172E+02  0.00000000000E+00 0. -1.
         24    2    1    2    0    0  0.13787673176E+02  0.54379225449E-01  0.16570801765E+03  0.18489741303E+03  0.80856683982E+02 0.  0.
         23    2    1    2    0    0 -0.69594860079E+02  0.10891287031E+02  0.47005551450E+02  0.12347604455E+03  0.89859596196E+02 0.  0.
        -11    1    3    3    0    0 -0.29321587044E+02  0.68667919608E+01  0.30676593054E+02  0.42987924583E+02  0.00000000000E+00 0.  1.
         12    1    3    3    0    0  0.43109260220E+02 -0.68124127354E+01  0.13503142460E+03  0.14190948845E+03  0.00000000000E+00 0. -1.
        -11    1    4    4    0    0 -0.40598844453E+02 -0.13252794239E+02 -0.19549751540E+02  0.46969091021E+02  0.00000000000E+00 0.  1.
         11    1    4    4    0    0 -0.28996015626E+02  0.24144081270E+02  0.66555302990E+02  0.76506953531E+02  0.00000000000E+00 0. -1.
          1    1    1    2  501    0  0.55807186903E+02 -0.10945666257E+02  0.12519043070E+03  0.13750234056E+03  0.00000000000E+00 0. -1.
<scales pt_clust_5="13000.00000" pt_clust_6="13000.00000" pt_clust_7="13000.00000" pt_clust_8="13000.00000" pt_clust_9="56.87049"></scales>
<clustering>
<clus scale="   56.870">  2  9  1 -1</clus>
<clus scale="   80.857">  5  6 -1 -1</clus>
<clus scale="   84.655">  1  5  2 -1</clus>
<clus scale="   89.860">  7  8 -1 -1</clus>
<clus scale="   56.870">  2  5  1 -1</clus>
</clustering>
</event>
<event>
 9    2  0.7820252E-005  0.1275157E+03  0.7546771E-02  0.1236152E+00
          2   -1    0    0  502    0 -0.00000000000E+00  0.00000000000E+00  0.85912271225E+03  0.85912271225E+03  0.00000000000E+00 0. -1.
         21   -1    0    0  501  502  0.00000000000E+00 -0.00000000000E+00 -0.47312343995E+02  0.47312343995E+02  0.00000000000E+00 0.  1.
         24    2    1    2    0    0  0.37510310720E+01  0.86631186813E+02  0.69291676266E+03  0.70213283963E+03  0.73060603265E+02 0.  0.
         23    2    1    2    0    0  0.97845412701E+01 -0.10735158777E+03  0.10401937354E+03  0.17542680296E+03  0.91293112995E+02 0.  0.
        -13    1    3    3    0    0  0.24153857460E+02  0.14998229322E+02  0.84076734720E+02  0.88753890248E+02  0.00000000000E+00 0.  1.
         14    1    3    3    0    0 -0.20402826388E+02  0.71632957491E+02  0.60884002793E+03  0.61337894938E+03  0.00000000000E+00 0. -1.
        -13    1    4    4    0    0  0.42713734616E+02 -0.53597225340E+02  0.85791519927E+02  0.10980578573E+03  0.00000000000E+00 0.  1.
         13    1    4    4    0    0 -0.32929193346E+02 -0.53754362434E+02  0.18227853617E+02  0.65621017232E+02  0.00000000000E+00 0. -1.
          1    1    1    2  501    0 -0.13535572342E+02  0.20720400961E+02  0.14874232057E+02  0.28875413658E+02  0.00000000000E+00 0. -1.
<scales pt_clust_5="13000.00000" pt_clust_6="13000.00000" pt_clust_7="13000.00000" pt_clust_8="13000.00000" pt_clust_9="24.74968"></scales>
<clustering>
<clus scale="   24.750">  2  9  1 -1</clus>
<clus scale="   73.061">  5  6 -1 -1</clus>
<clus scale="   91.293">  7  8 -1 -1</clus>
<clus scale="  115.168">  1  5  2 -1</clus>
<clus scale="   24.750">  2  5  1 -1</clus>
</clustering>
</event>
<event>
 9    2  0.7820252E-005  0.9283382E+02  0.7546771E-02  0.1302606E+00
          2   -1    0    0  502    0 -0.00000000000E+00  0.00000000000E+00  0.52103762708E+03  0.52103762708E+03  0.00000000000E+00 0. -1.
         21   -1    0    0  501  502  0.00000000000E+00 -0.00000000000E+00 -0.77022433246E+02  0.77022433246E+02  0.00000000000E+00 0. -1.
         24    2    1    2    0    0  0.36924589663E+02  0.17452031054E+02  0.32098971294E+03  0.33332859705E+03  0.80034736751E+02 0.  0.
         23    2    1    2    0    0  0.28524341547E+02  0.16094105908E+01  0.16076557805E+03  0.18681345452E+03  0.90760494938E+02 0.  0.
        -13    1    3    3    0    0 -0.16815966232E+02 -0.13880250848E+02  0.40221649609E+02  0.45751712330E+02  0.00000000000E+00 0.  1.
         14    1    3    3    0    0  0.53740555895E+02  0.31332281902E+02  0.28076806333E+03  0.28757688472E+03  0.00000000000E+00 0. -1.
        -13    1    4    4    0    0  0.56177740193E+02 -0.20440063936E+02  0.10162938874E+03  0.11790787660E+03  0.00000000000E+00 0. -1.
         13    1    4    4    0    0 -0.27653398646E+02  0.22049474527E+02  0.59136189310E+02  0.68905577928E+02  0.00000000000E+00 0.  1.
          1    1    1    2  501    0 -0.65448931210E+02 -0.19061441645E+02 -0.37740097162E+02  0.77918008752E+02  0.00000000000E+00 0. -1.
<scales pt_clust_5="13000.00000" pt_clust_6="13000.00000" pt_clust_7="13000.00000" pt_clust_8="13000.00000" pt_clust_9="68.16818"></scales>
<clustering>
<clus scale="   68.168">  2  9  1 -1</clus>
<clus scale="   80.035">  5  6 -1 -1</clus>
<clus scale="   82.378">  1  5  2 -1</clus>
<clus scale="   90.760">  7  8 -1 -1</clus>
<clus scale="   68.168">  2  5  1 -1</clus>
</clustering>
</event>
<event>
 9    2  0.7820252E-005  0.2689793E+03  0.7546771E-02  0.1101865E+00
          2   -1    0    0  502    0 -0.00000000000E+00  0.00000000000E+00  0.48757449065E+03  0.48757449065E+03  0.00000000000E+00 0. -1.
         21   -1    0    0  501  502  0.00000000000E+00 -0.00000000000E+00 -0.25808377467E+03  0.25808377467E+03  0.00000000000E+00 0. -1.
         24    2    1    2    0    0 -0.13891731585E+03 -0.57877636819E+01  0.27387815123E+03  0.31747224879E+03  0.80298618793E+02 0.  0.
         23    2    1    2    0    0 -0.60115712808E+02  0.28304122973E+00  0.12712779898E+03  0.16538966184E+03  0.87053339582E+02 0.  0.
        -13    1    3    3    0    0 -0.75573369057E+02 -0.12407872926E+02  0.69566309630E+02  0.10346381424E+03  0.00000000000E+00 0.  1.
         14    1    3    3    0    0 -0.63343946790E+02  0.66201092442E+01  0.20431184160E+03  0.21400843455E+03  0.00000000000E+00 0. -1.
        -11    1    4    4    0    0 -0.10739106233E+02 -0.40324483747E+02  0.46178965892E+02  0.62240575857E+02  0.00000000000E+00 0. -1.
         11    1    4    4    0    0 -0.49376606575E+02  0.40607524976E+02  0.80948833089E+02  0.10314908599E+03  0.00000000000E+00 0.  1.
          1    1    1    2  501    0  0.19903302866E+03  0.55047224522E+01 -0.17151523422E+03  0.26279635469E+03  0.00000000000E+00 0. -1.
<scales pt_clust_5="13000.00000" pt_clust_6="13000.00000" pt_clust_7="13000.00000" pt_clust_8="13000.00000" pt_clust_9="199.10914"></scales>
<clustering>
<clus scale="   80.299">  5  6 -1 -1</clus>
<clus scale="   87.053">  7  8 -1 -1</clus>
<clus scale="   87.098">  5  7 -1 -1</clus>
<clus scale="  199.109">  2  9  1 -1</clus>
<clus scale="  199.109">  2  5  1 -1</clus>
</clustering>
</event>
<event>
 9    2  0.7820252E-005  0.1164571E+03  0.7546771E-02  0.1252428E+00
          2   -1    0    0  502    0 -0.00000000000E+00  0.00000000000E+00  0.87612519866E+03  0.87612519866E+03  0.00000000000E+00 0. -1.
         21   -1    0    0  501  502  0.00000000000E+00 -0.00000000000E+00 -0.28489413619E+02  0.28489413619E+02  0.00000000000E+00 0.  1.
         24    2    1    2    0    0  0.56045545089E+02  0.51699837623E+02  0.66584110742E+03  0.67494237156E+03  0.79930271319E+02 0.  0.
         23    2    1    2    0    0 -0.35951084380E+02 -0.57048816049E+02  0.17459597752E+03  0.20766723663E+03  0.89971539520E+02 0.  0.
        -11    1    3    3    0    0  0.13300011926E+02  0.44126468467E+02  0.14169698687E+03  0.14900359601E+03  0.00000000000E+00 0.  1.
         12    1    3    3    0    0  0.42745533163E+02  0.75733691561E+01  0.52414412055E+03  0.52593877555E+03  0.00000000000E+00 0. -1.
        -11    1    4    4    0    0 -0.35918273449E+02 -0.88745180564E+01  0.14817304349E+03  0.15272239605E+03  0.00000000000E+00 0. -1.
         11    1    4    4    0    0 -0.32810931020E-01 -0.48174297992E+02  0.26422934026E+02  0.54944840578E+02  0.00000000000E+00 0.  1.
          1    1    1    2  501    0 -0.20094460709E+02  0.53489784261E+01  0.71987001022E+01  0.22005004080E+02  0.00000000000E+00 0. -1.
<scales pt_clust_5="13000.00000" pt_clust_6="13000.00000" pt_clust_7="13000.00000" pt_clust_8="13000.00000" pt_clust_9="20.79420"></scales>
<clustering>
<clus scale="   20.794">  2  9  1 -1</clus>
<clus scale="   79.930">  5  6 -1 -1</clus>
<clus scale="   89.972">  7  8 -1 -1</clus>
<clus scale="  108.886">  1  5  2 -1</clus>
<clus scale="   20.794">  2  5  1 -1</clus>
</clustering>
</event>
<event>
 9    2  0.7820252E-005  0.1163400E+03  0.7546771E-02  0.1253900E+00
          2   -1    0    0  502    0 -0.00000000000E+00  0.00000000000E+00  0.29150290551E+03  0.29150290551E+03  0.00000000000E+00 0. -1.
         21   -1    0    0  501  502  0.00000000000E+00 -0.00000000000E+00 -0.94416626395E+02  0.94416626395E+02  0.00000000000E+00 0.  1.
         24    2    1    2    0    0 -0.85365505715E+02 -0.14532738972E+02  0.15514454286E+03  0.19353766218E+03  0.76736741087E+02 0.  0.
         23    2    1    2    0    0  0.25039047231E+02  0.60650248863E+02  0.21750483327E+02  0.11380838179E+03  0.90409389263E+02 0.  0.
        -11    1    3    3    0    0 -0.65318535596E+02 -0.39559367283E+02  0.13659882497E+03  0.15649502745E+03  0.00000000000E+00 0.  1.
         12    1    3    3    0    0 -0.20046970119E+02  0.25026628311E+02  0.18545717893E+02  0.37042634730E+02  0.00000000000E+00 0. -1.
        -11    1    4    4    0    0  0.32490250965E+01  0.60109941169E+02 -0.22672753600E+02  0.64325849759E+02  0.00000000000E+00 0.  1.
         11    1    4    4    0    0  0.21790022134E+02  0.54030769471E+00  0.44423236926E+02  0.49482532029E+02  0.00000000000E+00 0. -1.
          1    1    1    2  501    0  0.60326458484E+02 -0.46117509891E+02  0.20191252920E+02  0.78573487935E+02  0.00000000000E+00 0. -1.
<scales pt_clust_5="13000.00000" pt_clust_6="13000.00000" pt_clust_7="13000.00000" pt_clust_8="13000.00000" pt_clust_9="75.93488"></scales>
<clustering>
<clus scale="   75.935">  2  9  1 -1</clus>
<clus scale="   76.737">  5  6 -1 -1</clus>
<clus scale="   90.409">  7  8 -1 -1</clus>
<clus scale="  106.064">  1  5  2 -1</clus>
<clus scale="   75.935">  2  5  1 -1</clus>
</clustering>
</event>
<event>
 9    2  0.7820252E-005  0.1021608E+03  0.7546771E-02  0.1283062E+00
         -1   -1    0    0    0  501 -0.00000000000E+00  0.00000000000E+00  0.95024795485E+02  0.95024795485E+02  0.00000000000E+00 0.  1.
         21   -1    0    0  501  502  0.00000000000E+00 -0.00000000000E+00 -0.34577319100E+03  0.34577319100E+03  0.00000000000E+00 0. -1.
         24    2    1    2    0    0 -0.23208861938E+02  0.27580591886E+02  0.16325133045E+02  0.86048890649E+02  0.76410478940E+02 0.  0.
         23    2    1    2    0    0  0.76309068876E+02 -0.18727193136E+02 -0.48982300007E+02  0.13011205833E+03  0.91411707423E+02 0.  0.
        -13    1    3    3    0    0 -0.28779557087E+02  0.50431453613E+02  0.21585399085E+02  0.61947751156E+02  0.00000000000E+00 0.  1.
         14    1    3    3    0    0  0.55706951484E+01 -0.22850861727E+02 -0.52602660392E+01  0.24101139494E+02  0.00000000000E+00 0. -1.
        -13    1    4    4    0    0  0.96838900956E+02 -0.19415102502E+02 -0.33161840877E+02  0.10418457964E+03  0.00000000000E+00 0. -1.
         13    1    4    4    0    0 -0.20529832079E+02  0.68790936572E+00 -0.15820459130E+02  0.25927478697E+02  0.00000000000E+00 0.  1.
         -2    1    1    2    0  502 -0.53100206938E+02 -0.88533987493E+01 -0.21809122856E+03  0.22463703751E+03  0.00000000000E+00 0.  1.
<scales pt_clust_5="13000.00000" pt_clust_6="13000.00000" pt_clust_7="13000.00000" pt_clust_8="13000.00000" pt_clust_9="53.83321"></scales>
<clustering>
<clus scale="   53.833">  2  9  1 -1</clus>
<clus scale="   76.410">  5  6 -1 -1</clus>
<clus scale="   88.990">  1  5  2 -1</clus>
<clus scale="   91.412">  7  8 -1 -1</clus>
<clus scale="   53.833">  2  5  1 -1</clus>
</clustering>
</event>
<event>
 9    2  0.7820252E-005  0.1074629E+03  0.7546771E-02  0.1268273E+00
          2   -1    0    0  502    0 -0.00000000000E+00  0.00000000000E+00  0.75945644058E+03  0.75945644058E+03  0.00000000000E+00 0. -1.
         21   -1    0    0  501  502  0.00000000000E+00 -0.00000000000E+00 -0.63525358397E+02  0.63525358397E+02  0.00000000000E+00 0.  1.
         24    2    1    2    0    0 -0.37275165976E+02  0.43657966451E+02  0.62601851004E+03  0.63388292323E+03  0.81319920139E+02 0.  0.
         23    2    1    2    0    0  0.50520094939E+02 -0.74042888119E+02  0.85650766150E+02  0.15240606503E+03  0.88639300784E+02 0.  0.
        -11    1    3    3    0    0 -0.41559813325E+02 -0.10230565822E+02  0.20595699601E+03  0.21035723607E+03  0.00000000000E+00 0.  1.
         12    1    3    3    0    0  0.42846473489E+01  0.53888532273E+02  0.42006151403E+03  0.42352568716E+03  0.00000000000E+00 0. -1.
        -13    1    4    4    0    0 -0.10687615713E+02 -0.22825824925E+02 -0.10624706153E+02  0.27351924868E+02  0.00000000000E+00 0. -1.
         13    1    4    4    0    0  0.61207710652E+02 -0.51217063194E+02  0.96275472303E+02  0.12505414017E+03  0.00000000000E+00 0.  1.
          1    1    1    2  501    0 -0.13244928963E+02  0.30384921668E+02 -0.15738194004E+02  0.36692810720E+02  0.00000000000E+00 0. -1.
<scales pt_clust_5="13000.00000" pt_clust_6="13000.00000" pt_clust_7="13000.00000" pt_clust_8="13000.00000" pt_clust_9="33.14622"></scales>
<clustering>
<clus scale="   33.146">  2  9  1 -1</clus>
<clus scale="   81.320">  5  6 -1 -1</clus>
<clus scale="   88.639">  7  8 -1 -1</clus>
<clus scale="  101.510">  1  5  2 -1</clus>
<clus scale="   33.146">  2  5  1 -1</clus>
</clustering>
</event>
<event>
 9    2  0.7820252E-005  0.1192458E+03  0.7546771E-02  0.1247690E+00
         21   -1    0    0  501  502  0.00000000000E+00  0.00000000000E+00  0.16971381790E+03  0.16971381790E+03  0.00000000000E+00 0. -1.
          2   -1    0    0  502    0 -0.00000000000E+00 -0.00000000000E+00 -0.35693078046E+03  0.35693078046E+03  0.00000000000E+00 0. -1.
         23    2    1    2    0    0  0.62163725362E+02  0.46544947482E+02 -0.24180028200E+03  0.26962410449E+03  0.90548442622E+02 0.  0.
         24    2    1    2    0    0 -0.47861661903E+02 -0.63659914547E+02 -0.68400809552E+02  0.13203022586E+03  0.80062390619E+02 0.  0.
        -11    1    4    4    0    0 -0.35774682059E+02 -0.74938923912E+02 -0.26788539175E+02  0.87254203478E+02  0.00000000000E+00 0.  1.
         12    1    4    4    0    0 -0.12086979844E+02  0.11279009364E+02 -0.41612270377E+02  0.44776022377E+02  0.00000000000E+00 0. -1.
        -13    1    3    3    0    0 -0.31319747752E+01  0.29456607970E+02 -0.16388210546E+03  0.16653782005E+03  0.00000000000E+00 0. -1.
         13    1    3    3    0    0  0.65295700137E+02  0.17088339513E+02 -0.77918176540E+02  0.10308628444E+03  0.00000000000E+00 0.  1.
          1    1    1    2  501    0 -0.14302063458E+02  0.17114967065E+02  0.12298412898E+03  0.12499026801E+03  0.00000000000E+00 0. -1.
<scales pt_clust_5="13000.00000" pt_clust_6="13000.00000" pt_clust_7="13000.00000" pt_clust_8="13000.00000" pt_clust_9="22.30406"></scales>
<clustering>
<clus scale="   22.304">  1  9  2 -1</clus>
<clus scale="   80.062">  5  6 -1 -1</clus>
<clus scale="   90.548">  7  8 -1 -1</clus>
<clus scale="  111.492">  1  5  2 -1</clus>
<clus scale="   22.304">  1  5  2 -1</clus>
</clustering>
</event>
<event>
 9    2  0.7820252E-005  0.9927616E+02  0.7546771E-02  0.1287800E+00
          4   -1    0    0  502    0 -0.00000000000E+00  0.00000000000E+00  0.28169223245E+03  0.28169223245E+03  0.00000000000E+00 0. -1.
         21   -1    0    0  501  502  0.00000000000E+00 -0.00000000000E+00 -0.79914704358E+02  0.79914704358E+02  0.00000000000E+00 0.  1.
         24    2    1    2    0    0 -0.27826166618E+02 -0.21926556868E+02  0.21995047513E+03  0.23757202482E+03  0.82505672670E+02 0.  0.
         23    2    1    2    0    0  0.36553421703E+01  0.15002097625E+02 -0.24380347091E+02  0.98136867555E+02  0.93797755782E+02 0.  0.
        -13    1    3    3    0    0  0.72142046426E+01 -0.40609119737E+02  0.60294639530E+02  0.73051960347E+02  0.00000000000E+00 0.  1.
         14    1    3    3    0    0 -0.35040371260E+02  0.18682562869E+02  0.15965583560E+03  0.16452006447E+03  0.00000000000E+00 0. -1.
        -11    1    4    4    0    0  0.45902190983E+02 -0.57288564288E+01 -0.21441555886E+02  0.50985990741E+02  0.00000000000E+00 0.  1.
         11    1    4    4    0    0 -0.42246848813E+02  0.20730954054E+02 -0.29387912049E+01  0.47150876814E+02  0.00000000000E+00 0. -1.
          3    1    1    2  501    0  0.24170824448E+02  0.69244592427E+01  0.62074000606E+01  0.25898044440E+02  0.00000000000E+00 0. -1.
<scales pt_clust_5="13000.00000" pt_clust_6="13000.00000" pt_clust_7="13000.00000" pt_clust_8="13000.00000" pt_clust_9="25.14313"></scales>
<clustering>
<clus scale="   25.143">  2  9  1 -1</clus>
<clus scale="   82.506">  5  6 -1 -1</clus>
<clus scale="   88.684">  1  5  2 -1</clus>
<clus scale="   93.798">  7  8 -1 -1</clus>
<clus scale="   25.143">  2  5  1 -1</clus>
</clustering>
</event>
<event>
 9    2  0.7820252E-005  0.1879052E+03  0.7546771E-02  0.1193363E+00
         21   -1    0    0  501  502  0.00000000000E+00  0.00000000000E+00  0.66942717002E+02  0.66942717002E+02  0.00000000000E+00 0. -1.
          2   -1    0    0  502    0 -0.00000000000E+00 -0.00000000000E+00 -0.88151961874E+03  0.88151961874E+03  0.00000000000E+00 0. -1.
         24    2    1    2    0    0  0.38412482121E+02 -0.39194450766E+01 -0.45646931562E+02  0.10012913080E+03  0.80320107330E+02 0.  0.
         23    2    1    2    0    0  0.69319166313E+02 -0.13816458803E+03 -0.35228103936E+03  0.39513312541E+03  0.90186783402E+02 0.  0.
        -13    1    3    3    0    0 -0.23677326677E+02  0.71146262647E+01 -0.20939917534E+02  0.32399287828E+02  0.00000000000E+00 0.  1.
         14    1    3    3    0    0  0.62089808798E+02 -0.11034071341E+02 -0.24707014028E+02  0.67729842973E+02  0.00000000000E+00 0. -1.
        -13    1    4    4    0    0  0.17860435370E+02 -0.93238726426E+02 -0.28010988477E+03  0.29576004261E+03  0.00000000000E+00 0. -1.
         13    1    4    4    0    0  0.51458730943E+02 -0.44925861602E+02 -0.72171154593E+02  0.99373082805E+02  0.00000000000E+00 0.  1.
          1    1    1    2  501    0 -0.10773164843E+03  0.14208403311E+03 -0.41664893081E+03  0.45320007953E+03  0.00000000000E+00 0. -1.
<scales pt_clust_5="13000.00000" pt_clust_6="13000.00000" pt_clust_7="13000.00000" pt_clust_8="13000.00000" pt_clust_9="164.84757"></scales>
<clustering>
<clus scale="   80.320">  5  6 -1 -1</clus>
<clus scale="   89.119">  2  5  1 -1</clus>
<clus scale="   90.187">  7  8 -1 -1</clus>
<clus scale="  164.848">  1  9  2 -1</clus>
<clus scale="  164.848">  1  5  2 -1</clus>
</clustering>
</event>
<event>
 9    2  0.7820252E-005  0.8298003E+02  0.7546771E-02  0.1321705E+00
         21   -1    0    0  501  502  0.00000000000E+00  0.00000000000E+00  0.23865237624E+03  0.23865237624E+03  0.00000000000E+00 0. -1.
          2   -1    0    0  502    0 -0.00000000000E+00 -0.00000000000E+00 -0.16829433088E+03  0.16829433088E+03  0.00000000000E+00 0. -1.
         23    2    1    2    0    0 -0.70330004473E+01  0.32946074956E+01 -0.11946859258E+03  0.14501876011E+03  0.81837513617E+02 0.  0.
         24    2    1    2    0    0  0.36021278069E+02 -0.21066107827E+02  0.25588927911E+02  0.94207429911E+02  0.80491820989E+02 0.  0.
        -13    1    4    4    0    0  0.26212435239E+02 -0.36281720650E+02  0.47845305948E+02  0.65518152566E+02  0.00000000000E+00 0.  1.
         14    1    4    4    0    0  0.98088428303E+01  0.15215612823E+02 -0.22256378037E+02  0.28689277345E+02  0.00000000000E+00 0. -1.
        -11    1    3    3    0    0 -0.31175762727E+02  0.25851383859E+02 -0.32313730287E+02  0.51811189854E+02  0.00000000000E+00 0. -1.
         11    1    3    3    0    0  0.24142762280E+02 -0.22556776363E+02 -0.87154862296E+02  0.93207570252E+02  0.00000000000E+00 0.  1.
          1    1    1    2  501    0 -0.28988277622E+02  0.17771500331E+02  0.16423771003E+03  0.16772051711E+03  0.00000000000E+00 0. -1.
<scales pt_clust_5="13000.00000" pt_clust_6="13000.00000" pt_clust_7="13000.00000" pt_clust_8="13000.00000" pt_clust_9="34.00215"></scales>
<clustering>
<clus scale="   34.002">  1  9  2 -1</clus>
<clus scale="   80.492">  5  6 -1 -1</clus>
<clus scale="   81.653">  1  5  2 -1</clus>
<clus scale="   81.838">  7  8 -1 -1</clus>
<clus scale="   34.002">  1  5  2 -1</clus>
</clustering>
</event>
<event>
 9    2  0.7820252E-005  0.9469260E+02  0.7546771E-02  0.1298152E+00
         21   -1    0    0  501  502  0.00000000000E+00  0.00000000000E+00  0.92603856135E+02  0.92603856135E+02  0.00000000000E+00 0.  1.
          4   -1    0    0  502    0 -0.00000000000E+00 -0.00000000000E+00 -0.23347633099E+03  0.23347633099E+03  0.00000000000E+00 0. -1.
         24    2    1    2    0    0 -0.16908421495E+02  0.18404929681E+02 -0.17298824400E+03  0.19246539287E+03  0.80581379569E+02 0.  0.
         23    2    1    2    0    0  0.30162829581E+02 -0.10835948532E+01  0.18456853447E+01  0.96305466375E+02  0.91435036136E+02 0.  0.
        -11    1    3    3    0    0 -0.33591232784E+02  0.36168838773E+02 -0.15356201993E+03  0.16130049529E+03  0.00000000000E+00 0.  1.
         12    1    3    3    0    0  0.16682811290E+02 -0.17763909092E+02 -0.19426224079E+02  0.31164897573E+02  0.00000000000E+00 0. -1.
        -13    1    4    4    0    0 -0.17464447579E+02  0.27917473048E+02  0.18931869048E+02  0.37984311186E+02  0.00000000000E+00 0.  1.
         13    1    4    4    0    0  0.47627277160E+02 -0.29001067901E+02 -0.17086183703E+02  0.58321155189E+02  0.00000000000E+00 0. -1.
          3    1    1    2  501    0 -0.13254408086E+02 -0.17321334828E+02  0.30270083802E+02  0.37309327886E+02  0.00000000000E+00 0. -1.
<scales pt_clust_5="13000.00000" pt_clust_6="13000.00000" pt_clust_7="13000.00000" pt_clust_8="13000.00000" pt_clust_9="21.81073"></scales>
<clustering>
<clus scale="   21.811">  1  9  2 -1</clus>
<clus scale="   80.581">  5  6 -1 -1</clus>
<clus scale="   84.260">  2  5  1 -1</clus>
<clus scale="   91.435">  7  8 -1 -1</clus>
<clus scale="   21.811">  1  5  2 -1</clus>
</clustering>
</event>
<event>
 9    2  0.7820252E-005  0.1664713E+03  0.7546771E-02  0.1183004E+00
         21   -1    0    0  501  502  0.00000000000E+00  0.00000000000E+00  0.95442916079E+03  0.95442916079E+03  0.00000000000E+00 0.  1.
          2   -1    0    0  502    0 -0.00000000000E+00 -0.00000000000E+00 -0.48986349270E+02  0.48986349270E+02  0.00000000000E+00 0. -1.
         23    2    1    2    0    0 -0.10893738744E+03  0.96682669102E+02  0.15260034129E+03  0.22667328103E+03  0.82939853418E+02 0.  0.
         24    2    1    2    0    0  0.12172294648E+03 -0.72184296580E+02  0.69119713720E+03  0.70918641610E+03  0.71866834702E+02 0.  0.
        -13    1    4    4    0    0  0.12751581784E+03 -0.55152962633E+02  0.57149313764E+03  0.58813819758E+03  0.00000000000E+00 0.  1.
         14    1    4    4    0    0 -0.57928713603E+01 -0.17031333947E+02  0.11970399956E+03  0.12104821852E+03  0.00000000000E+00 0. -1.
        -11    1    3    3    0    0 -0.10977408193E+03  0.50135177851E+02  0.10315880588E+03  0.15876279271E+03  0.00000000000E+00 0. -1.
         11    1    3    3    0    0  0.83669448515E+00  0.46547491251E+02  0.49441535412E+02  0.67910488316E+02  0.00000000000E+00 0.  1.
          1    1    1    2  501    0 -0.12785559041E+02 -0.24498372521E+02  0.61645333025E+02  0.67555812925E+02  0.00000000000E+00 0. -1.
<scales pt_clust_5="13000.00000" pt_clust_6="13000.00000" pt_clust_7="13000.00000" pt_clust_8="13000.00000" pt_clust_9="27.63405"></scales>
<clustering>
<clus scale="   27.634">  1  9  2 -1</clus>
<clus scale="   71.867">  5  6 -1 -1</clus>
<clus scale="   82.940">  7  8 -1 -1</clus>
<clus scale="  161.241">  1  5  2 -1</clus>
<clus scale="   27.634">  1  5  2 -1</clus>
</clustering>
</event>
<event>
 9    2  0.7820252E-005  0.1418982E+03  0.7546771E-02  0.1231919E+00
          2   -1    0    0  502    0 -0.00000000000E+00  0.00000000000E+00  0.10097504683E+04  0.10097504683E+04  0.00000000000E+00 0. -1.
         21   -1    0    0  501  502  0.00000000000E+00 -0.00000000000E+00 -0.10077010961E+03  0.10077010961E+03  0.00000000000E+00 0. -1.
         23    2    1    2    0    0 -0.23067824894E+01 -0.30901398115E+01  0.78914662907E+02  0.12057129494E+03  0.91077126287E+02 0.  0.
         24    2    1    2    0    0  0.42264939041E+02  0.11096081060E+03  0.85917734894E+03  0.87128916231E+03  0.82827899087E+02 0.  0.
        -11    1    4    4    0    0  0.37411360607E+02  0.22098243927E+02  0.13897315820E+03  0.14560728343E+03  0.00000000000E+00 0.  1.
         12    1    4    4    0    0  0.48535784336E+01  0.88862566672E+02  0.72020419074E+03  0.72568187889E+03  0.00000000000E+00 0. -1.
        -11    1    3    3    0    0 -0.42024289513E+02  0.72772931610E+01  0.16211307229E+02  0.45626816533E+02  0.00000000000E+00 0.  1.
         11    1    3    3    0    0  0.39717507024E+02 -0.10367432972E+02  0.62703355678E+02  0.74944478408E+02  0.00000000000E+00 0. -1.
          1    1    1    2  501    0 -0.39958156551E+02 -0.10787067079E+03 -0.29111653143E+02  0.11866012068E+03  0.00000000000E+00 0. -1.
<scales pt_clust_5="13000.00000" pt_clust_6="13000.00000" pt_clust_7="13000.00000" pt_clust_8="13000.00000" pt_clust_9="115.21564"></scales>
<clustering>
<clus scale="   82.828">  5  6 -1 -1</clus>
<clus scale="   91.077">  7  8 -1 -1</clus>
<clus scale="   91.159">  1  7  2 -1</clus>
<clus scale="  115.216">  2  9  1 -1</clus>
<clus scale="  115.216">  2  5  1 -1</clus>
</clustering>
</event>
<event>
 9    2  0.7820252E-005  0.1089742E+03  0.7546771E-02  0.1266368E+00
         21   -1    0    0  501  502  0.00000000000E+00  0.00000000000E+00  0.85933554675E+02  0.85933554675E+02  0.00000000000E+00 0.  1.
         -3   -1    0    0    0  501 -0.00000000000E+00 -0.00000000000E+00 -0.19240985495E+03  0.19240985495E+03  0.00000000000E+00 0.  1.
         24    2    1    2    0    0 -0.12451631317E+02 -0.69899900845E+02 -0.48382130281E+02  0.11715097683E+03  0.79639698528E+02 0.  0.
         23    2    1    2    0    0  0.10235624817E+02  0.48337503579E+02 -0.33412870702E+01  0.10230503304E+03  0.89520239719E+02 0.  0.
        -13    1    3    3    0    0  0.25639431458E+02 -0.59926717079E+02 -0.18605662796E+02  0.67784677866E+02  0.00000000000E+00 0.  1.
         14    1    3    3    0    0 -0.38091062775E+02 -0.99731837662E+01 -0.29776467485E+02  0.49366298966E+02  0.00000000000E+00 0. -1.
        -11    1    4    4    0    0  0.21068661777E+02  0.12781934895E+02 -0.41987729727E+02  0.48685067694E+02  0.00000000000E+00 0. -1.
         11    1    4    4    0    0 -0.10833036960E+02  0.35555568684E+02  0.38646442657E+02  0.53619965351E+02  0.00000000000E+00 0.  1.
         -4    1    1    2    0  502  0.22160064998E+01  0.21562397266E+02 -0.54752882919E+02  0.58887399744E+02  0.00000000000E+00 0.  1.
<scales pt_clust_5="13000.00000" pt_clust_6="13000.00000" pt_clust_7="13000.00000" pt_clust_8="13000.00000" pt_clust_9="21.67598"></scales>
<clustering>
<clus scale="   21.676">  1  9  2 -1</clus>
<clus scale="   79.640">  5  6 -1 -1</clus>
<clus scale="   89.520">  7  8 -1 -1</clus>
<clus scale="  101.015">  2  5  1 -1</clus>
<clus scale="   21.676">  1  5  2 -1</clus>
</clustering>
</event>
<event>
 9    2  0.7820252E-005  0.2063928E+03  0.7546771E-02  0.1172093E+00
         21   -1    0    0  501  502  0.00000000000E+00  0.00000000000E+00  0.43410847871E+03  0.43410847871E+03  0.00000000000E+00 0.  1.
          2   -1    0    0  502    0 -0.00000000000E+00 -0.00000000000E+00 -0.58025291308E+03  0.58025291308E+03  0.00000000000E+00 0. -1.
         24    2    1    2    0    0  0.67275457791E+02  0.38690673119E+02 -0.47051420133E+03  0.48280392638E+03  0.75452384121E+02 0.  0.
         23    2    1    2    0    0 -0.12702637232E+03  0.14053319890E+03  0.84476018431E+02  0.22620458974E+03  0.90260952095E+02 0.  0.
        -11    1    3    3    0    0 -0.71704567761E+01  0.25807788591E+02 -0.64847058492E+02  0.70161231442E+02  0.00000000000E+00 0.  1.
         12    1    3    3    0    0  0.74445914567E+02  0.12882884528E+02 -0.40566714284E+03  0.41264269494E+03  0.00000000000E+00 0. -1.
        -11    1    4    4    0    0 -0.11514472904E+03  0.11613839558E+03  0.10306792549E+03  0.19331175034E+03  0.00000000000E+00 0.  1.
         11    1    4    4    0    0 -0.11881643285E+02  0.24394803321E+02 -0.18591907061E+02  0.32892839409E+02  0.00000000000E+00 0. -1.
          1    1    1    2  501    0  0.59750914530E+02 -0.17922387202E+03  0.23989374853E+03  0.30535287566E+03  0.00000000000E+00 0. -1.
<scales pt_clust_5="13000.00000" pt_clust_6="13000.00000" pt_clust_7="13000.00000" pt_clust_8="13000.00000" pt_clust_9="185.60964"></scales>
<clustering>
<clus scale="   75.452">  5  6 -1 -1</clus>
<clus scale="   90.261">  7  8 -1 -1</clus>
<clus scale="  108.241">  2  5  1 -1</clus>
<clus scale="  185.610">  1  9  2 -1</clus>
<clus scale="  185.610">  1  5  2 -1</clus>
</clustering>
</event>
<event>
 9    2  0.7820252E-005  0.2372362E+03  0.7546771E-02  0.1160044E+00
         21   -1    0    0  501  502  0.00000000000E+00  0.00000000000E+00  0.13339230652E+03  0.13339230652E+03  0.00000000000E+00 0. -1.
          2   -1    0    0  502    0 -0.00000000000E+00 -0.00000000000E+00 -0.69012546756E+03  0.69012546756E+03  0.00000000000E+00 0. -1.
         24    2    1    2    0    0  0.50392118675E+02 -0.13828710088E+02  0.97488939120E+01  0.94573260307E+02  0.78220596938E+02 0.  0.
         23    2    1    2    0    0  0.10038878812E+03  0.18330255928E+03 -0.32270246940E+03  0.39595088959E+03  0.94670408216E+02 0.  0.
        -11    1    3    3    0    0  0.49391880529E+02 -0.23569093011E+02 -0.23760519015E+02  0.59662570103E+02  0.00000000000E+00 0.  1.
         12    1    3    3    0    0  0.10002381463E+01  0.97403829227E+01  0.33509412926E+02  0.34910690204E+02  0.00000000000E+00 0. -1.
        -11    1    4    4    0    0  0.11649102000E+03  0.16201645811E+03 -0.30287366084E+03  0.36270090277E+03  0.00000000000E+00 0. -1.
         11    1    4    4    0    0 -0.16102231883E+02  0.21286101169E+02 -0.19828808559E+02  0.33249986819E+02  0.00000000000E+00 0.  1.
          1    1    1    2  501    0 -0.15078090679E+03 -0.16947384919E+03 -0.24377958555E+03  0.33299362418E+03  0.00000000000E+00 0. -1.
<scales pt_clust_5="13000.00000" pt_clust_6="13000.00000" pt_clust_7="13000.00000" pt_clust_8="13000.00000" pt_clust_9="217.52818"></scales>
<clustering>
<clus scale="   78.221">  5  6 -1 -1</clus>
<clus scale="   94.069">  2  5  1 -1</clus>
<clus scale="   94.670">  7  8 -1 -1</clus>
<clus scale="  217.528">  1  9  2 -1</clus>
<clus scale="  217.528">  1  5  2 -1</clus>
</clustering>
</event>
<event>
 9    2  0.7820252E-005  0.2272012E+03  0.7546771E-02  0.1130701E+00
         -1   -1    0    0    0  501 -0.00000000000E+00  0.00000000000E+00  0.40229397870E+03  0.40229397870E+03  0.00000000000E+00 0.  1.
         21   -1    0    0  501  502  0.00000000000E+00 -0.00000000000E+00 -0.32395106581E+03  0.32395106581E+03  0.00000000000E+00 0.  1.
         23    2    1    2    0    0  0.18616491485E+03 -0.15653339848E+03 -0.72215719166E+01  0.26582024101E+03  0.10699611709E+03 0.  0.
         24    2    1    2    0    0 -0.18748207598E+03 -0.19110299910E+02 -0.79180451212E+02  0.21960674429E+03  0.80267340209E+02 0.  0.
        -11    1    4    4    0    0 -0.74975722741E+02  0.26814121727E+02 -0.11327926344E+02  0.80428092355E+02  0.00000000000E+00 0.  1.
         12    1    4    4    0    0 -0.11250635324E+03 -0.45924421637E+02 -0.67852524868E+02  0.13917865193E+03  0.00000000000E+00 0. -1.
        -13    1    3    3    0    0  0.15325220049E+02 -0.21600421151E+02  0.35174835095E+02  0.44030780000E+02  0.00000000000E+00 0. -1.
         13    1    3    3    0    0  0.17083969480E+03 -0.13493297733E+03 -0.42396407011E+02  0.22178946101E+03  0.00000000000E+00 0.  1.
         -2    1    1    2    0  502  0.13171611370E+01  0.17564369839E+03  0.16474493602E+03  0.24081805921E+03  0.00000000000E+00 0.  1.
<scales pt_clust_5="13000.00000" pt_clust_6="13000.00000" pt_clust_7="13000.00000" pt_clust_8="13000.00000" pt_clust_9="175.64872"></scales>
<clustering>
<clus scale="   80.267">  5  6 -1 -1</clus>
<clus scale="  106.996">  7  8 -1 -1</clus>
<clus scale="  175.649">  2  9  1 -1</clus>
<clus scale="  215.905">  2  5  1 -1</clus>
<clus scale="  175.649">  2  5  1 -1</clus>
</clustering>
</event>
<event>
 9    2  0.7820252E-005  0.1291349E+03  0.7546771E-02  0.1251439E+00
         21   -1    0    0  501  502  0.00000000000E+00  0.00000000000E+00  0.24323683862E+02  0.24323683862E+02  0.00000000000E+00 0. -1.
         -3   -1    0    0    0  501 -0.00000000000E+00 -0.00000000000E+00 -0.11128924654E+04  0.11128924654E+04  0.00000000000E+00 0.  1.
         24    2    1    2    0    0 -0.12049815377E+01  0.82680315850E+01 -0.41788053993E+03  0.42574438208E+03  0.81020496715E+02 0.  0.
         23    2    1    2    0    0 -0.71540308996E+00 -0.92566894663E+02 -0.24991196270E+03  0.28232999215E+03  0.93193849460E+02 0.  0.
        -13    1    3    3    0    0  0.36686490683E+02  0.19726387641E+02 -0.22951749144E+03  0.23326660250E+03  0.00000000000E+00 0.  1.
         14    1    3    3    0    0 -0.37891472221E+02 -0.11458356056E+02 -0.18836304850E+03  0.19247777957E+03  0.00000000000E+00 0. -1.
        -13    1    4    4    0    0 -0.45756813496E+02 -0.39085823594E+02 -0.96352323076E+02  0.11360087037E+03  0.00000000000E+00 0. -1.
         13    1    4    4    0    0  0.45041410406E+02 -0.53481071069E+02 -0.15355963962E+03  0.16872912178E+03  0.00000000000E+00 0.  1.
         -4    1    1    2    0  502  0.19203846277E+01  0.84298863078E+02 -0.42077627893E+03  0.42914177507E+03  0.00000000000E+00 0.  1.
<scales pt_clust_5="13000.00000" pt_clust_6="13000.00000" pt_clust_7="13000.00000" pt_clust_8="13000.00000" pt_clust_9="89.39087"></scales>
<clustering>
<clus scale="   81.020">  5  6 -1 -1</clus>
<clus scale="   81.450">  2  5  1 -1</clus>
<clus scale="   89.391">  1  9  2 -1</clus>
<clus scale="   93.194">  7  8 -1 -1</clus>
<clus scale="   89.391">  1  5  2 -1</clus>
</clustering>
</event>
<event>
 9    2  0.7820252E-005  0.2545470E+03  0.7546771E-02  0.1128380E+00
         -1   -1    0    0    0  501 -0.00000000000E+00  0.00000000000E+00  0.15045606812E+03  0.15045606812E+03  0.00000000000E+00 0.  1.
         21   -1    0    0  501  502  0.00000000000E+00 -0.00000000000E+00 -0.21329634437E+04  0.21329634437E+04  0.00000000000E+00 0.  1.
         24    2    1    2    0    0 -0.84746349258E+02 -0.11150440308E+03 -0.53028003151E+03  0.55463133237E+03  0.82485316352E+02 0.  0.
         23    2    1    2    0    0  0.27907518914E+03  0.23137351356E+03 -0.14364082468E+03  0.40043168347E+03  0.91083382893E+02 0.  0.
        -11    1    3    3    0    0 -0.55457401701E+02 -0.66853048821E+02 -0.17511283117E+03  0.19547213914E+03  0.00000000000E+00 0.  1.
         12    1    3    3    0    0 -0.29288947557E+02 -0.44651354256E+02 -0.35516720033E+03  0.35915919322E+03  0.00000000000E+00 0. -1.
        -13    1    4    4    0    0  0.24758384271E+03  0.20548124525E+03 -0.92006210133E+02  0.33464226275E+03  0.00000000000E+00 0.  1.
         13    1    4    4    0    0  0.31491346433E+02  0.25892268316E+02 -0.51634614547E+02  0.65789420716E+02  0.00000000000E+00 0. -1.
         -2    1    1    2    0  502 -0.19432883988E+03 -0.11986911049E+03 -0.13085865194E+04  0.13283564960E+04  0.00000000000E+00 0.  1.
<scales pt_clust_5="13000.00000" pt_clust_6="13000.00000" pt_clust_7="13000.00000" pt_clust_8="13000.00000" pt_clust_9="237.69307"></scales>
<clustering>
<clus scale="   82.485">  5  6 -1 -1</clus>
<clus scale="   91.083">  7  8 -1 -1</clus>
<clus scale="  162.539">  1  5  2 -1</clus>
<clus scale="  237.693">  2  9  1 -1</clus>
<clus scale="  237.693">  2  5  1 -1</clus>
</clustering>
</event>
<event>
 9    2  0.7820252E-005  0.1289282E+03  0.7546771E-02  0.1231631E+00
         21   -1    0    0  501  502  0.00000000000E+00  0.00000000000E+00  0.43285842124E+03  0.43285842124E+03  0.00000000000E+00 0.  1.
          2   -1    0    0  502    0 -0.00000000000E+00 -0.00000000000E+00 -0.37396186353E+03  0.37396186353E+03  0.00000000000E+00 0. -1.
         24    2    1    2    0    0 -0.23311914725E+02 -0.88898086732E+02 -0.17062561440E+03  0.21041402976E+03  0.81942958424E+02 0.  0.
         23    2    1    2    0    0  0.53654448267E+02  0.54261701663E+02  0.40126250716E+03  0.41859992443E+03  0.91603302305E+02 0.  0.
        -13    1    3    3    0    0 -0.40129577886E+02 -0.10279767177E+02 -0.44091795301E+02  0.60499116087E+02  0.00000000000E+00 0.  1.
         14    1    3    3    0    0  0.16817663160E+02 -0.78618319555E+02 -0.12653381910E+03  0.14991491367E+03  0.00000000000E+00 0. -1.
        -13    1    4    4    0    0  0.72856252471E+02  0.15658974578E+02  0.28563039532E+03  0.29519139510E+03  0.00000000000E+00 0. -1.
         13    1    4    4    0    0 -0.19201804204E+02  0.38602727085E+02  0.11563211184E+03  0.12340852933E+03  0.00000000000E+00 0.  1.
          1    1    1    2  501    0 -0.30342533542E+02  0.34636385069E+02 -0.17174033505E+03  0.17780633058E+03  0.00000000000E+00 0. -1.
<scales pt_clust_5="13000.00000" pt_clust_6="13000.00000" pt_clust_7="13000.00000" pt_clust_8="13000.00000" pt_clust_9="46.04727"></scales>
<clustering>
<clus scale="   46.047">  1  9  2 -1</clus>
<clus scale="   81.943">  5  6 -1 -1</clus>
<clus scale="   91.603">  7  8 -1 -1</clus>
<clus scale="  122.254">  2  5  1 -1</clus>
<clus scale="   46.047">  1  5  2 -1</clus>
</clustering>
</event>
<event>
 9    2  0.7820252E-005  0.1454647E+03  0.7546771E-02  0.1231022E+00
         21   -1    0    0  501  502  0.00000000000E+00  0.00000000000E+00  0.21047364877E+03  0.21047364877E+03  0.00000000000E+00 0. -1.
          4   -1    0    0  502    0 -0.00000000000E+00 -0.00000000000E+00 -0.14843737873E+03  0.14843737873E+03  0.00000000000E+00 0. -1.
         24    2    1    2    0    0  0.20272470324E+02  0.14089280162E+02  0.47763337897E+02  0.98542659437E+02  0.82582312957E+02 0.  0.
         23    2    1    2    0    0  0.51001316341E+02 -0.95861660190E+02 -0.18265441975E+02  0.14711899459E+03  0.97569360130E+02 0.  0.
        -13    1    3    3    0    0 -0.27951763274E+02 -0.69812625660E+01  0.21339239848E+01  0.28889318592E+02  0.00000000000E+00 0.  1.
         14    1    3    3    0    0  0.48224233597E+02  0.21070542728E+02  0.45629413913E+02  0.69653340845E+02  0.00000000000E+00 0. -1.
        -13    1    4    4    0    0  0.32752410975E+02 -0.11465474810E+03 -0.10042440111E+02  0.11966320358E+03  0.00000000000E+00 0. -1.
         13    1    4    4    0    0  0.18248905367E+02  0.18793087915E+02 -0.82230018635E+01  0.27455791012E+02  0.00000000000E+00 0.  1.
          3    1    1    2  501    0 -0.71273786665E+02  0.81772380028E+02  0.32538374127E+02  0.11324937347E+03  0.00000000000E+00 0. -1.
<scales pt_clust_5="13000.00000" pt_clust_6="13000.00000" pt_clust_7="13000.00000" pt_clust_8="13000.00000" pt_clust_9="107.88970"></scales>
<clustering>
<clus scale="   82.582">  5  6 -1 -1</clus>
<clus scale="   86.194">  2  5  1 -1</clus>
<clus scale="   97.569">  7  8 -1 -1</clus>
<clus scale="  107.890">  1  9  2 -1</clus>
<clus scale="  107.890">  1  5  2 -1</clus>
</clustering>
</event>
<event>
 9    2  0.7820252E-005  0.1442645E+03  0.7546771E-02  0.1230853E+00
         -1   -1    0    0    0  501 -0.00000000000E+00  0.00000000000E+00  0.97259220594E+02  0.97259220594E+02  0.00000000000E+00 0.  1.
         21   -1    0    0  501  502  0.00000000000E+00 -0.00000000000E+00 -0.46854032580E+03  0.46854032580E+03  0.00000000000E+00 0.  1.
         24    2    1    2    0    0 -0.88924865872E+01  0.36551844705E+02  0.14837459573E+02  0.89905318419E+02  0.80297586541E+02 0.  0.
         23    2    1    2    0    0  0.11548945956E+03 -0.40078303059E+02 -0.31144624123E+03  0.34569704498E+03  0.86968960505E+02 0.  0.
        -13    1    3    3    0    0  0.15742862614E+02  0.52597934557E+02  0.22794627615E+02  0.59447249651E+02  0.00000000000E+00 0.  1.
         14    1    3    3    0    0 -0.24635349201E+02 -0.16046089852E+02 -0.79571680422E+01  0.30458068768E+02  0.00000000000E+00 0. -1.
        -13    1    4    4    0    0  0.74169671935E+02 -0.65466388955E+02 -0.23734099436E+03  0.25713369270E+03  0.00000000000E+00 0.  1.
         13    1    4    4    0    0  0.41319787620E+02  0.25388085896E+02 -0.74105246868E+02  0.88563352284E+02  0.00000000000E+00 0. -1.
         -2    1    1    2    0  502 -0.10659697297E+03  0.35264583538E+01 -0.74672323554E+02  0.13019718299E+03  0.00000000000E+00 0.  1.
<scales pt_clust_5="13000.00000" pt_clust_6="13000.00000" pt_clust_7="13000.00000" pt_clust_8="13000.00000" pt_clust_9="115.10282"></scales>
<clustering>
<clus scale="   80.298">  5  6 -1 -1</clus>
<clus scale="   86.969">  7  8 -1 -1</clus>
<clus scale="   88.673">  1  5  2 -1</clus>
<clus scale="  115.103">  2  9  1 -1</clus>
<clus scale="  115.103">  2  5  1 -1</clus>
</clustering>
</event>
<event>
 9    2  0.7820252E-005  0.1212457E+03  0.7546771E-02  0.1247237E+00
         21   -1    0    0  501  502  0.00000000000E+00  0.00000000000E+00  0.25724640131E+02  0.25724640131E+02  0.00000000000E+00 0.  1.
          2   -1    0    0  502    0 -0.00000000000E+00 -0.00000000000E+00 -0.87867223454E+03  0.87867223454E+03  0.00000000000E+00 0. -1.
         23    2    1    2    0    0  0.55048437630E+02 -0.70032544036E+02 -0.51327978901E+03  0.52910575763E+03  0.92530390900E+02 0.  0.
         24    2    1    2    0    0 -0.38385978040E+02  0.56911395180E+02 -0.33962424642E+03  0.35408253377E+03  0.72920653803E+02 0.  0.
        -11    1    4    4    0    0  0.17671245781E+02  0.11728332004E+02 -0.33847275120E+02  0.39943268921E+02  0.00000000000E+00 0.  1.
         12    1    4    4    0    0 -0.56057223821E+02  0.45183063176E+02 -0.30577697130E+03  0.31413926485E+03  0.00000000000E+00 0. -1.
        -13    1    3    3    0    0  0.78679247581E+02 -0.34894440837E+02 -0.34886789842E+03  0.35932834087E+03  0.00000000000E+00 0.  1.
         13    1    3    3    0    0 -0.23630809951E+02 -0.35138103199E+02 -0.16441189059E+03  0.16977741677E+03  0.00000000000E+00 0. -1.
          1    1    1    2  501    0 -0.16662459590E+02  0.13121148856E+02 -0.43558972459E-01  0.21208583269E+02  0.00000000000E+00 0. -1.
<scales pt_clust_5="13000.00000" pt_clust_6="13000.00000" pt_clust_7="13000.00000" pt_clust_8="13000.00000" pt_clust_9="21.20854"></scales>
<clustering>
<clus scale="   21.209">  1  9  2 -1</clus>
<clus scale="   72.921">  5  6 -1 -1</clus>
<clus scale="   92.530">  7  8 -1 -1</clus>
<clus scale="  107.033">  1  5  2 -1</clus>
<clus scale="   21.209">  1  5  2 -1</clus>
</clustering>
</event>
<event>
 9    2  0.7820252E-005  0.1293908E+03  0.7546771E-02  0.1230698E+00
          2   -1    0    0  502    0 -0.00000000000E+00  0.00000000000E+00  0.86781194215E+03  0.86781194215E+03  0.00000000000E+00 0. -1.
         21   -1    0    0  501  502  0.00000000000E+00 -0.00000000000E+00 -0.36379724719E+02  0.36379724719E+02  0.00000000000E+00 0. -1.
         23    2    1    2    0    0 -0.62903295492E+02  0.26695616312E+01  0.26900796584E+03  0.29070186180E+03  0.90434150755E+02 0.  0.
         24    2    1    2    0    0  0.11611662989E+03 -0.40866448308E+02  0.50581214664E+03  0.52691272071E+03  0.81473610588E+02 0.  0.
        -13    1    4    4    0    0  0.20829596123E+02  0.12290975757E+02  0.28932693841E+02  0.37709958003E+02  0.00000000000E+00 0.  1.
         14    1    4    4    0    0  0.95287033771E+02 -0.53157424065E+02  0.47687945280E+03  0.48920276271E+03  0.00000000000E+00 0. -1.
        -13    1    3    3    0    0  0.21402352601E+02 -0.89598535336E+01  0.38085647166E+02  0.44596593953E+02  0.00000000000E+00 0. -1.
         13    1    3    3    0    0 -0.84305648094E+02  0.11629415165E+02  0.23092231868E+03  0.24610526784E+03  0.00000000000E+00 0.  1.
          1    1    1    2  501    0 -0.53213334401E+02  0.38196886677E+02  0.56612104948E+02  0.86577084362E+02  0.00000000000E+00 0. -1.
<scales pt_clust_5="13000.00000" pt_clust_6="13000.00000" pt_clust_7="13000.00000" pt_clust_8="13000.00000" pt_clust_9="65.50314"></scales>
<clustering>
<clus scale="   65.503">  2  9  1 -1</clus>
<clus scale="   81.474">  5  6 -1 -1</clus>
<clus scale="   90.434">  7  8 -1 -1</clus>
<clus scale="  123.295">  2  5  1 -1</clus>
<clus scale="   65.503">  2  5  1 -1</clus>
</clustering>
</event>
<event>
 9    2  0.7820252E-005  0.1926926E+03  0.7546771E-02  0.1183233E+00
         21   -1    0    0  501  502  0.00000000000E+00  0.00000000000E+00  0.21311106125E+03  0.21311106125E+03  0.00000000000E+00 0. -1.
          2   -1    0    0  502    0 -0.00000000000E+00 -0.00000000000E+00 -0.39808716096E+03  0.39808716096E+03  0.00000000000E+00 0. -1.
         24    2    1    2    0    0 -0.28508066000E+02  0.58666151148E+02  0.98274482598E+02  0.14267864941E+03  0.80280109311E+02 0.  0.
         23    2    1    2    0    0 -0.29626714261E+02  0.12736641765E+03 -0.20230340364E+03  0.25747404438E+03  0.90919029163E+02 0.  0.
        -11    1    3    3    0    0  0.24843988482E+02  0.38878873682E+02  0.37844732764E+02  0.59674235482E+02  0.00000000000E+00 0.  1.
         12    1    3    3    0    0 -0.53352054482E+02  0.19787277466E+02  0.60429749835E+02  0.83004413931E+02  0.00000000000E+00 0. -1.
        -13    1    4    4    0    0  0.16692024906E+02  0.77042781109E+02 -0.15627926586E+03  0.17503548999E+03  0.00000000000E+00 0. -1.
         13    1    4    4    0    0 -0.46318739167E+02  0.50323636539E+02 -0.46024137774E+02  0.82438554393E+02  0.00000000000E+00 0.  1.
          1    1    1    2  501    0  0.58134780261E+02 -0.18603256880E+03 -0.80947178666E+02  0.21104552841E+03  0.00000000000E+00 0. -1.
<scales pt_clust_5="13000.00000" pt_clust_6="13000.00000" pt_clust_7="13000.00000" pt_clust_8="13000.00000" pt_clust_9="169.89458"></scales>
<clustering>
<clus scale="   80.280">  5  6 -1 -1</clus>
<clus scale="   90.919">  7  8 -1 -1</clus>
<clus scale="  103.438">  2  5  1 -1</clus>
<clus scale="  169.895">  1  9  2 -1</clus>
<clus scale="  169.895">  1  5  2 -1</clus>
</clustering>
</event>
<event>
 9    2  0.7820252E-005  0.1086401E+03  0.7546771E-02  0.1267446E+00
          2   -1    0    0  502    0 -0.00000000000E+00  0.00000000000E+00  0.91078779648E+03  0.91078779648E+03  0.00000000000E+00 0. -1.
         21   -1    0    0  501  502  0.00000000000E+00 -0.00000000000E+00 -0.46868142650E+02  0.46868142650E+02  0.00000000000E+00 0. -1.
         24    2    1    2    0    0  0.81276274268E+02 -0.91459403639E+01  0.59485085112E+03  0.60568694247E+03  0.79496265431E+02 0.  0.
         23    2    1    2    0    0 -0.71967300576E+01  0.48819592914E+02  0.24314645650E+03  0.26402727955E+03  0.90305367830E+02 0.  0.
        -13    1    3    3    0    0  0.58973609149E+02 -0.38296665605E+02  0.27959833084E+03  0.28830495622E+03  0.00000000000E+00 0.  1.
         14    1    3    3    0    0  0.22302665119E+02  0.29150725242E+02  0.31525252028E+03  0.31738198625E+03  0.00000000000E+00 0. -1.
        -13    1    4    4    0    0 -0.43868684371E+02  0.10794356939E+02  0.72810864743E+02  0.85687814973E+02  0.00000000000E+00 0.  1.
         13    1    4    4    0    0  0.36671954314E+02  0.38025235975E+02  0.17033559176E+03  0.17833946457E+03  0.00000000000E+00 0. -1.
          1    1    1    2  501    0 -0.74079544211E+02 -0.39673652550E+02  0.25922346217E+02  0.87941717123E+02  0.00000000000E+00 0. -1.
<scales pt_clust_5="13000.00000" pt_clust_6="13000.00000" pt_clust_7="13000.00000" pt_clust_8="13000.00000" pt_clust_9="84.03438"></scales>
<clustering>
<clus scale="   79.496">  5  6 -1 -1</clus>
<clus scale="   84.034">  2  9  1 -1</clus>
<clus scale="   90.305">  7  8 -1 -1</clus>
<clus scale="   99.836">  1  5  2 -1</clus>
<clus scale="   84.034">  2  5  1 -1</clus>
</clustering>
</event>
<event>
 9    2  0.7820252E-005  0.9712902E+02  0.7546771E-02  0.1291777E+00
         21   -1    0    0  501  502  0.00000000000E+00  0.00000000000E+00  0.16550863477E+03  0.16550863477E+03  0.00000000000E+00 0.  1.
         -3   -1    0    0    0  501 -0.00000000000E+00 -0.00000000000E+00 -0.16084656581E+03  0.16084656581E+03  0.00000000000E+00 0.  1.
         23    2    1    2    0    0 -0.67872426268E+01  0.15256421637E+02 -0.59232511779E+02  0.11018395755E+03  0.91395782108E+02 0.  0.
         24    2    1    2    0    0  0.81620105334E+02 -0.90796245863E+01 -0.27931838109E+01  0.11574530961E+03  0.81516217061E+02 0.  0.
        -11    1    4    4    0    0  0.92137554805E+02 -0.33740247859E+01 -0.20427130857E+02  0.94435060882E+02  0.00000000000E+00 0.  1.
         12    1    4    4    0    0 -0.10517449472E+02 -0.57055998004E+01  0.17633947046E+02  0.21310248729E+02  0.00000000000E+00 0. -1.
        -13    1    3    3    0    0 -0.34782588322E+02 -0.18956516727E+01  0.76618929713E+01  0.35666883093E+02  0.00000000000E+00 0. -1.
         13    1    3    3    0    0  0.27995345695E+02  0.17152073310E+02 -0.66894404750E+02  0.74517074462E+02  0.00000000000E+00 0.  1.
         -4    1    1    2    0  502 -0.74832862707E+02 -0.61767970511E+01  0.66687764549E+02  0.10042593342E+03  0.00000000000E+00 0.  1.
<scales pt_clust_5="13000.00000" pt_clust_6="13000.00000" pt_clust_7="13000.00000" pt_clust_8="13000.00000" pt_clust_9="75.08735"></scales>
<clustering>
<clus scale="   75.087">  1  9  2 -1</clus>
<clus scale="   81.516">  5  6 -1 -1</clus>
<clus scale="   87.896">  1  5  2 -1</clus>
<clus scale="   91.396">  7  8 -1 -1</clus>
<clus scale="   75.087">  1  5  2 -1</clus>
</clustering>
</event>
<event>
 9    2  0.7820252E-005  0.1508082E+03  0.7546771E-02  0.1228484E+00
         21   -1    0    0  501  502  0.00000000000E+00  0.00000000000E+00  0.12725086280E+03  0.12725086280E+03  0.00000000000E+00 0. -1.
          2   -1    0    0  502    0 -0.00000000000E+00 -0.00000000000E+00 -0.30897048880E+03  0.30897048880E+03  0.00000000000E+00 0. -1.
         24    2    1    2    0    0  0.88741983592E+01 -0.32378728484E+01 -0.17792522653E+02  0.83436076735E+02  0.80967708511E+02 0.  0.
         23    2    1    2    0    0 -0.16871373977E+02  0.12323231701E+03 -0.17411708458E+03  0.23209369617E+03  0.89888138507E+02 0.  0.
        -13    1    3    3    0    0 -0.32276728224E+02  0.12776511143E+02  0.25731333101E+01  0.34808726447E+02  0.00000000000E+00 0.  1.
         14    1    3    3    0    0  0.41150926583E+02 -0.16014383991E+02 -0.20365655963E+02  0.48627350288E+02  0.00000000000E+00 0. -1.
        -13    1    4    4    0    0 -0.17646042925E+02  0.28342326501E+02  0.46380844742E+00  0.33389899980E+02  0.00000000000E+00 0.  1.
         13    1    4    4    0    0  0.77466894750E+00  0.94889990514E+02 -0.17458089303E+03  0.19870379619E+03  0.00000000000E+00 0. -1.
          1    1    1    2  501    0  0.79971756180E+01 -0.11999444417E+03  0.10189981230E+02  0.12069157869E+03  0.00000000000E+00 0. -1.
<scales pt_clust_5="13000.00000" pt_clust_6="13000.00000" pt_clust_7="13000.00000" pt_clust_8="13000.00000" pt_clust_9="121.09184"></scales>
<clustering>
<clus scale="   80.968">  5  6 -1 -1</clus>
<clus scale="   81.517">  2  5  1 -1</clus>
<clus scale="   89.888">  7  8 -1 -1</clus>
<clus scale="  121.092">  1  9  2 -1</clus>
<clus scale="  121.092">  1  5  2 -1</clus>
</clustering>
</event>
<event>
 9    2  0.1013981E-004  0.1061337E+03  0.7546771E-02  0.1272463E+00
          2   -1    0    0  502    0 -0.00000000000E+00  0.00000000000E+00  0.25626148312E+03  0.25626148312E+03  0.00000000000E+00 0. -1.
         21   -1    0    0  501  502  0.00000000000E+00 -0.00000000000E+00 -0.23161119744E+03  0.23161119744E+03  0.00000000000E+00 0.  1.
         23    2    1    2    0    0  0.17524189623E+02  0.50997230045E+02  0.17465327043E+03  0.20415347953E+03  0.90923394327E+02 0.  0.
         24    2    1    2    0    0  0.17660782244E+02 -0.75159546968E+02 -0.19318951529E+03  0.22299954832E+03  0.80285422101E+02 0.  0.
        -11    1    4    4    0    0 -0.16075062164E+01 -0.61996036560E+02 -0.18948017899E+03  0.19937108832E+03  0.00000000000E+00 0.  1.
         12    1    4    4    0    0  0.19268288460E+02 -0.13163510407E+02 -0.37093363026E+01  0.23628460006E+02  0.00000000000E+00 0. -1.
        -13    1    3    3    0    0  0.35235265279E+01 -0.21063996079E+02  0.88149741622E+02  0.90699967575E+02  0.00000000000E+00 0.  1.
         13    1    3    3    0    0  0.14000663095E+02  0.72061226125E+02  0.86503528812E+02  0.11345351195E+03  0.00000000000E+00 0. -1.
          1    1    1    2  501    0 -0.35184971867E+02  0.24162316922E+02  0.43186530540E+02  0.60719652703E+02  0.00000000000E+00 0. -1.
<scales pt_clust_5="13000.00000" pt_clust_6="13000.00000" pt_clust_7="13000.00000" pt_clust_8="13000.00000" pt_clust_9="42.68257"></scales>
<clustering>
<clus scale="   42.683">  2  9  1 -1</clus>
<clus scale="   80.285">  5  6 -1 -1</clus>
<clus scale="   90.923">  7  8 -1 -1</clus>
<clus scale="   97.175">  2  5  1 -1</clus>
<clus scale="   42.683">  2  5  1 -1</clus>
</clustering>
</event>
<event>
 9    2  0.7820252E-005  0.1025719E+03  0.7546771E-02  0.1280622E+00
          2   -1    0    0  502    0 -0.00000000000E+00  0.00000000000E+00  0.10914335554E+04  0.10914335554E+04  0.00000000000E+00 0. -1.
         21   -1    0    0  501  502  0.00000000000E+00 -0.00000000000E+00 -0.41586600860E+02  0.41586600860E+02  0.00000000000E+00 0. -1.
         24    2    1    2    0    0  0.44778610667E+02 -0.55240393613E+02  0.71750695239E+03  0.72547374268E+03  0.80245246111E+02 0.  0.
         23    2    1    2    0    0 -0.18341523439E+02 -0.38794514025E+02  0.27752922254E+03  0.29553880223E+03  0.92083051989E+02 0.  0.
        -11    1    3    3    0    0  0.40260812268E+01 -0.47610778410E+02  0.17564462020E+03  0.18202754779E+03  0.00000000000E+00 0.  1.
         12    1    3    3    0    0  0.40752529440E+02 -0.76296152033E+01  0.54186233220E+03  0.54344619489E+03  0.00000000000E+00 0. -1.
        -11    1    4    4    0    0  0.16836220713E+02 -0.58538962024E+02  0.15495984711E+03  0.16650171957E+03  0.00000000000E+00 0. -1.
         11    1    4    4    0    0 -0.35177744153E+02  0.19744447999E+02  0.12256937542E+03  0.12903708266E+03  0.00000000000E+00 0.  1.
          1    1    1    2  501    0 -0.26437087227E+02  0.94034907638E+02  0.54810779584E+02  0.11200761132E+03  0.00000000000E+00 0. -1.
<scales pt_clust_5="13000.00000" pt_clust_6="13000.00000" pt_clust_7="13000.00000" pt_clust_8="13000.00000" pt_clust_9="97.68052"></scales>
<clustering>
<clus scale="   80.245">  5  6 -1 -1</clus>
<clus scale="   92.083">  7  8 -1 -1</clus>
<clus scale="   97.681">  2  9  1 -1</clus>
<clus scale="   92.092">  1  5  2 -1</clus>
<clus scale="   97.681">  2  5  1 -1</clus>
</clustering>
</event>
<event>
 9    2  0.7820252E-005  0.1121494E+03  0.7546771E-02  0.1260917E+00
          2   -1    0    0  502    0 -0.00000000000E+00  0.00000000000E+00  0.58235089891E+03  0.58235089891E+03  0.00000000000E+00 0. -1.
         21   -1    0    0  501  502  0.00000000000E+00 -0.00000000000E+00 -0.34812470314E+02  0.34812470314E+02  0.00000000000E+00 0.  1.
         23    2    1    2    0    0 -0.69978340895E+02  0.10320577181E+02  0.24541671152E+03  0.27113754235E+03  0.91009461434E+02 0.  0.
         24    2    1    2    0    0  0.51266858894E+02 -0.31884784397E+02  0.98063658622E+02  0.13998013822E+03  0.79580322051E+02 0.  0.
        -11    1    4    4    0    0  0.67596907641E+02 -0.29142212017E+02  0.99031573286E+02  0.12339312360E+03  0.00000000000E+00 0.  1.
         12    1    4    4    0    0 -0.16330048747E+02 -0.27425723797E+01 -0.96791466381E+00  0.16587014624E+02  0.00000000000E+00 0. -1.
        -13    1    3    3    0    0 -0.71958740780E+02 -0.27433474590E+02  0.15303922079E+03  0.17132325879E+03  0.00000000000E+00 0.  1.
         13    1    3    3    0    0  0.19803998853E+01  0.37754051771E+02  0.92377490736E+02  0.99814283565E+02  0.00000000000E+00 0. -1.
          1    1    1    2  501    0  0.18711482001E+02  0.21564207216E+02  0.20405805845E+03  0.20604568864E+03  0.00000000000E+00 0. -1.
<scales pt_clust_5="13000.00000" pt_clust_6="13000.00000" pt_clust_7="13000.00000" pt_clust_8="13000.00000" pt_clust_9="28.55058"></scales>
<clustering>
<clus scale="   28.551">  2  9  1 -1</clus>
<clus scale="   79.580">  5  6 -1 -1</clus>
<clus scale="   91.009">  7  8 -1 -1</clus>
<clus scale="  103.091">  2  5  1 -1</clus>
<clus scale="   28.551">  2  5  1 -1</clus>
</clustering>
</event>
<event>
 9    2  0.7820252E-005  0.9967544E+02  0.7546771E-02  0.1286672E+00
          2   -1    0    0  502    0 -0.00000000000E+00  0.00000000000E+00  0.19853636630E+03  0.19853636630E+03  0.00000000000E+00 0. -1.
         21   -1    0    0  501  502  0.00000000000E+00 -0.00000000000E+00 -0.20649199725E+03  0.20649199725E+03  0.00000000000E+00 0. -1.
         24    2    1    2    0    0  0.30819026242E+02 -0.30182653787E+02  0.16395571331E+03  0.18734244042E+03  0.79717683655E+02 0.  0.
         23    2    1    2    0    0  0.73328462050E+01  0.25365779770E+02 -0.11503473379E+03  0.14902941240E+03  0.90992210470E+02 0.  0.
        -13    1    3    3    0    0  0.20448489457E+02  0.11605356403E+02  0.69173299952E+01  0.24508661175E+02  0.00000000000E+00 0.  1.
         14    1    3    3    0    0  0.10370536785E+02 -0.41788010190E+02  0.15703838332E+03  0.16283377925E+03  0.00000000000E+00 0. -1.
        -13    1    4    4    0    0 -0.41634192121E+02  0.17155326761E+02 -0.57473510492E+02  0.73013119356E+02  0.00000000000E+00 0.  1.
         13    1    4    4    0    0  0.48967038326E+02  0.82104530090E+01 -0.57561223293E+02  0.76016293043E+02  0.00000000000E+00 0. -1.
          1    1    1    2  501    0 -0.38151872447E+02  0.48168740173E+01 -0.56876610481E+02  0.68656510735E+02  0.00000000000E+00 0. -1.
<scales pt_clust_5="13000.00000" pt_clust_6="13000.00000" pt_clust_7="13000.00000" pt_clust_8="13000.00000" pt_clust_9="38.45475"></scales>
<clustering>
<clus scale="   38.455">  2  9  1 -1</clus>
<clus scale="   79.718">  5  6 -1 -1</clus>
<clus scale="   89.502">  1  5  2 -1</clus>
<clus scale="   90.992">  7  8 -1 -1</clus>
<clus scale="   38.455">  2  5  1 -1</clus>
</clustering>
</event>
<event>
 9    2  0.7820252E-005  0.1521943E+03  0.7546771E-02  0.1211293E+00
         21   -1    0    0  501  502  0.00000000000E+00  0.00000000000E+00  0.18578186118E+03  0.18578186118E+03  0.00000000000E+00 0.  1.
          2   -1    0    0  502    0 -0.00000000000E+00 -0.00000000000E+00 -0.26861939519E+03  0.26861939519E+03  0.00000000000E+00 0. -1.
         23    2    1    2    0    0 -0.58672350206E+02  0.23722639425E+02 -0.96454894889E+02  0.14917446749E+03  0.94574133370E+02 0.  0.
         24    2    1    2    0    0 -0.95346753249E+02 -0.63062080255E+02  0.36567505769E+02  0.14461488091E+03  0.80674977409E+02 0.  0.
        -13    1    4    4    0    0 -0.75186133021E+02 -0.46530363731E+02  0.62158581633E+02  0.10808199951E+03  0.00000000000E+00 0.  1.
         14    1    4    4    0    0 -0.20160620228E+02 -0.16531716524E+02 -0.25591075863E+02  0.36532881395E+02  0.00000000000E+00 0. -1.
        -13    1    3    3    0    0 -0.46645874794E+02  0.58379953141E+02 -0.78327227591E+02  0.10825530539E+03  0.00000000000E+00 0. -1.
         13    1    3    3    0    0 -0.12026475412E+02 -0.34657313716E+02 -0.18127667298E+02  0.40919162095E+02  0.00000000000E+00 0.  1.
          1    1    1    2  501    0  0.15401910345E+03  0.39339440830E+02 -0.22950144887E+02  0.16061190798E+03  0.00000000000E+00 0. -1.
<scales pt_clust_5="13000.00000" pt_clust_6="13000.00000" pt_clust_7="13000.00000" pt_clust_8="13000.00000" pt_clust_9="129.05292"></scales>
<clustering>
<clus scale="   80.675">  5  6 -1 -1</clus>
<clus scale="   94.574">  7  8 -1 -1</clus>
<clus scale="  113.796">  2  7  1 -1</clus>
<clus scale="  129.053">  1  9  2 -1</clus>
<clus scale="  129.053">  1  5  2 -1</clus>
</clustering>
</event>
<event>
 9    2  0.7820252E-005  0.1116759E+03  0.7546771E-02  0.1262982E+00
         -3   -1    0    0    0  501 -0.00000000000E+00  0.00000000000E+00  0.12124477455E+03  0.12124477455E+03  0.00000000000E+00 0.  1.
         21   -1    0    0  501  502  0.00000000000E+00 -0.00000000000E+00 -0.26956346903E+03  0.26956346903E+03  0.00000000000E+00 0.  1.
         24    2    1    2    0    0  0.22954508847E+01 -0.72277195745E+02  0.54982031411E+02  0.12192209078E+03  0.81318573055E+02 0.  0.
         23    2    1    2    0    0 -0.16504329909E+02  0.22197533044E+02 -0.58401342285E+02  0.11491961024E+03  0.95029872450E+02 0.  0.
        -13    1    3    3    0    0  0.19070994105E+02 -0.41704562432E+02  0.70218113665E+02  0.83866303308E+02  0.00000000000E+00 0.  1.
         14    1    3    3    0    0 -0.16775543221E+02 -0.30572633313E+02 -0.15236082254E+02  0.38055787477E+02  0.00000000000E+00 0. -1.
        -11    1    4    4    0    0 -0.21305488132E+02 -0.35314907503E+02 -0.23284871971E+02  0.47362978994E+02  0.00000000000E+00 0.  1.
         11    1    4    4    0    0  0.48011582224E+01  0.57512440547E+02 -0.35116470315E+02  0.67556631246E+02  0.00000000000E+00 0. -1.
         -4    1    1    2    0  502  0.14208879025E+02  0.50079662701E+02 -0.14489938361E+03  0.15396654256E+03  0.00000000000E+00 0.  1.
<scales pt_clust_5="13000.00000" pt_clust_6="13000.00000" pt_clust_7="13000.00000" pt_clust_8="13000.00000" pt_clust_9="52.05636"></scales>
<clustering>
<clus scale="   52.056">  2  9  1 -1</clus>
<clus scale="   81.319">  5  6 -1 -1</clus>
<clus scale="   95.030">  7  8 -1 -1</clus>
<clus scale="  100.267">  1  5  2 -1</clus>
<clus scale="   52.056">  2  5  1 -1</clus>
</clustering>
</event>
<event>
 9    2  0.7820252E-005  0.1013777E+03  0.7546771E-02  0.1282654E+00
         21   -1    0    0  501  502  0.00000000000E+00  0.00000000000E+00  0.34733034239E+02  0.34733034239E+02  0.00000000000E+00 0. -1.
          2   -1    0    0  502    0 -0.00000000000E+00 -0.00000000000E+00 -0.39486090761E+03  0.39486090761E+03  0.00000000000E+00 0. -1.
         24    2    1    2    0    0  0.87723159780E+00 -0.51763808005E+02 -0.19843441601E+03  0.22019357183E+03  0.80179363076E+02 0.  0.
         23    2    1    2    0    0 -0.19990879428E+02  0.29263598499E+02 -0.94028604589E+02  0.13557541989E+03  0.91012760311E+02 0.  0.
        -13    1    3    3    0    0  0.28759363922E+02 -0.20711456335E+02 -0.15856249367E+03  0.16247501296E+03  0.00000000000E+00 0.  1.
         14    1    3    3    0    0 -0.27882132325E+02 -0.31052351670E+02 -0.39871922342E+02  0.57718558874E+02  0.00000000000E+00 0. -1.
        -13    1    4    4    0    0 -0.46928466753E+02  0.24061564080E+01 -0.83978520993E+02  0.96231297241E+02  0.00000000000E+00 0.  1.
         13    1    4    4    0    0  0.26937587326E+02  0.26857442091E+02 -0.10050083596E+02  0.39344122647E+02  0.00000000000E+00 0. -1.
          1    1    1    2  501    0  0.19113647830E+02  0.22500209506E+02 -0.67664852771E+02  0.73824950130E+02  0.00000000000E+00 0. -1.
<scales pt_clust_5="13000.00000" pt_clust_6="13000.00000" pt_clust_7="13000.00000" pt_clust_8="13000.00000" pt_clust_9="29.52273"></scales>
<clustering>
<clus scale="   29.523">  1  9  2 -1</clus>
<clus scale="   80.179">  5  6 -1 -1</clus>
<clus scale="   91.013">  7  8 -1 -1</clus>
<clus scale="   91.776">  2  5  1 -1</clus>
<clus scale="   29.523">  1  5  2 -1</clus>
</clustering>
</event>
<event>
 9    2  0.7820252E-005  0.1392385E+03  0.7546771E-02  0.1217178E+00
          2   -1    0    0  502    0 -0.00000000000E+00  0.00000000000E+00  0.40109514444E+03  0.40109514444E+03  0.00000000000E+00 0. -1.
         21   -1    0    0  501  502  0.00000000000E+00 -0.00000000000E+00 -0.71463338996E+02  0.71463338996E+02  0.00000000000E+00 0.  1.
         24    2    1    2    0    0  0.96468949236E+02  0.52478858808E+02  0.24086930345E+03  0.27653141290E+03  0.79945682738E+02 0.  0.
         23    2    1    2    0    0 -0.76886199422E+02 -0.41044754804E+02  0.26662497843E+02  0.12991630484E+03  0.92580764280E+02 0.  0.
        -11    1    3    3    0    0  0.25150618619E+02 -0.10821155567E+02  0.14688982002E+02  0.31071163753E+02  0.00000000000E+00 0.  1.
         12    1    3    3    0    0  0.71318330617E+02  0.63300014375E+02  0.22618032145E+03  0.24546024915E+03  0.00000000000E+00 0. -1.
        -13    1    4    4    0    0 -0.96716313497E+01  0.20705939994E+02  0.31030437678E+02  0.38537831627E+02  0.00000000000E+00 0. -1.
         13    1    4    4    0    0 -0.67214568072E+02 -0.61750694798E+02 -0.43679398350E+01  0.91378473217E+02  0.00000000000E+00 0.  1.
          1    1    1    2  501    0 -0.19582749814E+02 -0.11434104004E+02  0.62100004155E+02  0.66110765695E+02  0.00000000000E+00 0. -1.
<scales pt_clust_5="13000.00000" pt_clust_6="13000.00000" pt_clust_7="13000.00000" pt_clust_8="13000.00000" pt_clust_9="22.67649"></scales>
<clustering>
<clus scale="   22.676">  2  9  1 -1</clus>
<clus scale="   79.946">  5  6 -1 -1</clus>
<clus scale="   92.581">  7  8 -1 -1</clus>
<clus scale="  131.177">  1  5  2 -1</clus>
<clus scale="   22.676">  2  5  1 -1</clus>
</clustering>
</event>
<event>
 9    2  0.7820252E-005  0.1014314E+03  0.7546771E-02  0.1282111E+00
         -3   -1    0    0    0  501 -0.00000000000E+00  0.00000000000E+00  0.97134225733E+02  0.97134225733E+02  0.00000000000E+00 0.  1.
         21   -1    0    0  501  502  0.00000000000E+00 -0.00000000000E+00 -0.27300580531E+03  0.27300580531E+03  0.00000000000E+00 0. -1.
         23    2    1    2    0    0  0.79832391974E+01  0.41610790630E+02 -0.25786496506E+02  0.10515170449E+03  0.92718647258E+02 0.  0.
         24    2    1    2    0    0 -0.40507696713E+02 -0.26509393407E+02 -0.18904376650E+03  0.21203861882E+03  0.82940995828E+02 0.  0.
        -11    1    4    4    0    0 -0.91296590111E+01  0.27044487689E+02 -0.30477110260E+02  0.41756547245E+02  0.00000000000E+00 0.  1.
         12    1    4    4    0    0 -0.31378037702E+02 -0.53553881096E+02 -0.15856665624E+03  0.17028207158E+03  0.00000000000E+00 0. -1.
        -13    1    3    3    0    0 -0.25898322307E+02 -0.17113045936E+02 -0.20391699682E+02  0.37140286152E+02  0.00000000000E+00 0.  1.
         13    1    3    3    0    0  0.33881561505E+02  0.58723836566E+02 -0.53947968242E+01  0.68011418334E+02  0.00000000000E+00 0. -1.
         -4    1    1    2    0  502  0.32524457516E+02 -0.15101397223E+02  0.38958683427E+02  0.52949707734E+02  0.00000000000E+00 0.  1.
<scales pt_clust_5="13000.00000" pt_clust_6="13000.00000" pt_clust_7="13000.00000" pt_clust_8="13000.00000" pt_clust_9="35.85936"></scales>
<clustering>
<clus scale="   35.859">  2  9  1 -1</clus>
<clus scale="   82.941">  5  6 -1 -1</clus>
<clus scale="   92.579">  2  5  1 -1</clus>
<clus scale="   92.719">  7  8 -1 -1</clus>
<clus scale="   35.859">  2  5  1 -1</clus>
</clustering>
</event>
<event>
 9    2  0.7820252E-005  0.9762509E+02  0.7546771E-02  0.1291232E+00
          2   -1    0    0  502    0 -0.00000000000E+00  0.00000000000E+00  0.56125549126E+03  0.56125549126E+03  0.00000000000E+00 0. -1.
         21   -1    0    0  501  502  0.00000000000E+00 -0.00000000000E+00 -0.29003900499E+03  0.29003900499E+03  0.00000000000E+00 0. -1.
         24    2    1    2    0    0  0.27954687238E+02  0.13810864457E+02  0.53123459831E+03  0.53832720947E+03  0.81325159069E+02 0.  0.
         23    2    1    2    0    0 -0.69881341990E+02 -0.25922318358E+02 -0.13053919697E+03  0.17633156253E+03  0.92179007639E+02 0.  0.
        -11    1    3    3    0    0 -0.22371956555E+02  0.23723577427E+02  0.14016686527E+03  0.14390991170E+03  0.00000000000E+00 0.  1.
         12    1    3    3    0    0  0.50326643794E+02 -0.99127129695E+01  0.39106773304E+03  0.39441729777E+03  0.00000000000E+00 0. -1.
        -13    1    4    4    0    0 -0.91284556990E+02 -0.29129943654E+02 -0.11500399192E+03  0.14969082176E+03  0.00000000000E+00 0. -1.
         13    1    4    4    0    0  0.21403215000E+02  0.32076252967E+01 -0.15535205048E+02  0.26640740761E+02  0.00000000000E+00 0.  1.
          1    1    1    2  501    0  0.41926654751E+02  0.12111453900E+02 -0.12947891507E+03  0.13663572425E+03  0.00000000000E+00 0. -1.
<scales pt_clust_5="13000.00000" pt_clust_6="13000.00000" pt_clust_7="13000.00000" pt_clust_8="13000.00000" pt_clust_9="43.64094"></scales>
<clustering>
<clus scale="   43.641">  2  9  1 -1</clus>
<clus scale="   81.325">  5  6 -1 -1</clus>
<clus scale="   87.450">  1  5  2 -1</clus>
<clus scale="   92.179">  7  8 -1 -1</clus>
<clus scale="   43.641">  2  5  1 -1</clus>
</clustering>
</event>
<event>
 9    2  0.7820252E-005  0.9410795E+02  0.7546771E-02  0.1305339E+00
          2   -1    0    0  502    0 -0.00000000000E+00  0.00000000000E+00  0.29067234699E+03  0.29067234699E+03  0.00000000000E+00 0. -1.
         21   -1    0    0  501  502  0.00000000000E+00 -0.00000000000E+00 -0.60219999415E+02  0.60219999415E+02  0.00000000000E+00 0. -1.
         23    2    1    2    0    0  0.29244393624E+02 -0.33420842756E+02  0.88731012265E+02  0.13649220066E+03  0.93726949238E+02 0.  0.
         24    2    1    2    0    0  0.13982245915E+02 -0.26483028330E+02  0.43544684223E+02  0.91535704368E+02  0.74738153976E+02 0.  0.
        -13    1    4    4    0    0 -0.22462451767E+02  0.13403492261E+02  0.18139200559E+02  0.31831524329E+02  0.00000000000E+00 0.  1.
         14    1    4    4    0    0  0.36444697682E+02 -0.39886520591E+02  0.25405483664E+02  0.59704180039E+02  0.00000000000E+00 0. -1.
        -13    1    3    3    0    0 -0.29150659914E+02 -0.82736452240E+01  0.40078963734E+01  0.30565951842E+02  0.00000000000E+00 0.  1.
         13    1    3    3    0    0  0.58395053538E+02 -0.25147197532E+02  0.84723115892E+02  0.10592624881E+03  0.00000000000E+00 0. -1.
          1    1    1    2  501    0 -0.43226639539E+02  0.59903871086E+02  0.98176651082E+02  0.12286444138E+03  0.00000000000E+00 0. -1.
<scales pt_clust_5="13000.00000" pt_clust_6="13000.00000" pt_clust_7="13000.00000" pt_clust_8="13000.00000" pt_clust_9="73.87166"></scales>
<clustering>
<clus scale="   73.872">  2  9  1 -1</clus>
<clus scale="   74.738">  5  6 -1 -1</clus>
<clus scale="   75.215">  2  5  1 -1</clus>
<clus scale="   93.727">  7  8 -1 -1</clus>
<clus scale="   73.872">  2  5  1 -1</clus>
</clustering>
</event>
<event>
 9    2  0.7820252E-005  0.9578250E+02  0.7546771E-02  0.1295778E+00
         21   -1    0    0  501  502  0.00000000000E+00  0.00000000000E+00  0.10165958118E+03  0.10165958118E+03  0.00000000000E+00 0.  1.
          2   -1    0    0  502    0 -0.00000000000E+00 -0.00000000000E+00 -0.83830382776E+03  0.83830382776E+03  0.00000000000E+00 0. -1.
         24    2    1    2    0    0  0.26372996673E+02 -0.85565196044E+01 -0.75673127857E+03  0.76142932511E+03  0.79772427521E+02 0.  0.
         23    2    1    2    0    0 -0.56512542339E+02  0.26113935408E+02 -0.32858889087E+02  0.11513120045E+03  0.91103686318E+02 0.  0.
        -13    1    3    3    0    0 -0.13157507520E+02  0.24164651301E+02 -0.14777299847E+03  0.15031270556E+03  0.00000000000E+00 0.  1.
         14    1    3    3    0    0  0.39530504193E+02 -0.32721170905E+02 -0.60895828010E+03  0.61111661955E+03  0.00000000000E+00 0. -1.
        -13    1    4    4    0    0 -0.26220166742E+02  0.99802019680E+01 -0.63310628401E+02  0.69248373583E+02  0.00000000000E+00 0. -1.
         13    1    4    4    0    0 -0.30292375597E+02  0.16133733440E+02  0.30451739314E+02  0.45882826866E+02  0.00000000000E+00 0.  1.
          1    1    1    2  501    0  0.30139545666E+02 -0.17557415804E+02  0.52945921069E+02  0.63402883377E+02  0.00000000000E+00 0. -1.
<scales pt_clust_5="13000.00000" pt_clust_6="13000.00000" pt_clust_7="13000.00000" pt_clust_8="13000.00000" pt_clust_9="34.88058"></scales>
<clustering>
<clus scale="   34.881">  1  9  2 -1</clus>
<clus scale="   79.772">  5  6 -1 -1</clus>
<clus scale="   85.077">  2  5  1 -1</clus>
<clus scale="   91.104">  7  8 -1 -1</clus>
<clus scale="   34.881">  1  5  2 -1</clus>
</clustering>
</event>
<event>
 9    2  0.7820252E-005  0.9570650E+02  0.7546771E-02  0.1296552E+00
         21   -1    0    0  501  502  0.00000000000E+00  0.00000000000E+00  0.20019031689E+02  0.20019031689E+02  0.00000000000E+00 0.  1.
          2   -1    0    0  502    0 -0.00000000000E+00 -0.00000000000E+00 -0.15730144497E+04  0.15730144497E+04  0.00000000000E+00 0. -1.
         24    2    1    2    0    0  0.13530399736E+02 -0.17227756871E+02 -0.13223049208E+04  0.13249337042E+04  0.80493165075E+02 0.  0.
         23    2    1    2    0    0 -0.32523896882E+02  0.40074495415E+02 -0.16668320030E+03  0.19753306794E+03  0.92586471027E+02 0.  0.
        -13    1    3    3    0    0  0.31961965489E+01 -0.26977829134E+02 -0.14382824673E+03  0.14637138892E+03  0.00000000000E+00 0.  1.
         14    1    3    3    0    0  0.10334203187E+02  0.97500722630E+01 -0.11784766741E+04  0.11785623153E+04  0.00000000000E+00 0. -1.
        -13    1    4    4    0    0  0.19822361988E+02 -0.18504234219E+02 -0.49761167540E+02  0.56670155407E+02  0.00000000000E+00 0. -1.
         13    1    4    4    0    0 -0.52346258870E+02  0.58578729634E+02 -0.11692203276E+03  0.14086291253E+03  0.00000000000E+00 0.  1.
          1    1    1    2  501    0  0.18993497147E+02 -0.22846738544E+02 -0.64007296880E+02  0.70566709218E+02  0.00000000000E+00 0. -1.
<scales pt_clust_5="13000.00000" pt_clust_6="13000.00000" pt_clust_7="13000.00000" pt_clust_8="13000.00000" pt_clust_9="29.71071"></scales>
<clustering>
<clus scale="   29.711">  1  9  2 -1</clus>
<clus scale="   80.493">  5  6 -1 -1</clus>
<clus scale="   84.063">  2  5  1 -1</clus>
<clus scale="   92.586">  7  8 -1 -1</clus>
<clus scale="   29.711">  1  5  2 -1</clus>
</clustering>
</event>
<event>
 9    2  0.7820252E-005  0.1523419E+03  0.7546771E-02  0.1219252E+00
          2   -1    0    0  502    0 -0.00000000000E+00  0.00000000000E+00  0.97046890430E+03  0.97046890430E+03  0.00000000000E+00 0. -1.
         21   -1    0    0  501  502  0.00000000000E+00 -0.00000000000E+00 -0.37287781738E+02  0.37287781738E+02  0.00000000000E+00 0. -1.
         23    2    1    2    0    0 -0.29093956847E+02 -0.26377786974E+01  0.21513950275E+03  0.23553539732E+03  0.91315395986E+02 0.  0.
         24    2    1    2    0    0  0.81874661252E+02  0.11365882021E+03  0.40989423708E+03  0.44045889799E+03  0.79805812235E+02 0.  0.
        -11    1    4    4    0    0  0.28040773911E+02  0.14484629476E+01  0.31869776174E+02  0.42474294341E+02  0.00000000000E+00 0.  1.
         12    1    4    4    0    0  0.53833887340E+02  0.11221035726E+03  0.37802446090E+03  0.39798460365E+03  0.00000000000E+00 0. -1.
        -11    1    3    3    0    0 -0.60432494284E+02 -0.31643949733E+01  0.10679987306E+03  0.12275305555E+03  0.00000000000E+00 0. -1.
         11    1    3    3    0    0  0.31338537437E+02  0.52661627588E+00  0.10833962969E+03  0.11278234177E+03  0.00000000000E+00 0.  1.
          1    1    1    2  501    0 -0.52780704405E+02 -0.11102104151E+03  0.30814738274E+03  0.33176239073E+03  0.00000000000E+00 0. -1.
<scales pt_clust_5="13000.00000" pt_clust_6="13000.00000" pt_clust_7="13000.00000" pt_clust_8="13000.00000" pt_clust_9="129.76546"></scales>
<clustering>
<clus scale="   79.806">  5  6 -1 -1</clus>
<clus scale="   91.315">  7  8 -1 -1</clus>
<clus scale="   95.875">  1  7  2 -1</clus>
<clus scale="  129.765">  2  9  1 -1</clus>
<clus scale="  129.765">  2  5  1 -1</clus>
</clustering>
</event>
<event>
 9    2  0.7820252E-005  0.9858414E+02  0.7546771E-02  0.1289775E+00
         21   -1    0    0  501  502  0.00000000000E+00  0.00000000000E+00  0.36039653314E+02  0.36039653314E+02  0.00000000000E+00 0.  1.
          4   -1    0    0  502    0 -0.00000000000E+00 -0.00000000000E+00 -0.63470364629E+03  0.63470364629E+03  0.00000000000E+00 0. -1.
         24    2    1    2    0    0  0.23327217015E+02 -0.22106993064E+02 -0.46037273425E+03  0.46838972742E+03  0.80081234505E+02 0.  0.
         23    2    1    2    0    0 -0.50861908424E+02  0.10715069665E+02 -0.13612742878E+03  0.17247687039E+03  0.92281349735E+02 0.  0.
        -11    1    3    3    0    0 -0.81429906581E+01 -0.18331430770E+02 -0.25884214986E+02  0.32746637024E+02  0.00000000000E+00 0.  1.
         12    1    3    3    0    0  0.31470207673E+02 -0.37755622940E+01 -0.43448851926E+03  0.43564309040E+03  0.00000000000E+00 0. -1.
        -13    1    4    4    0    0 -0.72555000620E+02  0.65420027960E+01 -0.63753803265E+02  0.96806886874E+02  0.00000000000E+00 0.  1.
         13    1    4    4    0    0  0.21693092196E+02  0.41730668693E+01 -0.72373625512E+02  0.75669983520E+02  0.00000000000E+00 0. -1.
          3    1    1    2  501    0  0.27534691409E+02  0.11391923399E+02 -0.21638299525E+01  0.29876701788E+02  0.00000000000E+00 0. -1.
<scales pt_clust_5="13000.00000" pt_clust_6="13000.00000" pt_clust_7="13000.00000" pt_clust_8="13000.00000" pt_clust_9="29.79824"></scales>
<clustering>
<clus scale="   29.798">  1  9  2 -1</clus>
<clus scale="   80.081">  5  6 -1 -1</clus>
<clus scale="   87.270">  2  5  1 -1</clus>
<clus scale="   92.281">  7  8 -1 -1</clus>
<clus scale="   29.798">  1  5  2 -1</clus>
</clustering>
</event>
<event>
 9    2  0.7820252E-005  0.1904194E+03  0.7546771E-02  0.1159168E+00
         21   -1    0    0  501  502  0.00000000000E+00  0.00000000000E+00  0.68616912472E+03  0.68616912472E+03  0.00000000000E+00 0.  1.
          2   -1    0    0  502    0 -0.00000000000E+00 -0.00000000000E+00 -0.89330822379E+02  0.89330822379E+02  0.00000000000E+00 0. -1.
         23    2    1    2    0    0  0.33934759396E+02  0.16200647017E+03  0.24013911695E+03  0.30536636461E+03  0.90466330028E+02 0.  0.
         24    2    1    2    0    0  0.65814577235E+02 -0.17274246485E+03  0.27432279677E+03  0.34032194533E+03  0.79965692071E+02 0.  0.
        -11    1    4    4    0    0  0.53531447836E+02 -0.12171242081E+03  0.24847662861E+03  0.28181583393E+03  0.00000000000E+00 0.  1.
         12    1    4    4    0    0  0.12283129399E+02 -0.51030044048E+02  0.25846168153E+02  0.58506111404E+02  0.00000000000E+00 0. -1.
        -11    1    3    3    0    0  0.40942485011E+02  0.18774960513E+02  0.51729059899E+02  0.68590683472E+02  0.00000000000E+00 0.  1.
         11    1    3    3    0    0 -0.70077256146E+01  0.14323150965E+03  0.18841005706E+03  0.23677568113E+03  0.00000000000E+00 0. -1.
          1    1    1    2  501    0 -0.99749336631E+02  0.10735994686E+02  0.82376388617E+02  0.12981163716E+03  0.00000000000E+00 0. -1.
<scales pt_clust_5="13000.00000" pt_clust_6="13000.00000" pt_clust_7="13000.00000" pt_clust_8="13000.00000" pt_clust_9="100.32548"></scales>
<clustering>
<clus scale="   79.966">  5  6 -1 -1</clus>
<clus scale="   90.466">  7  8 -1 -1</clus>
<clus scale="  100.325">  1  9  2 -1</clus>
<clus scale="  185.661">  1  5  2 -1</clus>
<clus scale="  100.325">  1  5  2 -1</clus>
</clustering>
</event>
<event>
 9    2  0.7820252E-005  0.1174943E+03  0.7546771E-02  0.1254121E+00
          2   -1    0    0  502    0 -0.00000000000E+00  0.00000000000E+00  0.42963984014E+03  0.42963984014E+03  0.00000000000E+00 0. -1.
         21   -1    0    0  501  502  0.00000000000E+00 -0.00000000000E+00 -0.12442065288E+03  0.12442065288E+03  0.00000000000E+00 0.  1.
         24    2    1    2    0    0  0.77604160731E+02  0.22012587695E+02  0.33177992495E+03  0.34849804768E+03  0.69756797945E+02 0.  0.
         23    2    1    2    0    0 -0.52289046521E+01 -0.71317978091E+02 -0.25400844297E+02  0.11798080019E+03  0.90336431629E+02 0.  0.
        -13    1    3    3    0    0  0.52674479492E+02  0.30783283450E+01  0.87187492541E+02  0.10191043004E+03  0.00000000000E+00 0.  1.
         14    1    3    3    0    0  0.24929681239E+02  0.18934259350E+02  0.24459243240E+03  0.24658761764E+03  0.00000000000E+00 0. -1.
        -13    1    4    4    0    0  0.14319896697E+02 -0.63085485501E+02 -0.52678996191E+02  0.83426102402E+02  0.00000000000E+00 0.  1.
         13    1    4    4    0    0 -0.19548801349E+02 -0.82324925898E+01  0.27278151894E+02  0.34554697787E+02  0.00000000000E+00 0. -1.
          1    1    1    2  501    0 -0.72375256079E+02  0.49305390397E+02 -0.11598933967E+01  0.87581645151E+02  0.00000000000E+00 0. -1.
<scales pt_clust_5="13000.00000" pt_clust_6="13000.00000" pt_clust_7="13000.00000" pt_clust_8="13000.00000" pt_clust_9="87.57396"></scales>
<clustering>
<clus scale="   69.757">  5  6 -1 -1</clus>
<clus scale="   87.574">  2  9  1 -1</clus>
<clus scale="   90.336">  7  8 -1 -1</clus>
<clus scale="  102.520">  1  5  2 -1</clus>
<clus scale="   87.574">  2  5  1 -1</clus>
</clustering>
</event>
<event>
 9    2  0.7820252E-005  0.1156889E+03  0.7546771E-02  0.1254303E+00
          2   -1    0    0  502    0 -0.00000000000E+00  0.00000000000E+00  0.98595292367E+03  0.98595292367E+03  0.00000000000E+00 0. -1.
         21   -1    0    0  501  502  0.00000000000E+00 -0.00000000000E+00 -0.79469275637E+02  0.79469275637E+02  0.00000000000E+00 0.  1.
         24    2    1    2    0    0 -0.60801491759E+02  0.37293458060E+02  0.91386917874E+03  0.92021306969E+03  0.80917206763E+02 0.  0.
         23    2    1    2    0    0  0.36128929907E+02 -0.39836731189E+02  0.19735198225E+02  0.10845674896E+03  0.92093016115E+02 0.  0.
        -13    1    3    3    0    0 -0.50970846852E+02 -0.58525422933E+01  0.27041770712E+03  0.27524174067E+03  0.00000000000E+00 0.  1.
         14    1    3    3    0    0 -0.98306449072E+01  0.43146000353E+02  0.64345147162E+03  0.64497132902E+03  0.00000000000E+00 0. -1.
        -11    1    4    4    0    0 -0.24050524487E+02  0.49925055852E+01  0.22575174588E+02  0.33361524962E+02  0.00000000000E+00 0. -1.
         11    1    4    4    0    0  0.60179454394E+02 -0.44829236774E+02 -0.28399763628E+01  0.75095223994E+02  0.00000000000E+00 0.  1.
          1    1    1    2  501    0  0.24672561852E+02  0.25432731288E+01 -0.27120728935E+02  0.36752380665E+02  0.00000000000E+00 0. -1.
<scales pt_clust_5="13000.00000" pt_clust_6="13000.00000" pt_clust_7="13000.00000" pt_clust_8="13000.00000" pt_clust_9="24.80330"></scales>
<clustering>
<clus scale="   24.803">  2  9  1 -1</clus>
<clus scale="   80.917">  5  6 -1 -1</clus>
<clus scale="   92.093">  7  8 -1 -1</clus>
<clus scale="  107.007">  1  5  2 -1</clus>
<clus scale="   24.803">  2  5  1 -1</clus>
</clustering>
</event>
<event>
 9    2  0.7820252E-005  0.1477593E+03  0.7546771E-02  0.1226820E+00
         21   -1    0    0  501  502  0.00000000000E+00  0.00000000000E+00  0.92355177184E+02  0.92355177184E+02  0.00000000000E+00 0. -1.
          2   -1    0    0  502    0 -0.00000000000E+00 -0.00000000000E+00 -0.75047517245E+03  0.75047517245E+03  0.00000000000E+00 0. -1.
         24    2    1    2    0    0 -0.25578018806E+02 -0.32510000738E+02 -0.52590225897E+03  0.53349865355E+03  0.79602086390E+02 0.  0.
         23    2    1    2    0    0  0.99846330914E+02  0.94248948560E+02 -0.23366779401E+02  0.16381190128E+03  0.86233279657E+02 0.  0.
        -13    1    3    3    0    0  0.13992624610E+02  0.15208379938E+02 -0.59330856961E+02  0.62827055888E+02  0.00000000000E+00 0.  1.
         14    1    3    3    0    0 -0.39570643416E+02 -0.47718380676E+02 -0.46657140201E+03  0.47067159767E+03  0.00000000000E+00 0. -1.
        -11    1    4    4    0    0  0.84112059377E+02  0.44705173168E+02  0.18539151511E+02  0.97041698148E+02  0.00000000000E+00 0. -1.
         11    1    4    4    0    0  0.15734271536E+02  0.49543775392E+02 -0.41905930913E+02  0.66770203134E+02  0.00000000000E+00 0.  1.
          1    1    1    2  501    0 -0.74268312108E+02 -0.61738947823E+02 -0.10885095689E+03  0.14551979480E+03  0.00000000000E+00 0. -1.
<scales pt_clust_5="13000.00000" pt_clust_6="13000.00000" pt_clust_7="13000.00000" pt_clust_8="13000.00000" pt_clust_9="119.98606"></scales>
<clustering>
<clus scale="   79.602">  5  6 -1 -1</clus>
<clus scale="   86.233">  7  8 -1 -1</clus>
<clus scale="   89.709">  2  5  1 -1</clus>
<clus scale="  119.986">  1  9  2 -1</clus>
<clus scale="  119.986">  1  5  2 -1</clus>
</clustering>
</event>
<event>
 9    2  0.7820252E-005  0.1918404E+03  0.7546771E-02  0.1157853E+00
         21   -1    0    0  501  502  0.00000000000E+00  0.00000000000E+00  0.31275377731E+03  0.31275377731E+03  0.00000000000E+00 0.  1.
          2   -1    0    0  502    0 -0.00000000000E+00 -0.00000000000E+00 -0.16212442205E+03  0.16212442205E+03  0.00000000000E+00 0. -1.
         24    2    1    2    0    0  0.15625569916E+03 -0.87563728894E+02 -0.27409056767E+02  0.19835105258E+03  0.80676102582E+02 0.  0.
         23    2    1    2    0    0 -0.11942531303E+03  0.88090094603E+02  0.13771034286E+03  0.22190931484E+03  0.90869881266E+02 0.  0.
        -11    1    3    3    0    0  0.65484103419E+02  0.31440425768E+01  0.57489331310E+01  0.65811116360E+02  0.00000000000E+00 0.  1.
         12    1    3    3    0    0  0.90771595742E+02 -0.90707771471E+02 -0.33157989898E+02  0.13253993622E+03  0.00000000000E+00 0. -1.
        -11    1    4    4    0    0 -0.10255269317E+03  0.10421700745E+03  0.98561808463E+02  0.17633113624E+03  0.00000000000E+00 0.  1.
         11    1    4    4    0    0 -0.16872619856E+02 -0.16126912850E+02  0.39148534400E+02  0.45578178600E+02  0.00000000000E+00 0. -1.
          1    1    1    2  501    0 -0.36830386133E+02 -0.52636570859E+00  0.40328069160E+02  0.54617831939E+02  0.00000000000E+00 0. -1.
<scales pt_clust_5="13000.00000" pt_clust_6="13000.00000" pt_clust_7="13000.00000" pt_clust_8="13000.00000" pt_clust_9="36.83415"></scales>
<clustering>
<clus scale="   36.834">  1  9  2 -1</clus>
<clus scale="   80.676">  5  6 -1 -1</clus>
<clus scale="   90.870">  7  8 -1 -1</clus>
<clus scale="  187.227">  2  5  1 -1</clus>
<clus scale="   36.834">  1  5  2 -1</clus>
</clustering>
</event>
<event>
 9    2  0.7820252E-005  0.9325142E+02  0.7546771E-02  0.1303270E+00
         21   -1    0    0  501  502  0.00000000000E+00  0.00000000000E+00  0.40957341794E+02  0.40957341794E+02  0.00000000000E+00 0.  1.
          2   -1    0    0  502    0 -0.00000000000E+00 -0.00000000000E+00 -0.55684196172E+03  0.55684196172E+03  0.00000000000E+00 0. -1.
         24    2    1    2    0    0 -0.13555275081E+02  0.56162449759E+01 -0.36515508314E+03  0.37407861502E+03  0.79882963028E+02 0.  0.
         23    2    1    2    0    0 -0.12687399076E+02 -0.24370748154E+01 -0.16781329796E+03  0.19224625497E+03  0.92900000801E+02 0.  0.
        -11    1    3    3    0    0 -0.25410625209E+02  0.38572645875E+02 -0.20561212664E+03  0.21073655474E+03  0.00000000000E+00 0.  1.
         12    1    3    3    0    0  0.11855350128E+02 -0.32956400900E+02 -0.15954295650E+03  0.16334206028E+03  0.00000000000E+00 0. -1.
        -11    1    4    4    0    0  0.10530620634E+02  0.38909587570E+02 -0.44050919250E+02  0.59710413351E+02  0.00000000000E+00 0.  1.
         11    1    4    4    0    0 -0.23218019710E+02 -0.41346662385E+02 -0.12376237871E+03  0.13253584162E+03  0.00000000000E+00 0. -1.
          1    1    1    2  501    0  0.26242674157E+02 -0.31791701605E+01  0.17083761174E+02  0.31474433524E+02  0.00000000000E+00 0. -1.
<scales pt_clust_5="13000.00000" pt_clust_6="13000.00000" pt_clust_7="13000.00000" pt_clust_8="13000.00000" pt_clust_9="26.43454"></scales>
<clustering>
<clus scale="   26.435">  1  9  2 -1</clus>
<clus scale="   79.883">  5  6 -1 -1</clus>
<clus scale="   80.291">  2  5  1 -1</clus>
<clus scale="   92.900">  7  8 -1 -1</clus>
<clus scale="   26.435">  1  5  2 -1</clus>
</clustering>
</event>
<event>
 9    2  0.7820252E-005  0.1368620E+03  0.7546771E-02  0.1219308E+00
          2   -1    0    0  502    0 -0.00000000000E+00  0.00000000000E+00  0.25461659087E+03  0.25461659087E+03  0.00000000000E+00 0. -1.
         21   -1    0    0  501  502  0.00000000000E+00 -0.00000000000E+00 -0.14490303119E+03  0.14490303119E+03  0.00000000000E+00 0.  1.
         23    2    1    2    0    0 -0.42868979577E+02 -0.10662871183E+03  0.11523603360E+03  0.18615822674E+03  0.90377598701E+02 0.  0.
         24    2    1    2    0    0  0.27601209851E+02  0.85925161568E+02  0.64680595593E+02  0.13859366995E+03  0.82943750389E+02 0.  0.
        -11    1    4    4    0    0  0.16706762557E+02  0.25778718576E+02 -0.18127726037E+02  0.35668931829E+02  0.00000000000E+00 0.  1.
         12    1    4    4    0    0  0.10894447293E+02  0.60146442992E+02  0.82808321630E+02  0.10292473812E+03  0.00000000000E+00 0. -1.
        -13    1    3    3    0    0 -0.32768769294E+02 -0.69655583779E+02  0.12482179525E+03  0.14664983178E+03  0.00000000000E+00 0.  1.
         13    1    3    3    0    0 -0.10100210283E+02 -0.36973128054E+02 -0.95857616494E+01  0.39508394960E+02  0.00000000000E+00 0. -1.
          1    1    1    2  501    0  0.15267769726E+02  0.20703550265E+02 -0.70203069514E+02  0.74767725358E+02  0.00000000000E+00 0. -1.
<scales pt_clust_5="13000.00000" pt_clust_6="13000.00000" pt_clust_7="13000.00000" pt_clust_8="13000.00000" pt_clust_9="25.72434"></scales>
<clustering>
<clus scale="   25.724">  2  9  1 -1</clus>
<clus scale="   82.944">  5  6 -1 -1</clus>
<clus scale="   90.378">  7  8 -1 -1</clus>
<clus scale="  132.071">  2  5  1 -1</clus>
<clus scale="   25.724">  2  5  1 -1</clus>
</clustering>
</event>
<event>
 9    2  0.7820252E-005  0.1354840E+03  0.7546771E-02  0.1240285E+00
          2   -1    0    0  502    0 -0.00000000000E+00  0.00000000000E+00  0.12520201671E+03  0.12520201671E+03  0.00000000000E+00 0. -1.
         21   -1    0    0  501  502  0.00000000000E+00 -0.00000000000E+00 -0.28234079179E+03  0.28234079179E+03  0.00000000000E+00 0. -1.
         24    2    1    2    0    0 -0.35853968731E+02 -0.74350752200E+01  0.38577588645E+02  0.96328239751E+02  0.80312589365E+02 0.  0.
         23    2    1    2    0    0 -0.55290370881E+02  0.73425492494E+02 -0.11559913420E+03  0.17308131322E+03  0.90253271959E+02 0.  0.
        -13    1    3    3    0    0 -0.32369867301E+02  0.26950102587E+02 -0.30414897746E+01  0.42229930127E+02  0.00000000000E+00 0.  1.
         14    1    3    3    0    0 -0.34841014302E+01 -0.34385177807E+02  0.41619078420E+02  0.54098309623E+02  0.00000000000E+00 0. -1.
        -13    1    4    4    0    0 -0.76259940908E+02  0.71614806286E+02 -0.79889991581E+02  0.13163080878E+03  0.00000000000E+00 0. -1.
         13    1    4    4    0    0  0.20969570027E+02  0.18106862088E+01 -0.35709142620E+02  0.41450504440E+02  0.00000000000E+00 0.  1.
          1    1    1    2  501    0  0.91144339612E+02 -0.65990417274E+02 -0.80117229525E+02  0.13813325553E+03  0.00000000000E+00 0. -1.
<scales pt_clust_5="13000.00000" pt_clust_6="13000.00000" pt_clust_7="13000.00000" pt_clust_8="13000.00000" pt_clust_9="101.04583"></scales>
<clustering>
<clus scale="   80.313">  5  6 -1 -1</clus>
<clus scale="   88.266">  1  5  2 -1</clus>
<clus scale="   90.253">  7  8 -1 -1</clus>
<clus scale="  101.046">  2  9  1 -1</clus>
<clus scale="  101.046">  2  5  1 -1</clus>
</clustering>
</event>
<event>
 9    2  0.7820252E-005  0.1055370E+03  0.7546771E-02  0.1276665E+00
          2   -1    0    0  502    0 -0.00000000000E+00  0.00000000000E+00  0.48137743901E+03  0.48137743901E+03  0.00000000000E+00 0. -1.
         21   -1    0    0  501  502  0.00000000000E+00 -0.00000000000E+00 -0.28701699772E+02  0.28701699772E+02  0.00000000000E+00 0. -1.
         23    2    1    2    0    0 -0.46406245739E+02  0.59392872752E+01  0.28314690826E+03  0.30136327181E+03  0.91971925958E+02 0.  0.
         24    2    1    2    0    0  0.61653713060E+02  0.11066524933E+02  0.12516916384E+03  0.15882134846E+03  0.75054998782E+02 0.  0.
        -13    1    4    4    0    0  0.44512829797E+02  0.14410514176E+02  0.13201708412E+03  0.14006271964E+03  0.00000000000E+00 0.  1.
         14    1    4    4    0    0  0.17140883263E+02 -0.33439892431E+01 -0.68479202735E+01  0.18758628819E+02  0.00000000000E+00 0. -1.
        -11    1    3    3    0    0 -0.57436348280E+02 -0.26476752702E+02  0.13176776632E+03  0.14615983299E+03  0.00000000000E+00 0. -1.
         11    1    3    3    0    0  0.11030102541E+02  0.32416039977E+02  0.15137914194E+03  0.15520343882E+03  0.00000000000E+00 0.  1.
          1    1    1    2  501    0 -0.15247467321E+02 -0.17005812208E+02  0.44359667135E+02  0.49894518505E+02  0.00000000000E+00 0. -1.
<scales pt_clust_5="13000.00000" pt_clust_6="13000.00000" pt_clust_7="13000.00000" pt_clust_8="13000.00000" pt_clust_9="22.84039"></scales>
<clustering>
<clus scale="   22.840">  2  9  1 -1</clus>
<clus scale="   75.055">  5  6 -1 -1</clus>
<clus scale="   91.173">  2  5  1 -1</clus>
<clus scale="   91.972">  7  8 -1 -1</clus>
<clus scale="   22.840">  2  5  1 -1</clus>
</clustering>
</event>
<event>
 9    2  0.7820252E-005  0.9833386E+02  0.7546771E-02  0.1288157E+00
         21   -1    0    0  501  502  0.00000000000E+00  0.00000000000E+00  0.12721380175E+03  0.12721380175E+03  0.00000000000E+00 0.  1.
          2   -1    0    0  502    0 -0.00000000000E+00 -0.00000000000E+00 -0.55042578897E+03  0.55042578897E+03  0.00000000000E+00 0. -1.
         24    2    1    2    0    0  0.32969583013E+02  0.13859424046E+02 -0.46804040445E+03  0.47661025806E+03  0.82561739642E+02 0.  0.
         23    2    1    2    0    0 -0.55052234352E+02 -0.66110523676E+02  0.64713026715E+02  0.14091927863E+03  0.90934687627E+02 0.  0.
        -13    1    3    3    0    0  0.31626864447E+02  0.21665785877E+02 -0.82323419737E+02  0.90811950037E+02  0.00000000000E+00 0.  1.
         14    1    3    3    0    0  0.13427185665E+01 -0.78063618305E+01 -0.38571698471E+03  0.38579830802E+03  0.00000000000E+00 0. -1.
        -13    1    4    4    0    0 -0.27355119794E+01 -0.39138974378E+02  0.71612811609E+02  0.81656213038E+02  0.00000000000E+00 0.  1.
         13    1    4    4    0    0 -0.52316722372E+02 -0.26971549298E+02 -0.68997848932E+01  0.59263065588E+02  0.00000000000E+00 0. -1.
          1    1    1    2  501    0  0.22082651339E+02  0.52251099630E+02 -0.19884609487E+02  0.60110054044E+02  0.00000000000E+00 0. -1.
<scales pt_clust_5="13000.00000" pt_clust_6="13000.00000" pt_clust_7="13000.00000" pt_clust_8="13000.00000" pt_clust_9="56.72584"></scales>
<clustering>
<clus scale="   56.726">  1  9  2 -1</clus>
<clus scale="   82.562">  5  6 -1 -1</clus>
<clus scale="   90.647">  2  5  1 -1</clus>
<clus scale="   90.935">  7  8 -1 -1</clus>
<clus scale="   56.726">  1  5  2 -1</clus>
</clustering>
</event>
<event>
 9    2  0.7820252E-005  0.9297980E+02  0.7546771E-02  0.1300075E+00
          2   -1    0    0  502    0 -0.00000000000E+00  0.00000000000E+00  0.10696642311E+02  0.10696642311E+02  0.00000000000E+00 0. -1.
         21   -1    0    0  501  502  0.00000000000E+00 -0.00000000000E+00 -0.14732868419E+04  0.14732868419E+04  0.00000000000E+00 0.  1.
         23    2    1    2    0    0 -0.49563404273E+01 -0.33957827836E+02 -0.50910184577E+03  0.51830358459E+03  0.90973716265E+02 0.  0.
         24    2    1    2    0    0 -0.35407904190E+02 -0.10525355204E+02 -0.51039750153E+03  0.51853615406E+03  0.83723537390E+02 0.  0.
        -11    1    4    4    0    0  0.27298994524E+02  0.26726403351E+01 -0.15278810968E+03  0.15523074621E+03  0.00000000000E+00 0.  1.
         12    1    4    4    0    0 -0.62706898714E+02 -0.13197995539E+02 -0.35760939185E+03  0.36330540785E+03  0.00000000000E+00 0. -1.
        -13    1    3    3    0    0 -0.47574880636E+02 -0.21514384192E+02 -0.30400352585E+03  0.30845482931E+03  0.00000000000E+00 0.  1.
         13    1    3    3    0    0  0.42618540209E+02 -0.12443443644E+02 -0.20509831992E+03  0.20984875528E+03  0.00000000000E+00 0. -1.
          1    1    1    2  501    0  0.40364244618E+02  0.44483183039E+02 -0.44309085230E+03  0.44714374558E+03  0.00000000000E+00 0. -1.
<scales pt_clust_5="13000.00000" pt_clust_6="13000.00000" pt_clust_7="13000.00000" pt_clust_8="13000.00000" pt_clust_9="60.06684"></scales>
<clustering>
<clus scale="   60.067">  2  9  1 -1</clus>
<clus scale="   83.724">  5  6 -1 -1</clus>
<clus scale="   85.899">  2  5  1 -1</clus>
<clus scale="   90.974">  7  8 -1 -1</clus>
<clus scale="   60.067">  2  5  1 -1</clus>
</clustering>
</event>
<event>
 9    2  0.7820252E-005  0.1289142E+03  0.7546771E-02  0.1231725E+00
         21   -1    0    0  501  502  0.00000000000E+00  0.00000000000E+00  0.42202995089E+03  0.42202995089E+03  0.00000000000E+00 0. -1.
         -3   -1    0    0    0  501 -0.00000000000E+00 -0.00000000000E+00 -0.88492795158E+02  0.88492795158E+02  0.00000000000E+00 0.  1.
         24    2    1    2    0    0 -0.48454914649E+01  0.95196943889E+02 -0.20678022425E+02  0.12731870557E+03  0.81832360735E+02 0.  0.
         23    2    1    2    0    0  0.54485598559E+01 -0.67746738628E+02  0.24059428028E+03  0.26631269822E+03  0.91747142354E+02 0.  0.
        -13    1    3    3    0    0  0.99009598657E+01  0.91157579860E+02 -0.42183826932E+02  0.10093170278E+03  0.00000000000E+00 0.  1.
         14    1    3    3    0    0 -0.14746451331E+02  0.40393640286E+01  0.21505804507E+02  0.26387002787E+02  0.00000000000E+00 0. -1.
        -13    1    4    4    0    0 -0.32729517244E+02 -0.33506135413E+01  0.37643710155E+02  0.49994967991E+02  0.00000000000E+00 0.  1.
         13    1    4    4    0    0  0.38178077100E+02 -0.64396125087E+02  0.20295057012E+03  0.21631773023E+03  0.00000000000E+00 0. -1.
         -4    1    1    2    0  502 -0.60306839092E+00 -0.27450205261E+02  0.11362089788E+03  0.11689134226E+03  0.00000000000E+00 0.  1.
<scales pt_clust_5="13000.00000" pt_clust_6="13000.00000" pt_clust_7="13000.00000" pt_clust_8="13000.00000" pt_clust_9="27.45683"></scales>
<clustering>
<clus scale="   27.457">  1  9  2 -1</clus>
<clus scale="   81.832">  5  6 -1 -1</clus>
<clus scale="   91.747">  7  8 -1 -1</clus>
<clus scale="  122.057">  2  5  1 -1</clus>
<clus scale="   27.457">  1  5  2 -1</clus>
</clustering>
</event>
<event>
 9    2  0.7820252E-005  0.9170800E+02  0.7546771E-02  0.1304564E+00
         21   -1    0    0  501  502  0.00000000000E+00  0.00000000000E+00  0.79027109501E+02  0.79027109501E+02  0.00000000000E+00 0. -1.
          4   -1    0    0  502    0 -0.00000000000E+00 -0.00000000000E+00 -0.34086465319E+03  0.34086465319E+03  0.00000000000E+00 0. -1.
         24    2    1    2    0    0  0.17328565994E+02  0.33917794010E+01 -0.26177885890E+03  0.27439065063E+03  0.80313602955E+02 0.  0.
         23    2    1    2    0    0 -0.11924061392E+02 -0.46599882642E+02  0.21729503359E+01  0.10189917345E+03  0.89805275645E+02 0.  0.
        -13    1    3    3    0    0  0.36697734105E+02 -0.18911538171E+02 -0.21598992440E+03  0.21990001685E+03  0.00000000000E+00 0.  1.
         14    1    3    3    0    0 -0.19369168111E+02  0.22303317572E+02 -0.45788934495E+02  0.54490633784E+02  0.00000000000E+00 0. -1.
        -13    1    4    4    0    0  0.26386808975E+02  0.10117585952E+02  0.15407524422E+02  0.32187280752E+02  0.00000000000E+00 0.  1.
         13    1    4    4    0    0 -0.38310870367E+02 -0.56717468594E+02 -0.13234574086E+02  0.69711892696E+02  0.00000000000E+00 0. -1.
          3    1    1    2  501    0 -0.54045046021E+01  0.43208103241E+02 -0.22316351281E+01  0.43601938615E+02  0.00000000000E+00 0. -1.
<scales pt_clust_5="13000.00000" pt_clust_6="13000.00000" pt_clust_7="13000.00000" pt_clust_8="13000.00000" pt_clust_9="43.54479"></scales>
<clustering>
<clus scale="   43.545">  1  9  2 -1</clus>
<clus scale="   80.314">  5  6 -1 -1</clus>
<clus scale="   82.436">  2  5  1 -1</clus>
<clus scale="   89.805">  7  8 -1 -1</clus>
<clus scale="   43.545">  1  5  2 -1</clus>
</clustering>
</event>
<event>
 9    2  0.7820252E-005  0.1157798E+03  0.7546771E-02  0.1253629E+00
          2   -1    0    0  502    0 -0.00000000000E+00  0.00000000000E+00  0.28225431026E+02  0.28225431026E+02  0.00000000000E+00 0. -1.
         21   -1    0    0  501  502  0.00000000000E+00 -0.00000000000E+00 -0.69567899950E+03  0.69567899950E+03  0.00000000000E+00 0. -1.
         24    2    1    2    0    0  0.63530124985E+02 -0.77694846823E+01 -0.17694702111E+03  0.20477702813E+03  0.80789487560E+02 0.  0.
         23    2    1    2    0    0 -0.88050825256E+02  0.26538015668E+02 -0.45013863565E+03  0.46830328614E+03  0.90697091428E+02 0.  0.
        -11    1    3    3    0    0  0.39208294227E+02  0.31229009483E+02 -0.54789380728E+02  0.74259124759E+02  0.00000000000E+00 0.  1.
         12    1    3    3    0    0  0.24321830758E+02 -0.38998494165E+02 -0.12215764038E+03  0.13051790337E+03  0.00000000000E+00 0. -1.
        -11    1    4    4    0    0 -0.77197804678E+02  0.47380343244E+02 -0.42214995571E+03  0.43175801449E+03  0.00000000000E+00 0. -1.
         11    1    4    4    0    0 -0.10853020578E+02 -0.20842327576E+02 -0.27988679943E+02  0.36545271642E+02  0.00000000000E+00 0.  1.
          1    1    1    2  501    0  0.24520700271E+02 -0.18768530986E+02 -0.40367911719E+02  0.50824116261E+02  0.00000000000E+00 0. -1.
<scales pt_clust_5="13000.00000" pt_clust_6="13000.00000" pt_clust_7="13000.00000" pt_clust_8="13000.00000" pt_clust_9="30.87918"></scales>
<clustering>
<clus scale="   30.879">  2  9  1 -1</clus>
<clus scale="   80.789">  5  6 -1 -1</clus>
<clus scale="   90.697">  7  8 -1 -1</clus>
<clus scale="  108.194">  1  5  2 -1</clus>
<clus scale="   30.879">  2  5  1 -1</clus>
</clustering>
</event>
<event>
 9    2  0.7820252E-005  0.9506677E+02  0.7546771E-02  0.1300145E+00
         -1   -1    0    0    0  501 -0.00000000000E+00  0.00000000000E+00  0.70189926398E+02  0.70189926398E+02  0.00000000000E+00 0.  1.
         21   -1    0    0  501  502  0.00000000000E+00 -0.00000000000E+00 -0.36911142301E+03  0.36911142301E+03  0.00000000000E+00 0.  1.
         23    2    1    2    0    0 -0.11345097266E+02  0.22571683534E+02  0.74634464026E+01  0.97600170160E+02  0.93978178603E+02 0.  0.
         24    2    1    2    0    0 -0.34659585643E+02  0.19934269899E+02 -0.17217775992E+03  0.19359731393E+03  0.78968835360E+02 0.  0.
        -11    1    4    4    0    0 -0.49061733256E+02 -0.12838607562E+02 -0.12044876838E+03  0.13068966799E+03  0.00000000000E+00 0.  1.
         12    1    4    4    0    0  0.14402147613E+02  0.32772877461E+02 -0.51728991538E+02  0.62907645946E+02  0.00000000000E+00 0. -1.
        -11    1    3    3    0    0 -0.36838748009E+02  0.39271439244E+02  0.28156172798E+02  0.60762730039E+02  0.00000000000E+00 0.  1.
         11    1    3    3    0    0  0.25493650743E+02 -0.16699755710E+02 -0.20692726395E+02  0.36837440121E+02  0.00000000000E+00 0. -1.
         -2    1    1    2    0  502  0.46004682909E+02 -0.42505953433E+02 -0.13420718310E+03  0.14810386532E+03  0.00000000000E+00 0.  1.
<scales pt_clust_5="13000.00000" pt_clust_6="13000.00000" pt_clust_7="13000.00000" pt_clust_8="13000.00000" pt_clust_9="62.63535"></scales>
<clustering>
<clus scale="   62.635">  2  9  1 -1</clus>
<clus scale="   78.969">  5  6 -1 -1</clus>
<clus scale="   80.261">  2  5  1 -1</clus>
<clus scale="   93.978">  7  8 -1 -1</clus>
<clus scale="   62.635">  2  5  1 -1</clus>
</clustering>
</event>
<event>
 9    2  0.7820252E-005  0.1419297E+03  0.7546771E-02  0.1211243E+00
          2   -1    0    0  502    0 -0.00000000000E+00  0.00000000000E+00  0.53649744493E+03  0.53649744493E+03  0.00000000000E+00 0. -1.
         21   -1    0    0  501  502  0.00000000000E+00 -0.00000000000E+00 -0.15443849330E+03  0.15443849330E+03  0.00000000000E+00 0. -1.
         23    2    1    2    0    0  0.16084860374E+02 -0.12354874988E+03  0.38962217510E+03  0.41618452607E+03  0.76688356879E+02 0.  0.
         24    2    1    2    0    0 -0.18772510406E+02  0.99726938738E+02  0.10092616802E+03  0.16364493073E+03  0.79345463039E+02 0.  0.
        -11    1    4    4    0    0 -0.33907913623E+02  0.55300241828E+02  0.16315106176E+02  0.66888310205E+02  0.00000000000E+00 0.  1.
         12    1    4    4    0    0  0.15135403217E+02  0.44426696909E+02  0.84611061842E+02  0.96756620522E+02  0.00000000000E+00 0. -1.
        -11    1    3    3    0    0 -0.88744242015E+01 -0.46564489016E+02  0.58390086526E+02  0.75209103483E+02  0.00000000000E+00 0.  1.
         11    1    3    3    0    0  0.24959284575E+02 -0.76984260860E+02  0.33123208858E+03  0.34097542259E+03  0.00000000000E+00 0. -1.
          1    1    1    2  501    0  0.26876500323E+01  0.23821811138E+02 -0.10848939150E+03  0.11110648143E+03  0.00000000000E+00 0. -1.
<scales pt_clust_5="13000.00000" pt_clust_6="13000.00000" pt_clust_7="13000.00000" pt_clust_8="13000.00000" pt_clust_9="23.97295"></scales>
<clustering>
<clus scale="   23.973">  2  9  1 -1</clus>
<clus scale="   76.688">  7  8 -1 -1</clus>
<clus scale="   79.345">  5  6 -1 -1</clus>
<clus scale="  140.462">  1  7  2 -1</clus>
<clus scale="   23.973">  2  5  1 -1</clus>
</clustering>
</event>
<event>
 9    2  0.7820252E-005  0.1003783E+03  0.7546771E-02  0.1282666E+00
         21   -1    0    0  501  502  0.00000000000E+00  0.00000000000E+00  0.11754812060E+04  0.11754812060E+04  0.00000000000E+00 0.  1.
          2   -1    0    0  502    0 -0.00000000000E+00 -0.00000000000E+00 -0.19310134295E+02  0.19310134295E+02  0.00000000000E+00 0. -1.
         24    2    1    2    0    0  0.44293284942E+02 -0.68803207075E+00  0.18963462142E+03  0.21062356872E+03  0.80241071642E+02 0.  0.
         23    2    1    2    0    0 -0.63286885230E+02 -0.57725888541E+02  0.70614471683E+03  0.71662936719E+03  0.87061936342E+02 0.  0.
        -11    1    3    3    0    0 -0.26296197857E+01  0.33262968142E+02  0.78665021082E+02  0.85448964251E+02  0.00000000000E+00 0.  1.
         12    1    3    3    0    0  0.46922904728E+02 -0.33951000213E+02  0.11096960034E+03  0.12517460447E+03  0.00000000000E+00 0. -1.
        -11    1    4    4    0    0 -0.54011660087E+02 -0.80838305163E+02  0.55834294912E+03  0.56674415731E+03  0.00000000000E+00 0.  1.
         11    1    4    4    0    0 -0.92752251426E+01  0.23112416622E+02  0.14780176771E+03  0.14988520989E+03  0.00000000000E+00 0. -1.
          1    1    1    2  501    0  0.18993600288E+02  0.58413920612E+02  0.26039173347E+03  0.26753840441E+03  0.00000000000E+00 0. -1.
<scales pt_clust_5="13000.00000" pt_clust_6="13000.00000" pt_clust_7="13000.00000" pt_clust_8="13000.00000" pt_clust_9="61.42429"></scales>
<clustering>
<clus scale="   61.424">  1  9  2 -1</clus>
<clus scale="   80.241">  5  6 -1 -1</clus>
<clus scale="   87.062">  7  8 -1 -1</clus>
<clus scale="   94.523">  2  5  1 -1</clus>
<clus scale="   61.424">  1  5  2 -1</clus>
</clustering>
</event>
<event>
 9    2  0.7820252E-005  0.9980379E+02  0.7546771E-02  0.1284324E+00
          2   -1    0    0  502    0 -0.00000000000E+00  0.00000000000E+00  0.55773354464E+03  0.55773354464E+03  0.00000000000E+00 0. -1.
         21   -1    0    0  501  502  0.00000000000E+00 -0.00000000000E+00 -0.39907002991E+02  0.39907002991E+02  0.00000000000E+00 0. -1.
         23    2    1    2    0    0  0.36149892769E+02  0.94966922511E+01  0.21026786868E+03  0.23164081607E+03  0.89710028197E+02 0.  0.
         24    2    1    2    0    0 -0.55180806139E+02  0.57103233148E+02  0.11863729463E+03  0.16478091306E+03  0.82293626904E+02 0.  0.
        -11    1    4    4    0    0 -0.26511896094E+02 -0.89970432179E+01  0.24981984287E+01  0.28108155694E+02  0.00000000000E+00 0.  1.
         12    1    4    4    0    0 -0.28668910046E+02  0.66100276365E+02  0.11613909620E+03  0.13667275736E+03  0.00000000000E+00 0. -1.
        -11    1    3    3    0    0  0.66225695213E+02  0.38379650689E+01  0.15132809477E+03  0.16522943125E+03  0.00000000000E+00 0.  1.
         11    1    3    3    0    0 -0.30075802443E+02  0.56587271822E+01  0.58939773908E+02  0.66411384824E+02  0.00000000000E+00 0. -1.
          1    1    1    2  501    0  0.19030913370E+02 -0.66599925399E+02  0.18892137834E+03  0.20121881850E+03  0.00000000000E+00 0. -1.
<scales pt_clust_5="13000.00000" pt_clust_6="13000.00000" pt_clust_7="13000.00000" pt_clust_8="13000.00000" pt_clust_9="69.26565"></scales>
<clustering>
<clus scale="   69.266">  2  9  1 -1</clus>
<clus scale="   82.294">  5  6 -1 -1</clus>
<clus scale="   89.710">  7  8 -1 -1</clus>
<clus scale="   93.194">  2  5  1 -1</clus>
<clus scale="   69.266">  2  5  1 -1</clus>
</clustering>
</event>
<event>
 9    2  0.7820252E-005  0.1219445E+03  0.7546771E-02  0.1242990E+00
         -3   -1    0    0    0  501 -0.00000000000E+00  0.00000000000E+00  0.12865077970E+03  0.12865077970E+03  0.00000000000E+00 0.  1.
         21   -1    0    0  501  502  0.00000000000E+00 -0.00000000000E+00 -0.58977319057E+03  0.58977319057E+03  0.00000000000E+00 0.  1.
         24    2    1    2    0    0  0.68629567452E+02  0.90397663810E+02  0.30579842645E+02  0.14242835160E+03  0.80429804245E+02 0.  0.
         23    2    1    2    0    0  0.19059505454E+02 -0.54149664321E+02 -0.40048375010E+02  0.11448232857E+03  0.90591833622E+02 0.  0.
        -11    1    3    3    0    0  0.85092847974E+02  0.86146747012E+02  0.32348234474E+02  0.12533340764E+03  0.00000000000E+00 0.  1.
         12    1    3    3    0    0 -0.16463280522E+02  0.42509167978E+01 -0.17683918289E+01  0.17094943955E+02  0.00000000000E+00 0. -1.
        -13    1    4    4    0    0 -0.16476156708E+02 -0.54681773170E+02  0.47401785210E+01  0.57306451202E+02  0.00000000000E+00 0. -1.
         13    1    4    4    0    0  0.35535662162E+02  0.53210884954E+00 -0.44788553531E+02  0.57175877365E+02  0.00000000000E+00 0.  1.
         -4    1    1    2    0  502 -0.87689072906E+02 -0.36247999489E+02 -0.45165387851E+03  0.46151329010E+03  0.00000000000E+00 0.  1.
<scales pt_clust_5="13000.00000" pt_clust_6="13000.00000" pt_clust_7="13000.00000" pt_clust_8="13000.00000" pt_clust_9="94.88567"></scales>
<clustering>
<clus scale="   80.430">  5  6 -1 -1</clus>
<clus scale="   90.592">  7  8 -1 -1</clus>
<clus scale="   94.886">  2  9  1 -1</clus>
<clus scale="  114.597">  1  5  2 -1</clus>
<clus scale="   94.886">  2  5  1 -1</clus>
</clustering>
</event>
<event>
 9    2  0.7820252E-005  0.9639426E+02  0.7546771E-02  0.1291746E+00
          2   -1    0    0  502    0 -0.00000000000E+00  0.00000000000E+00  0.64676260243E+03  0.64676260243E+03  0.00000000000E+00 0. -1.
         21   -1    0    0  501  502  0.00000000000E+00 -0.00000000000E+00 -0.27682282759E+02  0.27682282759E+02  0.00000000000E+00 0. -1.
         24    2    1    2    0    0  0.12723946065E+02 -0.13739465778E+02  0.43250034542E+03  0.44196677920E+03  0.89036023096E+02 0.  0.
         23    2    1    2    0    0  0.24700660332E+02  0.83524646511E+01  0.15094220111E+03  0.18051973977E+03  0.95519328332E+02 0.  0.
        -11    1    3    3    0    0 -0.18727822620E+02  0.30601887059E+02  0.20026844905E+03  0.20345677309E+03  0.00000000000E+00 0.  1.
         12    1    3    3    0    0  0.31451768685E+02 -0.44341352836E+02  0.23223189636E+03  0.23851000611E+03  0.00000000000E+00 0. -1.
        -11    1    4    4    0    0  0.45191811082E+02  0.32519707986E+02  0.13282227763E+03  0.14401940366E+03  0.00000000000E+00 0. -1.
         11    1    4    4    0    0 -0.20491150750E+02 -0.24167243335E+02  0.18119923488E+02  0.36500336117E+02  0.00000000000E+00 0.  1.
          1    1    1    2  501    0 -0.37424606398E+02  0.53870011269E+01  0.35637773145E+02  0.51958366217E+02  0.00000000000E+00 0. -1.
<scales pt_clust_5="13000.00000" pt_clust_6="13000.00000" pt_clust_7="13000.00000" pt_clust_8="13000.00000" pt_clust_9="37.81033"></scales>
<clustering>
<clus scale="   37.810">  2  9  1 -1</clus>
<clus scale="   89.036">  5  6 -1 -1</clus>
<clus scale="   89.974">  1  5  2 -1</clus>
<clus scale="   95.519">  7  8 -1 -1</clus>
<clus scale="   37.810">  2  5  1 -1</clus>
</clustering>
</event>
<event>
 9    2  0.8132733E-005  0.9903043E+02  0.7546771E-02  0.1282765E+00
         21   -1    0    0  501  502  0.00000000000E+00  0.00000000000E+00  0.25029202890E+03  0.25029202890E+03  0.00000000000E+00 0.  1.
          2   -1    0    0  502    0 -0.00000000000E+00 -0.00000000000E+00 -0.84712608835E+03  0.84712608835E+03  0.00000000000E+00 0. -1.
         24    2    1    2    0    0  0.29254942055E+02 -0.17397158735E+02 -0.81904929371E+03  0.82499741173E+03  0.92846491972E+02 0.  0.
         23    2    1    2    0    0 -0.29711320045E+02  0.57028942998E+02  0.12826019742E+03  0.17044798587E+03  0.92015079030E+02 0.  0.
        -13    1    3    3    0    0  0.35652054189E+01 -0.32344919046E+02 -0.96534818664E+02  0.10187185918E+03  0.00000000000E+00 0.  1.
         14    1    3    3    0    0  0.25689736637E+02  0.14947760311E+02 -0.72251447504E+03  0.72312555255E+03  0.00000000000E+00 0. -1.
        -13    1    4    4    0    0 -0.13181050997E+02  0.17992592903E+02  0.12603953698E+03  0.12799780618E+03  0.00000000000E+00 0.  1.
         13    1    4    4    0    0 -0.16530269048E+02  0.39036350095E+02  0.22206604395E+01  0.42450179697E+02  0.00000000000E+00 0. -1.
          1    1    1    2  501    0  0.45637798921E+00 -0.39631784263E+02  0.93955036844E+02  0.10197271965E+03  0.00000000000E+00 0. -1.
<scales pt_clust_5="13000.00000" pt_clust_6="13000.00000" pt_clust_7="13000.00000" pt_clust_8="13000.00000" pt_clust_9="39.63441"></scales>
<clustering>
<clus scale="   39.634">  1  9  2 -1</clus>
<clus scale="   92.015">  7  8 -1 -1</clus>
<clus scale="   92.846">  5  6 -1 -1</clus>
<clus scale="   98.251">  1  7  2 -1</clus>
<clus scale="   39.634">  1  5  2 -1</clus>
</clustering>
</event>
<event>
 9    2  0.7820252E-005  0.1372542E+03  0.7546771E-02  0.1218888E+00
          2   -1    0    0  502    0 -0.00000000000E+00  0.00000000000E+00  0.10110012854E+04  0.10110012854E+04  0.00000000000E+00 0. -1.
         21   -1    0    0  501  502  0.00000000000E+00 -0.00000000000E+00 -0.51976824747E+02  0.51976824747E+02  0.00000000000E+00 0. -1.
         24    2    1    2    0    0 -0.10880802231E+03 -0.38763640526E+02  0.86047776607E+03  0.87165405352E+03  0.77569308110E+02 0.  0.
         23    2    1    2    0    0  0.61439201880E+02  0.52304481084E+01  0.60533427838E+02  0.12194618844E+03  0.86049078291E+02 0.  0.
        -11    1    3    3    0    0 -0.21071737672E+02  0.16745283324E+02  0.82502433589E+02  0.86781761853E+02  0.00000000000E+00 0.  1.
         12    1    3    3    0    0 -0.87736284643E+02 -0.55508923850E+02  0.77797533248E+03  0.78487229166E+03  0.00000000000E+00 0. -1.
        -13    1    4    4    0    0  0.30496190512E+02  0.12375879601E+02 -0.17802351037E+02  0.37417960047E+02  0.00000000000E+00 0. -1.
         13    1    4    4    0    0  0.30943011368E+02 -0.71454314925E+01  0.78335778875E+02  0.84528228395E+02  0.00000000000E+00 0.  1.
          1    1    1    2  501    0  0.47368820435E+02  0.33533192417E+02  0.38013266699E+02  0.69377868144E+02  0.00000000000E+00 0. -1.
<scales pt_clust_5="13000.00000" pt_clust_6="13000.00000" pt_clust_7="13000.00000" pt_clust_8="13000.00000" pt_clust_9="58.03689"></scales>
<clustering>
<clus scale="   58.037">  2  9  1 -1</clus>
<clus scale="   77.569">  5  6 -1 -1</clus>
<clus scale="   86.049">  7  8 -1 -1</clus>
<clus scale="  132.103">  1  5  2 -1</clus>
<clus scale="   58.037">  2  5  1 -1</clus>
</clustering>
</event>
<event>
 9    2  0.7820252E-005  0.1059567E+03  0.7546771E-02  0.1273103E+00
         21   -1    0    0  501  502  0.00000000000E+00  0.00000000000E+00  0.38547062423E+02  0.38547062423E+02  0.00000000000E+00 0.  1.
          2   -1    0    0  502    0 -0.00000000000E+00 -0.00000000000E+00 -0.90632141574E+03  0.90632141574E+03  0.00000000000E+00 0. -1.
         24    2    1    2    0    0 -0.12645464612E+02  0.50438427451E+02 -0.78669472014E+03  0.79273036034E+03  0.82637151215E+02 0.  0.
         23    2    1    2    0    0  0.44067665362E+01 -0.26122852625E+02 -0.43219287556E+02  0.10639394775E+03  0.93541126149E+02 0.  0.
        -13    1    3    3    0    0 -0.29156438993E+02 -0.11546886383E+02 -0.18658160778E+03  0.18919863869E+03  0.00000000000E+00 0.  1.
         14    1    3    3    0    0  0.16510974381E+02  0.61985313835E+02 -0.60011311236E+03  0.60353172165E+03  0.00000000000E+00 0. -1.
        -13    1    4    4    0    0  0.24395108671E+02  0.80977426506E+01 -0.58516874736E+02  0.63913374125E+02  0.00000000000E+00 0. -1.
         13    1    4    4    0    0 -0.19988342134E+02 -0.34220595276E+02  0.15297587181E+02  0.42480573629E+02  0.00000000000E+00 0.  1.
          1    1    1    2  501    0  0.82386980759E+01 -0.24315574826E+02 -0.37860345617E+02  0.45744170069E+02  0.00000000000E+00 0. -1.
<scales pt_clust_5="13000.00000" pt_clust_6="13000.00000" pt_clust_7="13000.00000" pt_clust_8="13000.00000" pt_clust_9="25.67340"></scales>
<clustering>
<clus scale="   25.673">  1  9  2 -1</clus>
<clus scale="   82.637">  5  6 -1 -1</clus>
<clus scale="   93.541">  7  8 -1 -1</clus>
<clus scale="   96.466">  2  5  1 -1</clus>
<clus scale="   25.673">  1  5  2 -1</clus>
</clustering>
</event>
<event>
 9    2  0.7820252E-005  0.1203329E+03  0.7546771E-02  0.1245498E+00
          2   -1    0    0  502    0 -0.00000000000E+00  0.00000000000E+00  0.29727655339E+03  0.29727655339E+03  0.00000000000E+00 0. -1.
         21   -1    0    0  501  502  0.00000000000E+00 -0.00000000000E+00 -0.67368189030E+02  0.67368189030E+02  0.00000000000E+00 0.  1.
         24    2    1    2    0    0 -0.68635156500E+02  0.69353780365E+02  0.11505237138E+03  0.17109993393E+03  0.80730463107E+02 0.  0.
         23    2    1    2    0    0  0.33207244669E+02 -0.48895797487E+02  0.55101355167E+02  0.12112738834E+03  0.90233944583E+02 0.  0.
        -11    1    3    3    0    0 -0.63780826284E+02  0.75678038215E+02  0.12430086467E+03  0.15888947173E+03  0.00000000000E+00 0.  1.
         12    1    3    3    0    0 -0.48543302153E+01 -0.63242578500E+01 -0.92484932863E+01  0.12210462205E+02  0.00000000000E+00 0. -1.
        -11    1    4    4    0    0  0.17372466041E+02 -0.69307439104E+02  0.61766301297E+02  0.94447867458E+02  0.00000000000E+00 0. -1.
         11    1    4    4    0    0  0.15834778628E+02  0.20411641617E+02 -0.66649461298E+01  0.26679520884E+02  0.00000000000E+00 0.  1.
          1    1    1    2  501    0  0.35427911831E+02 -0.20457982879E+02  0.59754637813E+02  0.72417420145E+02  0.00000000000E+00 0. -1.
<scales pt_clust_5="13000.00000" pt_clust_6="13000.00000" pt_clust_7="13000.00000" pt_clust_8="13000.00000" pt_clust_9="40.91048"></scales>
<clustering>
<clus scale="   40.910">  2  9  1 -1</clus>
<clus scale="   80.730">  5  6 -1 -1</clus>
<clus scale="   90.234">  7  8 -1 -1</clus>
<clus scale="  113.381">  1  5  2 -1</clus>
<clus scale="   40.910">  2  5  1 -1</clus>
</clustering>
</event>
<event>
 9    2  0.7820252E-005  0.1027072E+03  0.7546771E-02  0.1279533E+00
         21   -1    0    0  501  502  0.00000000000E+00  0.00000000000E+00  0.79908702606E+02  0.79908702606E+02  0.00000000000E+00 0. -1.
         -1   -1    0    0    0  501 -0.00000000000E+00 -0.00000000000E+00 -0.20992769940E+03  0.20992769940E+03  0.00000000000E+00 0.  1.
         24    2    1    2    0    0 -0.17797281944E+02 -0.51867518531E+02 -0.13863185236E+03  0.16894622096E+03  0.79479886530E+02 0.  0.
         23    2    1    2    0    0  0.23289031576E+01  0.33014604336E+02  0.32773994066E+01  0.95926803710E+02  0.89976788305E+02 0.  0.
        -13    1    3    3    0    0  0.39261592381E-01 -0.47289065933E+02 -0.14248954141E+03  0.15013169789E+03  0.00000000000E+00 0.  1.
         14    1    3    3    0    0 -0.17836543537E+02 -0.45784525983E+01  0.38576890501E+01  0.18814523070E+02  0.00000000000E+00 0. -1.
        -11    1    4    4    0    0 -0.39267577288E+02  0.34853661856E+02  0.10831204880E+02  0.53610030497E+02  0.00000000000E+00 0. -1.
         11    1    4    4    0    0  0.41596480445E+02 -0.18390575198E+01 -0.75538054730E+01  0.42316773212E+02  0.00000000000E+00 0.  1.
         -2    1    1    2    0  502  0.15468378787E+02  0.18852914195E+02  0.53354561585E+01  0.24963377343E+02  0.00000000000E+00 0.  1.
<scales pt_clust_5="13000.00000" pt_clust_6="13000.00000" pt_clust_7="13000.00000" pt_clust_8="13000.00000" pt_clust_9="24.38654"></scales>
<clustering>
<clus scale="   24.387">  1  9  2 -1</clus>
<clus scale="   79.480">  5  6 -1 -1</clus>
<clus scale="   89.977">  7  8 -1 -1</clus>
<clus scale="   93.648">  2  5  1 -1</clus>
<clus scale="   24.387">  1  5  2 -1</clus>
</clustering>
</event>
<event>
 9    2  0.7820252E-005  0.1155636E+03  0.7546771E-02  0.1254165E+00
         21   -1    0    0  501  502  0.00000000000E+00  0.00000000000E+00  0.18332890339E+03  0.18332890339E+03  0.00000000000E+00 0.  1.
         -1   -1    0    0    0  501 -0.00000000000E+00 -0.00000000000E+00 -0.30070559430E+03  0.30070559430E+03  0.00000000000E+00 0.  1.
         23    2    1    2    0    0  0.16583783534E+02 -0.69675462560E+02 -0.23513817723E+03  0.26210046448E+03  0.90978014550E+02 0.  0.
         24    2    1    2    0    0  0.14279341632E+02  0.73712442752E+02  0.11044628002E+02  0.11077056100E+03  0.80688968033E+02 0.  0.
        -13    1    4    4    0    0  0.21832603640E+02  0.56290428025E+02 -0.28604109682E+02  0.66809205650E+02  0.00000000000E+00 0.  1.
         14    1    4    4    0    0 -0.75532620078E+01  0.17422014727E+02  0.39648737684E+02  0.43961355348E+02  0.00000000000E+00 0. -1.
        -11    1    3    3    0    0 -0.97128491600E+01 -0.84864547571E+02 -0.17384025869E+03  0.19369245317E+03  0.00000000000E+00 0.  1.
         11    1    3    3    0    0  0.26296632694E+02  0.15189085010E+02 -0.61297918533E+02  0.68408011307E+02  0.00000000000E+00 0. -1.
         -2    1    1    2    0  502 -0.30863125166E+02 -0.40369801916E+01  0.10671685832E+03  0.11116347221E+03  0.00000000000E+00 0.  1.
<scales pt_clust_5="13000.00000" pt_clust_6="13000.00000" pt_clust_7="13000.00000" pt_clust_8="13000.00000" pt_clust_9="31.12603"></scales>
<clustering>
<clus scale="   31.126">  1  9  2 -1</clus>
<clus scale="   80.689">  5  6 -1 -1</clus>
<clus scale="   90.978">  7  8 -1 -1</clus>
<clus scale="  107.651">  1  5  2 -1</clus>
<clus scale="   31.126">  1  5  2 -1</clus>
</clustering>
</event>
<event>
 9    2  0.7820252E-005  0.9349345E+02  0.7546771E-02  0.1299949E+00
         21   -1    0    0  501  502  0.00000000000E+00  0.00000000000E+00  0.52767648979E+02  0.52767648979E+02  0.00000000000E+00 0. -1.
         -3   -1    0    0    0  501 -0.00000000000E+00 -0.00000000000E+00 -0.33203507296E+03  0.33203507296E+03  0.00000000000E+00 0.  1.
         24    2    1    2    0    0  0.25491073099E+01 -0.34198851279E+02 -0.18446358359E+03  0.20416478554E+03  0.80500848502E+02 0.  0.
         23    2    1    2    0    0 -0.26232638530E+01  0.13620305644E+02 -0.11848338660E+03  0.14926592740E+03  0.89719618491E+02 0.  0.
        -11    1    3    3    0    0  0.38296110745E+02 -0.29563918078E+02 -0.78218885479E+02  0.91971796742E+02  0.00000000000E+00 0.  1.
         12    1    3    3    0    0 -0.35747003435E+02 -0.46349332006E+01 -0.10624469811E+03  0.11219298880E+03  0.00000000000E+00 0. -1.
        -13    1    4    4    0    0  0.22211383826E+02  0.42967114822E+02 -0.87138159440E+02  0.99662316641E+02  0.00000000000E+00 0.  1.
         13    1    4    4    0    0 -0.24834647679E+02 -0.29346809178E+02 -0.31345227163E+02  0.49603610757E+02  0.00000000000E+00 0. -1.
         -4    1    1    2    0  502  0.74156543115E-01  0.20578545635E+02  0.23679546211E+02  0.31372008995E+02  0.00000000000E+00 0.  1.
<scales pt_clust_5="13000.00000" pt_clust_6="13000.00000" pt_clust_7="13000.00000" pt_clust_8="13000.00000" pt_clust_9="20.57868"></scales>
<clustering>
<clus scale="   20.579">  1  9  2 -1</clus>
<clus scale="   80.501">  5  6 -1 -1</clus>
<clus scale="   84.686">  2  5  1 -1</clus>
<clus scale="   89.720">  7  8 -1 -1</clus>
<clus scale="   20.579">  1  5  2 -1</clus>
</clustering>
</event>
<event>
 9    2  0.7820252E-005  0.1283422E+03  0.7546771E-02  0.1232891E+00
         21   -1    0    0  501  502  0.00000000000E+00  0.00000000000E+00  0.14787833589E+03  0.14787833589E+03  0.00000000000E+00 0.  1.
          2   -1    0    0  502    0 -0.00000000000E+00 -0.00000000000E+00 -0.17457465694E+03  0.17457465694E+03  0.00000000000E+00 0. -1.
         23    2    1    2    0    0  0.35881666232E+02  0.86924267963E+02 -0.56178018330E+02  0.14224199722E+03  0.90738600914E+02 0.  0.
         24    2    1    2    0    0 -0.75016000149E+02 -0.55578937223E+02  0.39801649598E+02  0.12901990981E+03  0.79658943466E+02 0.  0.
        -11    1    4    4    0    0 -0.86780243833E+02 -0.27712979240E+02  0.38040181347E+02  0.98721200029E+02  0.00000000000E+00 0.  1.
         12    1    4    4    0    0  0.11764243684E+02 -0.27865957982E+02  0.17614682517E+01  0.30298709777E+02  0.00000000000E+00 0. -1.
        -11    1    3    3    0    0  0.28546627472E+02  0.10558603895E+03 -0.54267955304E+02  0.12209968278E+03  0.00000000000E+00 0. -1.
         11    1    3    3    0    0  0.73350387601E+01 -0.18661770990E+02 -0.19100630266E+01  0.20142314437E+02  0.00000000000E+00 0.  1.
          1    1    1    2  501    0  0.39134333917E+02 -0.31345330740E+02 -0.10319952326E+02  0.51191085809E+02  0.00000000000E+00 0. -1.
<scales pt_clust_5="13000.00000" pt_clust_6="13000.00000" pt_clust_7="13000.00000" pt_clust_8="13000.00000" pt_clust_9="50.14009"></scales>
<clustering>
<clus scale="   50.140">  1  9  2 -1</clus>
<clus scale="   79.659">  5  6 -1 -1</clus>
<clus scale="   90.739">  7  8 -1 -1</clus>
<clus scale="  120.763">  1  5  2 -1</clus>
<clus scale="   50.140">  1  5  2 -1</clus>
</clustering>
</event>
<event>
 9    2  0.7820252E-005  0.1377970E+03  0.7546771E-02  0.1218532E+00
         21   -1    0    0  501  502  0.00000000000E+00  0.00000000000E+00  0.61322513017E+02  0.61322513017E+02  0.00000000000E+00 0.  1.
          2   -1    0    0  502    0 -0.00000000000E+00 -0.00000000000E+00 -0.58495458300E+03  0.58495458300E+03  0.00000000000E+00 0. -1.
         24    2    1    2    0    0  0.10360499326E+03 -0.16288273725E+02 -0.32338583788E+03  0.34973991407E+03  0.82099359711E+02 0.  0.
         23    2    1    2    0    0 -0.10108485571E+03 -0.89062266342E+01 -0.22356162219E+03  0.26211740047E+03  0.91805576013E+02 0.  0.
        -11    1    3    3    0    0  0.85286348870E+02 -0.15268683497E+02 -0.13466800017E+03  0.16013233361E+03  0.00000000000E+00 0.  1.
         12    1    3    3    0    0  0.18318644387E+02 -0.10195902271E+01 -0.18871783771E+03  0.18960758046E+03  0.00000000000E+00 0. -1.
        -11    1    4    4    0    0 -0.64640253192E+02  0.30667790355E+02 -0.72921570144E+02  0.10215885224E+03  0.00000000000E+00 0. -1.
         11    1    4    4    0    0 -0.36444602522E+02 -0.39574016989E+02 -0.15064005205E+03  0.15995854824E+03  0.00000000000E+00 0.  1.
          1    1    1    2  501    0 -0.25201375425E+01  0.25194500359E+02  0.23315390087E+02  0.34419781471E+02  0.00000000000E+00 0. -1.
<scales pt_clust_5="13000.00000" pt_clust_6="13000.00000" pt_clust_7="13000.00000" pt_clust_8="13000.00000" pt_clust_9="25.32023"></scales>
<clustering>
<clus scale="   25.320">  1  9  2 -1</clus>
<clus scale="   82.099">  5  6 -1 -1</clus>
<clus scale="   91.806">  7  8 -1 -1</clus>
<clus scale="  131.530">  2  5  1 -1</clus>
<clus scale="   25.320">  1  5  2 -1</clus>
</clustering>
</event>
<event>
 9    2  0.7820252E-005  0.9631310E+02  0.7546771E-02  0.1296236E+00
         -1   -1    0    0    0  501 -0.00000000000E+00  0.00000000000E+00  0.83787532181E+03  0.83787532181E+03  0.00000000000E+00 0.  1.
         21   -1    0    0  501  502  0.00000000000E+00 -0.00000000000E+00 -0.15246136587E+02  0.15246136587E+02  0.00000000000E+00 0. -1.
         23    2    1    2    0    0 -0.17388581538E+02  0.24557315136E+02  0.40581533596E+03  0.41734932918E+03  0.92676594500E+02 0.  0.
         24    2    1    2    0    0 -0.13104637929E+02 -0.27464358708E+02  0.20405777252E+03  0.22082228501E+03  0.78720292788E+02 0.  0.
        -11    1    4    4    0    0  0.22264716928E+01 -0.36205202216E+02  0.19925887697E+03  0.20253363645E+03  0.00000000000E+00 0.  1.
         12    1    4    4    0    0 -0.15331109621E+02  0.87408435082E+01  0.47988955474E+01  0.18288648554E+02  0.00000000000E+00 0. -1.
        -13    1    3    3    0    0  0.37374201211E+02  0.50881328135E+00  0.17087858220E+03  0.17491878019E+03  0.00000000000E+00 0.  1.
         13    1    3    3    0    0 -0.54762782749E+02  0.24048501854E+02  0.23493675376E+03  0.24243054899E+03  0.00000000000E+00 0. -1.
         -2    1    1    2    0  502  0.30493219467E+02  0.29070435722E+01  0.21275607675E+03  0.21494984422E+03  0.00000000000E+00 0.  1.
<scales pt_clust_5="13000.00000" pt_clust_6="13000.00000" pt_clust_7="13000.00000" pt_clust_8="13000.00000" pt_clust_9="30.63149"></scales>
<clustering>
<clus scale="   30.631">  2  9  1 -1</clus>
<clus scale="   78.720">  5  6 -1 -1</clus>
<clus scale="   82.971">  2  5  1 -1</clus>
<clus scale="   92.677">  7  8 -1 -1</clus>
<clus scale="   30.631">  2  5  1 -1</clus>
</clustering>
</event>
<event>
 9    2  0.7820252E-005  0.1181128E+03  0.7546771E-02  0.1259613E+00
         21   -1    0    0  501  502  0.00000000000E+00  0.00000000000E+00  0.94290437631E+02  0.94290437631E+02  0.00000000000E+00 0.  1.
          2   -1    0    0  502    0 -0.00000000000E+00 -0.00000000000E+00 -0.17021770039E+03  0.17021770039E+03  0.00000000000E+00 0. -1.
         24    2    1    2    0    0 -0.56361465027E+00  0.47201463692E+02 -0.24354146880E+02  0.95234928858E+02  0.79046007921E+02 0.  0.
         23    2    1    2    0    0 -0.19731388582E+02 -0.37746599688E+02 -0.50547515998E+01  0.11764724840E+03  0.10954994778E+03 0.  0.
        -13    1    3    3    0    0  0.38137583501E+02  0.20744094375E+02 -0.21022455023E+02  0.48236255471E+02  0.00000000000E+00 0.  1.
         14    1    3    3    0    0 -0.38701198151E+02  0.26457369316E+02 -0.33316918570E+01  0.46998673386E+02  0.00000000000E+00 0. -1.
        -13    1    4    4    0    0  0.14119851994E+02 -0.57117285281E+02  0.29249276209E+02  0.65705971242E+02  0.00000000000E+00 0.  1.
         13    1    4    4    0    0 -0.33851240576E+02  0.19370685593E+02 -0.34304027808E+02  0.51941277157E+02  0.00000000000E+00 0. -1.
          1    1    1    2  501    0  0.20295003232E+02 -0.94548640036E+01 -0.46518364280E+02  0.51625960764E+02  0.00000000000E+00 0. -1.
<scales pt_clust_5="13000.00000" pt_clust_6="13000.00000" pt_clust_7="13000.00000" pt_clust_8="13000.00000" pt_clust_9="22.38933"></scales>
<clustering>
<clus scale="   22.389">  1  9  2 -1</clus>
<clus scale="   79.046">  5  6 -1 -1</clus>
<clus scale="   90.541">  2  5  1 -1</clus>
<clus scale="  109.550">  7  8 -1 -1</clus>
<clus scale="   22.389">  1  5  2 -1</clus>
</clustering>
</event>
<event>
 9    2  0.7820252E-005  0.9449564E+02  0.7546771E-02  0.1299538E+00
         21   -1    0    0  501  502  0.00000000000E+00  0.00000000000E+00  0.69203279598E+02  0.69203279598E+02  0.00000000000E+00 0. -1.
          2   -1    0    0  502    0 -0.00000000000E+00 -0.00000000000E+00 -0.40944418743E+03  0.40944418743E+03  0.00000000000E+00 0. -1.
         24    2    1    2    0    0  0.19198348361E+01  0.10013275825E+02 -0.68613597949E+02  0.10704332364E+03  0.81526044017E+02 0.  0.
         23    2    1    2    0    0  0.50045747243E+02  0.29712967973E+02 -0.20429607176E+02  0.11202971859E+03  0.93519258522E+02 0.  0.
        -13    1    3    3    0    0  0.34965731054E+02 -0.16987211777E+02 -0.39253374268E+02  0.55244864951E+02  0.00000000000E+00 0.  1.
         14    1    3    3    0    0 -0.33045896218E+02  0.27000487602E+02 -0.29360223681E+02  0.51798458685E+02  0.00000000000E+00 0. -1.
        -13    1    4    4    0    0  0.21462962403E+01 -0.31930848635E+02 -0.79116727935E+01  0.32966350245E+02  0.00000000000E+00 0.  1.
         13    1    4    4    0    0  0.47899451003E+02  0.61643816608E+02 -0.12517934383E+02  0.79063368342E+02  0.00000000000E+00 0. -1.
          1    1    1    2  501    0 -0.51965582079E+02 -0.39726243798E+02 -0.25119770271E+03  0.25957442480E+03  0.00000000000E+00 0. -1.
<scales pt_clust_5="13000.00000" pt_clust_6="13000.00000" pt_clust_7="13000.00000" pt_clust_8="13000.00000" pt_clust_9="65.41101"></scales>
<clustering>
<clus scale="   65.411">  1  9  2 -1</clus>
<clus scale="   81.526">  5  6 -1 -1</clus>
<clus scale="   82.644">  2  5  1 -1</clus>
<clus scale="   93.519">  7  8 -1 -1</clus>
<clus scale="   65.411">  1  5  2 -1</clus>
</clustering>
</event>
<event>
 9    2  0.7820252E-005  0.1609785E+03  0.7546771E-02  0.1214565E+00
          2   -1    0    0  502    0 -0.00000000000E+00  0.00000000000E+00  0.74395345055E+03  0.74395345055E+03  0.00000000000E+00 0. -1.
         21   -1    0    0  501  502  0.00000000000E+00 -0.00000000000E+00 -0.14456582793E+03  0.14456582793E+03  0.00000000000E+00 0. -1.
         24    2    1    2    0    0  0.42697439302E+01 -0.39310191773E+02  0.53775694972E+03  0.54518782749E+03  0.80521477777E+02 0.  0.
         23    2    1    2    0    0 -0.10739725078E+03 -0.51235790281E+02  0.12194486086E+03  0.19342595142E+03  0.91562950549E+02 0.  0.
        -13    1    3    3    0    0  0.19404838283E+02 -0.20155220446E+02  0.54021006930E+02  0.60836254402E+02  0.00000000000E+00 0.  1.
         14    1    3    3    0    0 -0.15135094353E+02 -0.19154971327E+02  0.48373594279E+03  0.48435157309E+03  0.00000000000E+00 0. -1.
        -11    1    4    4    0    0 -0.24136944115E+02 -0.64024636151E+01  0.90328755303E+02  0.93716954955E+02  0.00000000000E+00 0.  1.
         11    1    4    4    0    0 -0.83260306664E+02 -0.44833326666E+02  0.31616105552E+02  0.99708996465E+02  0.00000000000E+00 0. -1.
          1    1    1    2  501    0  0.10312750685E+03  0.90545982054E+02 -0.60314187949E+02  0.14990549958E+03  0.00000000000E+00 0. -1.
<scales pt_clust_5="13000.00000" pt_clust_6="13000.00000" pt_clust_7="13000.00000" pt_clust_8="13000.00000" pt_clust_9="132.40205"></scales>
<clustering>
<clus scale="   80.521">  5  6 -1 -1</clus>
<clus scale="   89.706">  1  5  2 -1</clus>
<clus scale="   91.563">  7  8 -1 -1</clus>
<clus scale="  132.402">  2  9  1 -1</clus>
<clus scale="  132.402">  2  5  1 -1</clus>
</clustering>
</event>
<event>
 9    2  0.7820252E-005  0.9490484E+02  0.7546771E-02  0.1300969E+00
         21   -1    0    0  501  502  0.00000000000E+00  0.00000000000E+00  0.34692078578E+02  0.34692078578E+02  0.00000000000E+00 0.  1.
          2   -1    0    0  502    0 -0.00000000000E+00 -0.00000000000E+00 -0.34912118620E+03  0.34912118620E+03  0.00000000000E+00 0. -1.
         23    2    1    2    0    0  0.24555657266E+02 -0.85732865054E+01 -0.20361070276E+03  0.22542296085E+03  0.93175702062E+02 0.  0.
         24    2    1    2    0    0 -0.53559319594E+01 -0.10795059975E+02 -0.53297741491E+02  0.94731926539E+02  0.77383908733E+02 0.  0.
        -13    1    4    4    0    0 -0.21009443542E+01  0.21326857168E+02  0.10020586820E+02  0.23657154606E+02  0.00000000000E+00 0.  1.
         14    1    4    4    0    0 -0.32549876052E+01 -0.32121917142E+02 -0.63318328311E+02  0.71074771933E+02  0.00000000000E+00 0. -1.
        -11    1    3    3    0    0  0.19480562677E+01 -0.47248430421E+02 -0.13881733735E+03  0.14665081741E+03  0.00000000000E+00 0.  1.
         11    1    3    3    0    0  0.22607600999E+02  0.38675143915E+02 -0.64793365411E+02  0.78772143433E+02  0.00000000000E+00 0. -1.
          1    1    1    2  501    0 -0.19199725307E+02  0.19368346480E+02 -0.57520663373E+02  0.63658377391E+02  0.00000000000E+00 0. -1.
<scales pt_clust_5="13000.00000" pt_clust_6="13000.00000" pt_clust_7="13000.00000" pt_clust_8="13000.00000" pt_clust_9="27.27202"></scales>
<clustering>
<clus scale="   27.272">  1  9  2 -1</clus>
<clus scale="   77.384">  5  6 -1 -1</clus>
<clus scale="   79.457">  1  5  2 -1</clus>
<clus scale="   93.176">  7  8 -1 -1</clus>
<clus scale="   27.272">  1  5  2 -1</clus>
</clustering>
</event>
<event>
 9    2  0.7820252E-005  0.1097165E+03  0.7546771E-02  0.1269064E+00
         21   -1    0    0  501  502  0.00000000000E+00  0.00000000000E+00  0.51888068361E+02  0.51888068361E+02  0.00000000000E+00 0.  1.
          2   -1    0    0  502    0 -0.00000000000E+00 -0.00000000000E+00 -0.45721963400E+03  0.45721963400E+03  0.00000000000E+00 0. -1.
         24    2    1    2    0    0  0.51484106076E+02  0.77192115849E+01 -0.27261966710E+03  0.28887893088E+03  0.80120873760E+02 0.  0.
         23    2    1    2    0    0 -0.37566657992E+02  0.36969673940E+02 -0.43721763497E+02  0.11968009677E+03  0.98151527629E+02 0.  0.
        -11    1    3    3    0    0  0.44972222758E+02  0.35225424138E+02 -0.23488155609E+03  0.24172851863E+03  0.00000000000E+00 0.  1.
         12    1    3    3    0    0  0.65118833177E+01 -0.27506212554E+02 -0.37738111009E+02  0.47150412256E+02  0.00000000000E+00 0. -1.
        -11    1    4    4    0    0 -0.26686102695E+02 -0.31597723376E+02 -0.10265423866E+02  0.42613884201E+02  0.00000000000E+00 0. -1.
         11    1    4    4    0    0 -0.10880555298E+02  0.68567397316E+02 -0.33456339630E+02  0.77066212569E+02  0.00000000000E+00 0.  1.
          1    1    1    2  501    0 -0.13917448083E+02 -0.44688885525E+02 -0.88990135040E+02  0.10054867471E+03  0.00000000000E+00 0. -1.
<scales pt_clust_5="13000.00000" pt_clust_6="13000.00000" pt_clust_7="13000.00000" pt_clust_8="13000.00000" pt_clust_9="46.80592"></scales>
<clustering>
<clus scale="   46.806">  1  9  2 -1</clus>
<clus scale="   80.121">  5  6 -1 -1</clus>
<clus scale="   93.933">  2  5  1 -1</clus>
<clus scale="   98.152">  7  8 -1 -1</clus>
<clus scale="   46.806">  1  5  2 -1</clus>
</clustering>
</event>
<event>
 9    2  0.7820252E-005  0.2800607E+03  0.7546771E-02  0.1144149E+00
          2   -1    0    0  502    0 -0.00000000000E+00  0.00000000000E+00  0.10289958543E+04  0.10289958543E+04  0.00000000000E+00 0. -1.
         21   -1    0    0  501  502  0.00000000000E+00 -0.00000000000E+00 -0.99651692829E+02  0.99651692829E+02  0.00000000000E+00 0. -1.
         24    2    1    2    0    0  0.55582404731E+01  0.22166429198E+02  0.10889929584E+03  0.13705317956E+03  0.80014203577E+02 0.  0.
         23    2    1    2    0    0 -0.29119265241E+02 -0.27704100210E+03  0.51918799045E+03  0.59628199153E+03  0.91631847814E+02 0.  0.
        -13    1    3    3    0    0  0.36192016355E+02  0.46150045683E+01  0.89763992834E+02  0.96895483510E+02  0.00000000000E+00 0.  1.
         14    1    3    3    0    0 -0.30633775882E+02  0.17551424630E+02  0.19135303003E+02  0.40157696054E+02  0.00000000000E+00 0. -1.
        -13    1    4    4    0    0  0.15627359832E+02 -0.27690738847E+02  0.11456789831E+03  0.11889825363E+03  0.00000000000E+00 0.  1.
         13    1    4    4    0    0 -0.44746625074E+02 -0.24935026326E+03  0.40462009214E+03  0.47738373789E+03  0.00000000000E+00 0. -1.
          1    1    1    2  501    0  0.23561024768E+02  0.25487457291E+03  0.30125687517E+03  0.39531237602E+03  0.00000000000E+00 0. -1.
<scales pt_clust_5="13000.00000" pt_clust_6="13000.00000" pt_clust_7="13000.00000" pt_clust_8="13000.00000" pt_clust_9="264.64621"></scales>
<clustering>
<clus scale="   80.014">  5  6 -1 -1</clus>
<clus scale="   83.214">  1  5  2 -1</clus>
<clus scale="   91.632">  7  8 -1 -1</clus>
<clus scale="  264.646">  2  9  1 -1</clus>
<clus scale="  264.646">  2  5  1 -1</clus>
</clustering>
</event>
<event>
 9    2  0.7820252E-005  0.1381248E+03  0.7546771E-02  0.1218551E+00
         21   -1    0    0  501  502  0.00000000000E+00  0.00000000000E+00  0.62185865576E+02  0.62185865576E+02  0.00000000000E+00 0.  1.
          2   -1    0    0  502    0 -0.00000000000E+00 -0.00000000000E+00 -0.74047565662E+03  0.74047565662E+03  0.00000000000E+00 0. -1.
         24    2    1    2    0    0 -0.88126316206E+02  0.48703331021E+02 -0.55425994196E+03  0.56892501409E+03  0.79582198569E+02 0.  0.
         23    2    1    2    0    0  0.12176636276E+03 -0.29769152776E+02 -0.78085779539E+02  0.17372806400E+03  0.91492085432E+02 0.  0.
        -11    1    3    3    0    0 -0.10239874957E+02  0.47204425939E+02 -0.16396384039E+03  0.17093055263E+03  0.00000000000E+00 0.  1.
         12    1    3    3    0    0 -0.77886441249E+02  0.14989050822E+01 -0.39029610157E+03  0.39799446145E+03  0.00000000000E+00 0. -1.
        -11    1    4    4    0    0  0.90922357426E+02 -0.58219186588E+02 -0.34781926697E+02  0.11342896981E+03  0.00000000000E+00 0.  1.
         11    1    4    4    0    0  0.30844005338E+02  0.28450033813E+02 -0.43303852842E+02  0.60299094191E+02  0.00000000000E+00 0. -1.
          1    1    1    2  501    0 -0.33640046558E+02 -0.18934178245E+02 -0.45944069536E+02  0.60008444104E+02  0.00000000000E+00 0. -1.
<scales pt_clust_5="13000.00000" pt_clust_6="13000.00000" pt_clust_7="13000.00000" pt_clust_8="13000.00000" pt_clust_9="38.60254"></scales>
<clustering>
<clus scale="   38.603">  1  9  2 -1</clus>
<clus scale="   79.582">  5  6 -1 -1</clus>
<clus scale="   91.492">  7  8 -1 -1</clus>
<clus scale="  130.541">  2  5  1 -1</clus>
<clus scale="   38.603">  1  5  2 -1</clus>
</clustering>
</event>
<event>
 9    2  0.7820252E-005  0.9502433E+02  0.7546771E-02  0.1299647E+00
          4   -1    0    0  502    0 -0.00000000000E+00  0.00000000000E+00  0.10727740345E+04  0.10727740345E+04  0.00000000000E+00 0. -1.
         21   -1    0    0  501  502  0.00000000000E+00 -0.00000000000E+00 -0.24086908807E+02  0.24086908807E+02  0.00000000000E+00 0.  1.
         24    2    1    2    0    0  0.24539382576E+01 -0.39405852069E+01  0.89228369982E+03  0.89597143188E+03  0.81074384005E+02 0.  0.
         23    2    1    2    0    0  0.31964649843E+01 -0.23308182305E+02  0.11502464481E+03  0.15102343169E+03  0.94994311687E+02 0.  0.
        -11    1    3    3    0    0 -0.13819275464E+02  0.23334198121E+02  0.11963575176E+03  0.12267098384E+03  0.00000000000E+00 0.  1.
         12    1    3    3    0    0  0.16273213721E+02 -0.27274783328E+02  0.77264794807E+03  0.77330044804E+03  0.00000000000E+00 0. -1.
        -13    1    4    4    0    0  0.30376733701E+02  0.13983534116E+02  0.78692840011E+01  0.34354196358E+02  0.00000000000E+00 0.  1.
         13    1    4    4    0    0 -0.27180268716E+02 -0.37291716420E+02  0.10715536081E+03  0.11666923533E+03  0.00000000000E+00 0. -1.
          3    1    1    2  501    0 -0.56504032419E+01  0.27248767512E+02  0.41378781064E+02  0.49866079754E+02  0.00000000000E+00 0. -1.
<scales pt_clust_5="13000.00000" pt_clust_6="13000.00000" pt_clust_7="13000.00000" pt_clust_8="13000.00000" pt_clust_9="27.82845"></scales>
<clustering>
<clus scale="   27.828">  2  9  1 -1</clus>
<clus scale="   81.074">  5  6 -1 -1</clus>
<clus scale="   81.110">  1  5  2 -1</clus>
<clus scale="   94.994">  7  8 -1 -1</clus>
<clus scale="   27.828">  2  5  1 -1</clus>
</clustering>
</event>
<event>
 9    2  0.7820252E-005  0.9790107E+02  0.7546771E-02  0.1289208E+00
         -1   -1    0    0    0  501 -0.00000000000E+00  0.00000000000E+00  0.32909860230E+03  0.32909860230E+03  0.00000000000E+00 0.  1.
         21   -1    0    0  501  502  0.00000000000E+00 -0.00000000000E+00 -0.82247474762E+02  0.82247474762E+02  0.00000000000E+00 0. -1.
         23    2    1    2    0    0 -0.17436749582E+02 -0.40517930371E+02  0.21629929850E+03  0.23802860613E+03  0.89030825485E+02 0.  0.
         24    2    1    2    0    0 -0.21080942223E+02  0.29224287924E+02 -0.36388301164E+02  0.95265309059E+02  0.80329978955E+02 0.  0.
        -11    1    4    4    0    0 -0.21972719084E+02  0.28610648089E+02  0.18379553230E+02  0.40486757649E+02  0.00000000000E+00 0.  1.
         12    1    4    4    0    0  0.89177686083E+00  0.61363983519E+00 -0.54767854393E+02  0.54778551411E+02  0.00000000000E+00 0. -1.
        -11    1    3    3    0    0 -0.43384062972E+02 -0.35734844042E+02  0.19824376967E+03  0.20605763323E+03  0.00000000000E+00 0. -1.
         11    1    3    3    0    0  0.25947313389E+02 -0.47830863287E+01  0.18055528833E+02  0.31970972903E+02  0.00000000000E+00 0.  1.
         -2    1    1    2    0  502  0.38517691805E+02  0.11293642447E+02  0.66940130197E+02  0.78052161870E+02  0.00000000000E+00 0.  1.
<scales pt_clust_5="13000.00000" pt_clust_6="13000.00000" pt_clust_7="13000.00000" pt_clust_8="13000.00000" pt_clust_9="40.13926"></scales>
<clustering>
<clus scale="   40.139">  2  9  1 -1</clus>
<clus scale="   80.330">  5  6 -1 -1</clus>
<clus scale="   89.031">  7  8 -1 -1</clus>
<clus scale="   90.061">  2  5  1 -1</clus>
<clus scale="   40.139">  2  5  1 -1</clus>
</clustering>
</event>
<event>
 9    2  0.7820252E-005  0.1085946E+03  0.7546771E-02  0.1270365E+00
          2   -1    0    0  502    0 -0.00000000000E+00  0.00000000000E+00  0.82213212587E+03  0.82213212587E+03  0.00000000000E+00 0. -1.
         21   -1    0    0  501  502  0.00000000000E+00 -0.00000000000E+00 -0.36187638843E+02  0.36187638843E+02  0.00000000000E+00 0. -1.
         24    2    1    2    0    0  0.77795503258E+01 -0.50738929278E+02  0.56185814317E+03  0.56935736116E+03  0.76473991089E+02 0.  0.
         23    2    1    2    0    0 -0.51550096314E+02  0.74784174983E+02  0.14049564802E+03  0.19158972274E+03  0.93367604080E+02 0.  0.
        -13    1    3    3    0    0  0.27012843986E+02 -0.37751989332E+02  0.15411874535E+03  0.16095805077E+03  0.00000000000E+00 0.  1.
         14    1    3    3    0    0 -0.19233293660E+02 -0.12986939946E+02  0.40773939782E+03  0.40839931039E+03  0.00000000000E+00 0. -1.
        -11    1    4    4    0    0 -0.21073276008E+02  0.75342100111E+01  0.10907720535E+03  0.11134937813E+03  0.00000000000E+00 0.  1.
         11    1    4    4    0    0 -0.30476820306E+02  0.67249964972E+02  0.31418442666E+02  0.80240344617E+02  0.00000000000E+00 0. -1.
          1    1    1    2  501    0  0.43770545988E+02 -0.24045245705E+02  0.83590695846E+02  0.97372680815E+02  0.00000000000E+00 0. -1.
<scales pt_clust_5="13000.00000" pt_clust_6="13000.00000" pt_clust_7="13000.00000" pt_clust_8="13000.00000" pt_clust_9="49.94031"></scales>
<clustering>
<clus scale="   49.940">  2  9  1 -1</clus>
<clus scale="   76.474">  5  6 -1 -1</clus>
<clus scale="   93.368">  7  8 -1 -1</clus>
<clus scale="   94.465">  1  5  2 -1</clus>
<clus scale="   49.940">  2  5  1 -1</clus>
</clustering>
</event>
<event>
 9    2  0.7820252E-005  0.1586870E+03  0.7546771E-02  0.1213534E+00
          2   -1    0    0  502    0 -0.00000000000E+00  0.00000000000E+00  0.25117104737E+03  0.25117104737E+03  0.00000000000E+00 0. -1.
         21   -1    0    0  501  502  0.00000000000E+00 -0.00000000000E+00 -0.18802615383E+03  0.18802615383E+03  0.00000000000E+00 0. -1.
         24    2    1    2    0    0 -0.15309877847E+02  0.48208455255E+02  0.40094354220E+02  0.10377775274E+03  0.81263873931E+02 0.  0.
         23    2    1    2    0    0 -0.11982766515E+03 -0.52447648333E+01  0.97260540001E+02  0.17537208539E+03  0.83123876218E+02 0.  0.
        -13    1    3    3    0    0  0.86193472410E+01 -0.18755760025E+02  0.22476352961E+02  0.30516522138E+02  0.00000000000E+00 0.  1.
         14    1    3    3    0    0 -0.23929225088E+02  0.66964215280E+02  0.17618001258E+02  0.73261230604E+02  0.00000000000E+00 0. -1.
        -11    1    4    4    0    0 -0.39753098601E+02 -0.25493339593E+02 -0.71044834219E+00  0.47230540425E+02  0.00000000000E+00 0.  1.
         11    1    4    4    0    0 -0.80074566552E+02  0.20248574760E+02  0.97970988343E+02  0.12814154496E+03  0.00000000000E+00 0. -1.
          1    1    1    2  501    0  0.13513754300E+03 -0.42963690422E+02 -0.74210000682E+02  0.16004736306E+03  0.00000000000E+00 0. -1.
<scales pt_clust_5="13000.00000" pt_clust_6="13000.00000" pt_clust_7="13000.00000" pt_clust_8="13000.00000" pt_clust_9="135.17386"></scales>
<clustering>
<clus scale="   81.264">  5  6 -1 -1</clus>
<clus scale="   83.124">  7  8 -1 -1</clus>
<clus scale="   95.720">  1  5  2 -1</clus>
<clus scale="  135.174">  2  9  1 -1</clus>
<clus scale="  135.174">  2  5  1 -1</clus>
</clustering>
</event>
<event>
 9    2  0.7820252E-005  0.9150847E+02  0.7546771E-02  0.1305863E+00
         21   -1    0    0  501  502  0.00000000000E+00  0.00000000000E+00  0.14369069668E+03  0.14369069668E+03  0.00000000000E+00 0. -1.
          2   -1    0    0  502    0 -0.00000000000E+00 -0.00000000000E+00 -0.20986641650E+03  0.20986641650E+03  0.00000000000E+00 0. -1.
         24    2    1    2    0    0  0.77930056272E+01  0.38220245495E+01 -0.12526874884E+03  0.14943093191E+03  0.81006204493E+02 0.  0.
         23    2    1    2    0    0  0.12726587776E+02  0.92870437706E+01 -0.40730010508E+02  0.10137628781E+03  0.91487719149E+02 0.  0.
        -13    1    3    3    0    0 -0.30944129248E+02  0.24695116877E+00 -0.19113208906E+02  0.36371896767E+02  0.00000000000E+00 0.  1.
         14    1    3    3    0    0  0.38737134875E+02  0.35750733807E+01 -0.10615553994E+03  0.11305903514E+03  0.00000000000E+00 0. -1.
        -11    1    4    4    0    0 -0.20875790717E+02 -0.61791394147E+00  0.21493427489E+02  0.29969115451E+02  0.00000000000E+00 0.  1.
         11    1    4    4    0    0  0.33602378492E+02  0.99049577121E+01 -0.62223437998E+02  0.71407172356E+02  0.00000000000E+00 0. -1.
          1    1    1    2  501    0 -0.20519593403E+02 -0.13109068320E+02  0.99823039534E+02  0.10274989347E+03  0.00000000000E+00 0. -1.
<scales pt_clust_5="13000.00000" pt_clust_6="13000.00000" pt_clust_7="13000.00000" pt_clust_8="13000.00000" pt_clust_9="24.34957"></scales>
<clustering>
<clus scale="   24.350">  1  9  2 -1</clus>
<clus scale="   81.006">  5  6 -1 -1</clus>
<clus scale="   81.030">  2  5  1 -1</clus>
<clus scale="   91.488">  7  8 -1 -1</clus>
<clus scale="   24.350">  1  5  2 -1</clus>
</clustering>
</event>
<event>
 9    2  0.7820252E-005  0.1013196E+03  0.7546771E-02  0.1283095E+00
          2   -1    0    0  502    0 -0.00000000000E+00  0.00000000000E+00  0.48707768969E+03  0.48707768969E+03  0.00000000000E+00 0. -1.
         21   -1    0    0  501  502  0.00000000000E+00 -0.00000000000E+00 -0.48466040685E+02  0.48466040685E+02  0.00000000000E+00 0.  1.
         23    2    1    2    0    0  0.11551375925E+02 -0.67817033413E+02  0.22728074689E+03  0.25464394150E+03  0.91947891402E+02 0.  0.
         24    2    1    2    0    0 -0.20431514155E+01 -0.90576031439E+01  0.35153166168E+02  0.88445350824E+02  0.80626424628E+02 0.  0.
        -11    1    4    4    0    0 -0.24045750623E+02 -0.26741934539E+02 -0.80355282113E+01  0.36849679775E+02  0.00000000000E+00 0.  1.
         12    1    4    4    0    0  0.22002599207E+02  0.17684331395E+02  0.43188694380E+02  0.51595671049E+02  0.00000000000E+00 0. -1.
        -11    1    3    3    0    0 -0.38770946650E+02 -0.15975388588E+02  0.96884007245E+02  0.10556945678E+03  0.00000000000E+00 0.  1.
         11    1    3    3    0    0  0.50322322574E+02 -0.51841644825E+02  0.13039673964E+03  0.14907448473E+03  0.00000000000E+00 0. -1.
          1    1    1    2  501    0 -0.95082245091E+01  0.76874636557E+02  0.17617773595E+03  0.19245443804E+03  0.00000000000E+00 0. -1.
<scales pt_clust_5="13000.00000" pt_clust_6="13000.00000" pt_clust_7="13000.00000" pt_clust_8="13000.00000" pt_clust_9="77.46045"></scales>
<clustering>
<clus scale="   77.460">  2  9  1 -1</clus>
<clus scale="   80.626">  5  6 -1 -1</clus>
<clus scale="   91.169">  2  5  1 -1</clus>
<clus scale="   91.948">  7  8 -1 -1</clus>
<clus scale="   77.460">  2  5  1 -1</clus>
</clustering>
</event>
<event>
 9    2  0.7820252E-005  0.1453774E+03  0.7546771E-02  0.1228651E+00
         21   -1    0    0  501  502  0.00000000000E+00  0.00000000000E+00  0.11928453567E+03  0.11928453567E+03  0.00000000000E+00 0. -1.
          2   -1    0    0  502    0 -0.00000000000E+00 -0.00000000000E+00 -0.51111229214E+03  0.51111229214E+03  0.00000000000E+00 0. -1.
         23    2    1    2    0    0 -0.10091237065E+02  0.20208020663E+01 -0.30220014408E+03  0.31551294916E+03  0.90097598736E+02 0.  0.
         24    2    1    2    0    0 -0.87243386346E+02 -0.77142255072E+02 -0.12317818868E+03  0.18743623140E+03  0.79982114857E+02 0.  0.
        -11    1    4    4    0    0 -0.16940364328E+02 -0.68214950055E+02 -0.57418607621E+02  0.90758756358E+02  0.00000000000E+00 0.  1.
         12    1    4    4    0    0 -0.70303022019E+02 -0.89273050177E+01 -0.65759581062E+02  0.96677475046E+02  0.00000000000E+00 0. -1.
        -13    1    3    3    0    0  0.53733886073E+01  0.43750379132E+02 -0.18417460384E+03  0.18937595855E+03  0.00000000000E+00 0. -1.
         13    1    3    3    0    0 -0.15464625673E+02 -0.41729577066E+02 -0.11802554025E+03  0.12613699061E+03  0.00000000000E+00 0.  1.
          1    1    1    2  501    0  0.97334623411E+02  0.75121453006E+02  0.33550576295E+02  0.12744764724E+03  0.00000000000E+00 0. -1.
<scales pt_clust_5="13000.00000" pt_clust_6="13000.00000" pt_clust_7="13000.00000" pt_clust_8="13000.00000" pt_clust_9="121.39788"></scales>
<clustering>
<clus scale="   79.982">  5  6 -1 -1</clus>
<clus scale="   90.098">  7  8 -1 -1</clus>
<clus scale="   90.683">  2  7  1 -1</clus>
<clus scale="  121.398">  1  9  2 -1</clus>
<clus scale="  121.398">  1  5  2 -1</clus>
</clustering>
</event>
<event>
 9    2  0.7820252E-005  0.9278946E+02  0.7546771E-02  0.1302345E+00
         21   -1    0    0  501  502  0.00000000000E+00  0.00000000000E+00  0.51671266337E+02  0.51671266337E+02  0.00000000000E+00 0. -1.
          2   -1    0    0  502    0 -0.00000000000E+00 -0.00000000000E+00 -0.31425797421E+03  0.31425797421E+03  0.00000000000E+00 0. -1.
         24    2    1    2    0    0 -0.40716894160E+02  0.60885095878E+01 -0.14848159089E+03  0.17353206514E+03  0.79822674593E+02 0.  0.
         23    2    1    2    0    0 -0.14817560491E+02  0.19492128485E+02 -0.61797859579E+02  0.11193293568E+03  0.90058333705E+02 0.  0.
        -11    1    3    3    0    0 -0.64151996338E+02 -0.39391214671E+01 -0.10891897572E+03  0.12646872572E+03  0.00000000000E+00 0.  1.
         12    1    3    3    0    0  0.23435102178E+02  0.10027631055E+02 -0.39562615173E+02  0.47063339427E+02  0.00000000000E+00 0. -1.
        -13    1    4    4    0    0  0.13430564620E+02  0.39440937343E+02 -0.63413749475E+00  0.41669770036E+02  0.00000000000E+00 0.  1.
         13    1    4    4    0    0 -0.28248125111E+02 -0.19948808858E+02 -0.61163722085E+02  0.70263165645E+02  0.00000000000E+00 0. -1.
          1    1    1    2  501    0  0.55534454651E+02 -0.25580638073E+02 -0.52307257396E+02  0.80464239722E+02  0.00000000000E+00 0. -1.
<scales pt_clust_5="13000.00000" pt_clust_6="13000.00000" pt_clust_7="13000.00000" pt_clust_8="13000.00000" pt_clust_9="61.14282"></scales>
<clustering>
<clus scale="   61.143">  1  9  2 -1</clus>
<clus scale="   79.823">  5  6 -1 -1</clus>
<clus scale="   82.892">  2  5  1 -1</clus>
<clus scale="   90.058">  7  8 -1 -1</clus>
<clus scale="   61.143">  1  5  2 -1</clus>
</clustering>
</event>
<event>
 9    2  0.7820252E-005  0.1008408E+03  0.7546771E-02  0.1283818E+00
          4   -1    0    0  502    0 -0.00000000000E+00  0.00000000000E+00  0.70131621688E+02  0.70131621688E+02  0.00000000000E+00 0. -1.
         21   -1    0    0  501  502  0.00000000000E+00 -0.00000000000E+00 -0.22687582450E+03  0.22687582450E+03  0.00000000000E+00 0. -1.
         23    2    1    2    0    0  0.13712019698E+02 -0.36987378306E+02 -0.39616090966E+02  0.10816223182E+03  0.92593455979E+02 0.  0.
         24    2    1    2    0    0 -0.43930449288E+02  0.21942046731E+02 -0.12173266075E+03  0.15477591206E+03  0.82008563410E+02 0.  0.
        -11    1    4    4    0    0  0.52876092950E+01  0.24240317265E+02 -0.15191817991E+01  0.24856783913E+02  0.00000000000E+00 0.  1.
         12    1    4    4    0    0 -0.49218058583E+02 -0.22982705334E+01 -0.12021347895E+03  0.12991912815E+03  0.00000000000E+00 0. -1.
        -11    1    3    3    0    0 -0.18383523539E+02 -0.42027250634E+02  0.11778304306E+02  0.47360027300E+02  0.00000000000E+00 0. -1.
         11    1    3    3    0    0  0.32095543237E+02  0.50398723272E+01 -0.51394395272E+02  0.60802204517E+02  0.00000000000E+00 0.  1.
          3    1    1    2  501    0  0.30218429590E+02  0.15045331575E+02  0.46045489044E+01  0.34069302307E+02  0.00000000000E+00 0. -1.
<scales pt_clust_5="13000.00000" pt_clust_6="13000.00000" pt_clust_7="13000.00000" pt_clust_8="13000.00000" pt_clust_9="33.75673"></scales>
<clustering>
<clus scale="   33.757">  2  9  1 -1</clus>
<clus scale="   82.009">  5  6 -1 -1</clus>
<clus scale="   91.218">  2  5  1 -1</clus>
<clus scale="   92.593">  7  8 -1 -1</clus>
<clus scale="   33.757">  2  5  1 -1</clus>
</clustering>
</event>
<event>
 9    2  0.7820252E-005  0.9843499E+02  0.7546771E-02  0.1286418E+00
         -1   -1    0    0    0  501 -0.00000000000E+00  0.00000000000E+00  0.13967708181E+03  0.13967708181E+03  0.00000000000E+00 0.  1.
         21   -1    0    0  501  502  0.00000000000E+00 -0.00000000000E+00 -0.17289172814E+03  0.17289172814E+03  0.00000000000E+00 0.  1.
         23    2    1    2    0    0  0.17880836230E+02 -0.28393914090E+02  0.90355051012E+02  0.13266433636E+03  0.91158390930E+02 0.  0.
         24    2    1    2    0    0 -0.32668273295E+02  0.42858158672E+02 -0.71613538371E+02  0.12398198149E+03  0.85667934562E+02 0.  0.
        -13    1    4    4    0    0 -0.11823711511E+02  0.42848463602E+02  0.48634845062E+01  0.44715148088E+02  0.00000000000E+00 0.  1.
         14    1    4    4    0    0 -0.20844561783E+02  0.96950693407E-02 -0.76477022877E+02  0.79266833405E+02  0.00000000000E+00 0. -1.
        -13    1    3    3    0    0 -0.15749986523E+02 -0.51054547703E+02  0.34347391435E+02  0.63516708157E+02  0.00000000000E+00 0.  1.
         13    1    3    3    0    0  0.33630822754E+02  0.22660633614E+02  0.56007659577E+02  0.69147628204E+02  0.00000000000E+00 0. -1.
         -2    1    1    2    0  502  0.14787437064E+02 -0.14464244582E+02 -0.51956158980E+02  0.55922492096E+02  0.00000000000E+00 0.  1.
<scales pt_clust_5="13000.00000" pt_clust_6="13000.00000" pt_clust_7="13000.00000" pt_clust_8="13000.00000" pt_clust_9="20.68532"></scales>
<clustering>
<clus scale="   20.685">  2  9  1 -1</clus>
<clus scale="   85.668">  5  6 -1 -1</clus>
<clus scale="   91.158">  7  8 -1 -1</clus>
<clus scale="   93.373">  2  5  1 -1</clus>
<clus scale="   20.685">  2  5  1 -1</clus>
</clustering>
</event>
<event>
 9    2  0.7820252E-005  0.9216396E+02  0.7546771E-02  0.1303804E+00
          2   -1    0    0  502    0 -0.00000000000E+00  0.00000000000E+00  0.11065597808E+03  0.11065597808E+03  0.00000000000E+00 0. -1.
         21   -1    0    0  501  502  0.00000000000E+00 -0.00000000000E+00 -0.11807624995E+03  0.11807624995E+03  0.00000000000E+00 0.  1.
         24    2    1    2    0    0 -0.26375461386E+02 -0.31748672998E+02  0.40475966973E+01  0.90122735949E+02  0.80013007039E+02 0.  0.
         23    2    1    2    0    0 -0.26721148756E+00 -0.77700308266E+01 -0.95042264521E+01  0.90908172803E+02  0.90075084130E+02 0.  0.
        -11    1    3    3    0    0 -0.21883326108E+02 -0.55369791491E+02  0.18156720258E+02  0.62244359277E+02  0.00000000000E+00 0.  1.
         12    1    3    3    0    0 -0.44921352780E+01  0.23621118493E+02 -0.14109123560E+02  0.27878376672E+02  0.00000000000E+00 0. -1.
        -11    1    4    4    0    0 -0.13587140078E+02  0.34096189444E+02 -0.24902075080E+02  0.44353960966E+02  0.00000000000E+00 0.  1.
         11    1    4    4    0    0  0.13319928591E+02 -0.41866220271E+02  0.15397848628E+02  0.46554211837E+02  0.00000000000E+00 0. -1.
          1    1    1    2  501    0  0.26642672873E+02  0.39518703825E+02 -0.19636421156E+01  0.47701319271E+02  0.00000000000E+00 0. -1.
<scales pt_clust_5="13000.00000" pt_clust_6="13000.00000" pt_clust_7="13000.00000" pt_clust_8="13000.00000" pt_clust_9="47.66089"></scales>
<clustering>
<clus scale="   47.661">  2  9  1 -1</clus>
<clus scale="   80.013">  5  6 -1 -1</clus>
<clus scale="   82.357">  1  5  2 -1</clus>
<clus scale="   90.075">  7  8 -1 -1</clus>
<clus scale="   47.661">  2  5  1 -1</clus>
</clustering>
</event>
<event>
 9    2  0.7820252E-005  0.2065092E+03  0.7546771E-02  0.1145191E+00
          4   -1    0    0  502    0 -0.00000000000E+00  0.00000000000E+00  0.65073596122E+03  0.65073596122E+03  0.00000000000E+00 0. -1.
         21   -1    0    0  501  502  0.00000000000E+00 -0.00000000000E+00 -0.13640361995E+03  0.13640361995E+03  0.00000000000E+00 0. -1.
         23    2    1    2    0    0  0.21340068251E+03 -0.41235151881E+02  0.47573188926E+03  0.53071913562E+03  0.90009896153E+02 0.  0.
         24    2    1    2    0    0 -0.12232620434E+03 -0.12391507666E+02  0.33552575371E+02  0.15060995340E+03  0.80251685459E+02 0.  0.
        -13    1    4    4    0    0 -0.52575835660E+02  0.18880843603E+02  0.46989342283E+02  0.72997965990E+02  0.00000000000E+00 0.  1.
         14    1    4    4    0    0 -0.69750368680E+02 -0.31272351269E+02 -0.13436766912E+02  0.77611987412E+02  0.00000000000E+00 0. -1.
        -11    1    3    3    0    0  0.15591247284E+03 -0.56031638878E+02  0.40968243153E+03  0.44191394914E+03  0.00000000000E+00 0.  1.
         11    1    3    3    0    0  0.57488209671E+02  0.14796486997E+02  0.66049457734E+02  0.88805186479E+02  0.00000000000E+00 0. -1.
          3    1    1    2  501    0 -0.91074478173E+02  0.53626659547E+02  0.50478766362E+01  0.10581049214E+03  0.00000000000E+00 0. -1.
<scales pt_clust_5="13000.00000" pt_clust_6="13000.00000" pt_clust_7="13000.00000" pt_clust_8="13000.00000" pt_clust_9="105.69001"></scales>
<clustering>
<clus scale="   80.252">  5  6 -1 -1</clus>
<clus scale="   90.010">  7  8 -1 -1</clus>
<clus scale="  105.690">  2  9  1 -1</clus>
<clus scale="  202.447">  2  5  1 -1</clus>
<clus scale="  105.690">  2  5  1 -1</clus>
</clustering>
</event>
<event>
 9    2  0.7820252E-005  0.9805427E+02  0.7546771E-02  0.1289647E+00
         21   -1    0    0  501  502  0.00000000000E+00  0.00000000000E+00  0.20874696343E+03  0.20874696343E+03  0.00000000000E+00 0.  1.
          2   -1    0    0  502    0 -0.00000000000E+00 -0.00000000000E+00 -0.65080947250E+02  0.65080947250E+02  0.00000000000E+00 0. -1.
         24    2    1    2    0    0  0.44572500454E+02 -0.29610866301E+00  0.15138406945E+02  0.93124903216E+02  0.80350984792E+02 0.  0.
         23    2    1    2    0    0 -0.20983276688E+02  0.17864277964E+02  0.11349072988E+03  0.14766969411E+03  0.90370141431E+02 0.  0.
        -13    1    3    3    0    0 -0.18856398612E+02  0.17768577187E+02  0.52655447551E+01  0.26438836310E+02  0.00000000000E+00 0.  1.
         14    1    3    3    0    0  0.63428899066E+02 -0.18064685850E+02  0.98728621900E+01  0.66686066906E+02  0.00000000000E+00 0. -1.
        -13    1    4    4    0    0 -0.91285675287E+01  0.41318560391E+02  0.11377406142E+03  0.12138818407E+03  0.00000000000E+00 0.  1.
         13    1    4    4    0    0 -0.11854709159E+02 -0.23454282427E+02 -0.28333154458E+00  0.26281510044E+02  0.00000000000E+00 0. -1.
          1    1    1    2  501    0 -0.23589223766E+02 -0.17568169301E+02  0.15036879357E+02  0.33033313356E+02  0.00000000000E+00 0. -1.
<scales pt_clust_5="13000.00000" pt_clust_6="13000.00000" pt_clust_7="13000.00000" pt_clust_8="13000.00000" pt_clust_9="29.41246"></scales>
<clustering>
<clus scale="   29.412">  1  9  2 -1</clus>
<clus scale="   80.351">  5  6 -1 -1</clus>
<clus scale="   88.905">  2  5  1 -1</clus>
<clus scale="   90.370">  7  8 -1 -1</clus>
<clus scale="   29.412">  1  5  2 -1</clus>
</clustering>
</event>
<event>
 9    2  0.7820252E-005  0.9516458E+02  0.7546771E-02  0.1296125E+00
          2   -1    0    0  502    0 -0.00000000000E+00  0.00000000000E+00  0.15065859161E+03  0.15065859161E+03  0.00000000000E+00 0. -1.
         21   -1    0    0  501  502  0.00000000000E+00 -0.00000000000E+00 -0.45396480054E+03  0.45396480054E+03  0.00000000000E+00 0.  1.
         24    2    1    2    0    0 -0.23854763705E+02 -0.13064276236E+02  0.12773525812E+03  0.15415477056E+03  0.81900378838E+02 0.  0.
         23    2    1    2    0    0  0.30415022704E+02 -0.18409666664E+02 -0.30271593591E+03  0.31817694377E+03  0.91299727611E+02 0.  0.
        -13    1    3    3    0    0  0.25394624411E+02 -0.14567299698E+02  0.19343100756E+02  0.35089153827E+02  0.00000000000E+00 0.  1.
         14    1    3    3    0    0 -0.49249388116E+02  0.15030234617E+01  0.10839215736E+03  0.11906561673E+03  0.00000000000E+00 0. -1.
        -11    1    4    4    0    0  0.25892434693E+02 -0.48981287439E+02 -0.25760363428E+03  0.26349424489E+03  0.00000000000E+00 0.  1.
         11    1    4    4    0    0  0.45225880108E+01  0.30571620775E+02 -0.45112301626E+02  0.54682698883E+02  0.00000000000E+00 0. -1.
          1    1    1    2  501    0 -0.65602589990E+01  0.31473942900E+02 -0.12832553114E+03  0.13229167782E+03  0.00000000000E+00 0. -1.
<scales pt_clust_5="13000.00000" pt_clust_6="13000.00000" pt_clust_7="13000.00000" pt_clust_8="13000.00000" pt_clust_9="32.15037"></scales>
<clustering>
<clus scale="   32.150">  2  9  1 -1</clus>
<clus scale="   81.900">  5  6 -1 -1</clus>
<clus scale="   86.188">  1  5  2 -1</clus>
<clus scale="   91.300">  7  8 -1 -1</clus>
<clus scale="   32.150">  2  5  1 -1</clus>
</clustering>
</event>
<event>
 9    2  0.7820252E-005  0.1044391E+03  0.7546771E-02  0.1275978E+00
         21   -1    0    0  501  502  0.00000000000E+00  0.00000000000E+00  0.14715033910E+03  0.14715033910E+03  0.00000000000E+00 0. -1.
          2   -1    0    0  502    0 -0.00000000000E+00 -0.00000000000E+00 -0.13068627676E+03  0.13068627676E+03  0.00000000000E+00 0. -1.
         23    2    1    2    0    0  0.34036935931E+02  0.55376736604E+02 -0.17866422613E+02  0.11290400886E+03  0.90570470883E+02 0.  0.
         24    2    1    2    0    0  0.14027374148E+02 -0.38470421205E+02  0.59904535900E+02  0.10792354205E+03  0.79888653599E+02 0.  0.
        -11    1    4    4    0    0 -0.58873967692E-01  0.24465913675E+02  0.10235560784E+02  0.26520767384E+02  0.00000000000E+00 0.  1.
         12    1    4    4    0    0  0.14086248116E+02 -0.62936334880E+02  0.49668975117E+02  0.81402774665E+02  0.00000000000E+00 0. -1.
        -11    1    3    3    0    0  0.50928073154E+02  0.16161560922E+01 -0.23805191932E+02  0.56240268123E+02  0.00000000000E+00 0.  1.
         11    1    3    3    0    0 -0.16891137223E+02  0.53760580512E+02  0.59387693194E+01  0.56663740741E+02  0.00000000000E+00 0. -1.
          1    1    1    2  501    0 -0.48064310078E+02 -0.16906315399E+02 -0.25574050946E+02  0.57009064941E+02  0.00000000000E+00 0. -1.
<scales pt_clust_5="13000.00000" pt_clust_6="13000.00000" pt_clust_7="13000.00000" pt_clust_8="13000.00000" pt_clust_9="50.95100"></scales>
<clustering>
<clus scale="   50.951">  1  9  2 -1</clus>
<clus scale="   79.889">  5  6 -1 -1</clus>
<clus scale="   90.570">  7  8 -1 -1</clus>
<clus scale="   95.324">  1  5  2 -1</clus>
<clus scale="   50.951">  1  5  2 -1</clus>
</clustering>
</event>
<event>
 9    2  0.7820252E-005  0.1014446E+03  0.7546771E-02  0.1282345E+00
          2   -1    0    0  502    0 -0.00000000000E+00  0.00000000000E+00  0.32790662565E+03  0.32790662565E+03  0.00000000000E+00 0. -1.
         21   -1    0    0  501  502  0.00000000000E+00 -0.00000000000E+00 -0.68208305379E+02  0.68208305379E+02  0.00000000000E+00 0. -1.
         24    2    1    2    0    0  0.41725902461E+02 -0.11583474028E+02  0.21897368832E+03  0.23781496593E+03  0.82044220017E+02 0.  0.
         23    2    1    2    0    0 -0.18573695433E+02  0.50463642101E+02  0.20987079498E+02  0.10893131982E+03  0.92379725020E+02 0.  0.
        -11    1    3    3    0    0  0.10920106524E+02 -0.43370259399E+02  0.14361169156E+03  0.15041458068E+03  0.00000000000E+00 0.  1.
         12    1    3    3    0    0  0.30805795937E+02  0.31786785371E+02  0.75361996758E+02  0.87400385256E+02  0.00000000000E+00 0. -1.
        -11    1    4    4    0    0  0.16824264421E+02 -0.21115732731E+02  0.65691070986E+01  0.27786385338E+02  0.00000000000E+00 0.  1.
         11    1    4    4    0    0 -0.35397959854E+02  0.71579374832E+02  0.14417972399E+02  0.81144934477E+02  0.00000000000E+00 0. -1.
          1    1    1    2  501    0 -0.23152207029E+02 -0.38880168073E+02  0.19737552448E+02  0.49368645276E+02  0.00000000000E+00 0. -1.
<scales pt_clust_5="13000.00000" pt_clust_6="13000.00000" pt_clust_7="13000.00000" pt_clust_8="13000.00000" pt_clust_9="45.25143"></scales>
<clustering>
<clus scale="   45.251">  2  9  1 -1</clus>
<clus scale="   82.044">  5  6 -1 -1</clus>
<clus scale="   92.132">  1  5  2 -1</clus>
<clus scale="   92.380">  7  8 -1 -1</clus>
<clus scale="   45.251">  2  5  1 -1</clus>
</clustering>
</event>
<event>
 9    2  0.7820252E-005  0.1883210E+03  0.7546771E-02  0.1161894E+00
         21   -1    0    0  501  502  0.00000000000E+00  0.00000000000E+00  0.14822666151E+03  0.14822666151E+03  0.00000000000E+00 0. -1.
          2   -1    0    0  502    0 -0.00000000000E+00 -0.00000000000E+00 -0.32677298888E+03  0.32677298888E+03  0.00000000000E+00 0. -1.
         23    2    1    2    0    0  0.18335818466E+03 -0.44367984668E+02 -0.13308733019E+03  0.25042030228E+03  0.97001795818E+02 0.  0.
         24    2    1    2    0    0 -0.12005497387E+03  0.48923679629E+02 -0.11914374738E+02  0.15279291105E+03  0.79981236316E+02 0.  0.
        -13    1    4    4    0    0 -0.95791760963E+02  0.43787340814E+02 -0.42360041727E+02  0.11352429616E+03  0.00000000000E+00 0.  1.
         14    1    4    4    0    0 -0.24263212912E+02  0.51363388150E+01  0.30445666988E+02  0.39268614893E+02  0.00000000000E+00 0. -1.
        -11    1    3    3    0    0  0.74651215649E+02 -0.60630468399E+02 -0.32750967550E+02  0.10159470248E+03  0.00000000000E+00 0. -1.
         11    1    3    3    0    0  0.10870696901E+03  0.16262483732E+02 -0.10033636264E+03  0.14882559980E+03  0.00000000000E+00 0.  1.
          1    1    1    2  501    0 -0.63303210781E+02 -0.45556949612E+01 -0.33544622443E+02  0.71786437066E+02  0.00000000000E+00 0. -1.
<scales pt_clust_5="13000.00000" pt_clust_6="13000.00000" pt_clust_7="13000.00000" pt_clust_8="13000.00000" pt_clust_9="63.46696"></scales>
<clustering>
<clus scale="   63.467">  1  9  2 -1</clus>
<clus scale="   79.981">  5  6 -1 -1</clus>
<clus scale="   97.002">  7  8 -1 -1</clus>
<clus scale="  180.146">  1  5  2 -1</clus>
<clus scale="   63.467">  1  5  2 -1</clus>
</clustering>
</event>
<event>
 9    2  0.7820252E-005  0.1050835E+03  0.7546771E-02  0.1276314E+00
          2   -1    0    0  502    0 -0.00000000000E+00  0.00000000000E+00  0.12226032746E+03  0.12226032746E+03  0.00000000000E+00 0. -1.
         21   -1    0    0  501  502  0.00000000000E+00 -0.00000000000E+00 -0.13000230509E+03  0.13000230509E+03  0.00000000000E+00 0. -1.
         23    2    1    2    0    0 -0.45159764266E+02 -0.17709192094E+02  0.47783402768E+02  0.11466446127E+03  0.92258686878E+02 0.  0.
         24    2    1    2    0    0  0.42041581952E+02  0.39912413358E+02 -0.60529734048E+02  0.11462536886E+03  0.78196106871E+02 0.  0.
        -11    1    4    4    0    0  0.17235085855E+02 -0.18456532061E+02 -0.41200575276E+02  0.48323691531E+02  0.00000000000E+00 0.  1.
         12    1    4    4    0    0  0.24806496097E+02  0.58368945419E+02 -0.19329158772E+02  0.66301677330E+02  0.00000000000E+00 0. -1.
        -11    1    3    3    0    0 -0.95608308088E+01 -0.44371113853E+02 -0.49736955067E+01  0.45661174726E+02  0.00000000000E+00 0.  1.
         11    1    3    3    0    0 -0.35598933457E+02  0.26661921760E+02  0.52757098274E+02  0.69003286541E+02  0.00000000000E+00 0. -1.
          1    1    1    2  501    0  0.31181823145E+01 -0.22203221264E+02  0.50043536555E+01  0.22972802419E+02  0.00000000000E+00 0. -1.
<scales pt_clust_5="13000.00000" pt_clust_6="13000.00000" pt_clust_7="13000.00000" pt_clust_8="13000.00000" pt_clust_9="22.42112"></scales>
<clustering>
<clus scale="   22.421">  2  9  1 -1</clus>
<clus scale="   78.196">  5  6 -1 -1</clus>
<clus scale="   92.259">  7  8 -1 -1</clus>
<clus scale="   92.981">  2  5  1 -1</clus>
<clus scale="   22.421">  2  5  1 -1</clus>
</clustering>
</event>
<event>
 9    2  0.7820252E-005  0.9452674E+02  0.7546771E-02  0.1302137E+00
          2   -1    0    0  502    0 -0.00000000000E+00  0.00000000000E+00  0.89949557878E+03  0.89949557878E+03  0.00000000000E+00 0. -1.
         21   -1    0    0  501  502  0.00000000000E+00 -0.00000000000E+00 -0.22844096864E+03  0.22844096864E+03  0.00000000000E+00 0.  1.
         24    2    1    2    0    0  0.23203897273E+02  0.36181894033E+01  0.86865203412E+03  0.87220196782E+03  0.75022690882E+02 0.  0.
         23    2    1    2    0    0 -0.37882673062E+02 -0.44385948363E+02 -0.94457713228E+02  0.14386288273E+03  0.91482567243E+02 0.  0.
        -11    1    3    3    0    0  0.17236990236E+02  0.27165929567E+02  0.16370592259E+03  0.16683743780E+03  0.00000000000E+00 0.  1.
         12    1    3    3    0    0  0.59669070373E+01 -0.23547740164E+02  0.70494611153E+03  0.70536453002E+03  0.00000000000E+00 0. -1.
        -13    1    4    4    0    0 -0.46736947325E+02  0.12705523338E+02 -0.57933183890E+02  0.75511763085E+02  0.00000000000E+00 0.  1.
         13    1    4    4    0    0  0.88542742630E+01 -0.57091471700E+02 -0.36524529337E+02  0.68351119647E+02  0.00000000000E+00 0. -1.
          1    1    1    2  501    0  0.14678775789E+02  0.40767758959E+02 -0.10313971074E+03  0.11187169687E+03  0.00000000000E+00 0. -1.
<scales pt_clust_5="13000.00000" pt_clust_6="13000.00000" pt_clust_7="13000.00000" pt_clust_8="13000.00000" pt_clust_9="43.32986"></scales>
<clustering>
<clus scale="   43.330">  2  9  1 -1</clus>
<clus scale="   75.023">  5  6 -1 -1</clus>
<clus scale="   78.706">  1  5  2 -1</clus>
<clus scale="   91.483">  7  8 -1 -1</clus>
<clus scale="   43.330">  2  5  1 -1</clus>
</clustering>
</event>
<event>
 9    2  0.7820252E-005  0.1485982E+03  0.7546771E-02  0.1204543E+00
          2   -1    0    0  502    0 -0.00000000000E+00  0.00000000000E+00  0.18435445814E+04  0.18435445814E+04  0.00000000000E+00 0. -1.
         21   -1    0    0  501  502  0.00000000000E+00 -0.00000000000E+00 -0.73452554983E+02  0.73452554983E+02  0.00000000000E+00 0. -1.
         24    2    1    2    0    0 -0.10453460155E+03 -0.41854140633E+02  0.15825827950E+04  0.15886501996E+04  0.81005566050E+02 0.  0.
         23    2    1    2    0    0  0.14446619004E+03  0.37731084024E+02  0.21636504974E+03  0.27890819080E+03  0.93176334883E+02 0.  0.
        -13    1    3    3    0    0 -0.23424741258E+02 -0.17478237445E+02  0.11604600903E+03  0.11966989387E+03  0.00000000000E+00 0.  1.
         14    1    3    3    0    0 -0.81109860292E+02 -0.24375903188E+02  0.14665367860E+04  0.14689803058E+04  0.00000000000E+00 0. -1.
        -13    1    4    4    0    0  0.54645159607E+02 -0.25550811776E+02  0.11280308318E+03  0.12791979137E+03  0.00000000000E+00 0. -1.
         13    1    4    4    0    0  0.89821030431E+02  0.63281895800E+02  0.10356196656E+03  0.15098839943E+03  0.00000000000E+00 0.  1.
          1    1    1    2  501    0 -0.39931588488E+02  0.41230566089E+01 -0.28855818294E+02  0.49438745983E+02  0.00000000000E+00 0. -1.
<scales pt_clust_5="13000.00000" pt_clust_6="13000.00000" pt_clust_7="13000.00000" pt_clust_8="13000.00000" pt_clust_9="40.14388"></scales>
<clustering>
<clus scale="   40.144">  2  9  1 -1</clus>
<clus scale="   81.006">  5  6 -1 -1</clus>
<clus scale="   93.176">  7  8 -1 -1</clus>
<clus scale="  141.285">  1  5  2 -1</clus>
<clus scale="   40.144">  2  5  1 -1</clus>
</clustering>
</event>
<event>
 9    2  0.7820252E-005  0.9548300E+02  0.7546771E-02  0.1294886E+00
         21   -1    0    0  501  502  0.00000000000E+00  0.00000000000E+00  0.49668766306E+02  0.49668766306E+02  0.00000000000E+00 0. -1.
          2   -1    0    0  502    0 -0.00000000000E+00 -0.00000000000E+00 -0.40347569603E+03  0.40347569603E+03  0.00000000000E+00 0. -1.
         24    2    1    2    0    0  0.40554669114E+01  0.25436436173E+02 -0.26680358394E+03  0.28013023504E+03  0.81396173647E+02 0.  0.
         23    2    1    2    0    0 -0.30131069575E+02 -0.47405268891E+02 -0.89443721927E+02  0.13883057476E+03  0.90103319708E+02 0.  0.
        -13    1    3    3    0    0 -0.16924517912E+02 -0.25272476399E+02 -0.10105074872E+03  0.10552910113E+03  0.00000000000E+00 0.  1.
         14    1    3    3    0    0  0.20979984824E+02  0.50708912572E+02 -0.16575283522E+03  0.17460113391E+03  0.00000000000E+00 0. -1.
        -13    1    4    4    0    0  0.22268884277E+02 -0.77959602985E+01  0.46791126927E+01  0.24053571450E+02  0.00000000000E+00 0.  1.
         13    1    4    4    0    0 -0.52399953852E+02 -0.39609308593E+02 -0.94122834619E+02  0.11477700330E+03  0.00000000000E+00 0. -1.
          1    1    1    2  501    0  0.26075602664E+02  0.21968832718E+02  0.24403761412E+01  0.34183652540E+02  0.00000000000E+00 0. -1.
<scales pt_clust_5="13000.00000" pt_clust_6="13000.00000" pt_clust_7="13000.00000" pt_clust_8="13000.00000" pt_clust_9="34.09643"></scales>
<clustering>
<clus scale="   34.096">  1  9  2 -1</clus>
<clus scale="   81.396">  5  6 -1 -1</clus>
<clus scale="   87.314">  2  5  1 -1</clus>
<clus scale="   90.103">  7  8 -1 -1</clus>
<clus scale="   34.096">  1  5  2 -1</clus>
</clustering>
</event>
<event>
 9    2  0.7820252E-005  0.1049609E+03  0.7546771E-02  0.1275686E+00
         21   -1    0    0  501  502  0.00000000000E+00  0.00000000000E+00  0.11274528918E+03  0.11274528918E+03  0.00000000000E+00 0.  1.
         -3   -1    0    0    0  501 -0.00000000000E+00 -0.00000000000E+00 -0.18156806295E+03  0.18156806295E+03  0.00000000000E+00 0.  1.
         23    2    1    2    0    0  0.25300714436E+01  0.53621833906E+02 -0.77861766896E+02  0.13269680296E+03  0.93082138123E+02 0.  0.
         24    2    1    2    0    0  0.32579765334E+02 -0.38198551966E+02 -0.36508623346E+02  0.10207527247E+03  0.81030310312E+02 0.  0.
        -13    1    4    4    0    0  0.29077200764E+02 -0.61938784415E+02 -0.15447023770E+02  0.70146326792E+02  0.00000000000E+00 0.  1.
         14    1    4    4    0    0  0.35025645704E+01  0.23740232449E+02 -0.21061599576E+02  0.31928945676E+02  0.00000000000E+00 0. -1.
        -13    1    3    3    0    0 -0.14087527575E+02 -0.23657197140E+02 -0.13013242104E+02  0.30454324483E+02  0.00000000000E+00 0. -1.
         13    1    3    3    0    0  0.16617599019E+02  0.77279031046E+02 -0.64848524792E+02  0.10224247847E+03  0.00000000000E+00 0.  1.
         -4    1    1    2    0  502 -0.35109836778E+02 -0.15423281940E+02  0.45547616472E+02  0.59541276696E+02  0.00000000000E+00 0.  1.
<scales pt_clust_5="13000.00000" pt_clust_6="13000.00000" pt_clust_7="13000.00000" pt_clust_8="13000.00000" pt_clust_9="38.34812"></scales>
<clustering>
<clus scale="   38.348">  1  9  2 -1</clus>
<clus scale="   81.030">  5  6 -1 -1</clus>
<clus scale="   93.082">  7  8 -1 -1</clus>
<clus scale="   94.437">  1  5  2 -1</clus>
<clus scale="   38.348">  1  5  2 -1</clus>
</clustering>
</event>
<event>
 9    2  0.7820252E-005  0.1162957E+03  0.7546771E-02  0.1252861E+00
         21   -1    0    0  501  502  0.00000000000E+00  0.00000000000E+00  0.11491379694E+03  0.11491379694E+03  0.00000000000E+00 0.  1.
          2   -1    0    0  502    0 -0.00000000000E+00 -0.00000000000E+00 -0.74821314037E+03  0.74821314037E+03  0.00000000000E+00 0. -1.
         24    2    1    2    0    0  0.70057066275E+02  0.37261137681E+02 -0.66153406603E+03  0.67142039792E+03  0.82955682838E+02 0.  0.
         23    2    1    2    0    0  0.18206265884E+01 -0.48055118499E+01 -0.25102218790E+02  0.96498348051E+02  0.93034413864E+02 0.  0.
        -11    1    3    3    0    0  0.61176709364E+02 -0.12818602929E+02 -0.31136115992E+03  0.31757310695E+03  0.00000000000E+00 0.  1.
         12    1    3    3    0    0  0.88803569112E+01  0.50079740610E+02 -0.35017290611E+03  0.35384729098E+03  0.00000000000E+00 0. -1.
        -13    1    4    4    0    0  0.36641407139E+02 -0.13524054045E+02  0.15752429727E+02  0.42114508157E+02  0.00000000000E+00 0.  1.
         13    1    4    4    0    0 -0.34820780551E+02  0.87185421955E+01 -0.40854648517E+02  0.54383839894E+02  0.00000000000E+00 0. -1.
          1    1    1    2  501    0 -0.71877692864E+02 -0.32455625832E+02  0.53336941394E+02  0.95208191332E+02  0.00000000000E+00 0. -1.
<scales pt_clust_5="13000.00000" pt_clust_6="13000.00000" pt_clust_7="13000.00000" pt_clust_8="13000.00000" pt_clust_9="78.86552"></scales>
<clustering>
<clus scale="   78.866">  1  9  2 -1</clus>
<clus scale="   82.956">  5  6 -1 -1</clus>
<clus scale="   93.034">  7  8 -1 -1</clus>
<clus scale="  108.402">  2  5  1 -1</clus>
<clus scale="   78.866">  1  5  2 -1</clus>
</clustering>
</event>
<event>
 9    2  0.7820252E-005  0.1752472E+03  0.7546771E-02  0.1189325E+00
         21   -1    0    0  501  502  0.00000000000E+00  0.00000000000E+00  0.99960479371E+02  0.99960479371E+02  0.00000000000E+00 0. -1.
          2   -1    0    0  502    0 -0.00000000000E+00 -0.00000000000E+00 -0.90316537193E+03  0.90316537193E+03  0.00000000000E+00 0. -1.
         23    2    1    2    0    0 -0.75893038470E+02  0.10735300306E+02 -0.12240728801E+03  0.17147562707E+03  0.92441043689E+02 0.  0.
         24    2    1    2    0    0  0.62617246349E+01 -0.15031378627E+03 -0.65009083078E+03  0.67267356064E+03  0.85077537467E+02 0.  0.
        -13    1    4    4    0    0  0.24695927204E+02 -0.23060226126E+02 -0.61193114512E+02  0.69901789055E+02  0.00000000000E+00 0.  1.
         14    1    4    4    0    0 -0.18434202569E+02 -0.12725356015E+03 -0.58889771627E+03  0.60277177159E+03  0.00000000000E+00 0. -1.
        -11    1    3    3    0    0 -0.61371323501E+02  0.39728927860E+02 -0.11791356675E+03  0.13873873388E+03  0.00000000000E+00 0.  1.
         11    1    3    3    0    0 -0.14521714969E+02 -0.28993627554E+02 -0.44937212672E+01  0.32736893182E+02  0.00000000000E+00 0. -1.
          1    1    1    2  501    0  0.69631313835E+02  0.13957848597E+03 -0.30706773761E+02  0.15897666359E+03  0.00000000000E+00 0. -1.
<scales pt_clust_5="13000.00000" pt_clust_6="13000.00000" pt_clust_7="13000.00000" pt_clust_8="13000.00000" pt_clust_9="153.21035"></scales>
<clustering>
<clus scale="   85.078">  5  6 -1 -1</clus>
<clus scale="   92.441">  7  8 -1 -1</clus>
<clus scale="  120.085">  2  7  1 -1</clus>
<clus scale="  153.210">  1  9  2 -1</clus>
<clus scale="  153.210">  1  5  2 -1</clus>
</clustering>
</event>
<event>
 9    2  0.7820252E-005  0.1816898E+03  0.7546771E-02  0.1172110E+00
          2   -1    0    0  502    0 -0.00000000000E+00  0.00000000000E+00  0.11659289286E+03  0.11659289286E+03  0.00000000000E+00 0. -1.
         21   -1    0    0  501  502  0.00000000000E+00 -0.00000000000E+00 -0.85356934739E+03  0.85356934739E+03  0.00000000000E+00 0. -1.
         24    2    1    2    0    0 -0.63790123652E+02 -0.14554312109E+03 -0.35201510276E+03  0.39413076866E+03  0.78564942922E+02 0.  0.
         23    2    1    2    0    0  0.15623547802E+02  0.11282056784E+03 -0.45569247417E+03  0.48441446337E+03  0.11844477841E+03 0.  0.
        -11    1    3    3    0    0 -0.47077251726E+02 -0.32728920497E+02 -0.16929196685E+03  0.17873785248E+03  0.00000000000E+00 0.  1.
         12    1    3    3    0    0 -0.16712871927E+02 -0.11281420060E+03 -0.18272313591E+03  0.21539291618E+03  0.00000000000E+00 0. -1.
        -11    1    4    4    0    0 -0.36007922746E+02  0.29850420582E+02 -0.56069966883E+02  0.73016842548E+02  0.00000000000E+00 0.  1.
         11    1    4    4    0    0  0.51631470548E+02  0.82970147256E+02 -0.39962250729E+03  0.41139762082E+03  0.00000000000E+00 0. -1.
          1    1    1    2  501    0  0.48166575850E+02  0.32722553256E+02  0.70731122404E+02  0.91617008231E+02  0.00000000000E+00 0. -1.
<scales pt_clust_5="13000.00000" pt_clust_6="13000.00000" pt_clust_7="13000.00000" pt_clust_8="13000.00000" pt_clust_9="58.23047"></scales>
<clustering>
<clus scale="   58.230">  2  9  1 -1</clus>
<clus scale="   78.565">  5  6 -1 -1</clus>
<clus scale="  118.445">  7  8 -1 -1</clus>
<clus scale="  158.602">  1  5  2 -1</clus>
<clus scale="   58.230">  2  5  1 -1</clus>
</clustering>
</event>
<event>
 9    2  0.7820252E-005  0.1257149E+03  0.7546771E-02  0.1236857E+00
         21   -1    0    0  501  502  0.00000000000E+00  0.00000000000E+00  0.49985855026E+03  0.49985855026E+03  0.00000000000E+00 0. -1.
          2   -1    0    0  502    0 -0.00000000000E+00 -0.00000000000E+00 -0.52195450131E+02  0.52195450131E+02  0.00000000000E+00 0. -1.
         24    2    1    2    0    0 -0.84400699858E+01  0.89935062620E+02  0.10855481284E+03  0.16263110312E+03  0.80654683940E+02 0.  0.
         23    2    1    2    0    0 -0.36890134189E+02 -0.78784631924E+02  0.30957360032E+03  0.33418290044E+03  0.90964260595E+02 0.  0.
        -13    1    3    3    0    0  0.31724132979E+02  0.59582978751E+02  0.80293278877E+02  0.10489786748E+03  0.00000000000E+00 0.  1.
         14    1    3    3    0    0 -0.40164202965E+02  0.30352083869E+02  0.28261533966E+02  0.57733235637E+02  0.00000000000E+00 0. -1.
        -11    1    4    4    0    0 -0.41690991642E+01  0.19624615197E+02  0.30939010414E+02  0.36874507114E+02  0.00000000000E+00 0.  1.
         11    1    4    4    0    0 -0.32721035025E+02 -0.98409247121E+02  0.27863458991E+03  0.29730839333E+03  0.00000000000E+00 0. -1.
          1    1    1    2  501    0  0.45330204175E+02 -0.11150430696E+02  0.29534686967E+02  0.55239996828E+02  0.00000000000E+00 0. -1.
<scales pt_clust_5="13000.00000" pt_clust_6="13000.00000" pt_clust_7="13000.00000" pt_clust_8="13000.00000" pt_clust_9="46.68149"></scales>
<clustering>
<clus scale="   46.681">  1  9  2 -1</clus>
<clus scale="   80.655">  5  6 -1 -1</clus>
<clus scale="   90.964">  7  8 -1 -1</clus>
<clus scale="  118.469">  2  5  1 -1</clus>
<clus scale="   46.681">  1  5  2 -1</clus>
</clustering>
</event>
<event>
 9    2  0.7820252E-005  0.1198910E+03  0.7546771E-02  0.1253510E+00
         21   -1    0    0  501  502  0.00000000000E+00  0.00000000000E+00  0.12219142389E+03  0.12219142389E+03  0.00000000000E+00 0. -1.
          2   -1    0    0  502    0 -0.00000000000E+00 -0.00000000000E+00 -0.80616494752E+03  0.80616494752E+03  0.00000000000E+00 0. -1.
         23    2    1    2    0    0  0.39094944885E+01 -0.22151918251E+02  0.24855418285E+02  0.10078340637E+03  0.95044787088E+02 0.  0.
         24    2    1    2    0    0  0.52784732179E+02 -0.71574357685E+02 -0.87214812454E+01  0.11894802430E+03  0.78507653261E+02 0.  0.
        -13    1    4    4    0    0  0.30263315009E+02 -0.60589463920E+02 -0.40165102924E+02  0.78741265334E+02  0.00000000000E+00 0.  1.
         14    1    4    4    0    0  0.22521417170E+02 -0.10984893765E+02  0.31443621678E+02  0.40206758967E+02  0.00000000000E+00 0. -1.
        -13    1    3    3    0    0  0.12705382529E+02  0.29755200743E+02 -0.14097912890E+02  0.35292348523E+02  0.00000000000E+00 0.  1.
         13    1    3    3    0    0 -0.87958880402E+01 -0.51907118993E+02  0.38953331175E+02  0.65491057849E+02  0.00000000000E+00 0. -1.
          1    1    1    2  501    0 -0.56694226667E+02  0.93726275936E+02 -0.70010746068E+03  0.70862494074E+03  0.00000000000E+00 0. -1.
<scales pt_clust_5="13000.00000" pt_clust_6="13000.00000" pt_clust_7="13000.00000" pt_clust_8="13000.00000" pt_clust_9="90.61134"></scales>
<clustering>
<clus scale="   78.508">  5  6 -1 -1</clus>
<clus scale="   95.045">  7  8 -1 -1</clus>
<clus scale="   97.670">  2  7  1 -1</clus>
<clus scale="   90.611">  1  9  2 -1</clus>
<clus scale="   90.611">  1  5  2 -1</clus>
</clustering>
</event>
<event>
 9    2  0.7820252E-005  0.1574696E+03  0.7546771E-02  0.1193642E+00
         21   -1    0    0  501  502  0.00000000000E+00  0.00000000000E+00  0.20783643555E+03  0.20783643555E+03  0.00000000000E+00 0.  1.
          2   -1    0    0  502    0 -0.00000000000E+00 -0.00000000000E+00 -0.18335035512E+03  0.18335035512E+03  0.00000000000E+00 0. -1.
         24    2    1    2    0    0  0.75498968756E+02 -0.96671472435E+02 -0.54879890576E+02  0.15636845276E+03  0.79961382950E+02 0.  0.
         23    2    1    2    0    0 -0.10812623752E+03  0.87125049978E+02  0.22149601297E+02  0.16826470682E+03  0.92414009492E+02 0.  0.
        -13    1    3    3    0    0  0.38986990955E+02 -0.46304930972E+02 -0.69804265988E+02  0.92394629964E+02  0.00000000000E+00 0.  1.
         14    1    3    3    0    0  0.36511977801E+02 -0.50366541462E+02  0.14924375411E+02  0.63973822797E+02  0.00000000000E+00 0. -1.
        -13    1    4    4    0    0 -0.91973810221E+02  0.25176219231E+02 -0.11314372259E+02  0.96026240169E+02  0.00000000000E+00 0.  1.
         13    1    4    4    0    0 -0.16152427303E+02  0.61948830746E+02  0.33463973556E+02  0.72238466656E+02  0.00000000000E+00 0. -1.
          1    1    1    2  501    0  0.32627268769E+02  0.95464224570E+01  0.57216369705E+02  0.66553631090E+02  0.00000000000E+00 0. -1.
<scales pt_clust_5="13000.00000" pt_clust_6="13000.00000" pt_clust_7="13000.00000" pt_clust_8="13000.00000" pt_clust_9="33.99519"></scales>
<clustering>
<clus scale="   33.995">  1  9  2 -1</clus>
<clus scale="   79.961">  5  6 -1 -1</clus>
<clus scale="   92.414">  7  8 -1 -1</clus>
<clus scale="  150.500">  2  5  1 -1</clus>
<clus scale="   33.995">  1  5  2 -1</clus>
</clustering>
</event>
<event>
 9    2  0.7820252E-005  0.9000316E+02  0.7546771E-02  0.1305376E+00
         21   -1    0    0  501  502  0.00000000000E+00  0.00000000000E+00  0.38479719584E+02  0.38479719584E+02  0.00000000000E+00 0. -1.
         -1   -1    0    0    0  501 -0.00000000000E+00 -0.00000000000E+00 -0.38840528837E+03  0.38840528837E+03  0.00000000000E+00 0.  1.
         24    2    1    2    0    0  0.29179989715E+01  0.18347245273E+02 -0.11878608847E+03  0.14546264246E+03  0.81878626080E+02 0.  0.
         23    2    1    2    0    0 -0.14527663476E+02 -0.37413237361E+02 -0.68241391884E+02  0.11700191793E+03  0.86149625055E+02 0.  0.
        -13    1    3    3    0    0 -0.25305339333E+02  0.34688303987E+02 -0.97451516820E+02  0.10649148681E+03  0.00000000000E+00 0.  1.
         14    1    3    3    0    0  0.28223338304E+02 -0.16341058713E+02 -0.21334571651E+02  0.38971155647E+02  0.00000000000E+00 0. -1.
        -11    1    4    4    0    0 -0.30955460158E+02 -0.52964773486E+02 -0.71428753287E+02  0.94157179972E+02  0.00000000000E+00 0.  1.
         11    1    4    4    0    0  0.16427796682E+02  0.15551536125E+02  0.31873614036E+01  0.22844737958E+02  0.00000000000E+00 0. -1.
         -2    1    1    2    0  502  0.11609664505E+02  0.19065992088E+02 -0.16289808843E+03  0.16442044757E+03  0.00000000000E+00 0.  1.
<scales pt_clust_5="13000.00000" pt_clust_6="13000.00000" pt_clust_7="13000.00000" pt_clust_8="13000.00000" pt_clust_9="22.32256"></scales>
<clustering>
<clus scale="   22.323">  1  9  2 -1</clus>
<clus scale="   81.879">  5  6 -1 -1</clus>
<clus scale="   85.924">  2  5  1 -1</clus>
<clus scale="   86.150">  7  8 -1 -1</clus>
<clus scale="   22.323">  1  5  2 -1</clus>
</clustering>
</event>
<event>
 9    2  0.7820252E-005  0.1119130E+03  0.7546771E-02  0.1270681E+00
         -1   -1    0    0    0  501 -0.00000000000E+00  0.00000000000E+00  0.56466201369E+03  0.56466201369E+03  0.00000000000E+00 0.  1.
         21   -1    0    0  501  502  0.00000000000E+00 -0.00000000000E+00 -0.35414473599E+02  0.35414473599E+02  0.00000000000E+00 0.  1.
         24    2    1    2    0    0 -0.31866449482E+02  0.21789723641E+02  0.35027899557E+03  0.36160212680E+03  0.81058378407E+02 0.  0.
         23    2    1    2    0    0 -0.85970579685E+00  0.45382226099E+01  0.15773592632E+03  0.19141072199E+03  0.10833331658E+03 0.  0.
        -11    1    3    3    0    0  0.89382209613E+01  0.29465356975E+02  0.51887960111E+02  0.60336220134E+02  0.00000000000E+00 0.  1.
         12    1    3    3    0    0 -0.40804670443E+02 -0.76756333333E+01  0.29839103546E+03  0.30126590666E+03  0.00000000000E+00 0. -1.
        -11    1    4    4    0    0 -0.85332605135E+01  0.45024808107E+02  0.13859513761E+03  0.14597486787E+03  0.00000000000E+00 0. -1.
         11    1    4    4    0    0  0.76735547166E+01 -0.40486585497E+02  0.19140788705E+02  0.45435854118E+02  0.00000000000E+00 0.  1.
         -2    1    1    2    0  502  0.32726155279E+02 -0.26327946251E+02  0.21232618205E+02  0.47063638501E+02  0.00000000000E+00 0.  1.
<scales pt_clust_5="13000.00000" pt_clust_6="13000.00000" pt_clust_7="13000.00000" pt_clust_8="13000.00000" pt_clust_9="42.00193"></scales>
<clustering>
<clus scale="   42.002">  2  9  1 -1</clus>
<clus scale="   81.058">  5  6 -1 -1</clus>
<clus scale="   85.784">  1  5  2 -1</clus>
<clus scale="  108.333">  7  8 -1 -1</clus>
<clus scale="   42.002">  2  5  1 -1</clus>
</clustering>
</event>
<event>
 9    2  0.7820252E-005  0.1009008E+03  0.7546771E-02  0.1285536E+00
         21   -1    0    0  501  502  0.00000000000E+00  0.00000000000E+00  0.10577629145E+03  0.10577629145E+03  0.00000000000E+00 0. -1.
          2   -1    0    0  502    0 -0.00000000000E+00 -0.00000000000E+00 -0.10124660696E+04  0.10124660696E+04  0.00000000000E+00 0. -1.
         24    2    1    2    0    0 -0.63058264145E+01  0.44736683731E+02 -0.93562467613E+03  0.93986603683E+03  0.76899273696E+02 0.  0.
         23    2    1    2    0    0  0.35339069809E+01  0.28827543432E+02  0.40305142591E+02  0.10388698593E+03  0.91238618843E+02 0.  0.
        -13    1    3    3    0    0  0.20721713161E+02  0.13009948931E+02 -0.91553766316E+02  0.94766767879E+02  0.00000000000E+00 0.  1.
         14    1    3    3    0    0 -0.27027539576E+02  0.31726734800E+02 -0.84407090981E+03  0.84509926895E+03  0.00000000000E+00 0. -1.
        -11    1    4    4    0    0 -0.28628942608E+01  0.59566210397E+02  0.10415816839E+02  0.60537747109E+02  0.00000000000E+00 0. -1.
         11    1    4    4    0    0  0.63968012418E+01 -0.30738666964E+02  0.29889325752E+02  0.43349238826E+02  0.00000000000E+00 0.  1.
          1    1    1    2  501    0  0.27719194335E+01 -0.73564227164E+02 -0.11370244627E+02  0.74489338287E+02  0.00000000000E+00 0. -1.
<scales pt_clust_5="13000.00000" pt_clust_6="13000.00000" pt_clust_7="13000.00000" pt_clust_8="13000.00000" pt_clust_9="73.61643"></scales>
<clustering>
<clus scale="   73.616">  1  9  2 -1</clus>
<clus scale="   76.899">  5  6 -1 -1</clus>
<clus scale="   88.148">  2  5  1 -1</clus>
<clus scale="   91.239">  7  8 -1 -1</clus>
<clus scale="   73.616">  1  5  2 -1</clus>
</clustering>
</event>
<event>
 9    2  0.7820252E-005  0.9235728E+02  0.7546771E-02  0.1304060E+00
         21   -1    0    0  501  502  0.00000000000E+00  0.00000000000E+00  0.22648797929E+03  0.22648797929E+03  0.00000000000E+00 0. -1.
          2   -1    0    0  502    0 -0.00000000000E+00 -0.00000000000E+00 -0.21365459696E+03  0.21365459696E+03  0.00000000000E+00 0. -1.
         23    2    1    2    0    0 -0.20088808941E+01 -0.63592980684E+01 -0.14447037138E+03  0.17084871058E+03  0.90956678830E+02 0.  0.
         24    2    1    2    0    0 -0.10706881008E+02  0.44936253015E+02 -0.13928939034E+02  0.93309471148E+02  0.79867001492E+02 0.  0.
        -13    1    4    4    0    0 -0.17353351011E+02  0.12508149018E+02 -0.43785647216E+02  0.48731668198E+02  0.00000000000E+00 0.  1.
         14    1    4    4    0    0  0.66464700036E+01  0.32428103997E+02  0.29856708183E+02  0.44577802950E+02  0.00000000000E+00 0. -1.
        -11    1    3    3    0    0  0.42900228798E+01  0.27925141116E+02 -0.71090943878E+01  0.29133434841E+02  0.00000000000E+00 0.  1.
         11    1    3    3    0    0 -0.62989037740E+01 -0.34284439184E+02 -0.13736127700E+03  0.14171527574E+03  0.00000000000E+00 0. -1.
          1    1    1    2  501    0  0.12715761902E+02 -0.38576954947E+02  0.17123269275E+03  0.17598439453E+03  0.00000000000E+00 0. -1.
<scales pt_clust_5="13000.00000" pt_clust_6="13000.00000" pt_clust_7="13000.00000" pt_clust_8="13000.00000" pt_clust_9="40.61862"></scales>
<clustering>
<clus scale="   40.619">  1  9  2 -1</clus>
<clus scale="   79.867">  5  6 -1 -1</clus>
<clus scale="   81.458">  1  5  2 -1</clus>
<clus scale="   90.957">  7  8 -1 -1</clus>
<clus scale="   40.619">  1  5  2 -1</clus>
</clustering>
</event>
<event>
 9    2  0.7820252E-005  0.2115991E+03  0.7546771E-02  0.1140306E+00
         21   -1    0    0  501  502  0.00000000000E+00  0.00000000000E+00  0.28961832779E+02  0.28961832779E+02  0.00000000000E+00 0. -1.
          2   -1    0    0  502    0 -0.00000000000E+00 -0.00000000000E+00 -0.11916317887E+04  0.11916317887E+04  0.00000000000E+00 0. -1.
         24    2    1    2    0    0 -0.60978248050E+02 -0.31785707372E+02 -0.19879069535E+03  0.22473899194E+03  0.79127719617E+02 0.  0.
         23    2    1    2    0    0 -0.50413216257E+02 -0.20315820213E+02 -0.24966333222E+03  0.27112915061E+03  0.90691851521E+02 0.  0.
        -13    1    3    3    0    0 -0.10620706375E+02 -0.44786011023E+02 -0.13382802215E+03  0.14152217388E+03  0.00000000000E+00 0.  1.
         14    1    3    3    0    0 -0.50357541675E+02  0.13000303651E+02 -0.64962673200E+02  0.83216818059E+02  0.00000000000E+00 0. -1.
        -13    1    4    4    0    0 -0.12698709775E+02  0.30120774024E+02 -0.37165874273E+02  0.49495661105E+02  0.00000000000E+00 0.  1.
         13    1    4    4    0    0 -0.37714506481E+02 -0.50436594237E+02 -0.21249745794E+03  0.22163348950E+03  0.00000000000E+00 0. -1.
          1    1    1    2  501    0  0.11139146431E+03  0.52101527585E+02 -0.71421592839E+03  0.72472547896E+03  0.00000000000E+00 0. -1.
<scales pt_clust_5="13000.00000" pt_clust_6="13000.00000" pt_clust_7="13000.00000" pt_clust_8="13000.00000" pt_clust_9="122.97415"></scales>
<clustering>
<clus scale="   79.128">  5  6 -1 -1</clus>
<clus scale="   90.692">  7  8 -1 -1</clus>
<clus scale="   91.363">  5  7 -1 -1</clus>
<clus scale="  122.974">  1  9  2 -1</clus>
<clus scale="  122.974">  1  5  2 -1</clus>
</clustering>
</event>
<event>
 9    2  0.7820252E-005  0.2659807E+03  0.7546771E-02  0.1104281E+00
          2   -1    0    0  502    0 -0.00000000000E+00  0.00000000000E+00  0.21717637040E+04  0.21717637040E+04  0.00000000000E+00 0. -1.
         21   -1    0    0  501  502  0.00000000000E+00 -0.00000000000E+00 -0.43679356695E+02  0.43679356695E+02  0.00000000000E+00 0. -1.
         24    2    1    2    0    0 -0.16083912149E+03 -0.14195187475E+03  0.67168980279E+03  0.70969177676E+03  0.80471542054E+02 0.  0.
         23    2    1    2    0    0  0.23820380929E+03  0.15910148775E+03  0.10954037038E+04  0.11361653113E+04  0.94382212123E+02 0.  0.
        -13    1    3    3    0    0 -0.12347168657E+03 -0.71374356917E+02  0.50674741013E+03  0.52643375071E+03  0.00000000000E+00 0.  1.
         14    1    3    3    0    0 -0.37367434926E+02 -0.70577517837E+02  0.16494239266E+03  0.18325802605E+03  0.00000000000E+00 0. -1.
        -11    1    4    4    0    0  0.40534033224E+02  0.25732123393E+02  0.81430401922E+02  0.94530737757E+02  0.00000000000E+00 0.  1.
         11    1    4    4    0    0  0.19766977607E+03  0.13336936435E+03  0.10139733019E+04  0.10416345735E+04  0.00000000000E+00 0. -1.
          1    1    1    2  501    0 -0.77364687801E+02 -0.17149612992E+02  0.36099084064E+03  0.36958597264E+03  0.00000000000E+00 0. -1.
<scales pt_clust_5="13000.00000" pt_clust_6="13000.00000" pt_clust_7="13000.00000" pt_clust_8="13000.00000" pt_clust_9="79.24273"></scales>
<clustering>
<clus scale="   79.243">  2  9  1 -1</clus>
<clus scale="   80.472">  5  6 -1 -1</clus>
<clus scale="   94.382">  7  8 -1 -1</clus>
<clus scale="  261.368">  1  5  2 -1</clus>
<clus scale="   79.243">  2  5  1 -1</clus>
</clustering>
</event>
<event>
 9    2  0.1206159E-004  0.9429099E+02  0.7546771E-02  0.1300275E+00
          2   -1    0    0  502    0 -0.00000000000E+00  0.00000000000E+00  0.80457736136E+03  0.80457736136E+03  0.00000000000E+00 0. -1.
         21   -1    0    0  501  502  0.00000000000E+00 -0.00000000000E+00 -0.18901024567E+03  0.18901024567E+03  0.00000000000E+00 0.  1.
         24    2    1    2    0    0 -0.11924903390E+02 -0.19272317209E+01  0.77597705229E+03  0.78030740339E+03  0.81199387651E+02 0.  0.
         23    2    1    2    0    0 -0.60879006530E+01  0.34541691333E+02 -0.94211560702E+02  0.13731712670E+03  0.93541349899E+02 0.  0.
        -13    1    3    3    0    0 -0.43520697768E+01 -0.30263442016E+02  0.12554656375E+03  0.12921592821E+03  0.00000000000E+00 0.  1.
         14    1    3    3    0    0 -0.75728336137E+01  0.28336210295E+02  0.65043048855E+03  0.65109147518E+03  0.00000000000E+00 0. -1.
        -13    1    4    4    0    0 -0.14119747569E+02 -0.25541371307E+02 -0.52288943774E+01  0.29649118976E+02  0.00000000000E+00 0. -1.
         13    1    4    4    0    0  0.80318469163E+01  0.60083062640E+02 -0.88982666325E+02  0.10766800772E+03  0.00000000000E+00 0.  1.
          1    1    1    2  501    0  0.18012804043E+02 -0.32614459612E+02 -0.66198375909E+02  0.75963076941E+02  0.00000000000E+00 0. -1.
<scales pt_clust_5="13000.00000" pt_clust_6="13000.00000" pt_clust_7="13000.00000" pt_clust_8="13000.00000" pt_clust_9="37.25807"></scales>
<clustering>
<clus scale="   37.258">  2  9  1 -1</clus>
<clus scale="   81.199">  5  6 -1 -1</clus>
<clus scale="   82.062">  1  5  2 -1</clus>
<clus scale="   93.541">  7  8 -1 -1</clus>
<clus scale="   37.258">  2  5  1 -1</clus>
</clustering>
</event>
<event>
 9    2  0.7820252E-005  0.8178817E+02  0.7546771E-02  0.1325061E+00
         21   -1    0    0  501  502  0.00000000000E+00  0.00000000000E+00  0.29219579901E+02  0.29219579901E+02  0.00000000000E+00 0.  1.
          2   -1    0    0  502    0 -0.00000000000E+00 -0.00000000000E+00 -0.45148540046E+03  0.45148540046E+03  0.00000000000E+00 0. -1.
         24    2    1    2    0    0  0.33506050690E+02 -0.17145412127E+01 -0.15858950512E+03  0.17906829576E+03  0.76086978691E+02 0.  0.
         23    2    1    2    0    0  0.20919294365E+01 -0.43415906579E+02 -0.16405083892E+03  0.18661838572E+03  0.77617182536E+02 0.  0.
        -13    1    3    3    0    0  0.26610158680E+02 -0.27081488696E+02 -0.31631079571E+02  0.49416927968E+02  0.00000000000E+00 0.  1.
         14    1    3    3    0    0  0.68958920096E+01  0.25366947484E+02 -0.12695842555E+03  0.12965136779E+03  0.00000000000E+00 0. -1.
        -11    1    4    4    0    0  0.26087691744E+02 -0.72675292177E+01 -0.14130549818E+02  0.30545983036E+02  0.00000000000E+00 0.  1.
         11    1    4    4    0    0 -0.23995762308E+02 -0.36148377361E+02 -0.14992028910E+03  0.15607240268E+03  0.00000000000E+00 0. -1.
          1    1    1    2  501    0 -0.35597980127E+02  0.45130447791E+02 -0.99625476517E+02  0.11501829888E+03  0.00000000000E+00 0. -1.
<scales pt_clust_5="13000.00000" pt_clust_6="13000.00000" pt_clust_7="13000.00000" pt_clust_8="13000.00000" pt_clust_9="57.48020"></scales>
<clustering>
<clus scale="   57.480">  1  9  2 -1</clus>
<clus scale="   76.087">  5  6 -1 -1</clus>
<clus scale="   77.617">  7  8 -1 -1</clus>
<clus scale="   80.337">  2  5  1 -1</clus>
<clus scale="   57.480">  1  5  2 -1</clus>
</clustering>
</event>
<event>
 9    2  0.7820252E-005  0.1605248E+03  0.7546771E-02  0.1198820E+00
         21   -1    0    0  501  502  0.00000000000E+00  0.00000000000E+00  0.60653205045E+03  0.60653205045E+03  0.00000000000E+00 0. -1.
          2   -1    0    0  502    0 -0.00000000000E+00 -0.00000000000E+00 -0.86844545773E+02  0.86844545773E+02  0.00000000000E+00 0. -1.
         23    2    1    2    0    0  0.85331020825E+02  0.19882526469E+02  0.25003403574E+03  0.28037772087E+03  0.91749383404E+02 0.  0.
         24    2    1    2    0    0  0.11127465451E+02  0.11817954762E+03  0.11279501358E+03  0.18284685843E+03  0.81363582678E+02 0.  0.
        -13    1    4    4    0    0  0.27855034697E+02  0.19101040838E+02  0.61181919264E+02  0.69885477489E+02  0.00000000000E+00 0.  1.
         14    1    4    4    0    0 -0.16727569246E+02  0.99078506786E+02  0.51613094318E+02  0.11296138094E+03  0.00000000000E+00 0. -1.
        -11    1    3    3    0    0  0.10466053764E+03  0.10563095544E+02  0.21350079270E+03  0.23800839399E+03  0.00000000000E+00 0. -1.
         11    1    3    3    0    0 -0.19329516811E+02  0.93194309245E+01  0.36533243047E+02  0.42369326882E+02  0.00000000000E+00 0.  1.
          1    1    1    2  501    0 -0.96458486276E+02 -0.13806207409E+03  0.15685845535E+03  0.23015201692E+03  0.00000000000E+00 0. -1.
<scales pt_clust_5="13000.00000" pt_clust_6="13000.00000" pt_clust_7="13000.00000" pt_clust_8="13000.00000" pt_clust_9="138.37707"></scales>
<clustering>
<clus scale="   81.364">  5  6 -1 -1</clus>
<clus scale="   91.749">  7  8 -1 -1</clus>
<clus scale="  126.865">  2  7  1 -1</clus>
<clus scale="  138.377">  1  9  2 -1</clus>
<clus scale="  138.377">  1  5  2 -1</clus>
</clustering>
</event>
<event>
 9    2  0.7820252E-005  0.9599577E+02  0.7546771E-02  0.1295365E+00
         -1   -1    0    0    0  501 -0.00000000000E+00  0.00000000000E+00  0.63531276074E+03  0.63531276074E+03  0.00000000000E+00 0.  1.
         21   -1    0    0  501  502  0.00000000000E+00 -0.00000000000E+00 -0.21194134817E+02  0.21194134817E+02  0.00000000000E+00 0. -1.
         24    2    1    2    0    0 -0.30630934829E+02  0.25001753507E+02  0.37748365913E+03  0.38769552662E+03  0.79060524946E+02 0.  0.
         23    2    1    2    0    0 -0.27739423553E+01 -0.23076533891E+02  0.18441852701E+03  0.20679404173E+03  0.90627597439E+02 0.  0.
        -11    1    3    3    0    0 -0.45549864092E+02  0.39210624430E+02  0.33649447914E+03  0.34181983219E+03  0.00000000000E+00 0.  1.
         12    1    3    3    0    0  0.14918929263E+02 -0.14208870922E+02  0.40989179994E+02  0.45875694434E+02  0.00000000000E+00 0. -1.
        -11    1    4    4    0    0  0.27980982278E+02 -0.40905674597E+02  0.62310947560E+02  0.79616981664E+02  0.00000000000E+00 0. -1.
         11    1    4    4    0    0 -0.30754924633E+02  0.17829140707E+02  0.12210757945E+03  0.12717706007E+03  0.00000000000E+00 0.  1.
         -2    1    1    2    0  502  0.33404877184E+02 -0.19252196169E+01  0.52216439773E+02  0.62017327198E+02  0.00000000000E+00 0.  1.
<scales pt_clust_5="13000.00000" pt_clust_6="13000.00000" pt_clust_7="13000.00000" pt_clust_8="13000.00000" pt_clust_9="33.46031"></scales>
<clustering>
<clus scale="   33.460">  2  9  1 -1</clus>
<clus scale="   79.061">  5  6 -1 -1</clus>
<clus scale="   85.161">  1  5  2 -1</clus>
<clus scale="   90.628">  7  8 -1 -1</clus>
<clus scale="   33.460">  2  5  1 -1</clus>
</clustering>
</event>
<event>
 9    2  0.7820252E-005  0.1615362E+03  0.7546771E-02  0.1220169E+00
          2   -1    0    0  502    0 -0.00000000000E+00  0.00000000000E+00  0.63107265362E+03  0.63107265362E+03  0.00000000000E+00 0. -1.
         21   -1    0    0  501  502  0.00000000000E+00 -0.00000000000E+00 -0.39366841106E+03  0.39366841106E+03  0.00000000000E+00 0. -1.
         24    2    1    2    0    0  0.26239054969E+02 -0.10927172570E+02  0.57224495945E+03  0.57765637594E+03  0.73584671908E+02 0.  0.
         23    2    1    2    0    0 -0.80233426447E+02  0.11875780350E+03 -0.23393708177E+03  0.28984480608E+03  0.93502057587E+02 0.  0.
        -13    1    3    3    0    0  0.36662317614E+02 -0.29734954115E+02  0.23316988479E+03  0.23790016436E+03  0.00000000000E+00 0.  1.
         14    1    3    3    0    0 -0.10423262645E+02  0.18807781545E+02  0.33907507466E+03  0.33975621158E+03  0.00000000000E+00 0. -1.
        -11    1    4    4    0    0 -0.59420603401E+02  0.98663925593E+01 -0.84842641287E+02  0.10405012057E+03  0.00000000000E+00 0.  1.
         11    1    4    4    0    0 -0.20812823046E+02  0.10889141094E+03 -0.14909444048E+03  0.18579468550E+03  0.00000000000E+00 0. -1.
          1    1    1    2  501    0  0.53994371479E+02 -0.10783063093E+03 -0.10090363513E+03  0.15723988266E+03  0.00000000000E+00 0. -1.
<scales pt_clust_5="13000.00000" pt_clust_6="13000.00000" pt_clust_7="13000.00000" pt_clust_8="13000.00000" pt_clust_9="131.72443"></scales>
<clustering>
<clus scale="   73.585">  5  6 -1 -1</clus>
<clus scale="   78.883">  1  5  2 -1</clus>
<clus scale="   93.502">  7  8 -1 -1</clus>
<clus scale="  131.724">  2  9  1 -1</clus>
<clus scale="  131.724">  2  5  1 -1</clus>
</clustering>
</event>
<event>
 9    2  0.7820252E-005  0.1747973E+03  0.7546771E-02  0.1174225E+00
         21   -1    0    0  501  502  0.00000000000E+00  0.00000000000E+00  0.15066826563E+03  0.15066826563E+03  0.00000000000E+00 0. -1.
          2   -1    0    0  502    0 -0.00000000000E+00 -0.00000000000E+00 -0.33757113662E+03  0.33757113662E+03  0.00000000000E+00 0. -1.
         23    2    1    2    0    0 -0.10328504089E+03 -0.12633343808E+03 -0.11170324048E+03  0.21761474452E+03  0.90832955735E+02 0.  0.
         24    2    1    2    0    0  0.21803406515E+02  0.14506162964E+03 -0.82608757993E+02  0.18669077261E+03  0.80690598907E+02 0.  0.
        -11    1    4    4    0    0 -0.15065388151E+02  0.74374945185E+02 -0.74852587336E+02  0.10659037584E+03  0.00000000000E+00 0.  1.
         12    1    4    4    0    0  0.36868794666E+02  0.70686684454E+02 -0.77561706567E+01  0.80100396769E+02  0.00000000000E+00 0. -1.
        -13    1    3    3    0    0 -0.62462007415E+02 -0.13031448762E+03 -0.76218325931E+02  0.16337870504E+03  0.00000000000E+00 0.  1.
         13    1    3    3    0    0 -0.40823033476E+02  0.39810495322E+01 -0.35484914551E+02  0.54236039478E+02  0.00000000000E+00 0. -1.
          1    1    1    2  501    0  0.81481634376E+02 -0.18728191556E+02  0.74091274853E+01  0.83933885110E+02  0.00000000000E+00 0. -1.
<scales pt_clust_5="13000.00000" pt_clust_6="13000.00000" pt_clust_7="13000.00000" pt_clust_8="13000.00000" pt_clust_9="83.60623"></scales>
<clustering>
<clus scale="   80.691">  5  6 -1 -1</clus>
<clus scale="   83.606">  1  9  2 -1</clus>
<clus scale="   90.833">  7  8 -1 -1</clus>
<clus scale="  169.748">  1  5  2 -1</clus>
<clus scale="   83.606">  1  5  2 -1</clus>
</clustering>
</event>
<event>
 9    2  0.7820252E-005  0.9066290E+02  0.7546771E-02  0.1304366E+00
         21   -1    0    0  501  502  0.00000000000E+00  0.00000000000E+00  0.11638914976E+03  0.11638914976E+03  0.00000000000E+00 0. -1.
          2   -1    0    0  502    0 -0.00000000000E+00 -0.00000000000E+00 -0.92677902684E+03  0.92677902684E+03  0.00000000000E+00 0. -1.
         24    2    1    2    0    0  0.41322725930E+02 -0.73200738729E+01 -0.78520815556E+03  0.79041558748E+03  0.80273297033E+02 0.  0.
         23    2    1    2    0    0 -0.36569164795E+02  0.69529700234E+02  0.77103949110E+02  0.13294026767E+03  0.74541349415E+02 0.  0.
        -13    1    3    3    0    0  0.51340689894E+01 -0.21199773981E+02 -0.54826177007E+02  0.59005921452E+02  0.00000000000E+00 0.  1.
         14    1    3    3    0    0  0.36188656941E+02  0.13879700108E+02 -0.73038197855E+03  0.73140966603E+03  0.00000000000E+00 0. -1.
        -11    1    4    4    0    0 -0.29592992036E+02  0.13950035688E+02 -0.54589953316E+01  0.33168498660E+02  0.00000000000E+00 0.  1.
         11    1    4    4    0    0 -0.69761727589E+01  0.55579664546E+02  0.82562944442E+02  0.99771769015E+02  0.00000000000E+00 0. -1.
          1    1    1    2  501    0 -0.47535611355E+01 -0.62209626361E+02 -0.10228567063E+03  0.11981232145E+03  0.00000000000E+00 0. -1.
<scales pt_clust_5="13000.00000" pt_clust_6="13000.00000" pt_clust_7="13000.00000" pt_clust_8="13000.00000" pt_clust_9="62.39101"></scales>
<clustering>
<clus scale="   62.391">  1  9  2 -1</clus>
<clus scale="   74.541">  7  8 -1 -1</clus>
<clus scale="   80.273">  5  6 -1 -1</clus>
<clus scale="   85.629">  1  7  2 -1</clus>
<clus scale="   62.391">  1  5  2 -1</clus>
</clustering>
</event>
<event>
 9    2  0.7820252E-005  0.1182130E+03  0.7546771E-02  0.1250433E+00
         21   -1    0    0  501  502  0.00000000000E+00  0.00000000000E+00  0.15772020830E+03  0.15772020830E+03  0.00000000000E+00 0.  1.
         -3   -1    0    0    0  501 -0.00000000000E+00 -0.00000000000E+00 -0.25816515497E+03  0.25816515497E+03  0.00000000000E+00 0.  1.
         24    2    1    2    0    0 -0.67614905391E+02  0.33161395220E+02 -0.14929989056E+03  0.18529776488E+03  0.79833268654E+02 0.  0.
         23    2    1    2    0    0  0.44044366480E+02 -0.60104377130E+02 -0.47233366338E+02  0.12804756747E+03  0.92804882795E+02 0.  0.
        -11    1    3    3    0    0 -0.38171081381E+02  0.59198004368E+02 -0.94831059151E+02  0.11812859499E+03  0.00000000000E+00 0.  1.
         12    1    3    3    0    0 -0.29443824011E+02 -0.26036609149E+02 -0.54468831406E+02  0.67169169885E+02  0.00000000000E+00 0. -1.
        -11    1    4    4    0    0  0.12336823829E+02 -0.17540603488E+02 -0.67811988105E+02  0.71121977782E+02  0.00000000000E+00 0.  1.
         11    1    4    4    0    0  0.31707542651E+02 -0.42563773641E+02  0.20578621767E+02  0.56925589688E+02  0.00000000000E+00 0. -1.
         -4    1    1    2    0  502  0.23570538911E+02  0.26942981910E+02  0.96088310224E+02  0.10254003092E+03  0.00000000000E+00 0.  1.
<scales pt_clust_5="13000.00000" pt_clust_6="13000.00000" pt_clust_7="13000.00000" pt_clust_8="13000.00000" pt_clust_9="35.79797"></scales>
<clustering>
<clus scale="   35.798">  1  9  2 -1</clus>
<clus scale="   79.833">  5  6 -1 -1</clus>
<clus scale="   92.805">  7  8 -1 -1</clus>
<clus scale="  108.328">  2  5  1 -1</clus>
<clus scale="   35.798">  1  5  2 -1</clus>
</clustering>
</event>
<event>
 9    2  0.7820252E-005  0.9676076E+02  0.7546771E-02  0.1296000E+00
         -1   -1    0    0    0  501 -0.00000000000E+00  0.00000000000E+00  0.19520594932E+03  0.19520594932E+03  0.00000000000E+00 0.  1.
         21   -1    0    0  501  502  0.00000000000E+00 -0.00000000000E+00 -0.94670158331E+02  0.94670158331E+02  0.00000000000E+00 0.  1.
         23    2    1    2    0    0  0.20232365723E+02  0.16638441382E+02  0.11066766906E+03  0.14798837053E+03  0.94694447992E+02 0.  0.
         24    2    1    2    0    0  0.30399793563E+02 -0.24071801467E+02 -0.16909184230E+02  0.90266014233E+02  0.79739787682E+02 0.  0.
        -13    1    4    4    0    0  0.33120983994E+02 -0.34477784768E+02  0.19998245639E+02  0.51823228883E+02  0.00000000000E+00 0.  1.
         14    1    4    4    0    0 -0.27211904314E+01  0.10405983301E+02 -0.36907429870E+02  0.38442785349E+02  0.00000000000E+00 0. -1.
        -13    1    3    3    0    0  0.54463469672E+02  0.20033323601E+02  0.92208243298E+02  0.10894936308E+03  0.00000000000E+00 0.  1.
         13    1    3    3    0    0 -0.34231103949E+02 -0.33948822191E+01  0.18459425766E+02  0.39039007447E+02  0.00000000000E+00 0. -1.
         -2    1    1    2    0  502 -0.50632159286E+02  0.74333600849E+01  0.67773061602E+01  0.51621722897E+02  0.00000000000E+00 0.  1.
<scales pt_clust_5="13000.00000" pt_clust_6="13000.00000" pt_clust_7="13000.00000" pt_clust_8="13000.00000" pt_clust_9="51.17490"></scales>
<clustering>
<clus scale="   51.175">  2  9  1 -1</clus>
<clus scale="   79.740">  5  6 -1 -1</clus>
<clus scale="   82.183">  2  5  1 -1</clus>
<clus scale="   94.694">  7  8 -1 -1</clus>
<clus scale="   51.175">  2  5  1 -1</clus>
</clustering>
</event>
<event>
 9    2  0.7820252E-005  0.1077361E+03  0.7546771E-02  0.1267127E+00
          2   -1    0    0  502    0 -0.00000000000E+00  0.00000000000E+00  0.50350369060E+03  0.50350369060E+03  0.00000000000E+00 0. -1.
         21   -1    0    0  501  502  0.00000000000E+00 -0.00000000000E+00 -0.11045114958E+03  0.11045114958E+03  0.00000000000E+00 0.  1.
         24    2    1    2    0    0  0.42736991367E+02 -0.39867985897E+02  0.44338397665E+03  0.45509022869E+03  0.84272526735E+02 0.  0.
         23    2    1    2    0    0 -0.35571329927E+02  0.66668097873E+02 -0.56588985537E+02  0.13042608768E+03  0.89992756803E+02 0.  0.
        -11    1    3    3    0    0  0.88471090172E+01  0.26236821667E+02  0.99969158746E+02  0.10373270868E+03  0.00000000000E+00 0.  1.
         12    1    3    3    0    0  0.33889882350E+02 -0.66104807563E+02  0.34341481791E+03  0.35135752001E+03  0.00000000000E+00 0. -1.
        -11    1    4    4    0    0 -0.42318264570E+02  0.22425810674E+02 -0.68991462619E+02  0.83985560753E+02  0.00000000000E+00 0.  1.
         11    1    4    4    0    0  0.67469346433E+01  0.44242287199E+02  0.12402477082E+02  0.46440526929E+02  0.00000000000E+00 0. -1.
          1    1    1    2  501    0 -0.71656614399E+01 -0.26800111976E+02  0.62575499116E+01  0.28438523814E+02  0.00000000000E+00 0. -1.
<scales pt_clust_5="13000.00000" pt_clust_6="13000.00000" pt_clust_7="13000.00000" pt_clust_8="13000.00000" pt_clust_9="27.74153"></scales>
<clustering>
<clus scale="   27.742">  2  9  1 -1</clus>
<clus scale="   84.273">  5  6 -1 -1</clus>
<clus scale="   89.993">  7  8 -1 -1</clus>
<clus scale="  103.006">  1  5  2 -1</clus>
<clus scale="   27.742">  2  5  1 -1</clus>
</clustering>
</event>
<event>
 9    2  0.7820252E-005  0.4570035E+03  0.7546771E-02  0.1025654E+00
          2   -1    0    0  502    0 -0.00000000000E+00  0.00000000000E+00  0.88174873274E+03  0.88174873274E+03  0.00000000000E+00 0. -1.
         21   -1    0    0  501  502  0.00000000000E+00 -0.00000000000E+00 -0.22931820943E+03  0.22931820943E+03  0.00000000000E+00 0. -1.
         24    2    1    2    0    0 -0.15360086274E+03 -0.18210714736E+03  0.21203803630E+03  0.32903329708E+03  0.80910713738E+02 0.  0.
         23    2    1    2    0    0 -0.11123429248E+03 -0.13885719009E+03  0.26158263514E+03  0.32912225367E+03  0.90783235164E+02 0.  0.
        -11    1    3    3    0    0 -0.95102510509E+02 -0.51159388050E+02  0.84763675121E+02  0.13728310570E+03  0.00000000000E+00 0.  1.
         12    1    3    3    0    0 -0.58498352231E+02 -0.13094775931E+03  0.12727436118E+03  0.19175019138E+03  0.00000000000E+00 0. -1.
        -13    1    4    4    0    0 -0.21613232869E+02 -0.96073636702E+02  0.10727910514E+03  0.14562308163E+03  0.00000000000E+00 0.  1.
         13    1    4    4    0    0 -0.89621059615E+02 -0.42783553392E+02  0.15430353000E+03  0.18349917204E+03  0.00000000000E+00 0. -1.
          1    1    1    2  501    0  0.26483515522E+03  0.32096433745E+03  0.17880985187E+03  0.45291139142E+03  0.00000000000E+00 0. -1.
<scales pt_clust_5="13000.00000" pt_clust_6="13000.00000" pt_clust_7="13000.00000" pt_clust_8="13000.00000" pt_clust_9="416.11989"></scales>
<clustering>
<clus scale="   80.911">  5  6 -1 -1</clus>
<clus scale="   90.783">  7  8 -1 -1</clus>
<clus scale="  111.470">  5  7 -1 -1</clus>
<clus scale="  416.120">  2  9  1 -1</clus>
<clus scale="  416.120">  2  5  1 -1</clus>
</clustering>
</event>
<event>
 9    2  0.7820252E-005  0.1729246E+03  0.7546771E-02  0.1198205E+00
         21   -1    0    0  501  502  0.00000000000E+00  0.00000000000E+00  0.29841308447E+03  0.29841308447E+03  0.00000000000E+00 0.  1.
          2   -1    0    0  502    0 -0.00000000000E+00 -0.00000000000E+00 -0.39918052591E+03  0.39918052591E+03  0.00000000000E+00 0. -1.
         23    2    1    2    0    0 -0.43313983943E+02 -0.16531384019E+02 -0.28693917148E+03  0.30481587204E+03  0.91810891817E+02 0.  0.
         24    2    1    2    0    0  0.15109578428E+03 -0.66876623000E+02  0.17892482691E+03  0.25629942606E+03  0.79830341243E+02 0.  0.
        -11    1    4    4    0    0  0.98992770300E+02 -0.34833997739E+02  0.16167190194E+03  0.19274537568E+03  0.00000000000E+00 0.  1.
         12    1    4    4    0    0  0.52103013978E+02 -0.32042625261E+02  0.17252924970E+02  0.63554050377E+02  0.00000000000E+00 0. -1.
        -11    1    3    3    0    0  0.20621130459E+02 -0.98837800473E+01 -0.20429968966E+02  0.30664372835E+02  0.00000000000E+00 0.  1.
         11    1    3    3    0    0 -0.63935114402E+02 -0.66476039719E+01 -0.26650920251E+03  0.27415149920E+03  0.00000000000E+00 0. -1.
          1    1    1    2  501    0 -0.10778180034E+03  0.83408007019E+02  0.72469031309E+01  0.13647831228E+03  0.00000000000E+00 0. -1.
<scales pt_clust_5="13000.00000" pt_clust_6="13000.00000" pt_clust_7="13000.00000" pt_clust_8="13000.00000" pt_clust_9="153.39510"></scales>
<clustering>
<clus scale="   79.830">  5  6 -1 -1</clus>
<clus scale="   91.811">  7  8 -1 -1</clus>
<clus scale="  102.852">  2  7  1 -1</clus>
<clus scale="  153.395">  1  9  2 -1</clus>
<clus scale="  153.395">  1  5  2 -1</clus>
</clustering>
</event>
<event>
 9    2  0.7820252E-005  0.1021708E+03  0.7546771E-02  0.1281271E+00
         21   -1    0    0  501  502  0.00000000000E+00  0.00000000000E+00  0.28887049908E+03  0.28887049908E+03  0.00000000000E+00 0. -1.
         -3   -1    0    0    0  501 -0.00000000000E+00 -0.00000000000E+00 -0.41786422070E+02  0.41786422070E+02  0.00000000000E+00 0.  1.
         23    2    1    2    0    0  0.43819047420E+02 -0.31524773466E+01  0.94529316617E+02  0.13912163174E+03  0.92135713418E+02 0.  0.
         24    2    1    2    0    0 -0.43333202767E+02 -0.18649649402E+02  0.11646840460E+03  0.14937139668E+03  0.80754869768E+02 0.  0.
        -13    1    4    4    0    0 -0.23185114917E+02  0.21625358625E+02  0.91680401181E+01  0.33003918691E+02  0.00000000000E+00 0.  1.
         14    1    4    4    0    0 -0.20148087849E+02 -0.40275008027E+02  0.10730036448E+03  0.11636747799E+03  0.00000000000E+00 0. -1.
        -11    1    3    3    0    0 -0.22444427361E+02 -0.20100457804E+02  0.13307082257E+02  0.32937200271E+02  0.00000000000E+00 0. -1.
         11    1    3    3    0    0  0.66263474781E+02  0.16947980457E+02  0.81222234359E+02  0.10618443147E+03  0.00000000000E+00 0.  1.
         -4    1    1    2    0  502 -0.48584465314E+00  0.21802126749E+02  0.36086355794E+02  0.42163892731E+02  0.00000000000E+00 0.  1.
<scales pt_clust_5="13000.00000" pt_clust_6="13000.00000" pt_clust_7="13000.00000" pt_clust_8="13000.00000" pt_clust_9="21.80754"></scales>
<clustering>
<clus scale="   21.808">  1  9  2 -1</clus>
<clus scale="   80.755">  5  6 -1 -1</clus>
<clus scale="   92.039">  1  5  2 -1</clus>
<clus scale="   92.136">  7  8 -1 -1</clus>
<clus scale="   21.808">  1  5  2 -1</clus>
</clustering>
</event>
<event>
 9    2  0.7820252E-005  0.1726863E+03  0.7546771E-02  0.1198426E+00
         21   -1    0    0  501  502  0.00000000000E+00  0.00000000000E+00  0.79000398717E+02  0.79000398717E+02  0.00000000000E+00 0.  1.
          2   -1    0    0  502    0 -0.00000000000E+00 -0.00000000000E+00 -0.83220711122E+03  0.83220711122E+03  0.00000000000E+00 0. -1.
         24    2    1    2    0    0  0.50948142865E+02  0.40402844005E+02 -0.45975382475E+03  0.47110292602E+03  0.79600781835E+02 0.  0.
         23    2    1    2    0    0  0.47881976977E+02 -0.14151896056E+03 -0.11504893108E+03  0.21246488314E+03  0.97901839144E+02 0.  0.
        -11    1    3    3    0    0  0.17499428492E+02 -0.10302629997E+02 -0.25388592076E+02  0.32510841115E+02  0.00000000000E+00 0.  1.
         12    1    3    3    0    0  0.33448714373E+02  0.50705474001E+02 -0.43436523267E+03  0.43859208491E+03  0.00000000000E+00 0. -1.
        -11    1    4    4    0    0 -0.12102106145E+02 -0.16599322770E+02 -0.59890718681E+02  0.63315848519E+02  0.00000000000E+00 0. -1.
         11    1    4    4    0    0  0.59984083122E+02 -0.12491963779E+03 -0.55158212401E+02  0.14914903462E+03  0.00000000000E+00 0.  1.
          1    1    1    2  501    0 -0.98830119841E+02  0.10111611655E+03 -0.17840395668E+03  0.22763970078E+03  0.00000000000E+00 0. -1.
<scales pt_clust_5="13000.00000" pt_clust_6="13000.00000" pt_clust_7="13000.00000" pt_clust_8="13000.00000" pt_clust_9="142.25267"></scales>
<clustering>
<clus scale="   79.601">  5  6 -1 -1</clus>
<clus scale="   97.902">  7  8 -1 -1</clus>
<clus scale="  102.783">  2  5  1 -1</clus>
<clus scale="  142.253">  1  9  2 -1</clus>
<clus scale="  142.253">  1  5  2 -1</clus>
</clustering>
</event>
<event>
 9    2  0.7820252E-005  0.9501981E+02  0.7546771E-02  0.1298682E+00
         -1   -1    0    0    0  501 -0.00000000000E+00  0.00000000000E+00  0.23934966918E+03  0.23934966918E+03  0.00000000000E+00 0.  1.
         21   -1    0    0  501  502  0.00000000000E+00 -0.00000000000E+00 -0.18541897576E+03  0.18541897576E+03  0.00000000000E+00 0.  1.
         24    2    1    2    0    0 -0.19626460895E+01  0.18088870631E+02  0.16353571639E+03  0.18329490479E+03  0.80759100829E+02 0.  0.
         23    2    1    2    0    0  0.58724360186E+02  0.10192157204E+02 -0.13367222614E+03  0.17364351834E+03  0.93441836833E+02 0.  0.
        -11    1    3    3    0    0 -0.18265236680E+01  0.44876934932E+02  0.14196791770E+03  0.14890320727E+03  0.00000000000E+00 0.  1.
         12    1    3    3    0    0 -0.13612242148E+00 -0.26788064300E+02  0.21567798683E+02  0.34391697520E+02  0.00000000000E+00 0. -1.
        -11    1    4    4    0    0 -0.18952515171E+02  0.13819823982E+02 -0.67763103454E+02  0.71707904417E+02  0.00000000000E+00 0.  1.
         11    1    4    4    0    0  0.77676875357E+02 -0.36276667779E+01 -0.65909122689E+02  0.10193561392E+03  0.00000000000E+00 0. -1.
         -2    1    1    2    0  502 -0.56761714096E+02 -0.28281027835E+02  0.24067203179E+02  0.67830221815E+02  0.00000000000E+00 0.  1.
<scales pt_clust_5="13000.00000" pt_clust_6="13000.00000" pt_clust_7="13000.00000" pt_clust_8="13000.00000" pt_clust_9="63.41698"></scales>
<clustering>
<clus scale="   63.417">  2  9  1 -1</clus>
<clus scale="   80.759">  5  6 -1 -1</clus>
<clus scale="   82.580">  1  5  2 -1</clus>
<clus scale="   93.442">  7  8 -1 -1</clus>
<clus scale="   63.417">  2  5  1 -1</clus>
</clustering>
</event>
<event>
 9    2  0.7820252E-005  0.9522966E+02  0.7546771E-02  0.1295955E+00
         21   -1    0    0  501  502  0.00000000000E+00  0.00000000000E+00  0.24793551605E+03  0.24793551605E+03  0.00000000000E+00 0. -1.
          2   -1    0    0  502    0 -0.00000000000E+00 -0.00000000000E+00 -0.56767473944E+03  0.56767473944E+03  0.00000000000E+00 0. -1.
         24    2    1    2    0    0  0.26742176799E+02 -0.58217107556E+01 -0.40570602936E+03  0.41457312985E+03  0.80774138185E+02 0.  0.
         23    2    1    2    0    0 -0.43823228112E+02 -0.19076868917E+02 -0.13986792472E+03  0.17319282097E+03  0.90268015485E+02 0.  0.
        -13    1    3    3    0    0  0.31225941130E+02  0.32431251242E+02 -0.17636133361E+03  0.18201693726E+03  0.00000000000E+00 0.  1.
         14    1    3    3    0    0 -0.44837643308E+01 -0.38252961998E+02 -0.22934469575E+03  0.23255619259E+03  0.00000000000E+00 0. -1.
        -13    1    4    4    0    0 -0.51488199785E+02 -0.41710034013E+02 -0.13256924116E+03  0.14820717039E+03  0.00000000000E+00 0. -1.
         13    1    4    4    0    0  0.76649716722E+01  0.22633165096E+02 -0.72986835636E+01  0.24985650577E+02  0.00000000000E+00 0.  1.
          1    1    1    2  501    0  0.17081051313E+02  0.24898579673E+02  0.22583473069E+03  0.22784430467E+03  0.00000000000E+00 0. -1.
<scales pt_clust_5="13000.00000" pt_clust_6="13000.00000" pt_clust_7="13000.00000" pt_clust_8="13000.00000" pt_clust_9="30.19440"></scales>
<clustering>
<clus scale="   30.194">  1  9  2 -1</clus>
<clus scale="   80.774">  5  6 -1 -1</clus>
<clus scale="   86.283">  2  5  1 -1</clus>
<clus scale="   90.268">  7  8 -1 -1</clus>
<clus scale="   30.194">  1  5  2 -1</clus>
</clustering>
</event>
<event>
 9    2  0.7820252E-005  0.1440289E+03  0.7546771E-02  0.1209074E+00
          2   -1    0    0  502    0 -0.00000000000E+00  0.00000000000E+00  0.18306174589E+03  0.18306174589E+03  0.00000000000E+00 0. -1.
         21   -1    0    0  501  502  0.00000000000E+00 -0.00000000000E+00 -0.27271270051E+03  0.27271270051E+03  0.00000000000E+00 0.  1.
         24    2    1    2    0    0  0.92673030533E+02 -0.56886224282E+02  0.10987679719E+03  0.17665903953E+03  0.85505395064E+02 0.  0.
         23    2    1    2    0    0 -0.10040971603E+03  0.87379516793E+02 -0.18216536662E+03  0.24318283655E+03  0.90754504944E+02 0.  0.
        -11    1    3    3    0    0  0.76340048193E+02 -0.16407289052E+02  0.26341192809E+02  0.82406677708E+02  0.00000000000E+00 0.  1.
         12    1    3    3    0    0  0.16332982340E+02 -0.40478935229E+02  0.83535604380E+02  0.94252361820E+02  0.00000000000E+00 0. -1.
        -13    1    4    4    0    0 -0.86042464280E+02  0.65595879240E+02 -0.18756652017E+03  0.21653481134E+03  0.00000000000E+00 0.  1.
         13    1    4    4    0    0 -0.14367251752E+02  0.21783637552E+02  0.54011535510E+01  0.26648025210E+02  0.00000000000E+00 0. -1.
          1    1    1    2  501    0  0.77366854984E+01 -0.30493292511E+02 -0.17362385198E+02  0.35932570329E+02  0.00000000000E+00 0. -1.
<scales pt_clust_5="13000.00000" pt_clust_6="13000.00000" pt_clust_7="13000.00000" pt_clust_8="13000.00000" pt_clust_9="31.45945"></scales>
<clustering>
<clus scale="   31.459">  2  9  1 -1</clus>
<clus scale="   85.505">  5  6 -1 -1</clus>
<clus scale="   90.755">  7  8 -1 -1</clus>
<clus scale="  140.780">  1  5  2 -1</clus>
<clus scale="   31.459">  2  5  1 -1</clus>
</clustering>
</event>
<event>
 9    2  0.7820252E-005  0.9840548E+02  0.7546771E-02  0.1284396E+00
          2   -1    0    0  502    0 -0.00000000000E+00  0.00000000000E+00  0.20856313811E+03  0.20856313811E+03  0.00000000000E+00 0. -1.
         21   -1    0    0  501  502  0.00000000000E+00 -0.00000000000E+00 -0.14246610558E+03  0.14246610558E+03  0.00000000000E+00 0.  1.
         24    2    1    2    0    0  0.40067380302E+02 -0.33984649382E+02  0.10923801206E+03  0.14598553834E+03  0.81354058094E+02 0.  0.
         23    2    1    2    0    0 -0.29156174857E+02  0.75712036867E+02 -0.87231937366E+02  0.14336516910E+03  0.79760677995E+02 0.  0.
        -11    1    3    3    0    0 -0.17459587803E+02 -0.34109113306E+02  0.54148016433E+02  0.66334579975E+02  0.00000000000E+00 0.  1.
         12    1    3    3    0    0  0.57526968105E+02  0.12446392428E+00  0.55089995623E+02  0.79650958364E+02  0.00000000000E+00 0. -1.
        -11    1    4    4    0    0  0.20459159529E+02  0.27581700008E+02 -0.59874513747E+02  0.69023798652E+02  0.00000000000E+00 0.  1.
         11    1    4    4    0    0 -0.49615334385E+02  0.48130336858E+02 -0.27357423620E+02  0.74341370443E+02  0.00000000000E+00 0. -1.
          1    1    1    2  501    0 -0.10911205445E+02 -0.41727387485E+02  0.44090957842E+02  0.61678536251E+02  0.00000000000E+00 0. -1.
<scales pt_clust_5="13000.00000" pt_clust_6="13000.00000" pt_clust_7="13000.00000" pt_clust_8="13000.00000" pt_clust_9="43.13040"></scales>
<clustering>
<clus scale="   43.130">  2  9  1 -1</clus>
<clus scale="   79.761">  7  8 -1 -1</clus>
<clus scale="   81.354">  5  6 -1 -1</clus>
<clus scale="   97.092">  2  7  1 -1</clus>
<clus scale="   43.130">  2  5  1 -1</clus>
</clustering>
</event>
<event>
 9    2  0.7820252E-005  0.1397444E+03  0.7546771E-02  0.1215866E+00
          2   -1    0    0  502    0 -0.00000000000E+00  0.00000000000E+00  0.21685436058E+04  0.21685436058E+04  0.00000000000E+00 0. -1.
         21   -1    0    0  501  502  0.00000000000E+00 -0.00000000000E+00 -0.21304916567E+02  0.21304916567E+02  0.00000000000E+00 0.  1.
         24    2    1    2    0    0  0.87815790817E+02  0.29113947371E+02  0.10145148630E+04  0.10219082793E+04  0.80603282211E+02 0.  0.
         23    2    1    2    0    0 -0.16245158911E+03  0.30587843814E+02  0.71820676072E+03  0.74254724371E+03  0.90715616132E+02 0.  0.
        -13    1    3    3    0    0  0.32957154321E+02 -0.86273563368E+01  0.11520361044E+03  0.12013524527E+03  0.00000000000E+00 0.  1.
         14    1    3    3    0    0  0.54858636496E+02  0.37741303708E+02  0.89931125255E+03  0.90177303407E+03  0.00000000000E+00 0. -1.
        -13    1    4    4    0    0 -0.84400963658E+02 -0.17631527279E+02  0.47182314283E+03  0.47963681211E+03  0.00000000000E+00 0. -1.
         13    1    4    4    0    0 -0.78050625453E+02  0.48219371093E+02  0.24638361789E+03  0.26291043160E+03  0.00000000000E+00 0.  1.
          1    1    1    2  501    0  0.74635798294E+02 -0.59701791185E+02  0.41451706556E+03  0.42539299935E+03  0.00000000000E+00 0. -1.
<scales pt_clust_5="13000.00000" pt_clust_6="13000.00000" pt_clust_7="13000.00000" pt_clust_8="13000.00000" pt_clust_9="95.57618"></scales>
<clustering>
<clus scale="   80.603">  5  6 -1 -1</clus>
<clus scale="   90.716">  7  8 -1 -1</clus>
<clus scale="   95.576">  2  9  1 -1</clus>
<clus scale="  133.402">  1  5  2 -1</clus>
<clus scale="   95.576">  2  5  1 -1</clus>
</clustering>
</event>
<event>
 9    2  0.7820252E-005  0.4400746E+03  0.7546771E-02  0.1030961E+00
          2   -1    0    0  502    0 -0.00000000000E+00  0.00000000000E+00  0.18792456841E+04  0.18792456841E+04  0.00000000000E+00 0. -1.
         21   -1    0    0  501  502  0.00000000000E+00 -0.00000000000E+00 -0.45453380688E+03  0.45453380688E+03  0.00000000000E+00 0. -1.
         24    2    1    2    0    0  0.13695291991E+02 -0.43219144723E+03  0.15984201769E+04  0.16592188923E+04  0.10527707513E+03 0.  0.
         23    2    1    2    0    0  0.62778157843E+01  0.39929041457E+03  0.80432751366E+02  0.41752154171E+03  0.91556344203E+02 0.  0.
        -11    1    3    3    0    0  0.34260374153E+02 -0.86450052978E+02  0.24127145079E+03  0.25857164938E+03  0.00000000000E+00 0.  1.
         12    1    3    3    0    0 -0.20565082162E+02 -0.34574139426E+03  0.13571487262E+04  0.14006472430E+04  0.00000000000E+00 0. -1.
        -13    1    4    4    0    0  0.33977685124E+02  0.31462367285E+03  0.37608574595E+02  0.31868000171E+03  0.00000000000E+00 0.  1.
         13    1    4    4    0    0 -0.27699869339E+02  0.84666741715E+02  0.42824176770E+02  0.98841540003E+02  0.00000000000E+00 0. -1.
          1    1    1    2  501    0 -0.19973107775E+02  0.32901032666E+02 -0.25414105104E+03  0.25703905697E+03  0.00000000000E+00 0. -1.
<scales pt_clust_5="13000.00000" pt_clust_6="13000.00000" pt_clust_7="13000.00000" pt_clust_8="13000.00000" pt_clust_9="38.48900"></scales>
<clustering>
<clus scale="   38.489">  2  9  1 -1</clus>
<clus scale="   91.556">  7  8 -1 -1</clus>
<clus scale="  105.277">  5  6 -1 -1</clus>
<clus scale="  436.995">  2  7  1 -1</clus>
<clus scale="   38.489">  2  5  1 -1</clus>
</clustering>
</event>
<event>
 9    2  0.7820252E-005  0.1133448E+03  0.7546771E-02  0.1258406E+00
         21   -1    0    0  501  502  0.00000000000E+00  0.00000000000E+00  0.41652318597E+02  0.41652318597E+02  0.00000000000E+00 0. -1.
          2   -1    0    0  502    0 -0.00000000000E+00 -0.00000000000E+00 -0.68140298319E+03  0.68140298319E+03  0.00000000000E+00 0. -1.
         23    2    1    2    0    0  0.73061336808E+02  0.20386441442E+02 -0.56880024188E+03  0.58068331524E+03  0.88914742901E+02 0.  0.
         24    2    1    2    0    0 -0.48493084326E+02 -0.35135233202E+01 -0.63538932592E+02  0.11166002500E+03  0.77889929742E+02 0.  0.
        -13    1    4    4    0    0 -0.64683376105E+02  0.59577496379E+01 -0.26523946712E+02  0.70163763256E+02  0.00000000000E+00 0.  1.
         14    1    4    4    0    0  0.16190291778E+02 -0.94712729581E+01 -0.37014985880E+02  0.41496261747E+02  0.00000000000E+00 0. -1.
        -11    1    3    3    0    0  0.90708915085E+02  0.11822456398E+01 -0.43289267559E+03  0.44229579872E+03  0.00000000000E+00 0. -1.
         11    1    3    3    0    0 -0.17647578277E+02  0.19204195803E+02 -0.13590756629E+03  0.13838751652E+03  0.00000000000E+00 0.  1.
          1    1    1    2  501    0 -0.24568252482E+02 -0.16872918122E+02 -0.74114901200E+01  0.30711961542E+02  0.00000000000E+00 0. -1.
<scales pt_clust_5="13000.00000" pt_clust_6="13000.00000" pt_clust_7="13000.00000" pt_clust_8="13000.00000" pt_clust_9="29.80427"></scales>
<clustering>
<clus scale="   29.804">  1  9  2 -1</clus>
<clus scale="   77.890">  5  6 -1 -1</clus>
<clus scale="   88.915">  7  8 -1 -1</clus>
<clus scale="  104.919">  1  5  2 -1</clus>
<clus scale="   29.804">  1  5  2 -1</clus>
</clustering>
</event>
<event>
 9    2  0.7820252E-005  0.1380229E+03  0.7546771E-02  0.1229337E+00
         21   -1    0    0  501  502  0.00000000000E+00  0.00000000000E+00  0.10230235305E+03  0.10230235305E+03  0.00000000000E+00 0. -1.
          2   -1    0    0  502    0 -0.00000000000E+00 -0.00000000000E+00 -0.31892675231E+03  0.31892675231E+03  0.00000000000E+00 0. -1.
         23    2    1    2    0    0 -0.45890515580E+02  0.12051374002E+02 -0.10891633213E+03  0.15092188408E+03  0.93077777448E+02 0.  0.
         24    2    1    2    0    0 -0.48010059807E+02  0.64358237321E+02 -0.42135272381E+02  0.13262810822E+03  0.96787836827E+02 0.  0.
        -11    1    4    4    0    0 -0.89887336660E+01  0.79835141453E+02 -0.41986280714E+02  0.90649296257E+02  0.00000000000E+00 0.  1.
         12    1    4    4    0    0 -0.39021326141E+02 -0.15476904132E+02 -0.14899166763E+00  0.41978811963E+02  0.00000000000E+00 0. -1.
        -11    1    3    3    0    0 -0.11962866584E+02 -0.27815012432E+02 -0.22307774948E+00  0.30279280988E+02  0.00000000000E+00 0.  1.
         11    1    3    3    0    0 -0.33927648996E+02  0.39866386433E+02 -0.10869325438E+03  0.12064260309E+03  0.00000000000E+00 0. -1.
          1    1    1    2  501    0  0.93900575387E+02 -0.76409611323E+02 -0.65572794756E+02  0.13767911306E+03  0.00000000000E+00 0. -1.
<scales pt_clust_5="13000.00000" pt_clust_6="13000.00000" pt_clust_7="13000.00000" pt_clust_8="13000.00000" pt_clust_9="98.39938"></scales>
<clustering>
<clus scale="   93.078">  7  8 -1 -1</clus>
<clus scale="   96.788">  5  6 -1 -1</clus>
<clus scale="  104.473">  2  7  1 -1</clus>
<clus scale="   98.399">  1  9  2 -1</clus>
<clus scale="   98.399">  1  5  2 -1</clus>
</clustering>
</event>
<event>
 9    2  0.7820252E-005  0.2122511E+03  0.7546771E-02  0.1178556E+00
         21   -1    0    0  501  502  0.00000000000E+00  0.00000000000E+00  0.25308354949E+03  0.25308354949E+03  0.00000000000E+00 0. -1.
          2   -1    0    0  502    0 -0.00000000000E+00 -0.00000000000E+00 -0.30762399412E+03  0.30762399412E+03  0.00000000000E+00 0. -1.
         24    2    1    2    0    0 -0.14739851036E+02 -0.25278974035E+02  0.63964164398E+02  0.10714916869E+03  0.80828462112E+02 0.  0.
         23    2    1    2    0    0 -0.18702870697E+03  0.13840519136E+02  0.19052418086E+02  0.20909298890E+03  0.90474229341E+02 0.  0.
        -13    1    3    3    0    0 -0.18771760080E+02 -0.53214471274E+02  0.33516769174E+02  0.65631796755E+02  0.00000000000E+00 0.  1.
         14    1    3    3    0    0  0.40319090445E+01  0.27935497239E+02  0.30447395224E+02  0.41517371936E+02  0.00000000000E+00 0. -1.
        -11    1    4    4    0    0 -0.15524259739E+03 -0.96506412775E+01  0.44868280371E+02  0.16188440785E+03  0.00000000000E+00 0. -1.
         11    1    4    4    0    0 -0.31786109571E+02  0.23491160413E+02 -0.25815862286E+02  0.47208581050E+02  0.00000000000E+00 0.  1.
          1    1    1    2  501    0  0.20176855800E+03  0.11438454899E+02 -0.13755702711E+03  0.24446538601E+03  0.00000000000E+00 0. -1.
<scales pt_clust_5="13000.00000" pt_clust_6="13000.00000" pt_clust_7="13000.00000" pt_clust_8="13000.00000" pt_clust_9="192.00257"></scales>
<clustering>
<clus scale="   80.828">  5  6 -1 -1</clus>
<clus scale="   85.962">  2  5  1 -1</clus>
<clus scale="   90.474">  7  8 -1 -1</clus>
<clus scale="  192.003">  1  9  2 -1</clus>
<clus scale="  192.003">  1  5  2 -1</clus>
</clustering>
</event>
<event>
 9    2  0.7820252E-005  0.1595745E+03  0.7546771E-02  0.1202049E+00
          2   -1    0    0  502    0 -0.00000000000E+00  0.00000000000E+00  0.71290489585E+03  0.71290489585E+03  0.00000000000E+00 0. -1.
         21   -1    0    0  501  502  0.00000000000E+00 -0.00000000000E+00 -0.14470711094E+03  0.14470711094E+03  0.00000000000E+00 0. -1.
         24    2    1    2    0    0 -0.75880162785E+02  0.45696606850E+02  0.42837764998E+02  0.12779698499E+03  0.81553763135E+02 0.  0.
         23    2    1    2    0    0 -0.11507571195E+03 -0.47811591895E+02 -0.16276438473E+02  0.15549919204E+03  0.91578973980E+02 0.  0.
        -13    1    3    3    0    0 -0.78935721471E+02  0.29220305131E+02  0.60341325306E+02  0.10356519635E+03  0.00000000000E+00 0.  1.
         14    1    3    3    0    0  0.30555586859E+01  0.16476301719E+02 -0.17503560308E+02  0.24231788640E+02  0.00000000000E+00 0. -1.
        -13    1    4    4    0    0 -0.31561653713E+02 -0.52724906094E+02 -0.33644090631E+02  0.70056966406E+02  0.00000000000E+00 0.  1.
         13    1    4    4    0    0 -0.83514058238E+02  0.49133141990E+01  0.17367652158E+02  0.85442225634E+02  0.00000000000E+00 0. -1.
          1    1    1    2  501    0  0.19095587474E+03  0.21149850445E+01  0.54163645839E+03  0.57431582976E+03  0.00000000000E+00 0. -1.
<scales pt_clust_5="13000.00000" pt_clust_6="13000.00000" pt_clust_7="13000.00000" pt_clust_8="13000.00000" pt_clust_9="130.68021"></scales>
<clustering>
<clus scale="   81.554">  5  6 -1 -1</clus>
<clus scale="   91.579">  7  8 -1 -1</clus>
<clus scale="  120.404">  1  5  2 -1</clus>
<clus scale="  130.680">  2  9  1 -1</clus>
<clus scale="  130.680">  2  5  1 -1</clus>
</clustering>
</event>
<event>
 9    2  0.7820252E-005  0.5324685E+03  0.7546771E-02  0.1005729E+00
         21   -1    0    0  501  502  0.00000000000E+00  0.00000000000E+00  0.12842495545E+04  0.12842495545E+04  0.00000000000E+00 0. -1.
          2   -1    0    0  502    0 -0.00000000000E+00 -0.00000000000E+00 -0.24431213318E+03  0.24431213318E+03  0.00000000000E+00 0. -1.
         23    2    1    2    0    0 -0.26132029776E+03 -0.46108365984E+03  0.45702230447E+03  0.70542525804E+03  0.88707206591E+02 0.  0.
         24    2    1    2    0    0  0.30154812185E+03  0.42490648284E+03  0.52393188287E+03  0.74309838958E+03  0.78827722083E+02 0.  0.
        -11    1    4    4    0    0  0.28552392503E+02  0.11370242153E+02  0.40318656975E+02  0.50696307800E+02  0.00000000000E+00 0.  1.
         12    1    4    4    0    0  0.27299572935E+03  0.41353624069E+03  0.48361322589E+03  0.69240208179E+03  0.00000000000E+00 0. -1.
        -13    1    3    3    0    0 -0.41477163349E+02 -0.90224562102E+02  0.13365183986E+03  0.16650417708E+03  0.00000000000E+00 0.  1.
         13    1    3    3    0    0 -0.21984313441E+03 -0.37085909774E+03  0.32337046462E+03  0.53892108096E+03  0.00000000000E+00 0. -1.
          1    1    1    2  501    0 -0.40227824096E+02  0.36177176999E+02  0.58983234022E+02  0.80038040098E+02  0.00000000000E+00 0. -1.
<scales pt_clust_5="13000.00000" pt_clust_6="13000.00000" pt_clust_7="13000.00000" pt_clust_8="13000.00000" pt_clust_9="54.10237"></scales>
<clustering>
<clus scale="   54.102">  1  9  2 -1</clus>
<clus scale="   78.828">  5  6 -1 -1</clus>
<clus scale="   88.707">  7  8 -1 -1</clus>
<clus scale="  530.912">  1  5  2 -1</clus>
<clus scale="   54.102">  1  5  2 -1</clus>
</clustering>
</event>
<event>
 9    2  0.7820252E-005  0.9291605E+02  0.7546771E-02  0.1303782E+00
         21   -1    0    0  501  502  0.00000000000E+00  0.00000000000E+00  0.51399557133E+02  0.51399557133E+02  0.00000000000E+00 0.  1.
          2   -1    0    0  502    0 -0.00000000000E+00 -0.00000000000E+00 -0.28365441717E+03  0.28365441717E+03  0.00000000000E+00 0. -1.
         23    2    1    2    0    0 -0.11999376977E+02 -0.20826209559E+02 -0.20254687642E+03  0.22345598595E+03  0.91266776298E+02 0.  0.
         24    2    1    2    0    0  0.85673316496E+01 -0.70188030051E+01 -0.25207219023E+02  0.83183545870E+02  0.78494812857E+02 0.  0.
        -13    1    4    4    0    0  0.23610071960E+02  0.26825789502E+02  0.40773409730E+01  0.35967807687E+02  0.00000000000E+00 0.  1.
         14    1    4    4    0    0 -0.15042740310E+02 -0.33844592508E+02 -0.29284559996E+02  0.47215738183E+02  0.00000000000E+00 0. -1.
        -13    1    3    3    0    0  0.32095628851E+02  0.16526953789E+02 -0.89168335193E+02  0.96199072729E+02  0.00000000000E+00 0.  1.
         13    1    3    3    0    0 -0.44095005828E+02 -0.37353163348E+02 -0.11337854123E+03  0.12725691322E+03  0.00000000000E+00 0. -1.
          1    1    1    2  501    0  0.34320453272E+01  0.27845012565E+02 -0.45007645943E+01  0.28414442486E+02  0.00000000000E+00 0. -1.
<scales pt_clust_5="13000.00000" pt_clust_6="13000.00000" pt_clust_7="13000.00000" pt_clust_8="13000.00000" pt_clust_9="28.05572"></scales>
<clustering>
<clus scale="   28.056">  1  9  2 -1</clus>
<clus scale="   78.495">  5  6 -1 -1</clus>
<clus scale="   80.406">  1  5  2 -1</clus>
<clus scale="   91.267">  7  8 -1 -1</clus>
<clus scale="   28.056">  1  5  2 -1</clus>
</clustering>
</event>
<event>
 9    2  0.8087981E-005  0.9952289E+02  0.7546771E-02  0.1289767E+00
         21   -1    0    0  501  502  0.00000000000E+00  0.00000000000E+00  0.25692685807E+03  0.25692685807E+03  0.00000000000E+00 0. -1.
          2   -1    0    0  502    0 -0.00000000000E+00 -0.00000000000E+00 -0.31447816414E+03  0.31447816414E+03  0.00000000000E+00 0. -1.
         24    2    1    2    0    0  0.68351674559E+01 -0.33896195443E+02 -0.27745902824E+03  0.29036657726E+03  0.78317081490E+02 0.  0.
         23    2    1    2    0    0 -0.32374744811E+02 -0.23080969592E+01  0.62415484899E+02  0.11743274333E+03  0.94028214058E+02 0.  0.
        -11    1    3    3    0    0  0.26238743797E+02 -0.14605701120E+02 -0.33951148881E+02  0.45326357581E+02  0.00000000000E+00 0.  1.
         12    1    3    3    0    0 -0.19403576341E+02 -0.19290494324E+02 -0.24350787936E+03  0.24504021967E+03  0.00000000000E+00 0. -1.
        -13    1    4    4    0    0  0.38240204497E+01  0.31955214805E+02  0.59327067297E+02  0.67494146411E+02  0.00000000000E+00 0.  1.
         13    1    4    4    0    0 -0.36198765261E+02 -0.34263311764E+02  0.30884176016E+01  0.49938596924E+02  0.00000000000E+00 0. -1.
          1    1    1    2  501    0  0.25539577355E+02  0.36204292403E+02  0.15749223728E+03  0.16360570162E+03  0.00000000000E+00 0. -1.
<scales pt_clust_5="13000.00000" pt_clust_6="13000.00000" pt_clust_7="13000.00000" pt_clust_8="13000.00000" pt_clust_9="44.30599"></scales>
<clustering>
<clus scale="   44.306">  1  9  2 -1</clus>
<clus scale="   78.317">  5  6 -1 -1</clus>
<clus scale="   84.836">  2  5  1 -1</clus>
<clus scale="   94.028">  7  8 -1 -1</clus>
<clus scale="   44.306">  1  5  2 -1</clus>
</clustering>
</event>
<event>
 9    2  0.7820252E-005  0.1387656E+03  0.7546771E-02  0.1217821E+00
         -3   -1    0    0    0  501 -0.00000000000E+00  0.00000000000E+00  0.92488894051E+02  0.92488894051E+02  0.00000000000E+00 0.  1.
         21   -1    0    0  501  502  0.00000000000E+00 -0.00000000000E+00 -0.34519426899E+03  0.34519426899E+03  0.00000000000E+00 0.  1.
         24    2    1    2    0    0  0.31306779853E+02  0.10848216084E+03 -0.32921814034E+02  0.14178722507E+03  0.79191398946E+02 0.  0.
         23    2    1    2    0    0 -0.72687112064E+02 -0.62225394970E+02 -0.17394303669E+03  0.21873782795E+03  0.91840303370E+02 0.  0.
        -13    1    3    3    0    0  0.11754403285E+02  0.10404062672E+03 -0.17420449825E+01  0.10471701259E+03  0.00000000000E+00 0.  1.
         14    1    3    3    0    0  0.19552376568E+02  0.44415341188E+01 -0.31179769051E+02  0.37070212474E+02  0.00000000000E+00 0. -1.
        -13    1    4    4    0    0 -0.94636753036E+02 -0.45676762919E+02 -0.14039491533E+03  0.17536594295E+03  0.00000000000E+00 0.  1.
         13    1    4    4    0    0  0.21949640972E+02 -0.16548632051E+02 -0.33548121361E+02  0.43371885000E+02  0.00000000000E+00 0. -1.
         -4    1    1    2    0  502  0.41380332211E+02 -0.46256765871E+02 -0.45840524214E+02  0.77158110027E+02  0.00000000000E+00 0.  1.
<scales pt_clust_5="13000.00000" pt_clust_6="13000.00000" pt_clust_7="13000.00000" pt_clust_8="13000.00000" pt_clust_9="62.06465"></scales>
<clustering>
<clus scale="   62.065">  2  9  1 -1</clus>
<clus scale="   79.191">  5  6 -1 -1</clus>
<clus scale="   91.840">  7  8 -1 -1</clus>
<clus scale="  130.738">  1  5  2 -1</clus>
<clus scale="   62.065">  2  5  1 -1</clus>
</clustering>
</event>
<event>
 9    2  0.7820252E-005  0.1085595E+03  0.7546771E-02  0.1267905E+00
          2   -1    0    0  502    0 -0.00000000000E+00  0.00000000000E+00  0.99370946737E+02  0.99370946737E+02  0.00000000000E+00 0. -1.
         21   -1    0    0  501  502  0.00000000000E+00 -0.00000000000E+00 -0.20940205985E+03  0.20940205985E+03  0.00000000000E+00 0.  1.
         23    2    1    2    0    0  0.58077767511E+02 -0.11433997656E+02  0.23049883055E+02  0.11111950815E+03  0.91172828194E+02 0.  0.
         24    2    1    2    0    0 -0.51623936685E+02  0.32747523139E+02 -0.51179353539E+02  0.11277831145E+03  0.79763338661E+02 0.  0.
        -13    1    4    4    0    0 -0.71593321331E+02  0.21505277883E+02 -0.27040190198E+02  0.79493726305E+02  0.00000000000E+00 0.  1.
         14    1    4    4    0    0  0.19969384645E+02  0.11242245255E+02 -0.24139163341E+02  0.33284585145E+02  0.00000000000E+00 0. -1.
        -13    1    3    3    0    0 -0.14987772233E+02  0.22828696410E+02  0.44255636856E+00  0.27312607939E+02  0.00000000000E+00 0.  1.
         13    1    3    3    0    0  0.73065539745E+02 -0.34262694066E+02  0.22607326686E+02  0.83806900210E+02  0.00000000000E+00 0. -1.
          1    1    1    2  501    0 -0.64538308259E+01 -0.21313525483E+02 -0.81901642627E+02  0.84875186985E+02  0.00000000000E+00 0. -1.
<scales pt_clust_5="13000.00000" pt_clust_6="13000.00000" pt_clust_7="13000.00000" pt_clust_8="13000.00000" pt_clust_9="22.26922"></scales>
<clustering>
<clus scale="   22.269">  2  9  1 -1</clus>
<clus scale="   79.763">  5  6 -1 -1</clus>
<clus scale="   91.173">  7  8 -1 -1</clus>
<clus scale="   99.171">  2  5  1 -1</clus>
<clus scale="   22.269">  2  5  1 -1</clus>
</clustering>
</event>
<event>
 9    2  0.7820252E-005  0.1097914E+03  0.7546771E-02  0.1268288E+00
          2   -1    0    0  502    0 -0.00000000000E+00  0.00000000000E+00  0.20089841738E+03  0.20089841738E+03  0.00000000000E+00 0. -1.
         21   -1    0    0  501  502  0.00000000000E+00 -0.00000000000E+00 -0.29036202881E+03  0.29036202881E+03  0.00000000000E+00 0. -1.
         24    2    1    2    0    0 -0.39631288614E+02  0.50703327183E+02  0.13915208570E+03  0.17007614170E+03  0.73628286657E+02 0.  0.
         23    2    1    2    0    0 -0.18827608861E+02 -0.61252407321E+02 -0.32904561661E+02  0.11665661850E+03  0.91759033365E+02 0.  0.
        -13    1    3    3    0    0  0.12635770282E+02  0.22543962614E+02  0.96016839083E+01  0.27569644082E+02  0.00000000000E+00 0.  1.
         14    1    3    3    0    0 -0.52267058896E+02  0.28159364569E+02  0.12955040180E+03  0.14250649762E+03  0.00000000000E+00 0. -1.
        -11    1    4    4    0    0 -0.48591623869E+02 -0.13883964425E+02  0.22470982485E+01  0.50586162425E+02  0.00000000000E+00 0. -1.
         11    1    4    4    0    0  0.29764015008E+02 -0.47368442896E+02 -0.35151659909E+02  0.66070456077E+02  0.00000000000E+00 0.  1.
          1    1    1    2  501    0  0.58458897476E+02  0.10549080138E+02 -0.19571113547E+03  0.20452768598E+03  0.00000000000E+00 0. -1.
<scales pt_clust_5="13000.00000" pt_clust_6="13000.00000" pt_clust_7="13000.00000" pt_clust_8="13000.00000" pt_clust_9="59.40308"></scales>
<clustering>
<clus scale="   59.403">  2  9  1 -1</clus>
<clus scale="   73.628">  5  6 -1 -1</clus>
<clus scale="   91.759">  7  8 -1 -1</clus>
<clus scale="   95.161">  1  5  2 -1</clus>
<clus scale="   59.403">  2  5  1 -1</clus>
</clustering>
</event>
<event>
 9    2  0.7820252E-005  0.1194368E+03  0.7546771E-02  0.1245238E+00
          2   -1    0    0  502    0 -0.00000000000E+00  0.00000000000E+00  0.12114862820E+04  0.12114862820E+04  0.00000000000E+00 0. -1.
         21   -1    0    0  501  502  0.00000000000E+00 -0.00000000000E+00 -0.38851875040E+02  0.38851875040E+02  0.00000000000E+00 0.  1.
         24    2    1    2    0    0  0.59783406701E+01 -0.76640142685E+02  0.97208893233E+03  0.97889092565E+03  0.85796852670E+02 0.  0.
         23    2    1    2    0    0  0.81864608143E+01  0.99763845392E+02  0.10054598666E+03  0.16783620485E+03  0.89664113423E+02 0.  0.
        -11    1    3    3    0    0  0.18008444767E+02 -0.66037633347E+02  0.35193218255E+03  0.35852689469E+03  0.00000000000E+00 0.  1.
         12    1    3    3    0    0 -0.12030104097E+02 -0.10602509338E+02  0.62015674978E+03  0.62036403096E+03  0.00000000000E+00 0. -1.
        -13    1    4    4    0    0  0.37728458147E+02  0.89032395552E+02  0.51425936302E+02  0.10952091552E+03  0.00000000000E+00 0.  1.
         13    1    4    4    0    0 -0.29541997332E+02  0.10731449840E+02  0.49120050359E+02  0.58315289327E+02  0.00000000000E+00 0. -1.
          1    1    1    2  501    0 -0.14164801484E+02 -0.23123702707E+02  0.99999487994E+02  0.10361102657E+03  0.00000000000E+00 0. -1.
<scales pt_clust_5="13000.00000" pt_clust_6="13000.00000" pt_clust_7="13000.00000" pt_clust_8="13000.00000" pt_clust_9="27.11730"></scales>
<clustering>
<clus scale="   27.117">  2  9  1 -1</clus>
<clus scale="   85.797">  5  6 -1 -1</clus>
<clus scale="   89.664">  7  8 -1 -1</clus>
<clus scale="  116.562">  1  5  2 -1</clus>
<clus scale="   27.117">  2  5  1 -1</clus>
</clustering>
</event>
<event>
 9    2  0.7820252E-005  0.1059720E+03  0.7546771E-02  0.1274162E+00
         21   -1    0    0  501  502  0.00000000000E+00  0.00000000000E+00  0.17309281285E+03  0.17309281285E+03  0.00000000000E+00 0. -1.
          2   -1    0    0  502    0 -0.00000000000E+00 -0.00000000000E+00 -0.24840490381E+03  0.24840490381E+03  0.00000000000E+00 0. -1.
         24    2    1    2    0    0  0.18572344445E+02 -0.51696966638E+02 -0.21035228958E+03  0.23137241416E+03  0.79168175223E+02 0.  0.
         23    2    1    2    0    0 -0.93494500815E+01  0.12887532872E+02  0.93870523075E+02  0.13280012379E+03  0.92578059262E+02 0.  0.
        -11    1    3    3    0    0 -0.23275390813E+02 -0.38491503975E+02 -0.61551148439E+02  0.76235710595E+02  0.00000000000E+00 0.  1.
         12    1    3    3    0    0  0.41847735258E+02 -0.13205462664E+02 -0.14880114114E+03  0.15513670357E+03  0.00000000000E+00 0. -1.
        -11    1    4    4    0    0 -0.82651171199E+01  0.48471850346E+02  0.81360899830E+02  0.95065390432E+02  0.00000000000E+00 0.  1.
         11    1    4    4    0    0 -0.10843329616E+01 -0.35584317474E+02  0.12509623245E+02  0.37734733360E+02  0.00000000000E+00 0. -1.
          1    1    1    2  501    0 -0.92228943636E+01  0.38809433766E+02  0.41169675536E+02  0.57325178704E+02  0.00000000000E+00 0. -1.
<scales pt_clust_5="13000.00000" pt_clust_6="13000.00000" pt_clust_7="13000.00000" pt_clust_8="13000.00000" pt_clust_9="39.89027"></scales>
<clustering>
<clus scale="   39.890">  1  9  2 -1</clus>
<clus scale="   79.168">  5  6 -1 -1</clus>
<clus scale="   92.578">  7  8 -1 -1</clus>
<clus scale="   94.483">  2  5  1 -1</clus>
<clus scale="   39.890">  1  5  2 -1</clus>
</clustering>
</event>
<event>
 9    2  0.7820252E-005  0.1530567E+03  0.7546771E-02  0.1224015E+00
         21   -1    0    0  501  502  0.00000000000E+00  0.00000000000E+00  0.11329210749E+04  0.11329210749E+04  0.00000000000E+00 0. -1.
         -1   -1    0    0    0  501 -0.00000000000E+00 -0.00000000000E+00 -0.64015190476E+02  0.64015190476E+02  0.00000000000E+00 0.  1.
         24    2    1    2    0    0 -0.33152603660E+01 -0.22496362187E+02 -0.14561086117E+01  0.85576922462E+02  0.82487648426E+02 0.  0.
         23    2    1    2    0    0 -0.73869394189E+02  0.11596044072E+03  0.43485463285E+03  0.46439519419E+03  0.87526187342E+02 0.  0.
        -13    1    3    3    0    0  0.84416473513E+01 -0.34338708088E+02 -0.33967744758E+02  0.49032805009E+02  0.00000000000E+00 0.  1.
         14    1    3    3    0    0 -0.11756907717E+02  0.11842345900E+02  0.32511636146E+02  0.36544117453E+02  0.00000000000E+00 0. -1.
        -13    1    4    4    0    0 -0.12090315471E+01  0.45862765429E+02  0.56392125154E+02  0.72697501948E+02  0.00000000000E+00 0.  1.
         13    1    4    4    0    0 -0.72660362642E+02  0.70097675294E+02  0.37846250769E+03  0.39169769225E+03  0.00000000000E+00 0. -1.
         -2    1    1    2    0  502  0.77184654555E+02 -0.93464078536E+02  0.63550736016E+03  0.64696414869E+03  0.00000000000E+00 0.  1.
<scales pt_clust_5="13000.00000" pt_clust_6="13000.00000" pt_clust_7="13000.00000" pt_clust_8="13000.00000" pt_clust_9="125.56083"></scales>
<clustering>
<clus scale="   82.488">  5  6 -1 -1</clus>
<clus scale="   85.565">  2  5  1 -1</clus>
<clus scale="   87.526">  7  8 -1 -1</clus>
<clus scale="  125.561">  1  9  2 -1</clus>
<clus scale="  125.561">  1  5  2 -1</clus>
</clustering>
</event>
<event>
 9    2  0.7820252E-005  0.1092107E+03  0.7546771E-02  0.1266574E+00
         21   -1    0    0  501  502  0.00000000000E+00  0.00000000000E+00  0.25094798240E+03  0.25094798240E+03  0.00000000000E+00 0. -1.
          4   -1    0    0  502    0 -0.00000000000E+00 -0.00000000000E+00 -0.22711416314E+03  0.22711416314E+03  0.00000000000E+00 0. -1.
         23    2    1    2    0    0  0.61528306013E+02  0.26935511769E+02 -0.15311864193E+03  0.19010334489E+03  0.90458327404E+02 0.  0.
         24    2    1    2    0    0 -0.24542514931E+02  0.57178075118E+02  0.16776816150E+03  0.19561490209E+03  0.79040284628E+02 0.  0.
        -11    1    4    4    0    0 -0.45303907982E+02  0.23372805237E+02  0.50247753890E+02  0.71579109202E+02  0.00000000000E+00 0.  1.
         12    1    4    4    0    0  0.20761393051E+02  0.33805269882E+02  0.11752040761E+03  0.12403579289E+03  0.00000000000E+00 0. -1.
        -11    1    3    3    0    0  0.34024144191E+02 -0.11986431086E+02 -0.74481398403E+01  0.36834653592E+02  0.00000000000E+00 0.  1.
         11    1    3    3    0    0  0.27504161821E+02  0.38921942855E+02 -0.14567050209E+03  0.15326869130E+03  0.00000000000E+00 0. -1.
          3    1    1    2  501    0 -0.36985791081E+02 -0.84113586888E+02  0.91842996947E+01  0.92343898563E+02  0.00000000000E+00 0. -1.
<scales pt_clust_5="13000.00000" pt_clust_6="13000.00000" pt_clust_7="13000.00000" pt_clust_8="13000.00000" pt_clust_9="91.88604"></scales>
<clustering>
<clus scale="   79.040">  5  6 -1 -1</clus>
<clus scale="   90.458">  7  8 -1 -1</clus>
<clus scale="   91.886">  1  9  2 -1</clus>
<clus scale="   99.958">  1  5  2 -1</clus>
<clus scale="   91.886">  1  5  2 -1</clus>
</clustering>
</event>
<event>
 9    2  0.7820252E-005  0.1620006E+03  0.7546771E-02  0.1189009E+00
          2   -1    0    0  502    0 -0.00000000000E+00  0.00000000000E+00  0.95682763757E+02  0.95682763757E+02  0.00000000000E+00 0. -1.
         21   -1    0    0  501  502  0.00000000000E+00 -0.00000000000E+00 -0.38348680896E+03  0.38348680896E+03  0.00000000000E+00 0. -1.
         23    2    1    2    0    0  0.13017047648E+03 -0.40108107136E+02 -0.97683017706E+02  0.19256318956E+03  0.94792387987E+02 0.  0.
         24    2    1    2    0    0 -0.13149250637E+03 -0.19832744752E+02 -0.13422132358E+03  0.20463425139E+03  0.78588778746E+02 0.  0.
        -13    1    4    4    0    0 -0.51957721097E+02  0.19294647603E+02 -0.17601388033E+02  0.58152360816E+02  0.00000000000E+00 0.  1.
         14    1    4    4    0    0 -0.79534785272E+02 -0.39127392355E+02 -0.11661993554E+03  0.14648189058E+03  0.00000000000E+00 0. -1.
        -11    1    3    3    0    0  0.25464081965E+02  0.25087681645E+02 -0.47387781528E+02  0.59358344643E+02  0.00000000000E+00 0.  1.
         11    1    3    3    0    0  0.10470639451E+03 -0.65195788781E+02 -0.50295236178E+02  0.13320484491E+03  0.00000000000E+00 0. -1.
          1    1    1    2  501    0  0.13220298927E+01  0.59940851887E+02 -0.55899703920E+02  0.81972131767E+02  0.00000000000E+00 0. -1.
<scales pt_clust_5="13000.00000" pt_clust_6="13000.00000" pt_clust_7="13000.00000" pt_clust_8="13000.00000" pt_clust_9="59.95543"></scales>
<clustering>
<clus scale="   59.955">  2  9  1 -1</clus>
<clus scale="   78.589">  5  6 -1 -1</clus>
<clus scale="   94.792">  7  8 -1 -1</clus>
<clus scale="  153.084">  2  5  1 -1</clus>
<clus scale="   59.955">  2  5  1 -1</clus>
</clustering>
</event>
<event>
 9    2  0.7820252E-005  0.1080890E+03  0.7546771E-02  0.1267446E+00
         21   -1    0    0  501  502  0.00000000000E+00  0.00000000000E+00  0.13933690588E+03  0.13933690588E+03  0.00000000000E+00 0. -1.
         -1   -1    0    0    0  501 -0.00000000000E+00 -0.00000000000E+00 -0.12326706458E+03  0.12326706458E+03  0.00000000000E+00 0.  1.
         24    2    1    2    0    0  0.50092507146E+02  0.62388849473E+01  0.13086502263E+02  0.93237938234E+02  0.77290837925E+02 0.  0.
         23    2    1    2    0    0 -0.85033500347E+02 -0.19909254088E+02  0.26153397834E+02  0.12526837217E+03  0.85913271779E+02 0.  0.
        -11    1    3    3    0    0 -0.12938067906E+02  0.15508127634E+02  0.20886047212E+02  0.29053787911E+02  0.00000000000E+00 0.  1.
         12    1    3    3    0    0  0.63030575051E+02 -0.92692426862E+01 -0.77995449495E+01  0.64184150323E+02  0.00000000000E+00 0. -1.
        -11    1    4    4    0    0  0.35678311632E+01 -0.20481292422E+02 -0.16868777481E+02  0.26772530926E+02  0.00000000000E+00 0.  1.
         11    1    4    4    0    0 -0.88601331510E+02  0.57203833450E+00  0.43022175314E+02  0.98495841242E+02  0.00000000000E+00 0. -1.
         -2    1    1    2    0  502  0.34940993201E+02  0.13670369141E+02 -0.23170058792E+02  0.44097660060E+02  0.00000000000E+00 0.  1.
<scales pt_clust_5="13000.00000" pt_clust_6="13000.00000" pt_clust_7="13000.00000" pt_clust_8="13000.00000" pt_clust_9="37.52004"></scales>
<clustering>
<clus scale="   37.520">  1  9  2 -1</clus>
<clus scale="   77.291">  5  6 -1 -1</clus>
<clus scale="   85.913">  7  8 -1 -1</clus>
<clus scale="  101.371">  2  5  1 -1</clus>
<clus scale="   37.520">  1  5  2 -1</clus>
</clustering>
</event>
<event>
 9    2  0.7820252E-005  0.3151899E+03  0.7546771E-02  0.1091174E+00
          2   -1    0    0  502    0 -0.00000000000E+00  0.00000000000E+00  0.72846394086E+03  0.72846394086E+03  0.00000000000E+00 0. -1.
         21   -1    0    0  501  502  0.00000000000E+00 -0.00000000000E+00 -0.34256835669E+03  0.34256835669E+03  0.00000000000E+00 0. -1.
         24    2    1    2    0    0 -0.20122982419E+03 -0.41873948582E+02  0.34486664224E+03  0.40960875044E+03  0.81237046906E+02 0.  0.
         23    2    1    2    0    0  0.97522506421E+01 -0.25529548690E+03  0.12408408868E+03  0.29828240106E+03  0.91129784874E+02 0.  0.
        -11    1    3    3    0    0 -0.61786507087E+02 -0.43715503319E+02  0.16889289566E+03  0.18507681619E+03  0.00000000000E+00 0.  1.
         12    1    3    3    0    0 -0.13944331710E+03  0.18415547372E+01  0.17597374658E+03  0.22453193424E+03  0.00000000000E+00 0. -1.
        -13    1    4    4    0    0 -0.33683550991E+02 -0.70046869564E+02  0.15662961501E+02  0.79287287165E+02  0.00000000000E+00 0.  1.
         13    1    4    4    0    0  0.43435801633E+02 -0.18524861734E+03  0.10842112718E+03  0.21899511389E+03  0.00000000000E+00 0. -1.
          1    1    1    2  501    0  0.19147757355E+03  0.29716943549E+03 -0.83055146756E+02  0.36314114606E+03  0.00000000000E+00 0. -1.
<scales pt_clust_5="13000.00000" pt_clust_6="13000.00000" pt_clust_7="13000.00000" pt_clust_8="13000.00000" pt_clust_9="301.72837"></scales>
<clustering>
<clus scale="   81.237">  5  6 -1 -1</clus>
<clus scale="   91.130">  7  8 -1 -1</clus>
<clus scale="  221.012">  1  5  2 -1</clus>
<clus scale="  301.728">  2  9  1 -1</clus>
<clus scale="  301.728">  2  5  1 -1</clus>
</clustering>
</event>
<event>
 9    2  0.7820252E-005  0.2873748E+03  0.7546771E-02  0.1092205E+00
          2   -1    0    0  502    0 -0.00000000000E+00  0.00000000000E+00  0.18925745721E+03  0.18925745721E+03  0.00000000000E+00 0. -1.
         21   -1    0    0  501  502  0.00000000000E+00 -0.00000000000E+00 -0.10682806804E+04  0.10682806804E+04  0.00000000000E+00 0. -1.
         24    2    1    2    0    0  0.10097337190E+03  0.22765867327E+03 -0.21640152662E+03  0.33970620598E+03  0.80911014774E+02 0.  0.
         23    2    1    2    0    0  0.93244195410E+02 -0.35664708309E+03 -0.52139193606E+03  0.64524374667E+03  0.92727125345E+02 0.  0.
        -11    1    3    3    0    0  0.12060390340E+02  0.18330660827E+02 -0.59470189991E+02  0.63389034060E+02  0.00000000000E+00 0.  1.
         12    1    3    3    0    0  0.88912981563E+02  0.20932801244E+03 -0.15693133663E+03  0.27631717192E+03  0.00000000000E+00 0. -1.
        -13    1    4    4    0    0 -0.16990309578E+02 -0.51978080482E+02 -0.96459650126E+02  0.11088216977E+03  0.00000000000E+00 0.  1.
         13    1    4    4    0    0  0.11023450499E+03 -0.30466900260E+03 -0.42493228593E+03  0.53436157690E+03  0.00000000000E+00 0. -1.
          1    1    1    2  501    0 -0.19421756731E+03  0.12898840982E+03 -0.14122976050E+03  0.27258818495E+03  0.00000000000E+00 0. -1.
<scales pt_clust_5="13000.00000" pt_clust_6="13000.00000" pt_clust_7="13000.00000" pt_clust_8="13000.00000" pt_clust_9="233.14915"></scales>
<clustering>
<clus scale="   80.911">  5  6 -1 -1</clus>
<clus scale="   92.727">  7  8 -1 -1</clus>
<clus scale="  233.149">  2  9  1 -1</clus>
<clus scale="  283.783">  1  5  2 -1</clus>
<clus scale="  233.149">  2  5  1 -1</clus>
</clustering>
</event>
<event>
 9    2  0.7820252E-005  0.1121612E+03  0.7546771E-02  0.1263235E+00
         21   -1    0    0  501  502  0.00000000000E+00  0.00000000000E+00  0.30717289906E+02  0.30717289906E+02  0.00000000000E+00 0. -1.
          2   -1    0    0  502    0 -0.00000000000E+00 -0.00000000000E+00 -0.94232506095E+03  0.94232506095E+03  0.00000000000E+00 0. -1.
         24    2    1    2    0    0 -0.11717348681E+02 -0.82124527213E+02 -0.41232947074E+03  0.42696009446E+03  0.73468330490E+02 0.  0.
         23    2    1    2    0    0 -0.44878224304E+02  0.22307547654E+02 -0.12345331521E+03  0.16134137042E+03  0.90987004975E+02 0.  0.
        -13    1    3    3    0    0 -0.27191717077E+02 -0.11009354684E+02 -0.55416259320E+02  0.62702130467E+02  0.00000000000E+00 0.  1.
         14    1    3    3    0    0  0.15474368395E+02 -0.71115172529E+02 -0.35691321142E+03  0.36425796399E+03  0.00000000000E+00 0. -1.
        -13    1    4    4    0    0  0.16760068030E+02  0.11985937483E+02 -0.86103537256E+02  0.88534635628E+02  0.00000000000E+00 0.  1.
         13    1    4    4    0    0 -0.61638292334E+02  0.10321610171E+02 -0.37349777957E+02  0.72806734797E+02  0.00000000000E+00 0. -1.
          1    1    1    2  501    0  0.56595572986E+02  0.59816979559E+02 -0.37582498508E+03  0.38474088597E+03  0.00000000000E+00 0. -1.
<scales pt_clust_5="13000.00000" pt_clust_6="13000.00000" pt_clust_7="13000.00000" pt_clust_8="13000.00000" pt_clust_9="82.34766"></scales>
<clustering>
<clus scale="   73.468">  5  6 -1 -1</clus>
<clus scale="   82.348">  1  9  2 -1</clus>
<clus scale="   90.987">  7  8 -1 -1</clus>
<clus scale="   98.484">  2  5  1 -1</clus>
<clus scale="   82.348">  1  5  2 -1</clus>
</clustering>
</event>
<event>
 9    2  0.7820252E-005  0.1031677E+03  0.7546771E-02  0.1277872E+00
         21   -1    0    0  501  502  0.00000000000E+00  0.00000000000E+00  0.10831116250E+03  0.10831116250E+03  0.00000000000E+00 0.  1.
          2   -1    0    0  502    0 -0.00000000000E+00 -0.00000000000E+00 -0.43830690078E+03  0.43830690078E+03  0.00000000000E+00 0. -1.
         24    2    1    2    0    0 -0.40315825581E+02  0.76351119661E+00 -0.38333401518E+03  0.39484870702E+03  0.85642194607E+02 0.  0.
         23    2    1    2    0    0  0.61917943254E+02 -0.52782657824E+01  0.24604089537E+02  0.11553831956E+03  0.94244629972E+02 0.  0.
        -13    1    3    3    0    0 -0.53676934419E+01  0.40652709179E+02 -0.14507309490E+03  0.15075694929E+03  0.00000000000E+00 0.  1.
         14    1    3    3    0    0 -0.34948132139E+02 -0.39889197982E+02 -0.23826092029E+03  0.24409175773E+03  0.00000000000E+00 0. -1.
        -11    1    4    4    0    0  0.35357359239E+02 -0.62682022221E+01 -0.35082189812E+02  0.50201526405E+02  0.00000000000E+00 0. -1.
         11    1    4    4    0    0  0.26560584015E+02  0.98993643967E+00  0.59686279349E+02  0.65336793156E+02  0.00000000000E+00 0.  1.
          1    1    1    2  501    0 -0.21602117673E+02  0.45147545858E+01  0.28734187365E+02  0.36231036701E+02  0.00000000000E+00 0. -1.
<scales pt_clust_5="13000.00000" pt_clust_6="13000.00000" pt_clust_7="13000.00000" pt_clust_8="13000.00000" pt_clust_9="22.06886"></scales>
<clustering>
<clus scale="   22.069">  1  9  2 -1</clus>
<clus scale="   85.642">  5  6 -1 -1</clus>
<clus scale="   94.245">  7  8 -1 -1</clus>
<clus scale="   95.374">  2  5  1 -1</clus>
<clus scale="   22.069">  1  5  2 -1</clus>
</clustering>
</event>
<event>
 9    2  0.7820252E-005  0.1348969E+03  0.7546771E-02  0.1243674E+00
         21   -1    0    0  501  502  0.00000000000E+00  0.00000000000E+00  0.16813357231E+03  0.16813357231E+03  0.00000000000E+00 0.  1.
          2   -1    0    0  502    0 -0.00000000000E+00 -0.00000000000E+00 -0.16961921855E+03  0.16961921855E+03  0.00000000000E+00 0. -1.
         24    2    1    2    0    0  0.22510914052E+02 -0.52275294539E+01  0.28528535620E+02  0.88234139090E+02  0.80232896250E+02 0.  0.
         23    2    1    2    0    0 -0.11267988758E+03  0.47792660552E+02 -0.29760285960E+02  0.14980757597E+03  0.81090934943E+02 0.  0.
        -11    1    3    3    0    0  0.50516874598E+02 -0.12015665943E+02  0.28876125530E+02  0.59415161977E+02  0.00000000000E+00 0.  1.
         12    1    3    3    0    0 -0.28005960546E+02  0.67881364890E+01 -0.34758990964E+00  0.28818977113E+02  0.00000000000E+00 0. -1.
        -11    1    4    4    0    0 -0.87779509151E+02 -0.19632827797E+01 -0.24698182137E+01  0.87836192473E+02  0.00000000000E+00 0.  1.
         11    1    4    4    0    0 -0.24900378429E+02  0.49755943332E+02 -0.27290467747E+02  0.61971383498E+02  0.00000000000E+00 0. -1.
          1    1    1    2  501    0  0.90168973528E+02 -0.42565131098E+02 -0.25389589864E+00  0.99711075793E+02  0.00000000000E+00 0. -1.
<scales pt_clust_5="13000.00000" pt_clust_6="13000.00000" pt_clust_7="13000.00000" pt_clust_8="13000.00000" pt_clust_9="107.80279"></scales>
<clustering>
<clus scale="   80.233">  5  6 -1 -1</clus>
<clus scale="   81.091">  7  8 -1 -1</clus>
<clus scale="   83.495">  2  5  1 -1</clus>
<clus scale="  107.803">  1  9  2 -1</clus>
<clus scale="  107.803">  1  5  2 -1</clus>
</clustering>
</event>
<event>
 9    2  0.7820252E-005  0.1058770E+03  0.7546771E-02  0.1272684E+00
         21   -1    0    0  501  502  0.00000000000E+00  0.00000000000E+00  0.14512146750E+03  0.14512146750E+03  0.00000000000E+00 0. -1.
          4   -1    0    0  502    0 -0.00000000000E+00 -0.00000000000E+00 -0.18971653822E+03  0.18971653822E+03  0.00000000000E+00 0. -1.
         23    2    1    2    0    0 -0.30162708579E+02  0.28449438841E+02 -0.42270290068E+02  0.10887002457E+03  0.91360523579E+02 0.  0.
         24    2    1    2    0    0  0.28911605069E+02  0.22304922607E+02  0.77129945321E+02  0.13167787591E+03  0.10028282035E+03 0.  0.
        -13    1    4    4    0    0  0.42028671898E+02  0.25113560006E+02 -0.43016392174E+01  0.49148797113E+02  0.00000000000E+00 0.  1.
         14    1    4    4    0    0 -0.13117066829E+02 -0.28086373995E+01  0.81431584539E+02  0.82529078795E+02  0.00000000000E+00 0. -1.
        -11    1    3    3    0    0 -0.25316407858E+02  0.60650495133E+02 -0.17662576939E+02  0.68054167330E+02  0.00000000000E+00 0. -1.
         11    1    3    3    0    0 -0.48463007207E+01 -0.32201056292E+02 -0.24607713128E+02  0.40815857242E+02  0.00000000000E+00 0.  1.
          3    1    1    2  501    0  0.12511035105E+01 -0.50754361448E+02 -0.79454725981E+02  0.94290105243E+02  0.00000000000E+00 0. -1.
<scales pt_clust_5="13000.00000" pt_clust_6="13000.00000" pt_clust_7="13000.00000" pt_clust_8="13000.00000" pt_clust_9="50.76980"></scales>
<clustering>
<clus scale="   50.770">  1  9  2 -1</clus>
<clus scale="   91.361">  7  8 -1 -1</clus>
<clus scale="   97.468">  2  7  1 -1</clus>
<clus scale="  100.283">  5  6 -1 -1</clus>
<clus scale="   50.770">  1  5  2 -1</clus>
</clustering>
</event>
<event>
 9    2  0.7820252E-005  0.9857998E+02  0.7546771E-02  0.1287986E+00
         21   -1    0    0  501  502  0.00000000000E+00  0.00000000000E+00  0.13101297866E+03  0.13101297866E+03  0.00000000000E+00 0. -1.
          2   -1    0    0  502    0 -0.00000000000E+00 -0.00000000000E+00 -0.33995534702E+03  0.33995534702E+03  0.00000000000E+00 0. -1.
         24    2    1    2    0    0 -0.29296469393E+01  0.44059708197E+02 -0.27925825316E+03  0.29442964649E+03  0.82181531114E+02 0.  0.
         23    2    1    2    0    0  0.16243357037E+02  0.17826030553E+02  0.22001821076E+02  0.96906096103E+02  0.91241971253E+02 0.  0.
        -13    1    3    3    0    0  0.25145335480E+02  0.18033496419E+02 -0.33095744940E+02  0.45308092243E+02  0.00000000000E+00 0.  1.
         14    1    3    3    0    0 -0.28074982420E+02  0.26026211778E+02 -0.24616250822E+03  0.24912155424E+03  0.00000000000E+00 0. -1.
        -11    1    4    4    0    0 -0.32524579065E+02 -0.13782374659E+02  0.17659503186E+01  0.35368356975E+02  0.00000000000E+00 0.  1.
         11    1    4    4    0    0  0.48767936102E+02  0.31608405211E+02  0.20235870757E+02  0.61537739128E+02  0.00000000000E+00 0. -1.
          1    1    1    2  501    0 -0.13313710097E+02 -0.61885738749E+02  0.48314063715E+02  0.79632583091E+02  0.00000000000E+00 0. -1.
<scales pt_clust_5="13000.00000" pt_clust_6="13000.00000" pt_clust_7="13000.00000" pt_clust_8="13000.00000" pt_clust_9="63.30166"></scales>
<clustering>
<clus scale="   63.302">  1  9  2 -1</clus>
<clus scale="   82.182">  5  6 -1 -1</clus>
<clus scale="   90.259">  2  5  1 -1</clus>
<clus scale="   91.242">  7  8 -1 -1</clus>
<clus scale="   63.302">  1  5  2 -1</clus>
</clustering>
</event>
<event>
 9    2  0.7820252E-005  0.9797994E+02  0.7546771E-02  0.1286779E+00
         21   -1    0    0  501  502  0.00000000000E+00  0.00000000000E+00  0.34305372607E+03  0.34305372607E+03  0.00000000000E+00 0. -1.
         -3   -1    0    0    0  501 -0.00000000000E+00 -0.00000000000E+00 -0.94992449415E+02  0.94992449415E+02  0.00000000000E+00 0.  1.
         24    2    1    2    0    0  0.48249894230E+02  0.22627170128E+01 -0.36861834556E+02  0.10545695730E+03  0.86192823455E+02 0.  0.
         23    2    1    2    0    0 -0.29803711118E+02 -0.28991386129E+02  0.28576245849E+03  0.30010248354E+03  0.81685716457E+02 0.  0.
        -11    1    3    3    0    0  0.49708428875E+02  0.36274065805E+02 -0.10556837170E+02  0.62435427141E+02  0.00000000000E+00 0.  1.
         12    1    3    3    0    0 -0.14585346447E+01 -0.34011348792E+02 -0.26304997386E+02  0.43021530162E+02  0.00000000000E+00 0. -1.
        -11    1    4    4    0    0  0.28549226753E+02 -0.83600545289E+01  0.95553759433E+02  0.10007731912E+03  0.00000000000E+00 0. -1.
         11    1    4    4    0    0 -0.58352937871E+02 -0.20631331600E+02  0.19020869906E+03  0.20002516442E+03  0.00000000000E+00 0.  1.
         -4    1    1    2    0  502 -0.18446183112E+02  0.26728669116E+02 -0.83934728490E+00  0.32486734646E+02  0.00000000000E+00 0.  1.
<scales pt_clust_5="13000.00000" pt_clust_6="13000.00000" pt_clust_7="13000.00000" pt_clust_8="13000.00000" pt_clust_9="32.47591"></scales>
<clustering>
<clus scale="   32.476">  1  9  2 -1</clus>
<clus scale="   81.686">  7  8 -1 -1</clus>
<clus scale="   86.193">  5  6 -1 -1</clus>
<clus scale="   94.039">  1  7  2 -1</clus>
<clus scale="   32.476">  1  5  2 -1</clus>
</clustering>
</event>
<event>
 9    2  0.7820252E-005  0.1386746E+03  0.7546771E-02  0.1217624E+00
         21   -1    0    0  501  502  0.00000000000E+00  0.00000000000E+00  0.17191251095E+03  0.17191251095E+03  0.00000000000E+00 0. -1.
          2   -1    0    0  502    0 -0.00000000000E+00 -0.00000000000E+00 -0.22506879484E+03  0.22506879484E+03  0.00000000000E+00 0. -1.
         24    2    1    2    0    0 -0.19899315482E+02  0.85176298550E+02 -0.40415363648E+02  0.12582150732E+03  0.80911467012E+02 0.  0.
         23    2    1    2    0    0 -0.51182212417E+02 -0.12780084701E+03 -0.59525380680E+02  0.17598510920E+03  0.92058744016E+02 0.  0.
        -13    1    3    3    0    0 -0.21039254824E+02 -0.59552725651E+01  0.71655352208E+01  0.23010006733E+02  0.00000000000E+00 0.  1.
         14    1    3    3    0    0  0.11399393421E+01  0.91131571115E+02 -0.47580898869E+02  0.10281150059E+03  0.00000000000E+00 0. -1.
        -13    1    4    4    0    0  0.85575555142E+01 -0.26482860279E+02  0.19765580324E+02  0.34135784897E+02  0.00000000000E+00 0. -1.
         13    1    4    4    0    0 -0.59739767931E+02 -0.10131798673E+03 -0.79290961004E+02  0.14184932430E+03  0.00000000000E+00 0.  1.
          1    1    1    2  501    0  0.71081527899E+02  0.42624548462E+02  0.46784460442E+02  0.95174689276E+02  0.00000000000E+00 0. -1.
<scales pt_clust_5="13000.00000" pt_clust_6="13000.00000" pt_clust_7="13000.00000" pt_clust_8="13000.00000" pt_clust_9="82.88206"></scales>
<clustering>
<clus scale="   80.911">  5  6 -1 -1</clus>
<clus scale="   82.882">  1  9  2 -1</clus>
<clus scale="   92.059">  7  8 -1 -1</clus>
<clus scale="  131.539">  2  5  1 -1</clus>
<clus scale="   82.882">  1  5  2 -1</clus>
</clustering>
</event>
<event>
 9    2  0.7820252E-005  0.1765927E+03  0.7546771E-02  0.1173338E+00
          2   -1    0    0  502    0 -0.00000000000E+00  0.00000000000E+00  0.18302763867E+03  0.18302763867E+03  0.00000000000E+00 0. -1.
         21   -1    0    0  501  502  0.00000000000E+00 -0.00000000000E+00 -0.37127689369E+03  0.37127689369E+03  0.00000000000E+00 0. -1.
         23    2    1    2    0    0  0.11910315987E+02  0.11209689913E+03 -0.10425270885E+03  0.18163663520E+03  0.97034372883E+02 0.  0.
         24    2    1    2    0    0 -0.69742466902E+02 -0.18710760357E+03 -0.14545206717E+03  0.25976110144E+03  0.80288598032E+02 0.  0.
        -13    1    4    4    0    0 -0.21491999725E+02 -0.69532176135E+02 -0.10229527253E+03  0.12554263161E+03  0.00000000000E+00 0.  1.
         14    1    4    4    0    0 -0.48250467177E+02 -0.11757542744E+03 -0.43156794641E+02  0.13421846983E+03  0.00000000000E+00 0. -1.
        -13    1    3    3    0    0  0.37600161026E+02  0.11162767248E+03 -0.10204982318E+03  0.15584824601E+03  0.00000000000E+00 0. -1.
         13    1    3    3    0    0 -0.25689845038E+02  0.46922665738E+00 -0.22028856653E+01  0.25788389190E+02  0.00000000000E+00 0.  1.
          1    1    1    2  501    0  0.57832150915E+02  0.75010704442E+02  0.61455520998E+02  0.11290679573E+03  0.00000000000E+00 0. -1.
<scales pt_clust_5="13000.00000" pt_clust_6="13000.00000" pt_clust_7="13000.00000" pt_clust_8="13000.00000" pt_clust_9="94.71627"></scales>
<clustering>
<clus scale="   80.289">  5  6 -1 -1</clus>
<clus scale="   94.716">  2  9  1 -1</clus>
<clus scale="   97.034">  7  8 -1 -1</clus>
<clus scale="  167.975">  2  5  1 -1</clus>
<clus scale="   94.716">  2  5  1 -1</clus>
</clustering>
</event>
<event>
 9    2  0.7820252E-005  0.1382795E+03  0.7546771E-02  0.1217437E+00
         21   -1    0    0  501  502  0.00000000000E+00  0.00000000000E+00  0.33268369298E+02  0.33268369298E+02  0.00000000000E+00 0. -1.
          2   -1    0    0  502    0 -0.00000000000E+00 -0.00000000000E+00 -0.96202208221E+03  0.96202208221E+03  0.00000000000E+00 0. -1.
         23    2    1    2    0    0 -0.23097008760E+02 -0.69910020448E+02 -0.29339078659E+03  0.31541115090E+03  0.89359709515E+02 0.  0.
         24    2    1    2    0    0  0.51459806983E+02  0.13057164772E+03 -0.53646068100E+03  0.56043920903E+03  0.81271014743E+02 0.  0.
        -13    1    4    4    0    0 -0.18697766749E+02  0.13410827233E+02 -0.47707207080E+02  0.52966351355E+02  0.00000000000E+00 0.  1.
         14    1    4    4    0    0  0.70157573732E+02  0.11716082048E+03 -0.48875347392E+03  0.50747285768E+03  0.00000000000E+00 0. -1.
        -13    1    3    3    0    0 -0.47426600256E+02 -0.10750051533E+02 -0.16422276743E+03  0.17127160699E+03  0.00000000000E+00 0.  1.
         13    1    3    3    0    0  0.24329591496E+02 -0.59159968915E+02 -0.12916801916E+03  0.14413954391E+03  0.00000000000E+00 0. -1.
          1    1    1    2  501    0 -0.28362798223E+02 -0.60661627269E+02 -0.98902245319E+02  0.11944009157E+03  0.00000000000E+00 0. -1.
<scales pt_clust_5="13000.00000" pt_clust_6="13000.00000" pt_clust_7="13000.00000" pt_clust_8="13000.00000" pt_clust_9="66.96478"></scales>
<clustering>
<clus scale="   66.965">  1  9  2 -1</clus>
<clus scale="   81.271">  5  6 -1 -1</clus>
<clus scale="   89.360">  7  8 -1 -1</clus>
<clus scale="  133.196">  1  5  2 -1</clus>
<clus scale="   66.965">  1  5  2 -1</clus>
</clustering>
</event>
<event>
 9    2  0.7820252E-005  0.1076604E+03  0.7546771E-02  0.1270149E+00
         21   -1    0    0  501  502  0.00000000000E+00  0.00000000000E+00  0.10843884617E+03  0.10843884617E+03  0.00000000000E+00 0. -1.
          2   -1    0    0  502    0 -0.00000000000E+00 -0.00000000000E+00 -0.72821799035E+03  0.72821799035E+03  0.00000000000E+00 0. -1.
         24    2    1    2    0    0  0.95633402081E+01 -0.38077300385E+02 -0.38745942542E+03  0.39765017622E+03  0.80371126802E+02 0.  0.
         23    2    1    2    0    0 -0.76348859686E+02  0.86122618598E+02 -0.29874395260E+03  0.33326718302E+03  0.92589482418E+02 0.  0.
        -13    1    3    3    0    0  0.23516398877E+02  0.81698000453E+01 -0.41954647891E+02  0.48784824778E+02  0.00000000000E+00 0.  1.
         14    1    3    3    0    0 -0.13953058669E+02 -0.46247100431E+02 -0.34550477753E+03  0.34886535145E+03  0.00000000000E+00 0. -1.
        -13    1    4    4    0    0 -0.62791687080E+02  0.28570801055E+01 -0.11422453173E+03  0.13037715491E+03  0.00000000000E+00 0. -1.
         13    1    4    4    0    0 -0.13557172606E+02  0.83265538492E+02 -0.18451942087E+03  0.20289002811E+03  0.00000000000E+00 0.  1.
          1    1    1    2  501    0  0.66785519478E+02 -0.48045318212E+02  0.66424233833E+02  0.10573947727E+03  0.00000000000E+00 0. -1.
<scales pt_clust_5="13000.00000" pt_clust_6="13000.00000" pt_clust_7="13000.00000" pt_clust_8="13000.00000" pt_clust_9="82.27186"></scales>
<clustering>
<clus scale="   80.371">  5  6 -1 -1</clus>
<clus scale="   82.272">  1  9  2 -1</clus>
<clus scale="   92.589">  7  8 -1 -1</clus>
<clus scale="   97.352">  2  5  1 -1</clus>
<clus scale="   82.272">  1  5  2 -1</clus>
</clustering>
</event>
<event>
 9    2  0.7820252E-005  0.9650585E+02  0.7546771E-02  0.1294331E+00
          4   -1    0    0  502    0 -0.00000000000E+00  0.00000000000E+00  0.18845368094E+03  0.18845368094E+03  0.00000000000E+00 0. -1.
         21   -1    0    0  501  502  0.00000000000E+00 -0.00000000000E+00 -0.12648795885E+03  0.12648795885E+03  0.00000000000E+00 0. -1.
         24    2    1    2    0    0  0.42142898899E+02 -0.23075225187E+02  0.64699343372E+02  0.11425765248E+03  0.80995778726E+02 0.  0.
         23    2    1    2    0    0 -0.97753269142E+01 -0.32043205407E+02  0.56513249203E+02  0.11352956821E+03  0.92589910326E+02 0.  0.
        -11    1    3    3    0    0  0.23763779145E+01  0.26133359020E+02  0.39332061041E+01  0.26534312426E+02  0.00000000000E+00 0.  1.
         12    1    3    3    0    0  0.39766520984E+02 -0.49208584208E+02  0.60766137268E+02  0.87723340049E+02  0.00000000000E+00 0. -1.
        -13    1    4    4    0    0 -0.21450426829E+02 -0.61587636679E+02  0.28487914355E+02  0.71166839660E+02  0.00000000000E+00 0.  1.
         13    1    4    4    0    0  0.11675099915E+02  0.29544431271E+02  0.28025334848E+02  0.42362728554E+02  0.00000000000E+00 0. -1.
          3    1    1    2  501    0 -0.32367571985E+02  0.55118430595E+02 -0.59246870483E+02  0.87154419105E+02  0.00000000000E+00 0. -1.
<scales pt_clust_5="13000.00000" pt_clust_6="13000.00000" pt_clust_7="13000.00000" pt_clust_8="13000.00000" pt_clust_9="63.91949"></scales>
<clustering>
<clus scale="   63.919">  2  9  1 -1</clus>
<clus scale="   80.996">  5  6 -1 -1</clus>
<clus scale="   85.445">  1  5  2 -1</clus>
<clus scale="   92.590">  7  8 -1 -1</clus>
<clus scale="   63.919">  2  5  1 -1</clus>
</clustering>
</event>
<event>
 9    2  0.7820252E-005  0.1041341E+03  0.7546771E-02  0.1278676E+00
          2   -1    0    0  502    0 -0.00000000000E+00  0.00000000000E+00  0.26693453898E+03  0.26693453898E+03  0.00000000000E+00 0. -1.
         21   -1    0    0  501  502  0.00000000000E+00 -0.00000000000E+00 -0.79977040168E+02  0.79977040168E+02  0.00000000000E+00 0.  1.
         24    2    1    2    0    0  0.49113750591E+02 -0.52449745781E+01  0.18612137735E+03  0.20791205455E+03  0.78400159859E+02 0.  0.
         23    2    1    2    0    0 -0.33767061781E+02 -0.18982656546E+02 -0.21051873385E+02  0.10292206230E+03  0.93001149586E+02 0.  0.
        -11    1    3    3    0    0  0.13906583806E+02 -0.23128546192E+02  0.12294118327E+02  0.29655826874E+02  0.00000000000E+00 0.  1.
         12    1    3    3    0    0  0.35207166785E+02  0.17883571614E+02  0.17382725902E+03  0.17825622768E+03  0.00000000000E+00 0. -1.
        -13    1    4    4    0    0 -0.12615455546E+02 -0.51146236348E+02 -0.33542010747E+02  0.62451210526E+02  0.00000000000E+00 0.  1.
         13    1    4    4    0    0 -0.21151606235E+02  0.32163579802E+02  0.12490137361E+02  0.40470851775E+02  0.00000000000E+00 0. -1.
          1    1    1    2  501    0 -0.15346688810E+02  0.24227631124E+02  0.21887994846E+02  0.36077462295E+02  0.00000000000E+00 0. -1.
<scales pt_clust_5="13000.00000" pt_clust_6="13000.00000" pt_clust_7="13000.00000" pt_clust_8="13000.00000" pt_clust_9="28.67926"></scales>
<clustering>
<clus scale="   28.679">  2  9  1 -1</clus>
<clus scale="   78.400">  5  6 -1 -1</clus>
<clus scale="   91.331">  1  5  2 -1</clus>
<clus scale="   93.001">  7  8 -1 -1</clus>
<clus scale="   28.679">  2  5  1 -1</clus>
</clustering>
</event>
<event>
 9    2  0.7820252E-005  0.1412149E+03  0.7546771E-02  0.1214709E+00
         21   -1    0    0  501  502  0.00000000000E+00  0.00000000000E+00  0.57691741282E+03  0.57691741282E+03  0.00000000000E+00 0.  1.
         -1   -1    0    0    0  501 -0.00000000000E+00 -0.00000000000E+00 -0.16047646232E+03  0.16047646232E+03  0.00000000000E+00 0.  1.
         24    2    1    2    0    0 -0.44592232107E+00  0.11030190199E+03 -0.11451724797E+03  0.17720587370E+03  0.78236904103E+02 0.  0.
         23    2    1    2    0    0 -0.32846835670E+02 -0.62056310186E+02  0.40484265364E+03  0.42111544660E+03  0.92253698624E+02 0.  0.
        -11    1    3    3    0    0  0.54875471447E+01  0.51401383410E+02 -0.10528608776E+03  0.11729183972E+03  0.00000000000E+00 0.  1.
         12    1    3    3    0    0 -0.59334694657E+01  0.58900518579E+02 -0.92311602069E+01  0.59914033978E+02  0.00000000000E+00 0. -1.
        -11    1    4    4    0    0  0.17051519273E+02 -0.18452139305E+02  0.24672297390E+02  0.35213037542E+02  0.00000000000E+00 0. -1.
         11    1    4    4    0    0 -0.49898354942E+02 -0.43604170882E+02  0.38017035625E+03  0.38590240906E+03  0.00000000000E+00 0.  1.
         -2    1    1    2    0  502  0.33292757991E+02 -0.48245591802E+02  0.12611554482E+03  0.13907255484E+03  0.00000000000E+00 0.  1.
<scales pt_clust_5="13000.00000" pt_clust_6="13000.00000" pt_clust_7="13000.00000" pt_clust_8="13000.00000" pt_clust_9="58.61779"></scales>
<clustering>
<clus scale="   58.618">  1  9  2 -1</clus>
<clus scale="   78.237">  5  6 -1 -1</clus>
<clus scale="   92.254">  7  8 -1 -1</clus>
<clus scale="  132.484">  2  5  1 -1</clus>
<clus scale="   58.618">  1  5  2 -1</clus>
</clustering>
</event>
<event>
 9    2  0.7820252E-005  0.2739972E+03  0.7546771E-02  0.1144172E+00
         21   -1    0    0  501  502  0.00000000000E+00  0.00000000000E+00  0.54524605973E+03  0.54524605973E+03  0.00000000000E+00 0. -1.
          2   -1    0    0  502    0 -0.00000000000E+00 -0.00000000000E+00 -0.22311724740E+03  0.22311724740E+03  0.00000000000E+00 0. -1.
         24    2    1    2    0    0 -0.66650832274E+01 -0.35034853886E+02 -0.59661098804E+02  0.10699152928E+03  0.81338037260E+02 0.  0.
         23    2    1    2    0    0 -0.39224604067E+02 -0.23354765745E+03  0.11135164928E+03  0.27747168372E+03  0.92240271055E+02 0.  0.
        -13    1    3    3    0    0 -0.39633595494E+02 -0.13663188497E+02 -0.52283247909E+02  0.67015241726E+02  0.00000000000E+00 0.  1.
         14    1    3    3    0    0  0.32968512267E+02 -0.21371665389E+02 -0.73778508956E+01  0.39976287552E+02  0.00000000000E+00 0. -1.
        -13    1    4    4    0    0  0.28017646564E+02 -0.77408548282E+02  0.21038867710E+02  0.84968852062E+02  0.00000000000E+00 0.  1.
         13    1    4    4    0    0 -0.67242250631E+02 -0.15613910917E+03  0.90312781565E+02  0.19250283166E+03  0.00000000000E+00 0. -1.
          1    1    1    2  501    0  0.45889687294E+02  0.26858251134E+03  0.27043826185E+03  0.38390009413E+03  0.00000000000E+00 0. -1.
<scales pt_clust_5="13000.00000" pt_clust_6="13000.00000" pt_clust_7="13000.00000" pt_clust_8="13000.00000" pt_clust_9="258.00424"></scales>
<clustering>
<clus scale="   81.338">  5  6 -1 -1</clus>
<clus scale="   88.813">  2  5  1 -1</clus>
<clus scale="   92.240">  7  8 -1 -1</clus>
<clus scale="  258.004">  1  9  2 -1</clus>
<clus scale="  258.004">  1  5  2 -1</clus>
</clustering>
</event>
<event>
 9    2  0.7820252E-005  0.1041170E+03  0.7546771E-02  0.1276438E+00
         21   -1    0    0  501  502  0.00000000000E+00  0.00000000000E+00  0.19046708105E+02  0.19046708105E+02  0.00000000000E+00 0. -1.
          2   -1    0    0  502    0 -0.00000000000E+00 -0.00000000000E+00 -0.99914837967E+03  0.99914837967E+03  0.00000000000E+00 0. -1.
         24    2    1    2    0    0 -0.13913513431E+02 -0.47125687214E+02 -0.68344019007E+03  0.68988267834E+03  0.80207233009E+02 0.  0.
         23    2    1    2    0    0 -0.35446924083E+01  0.62118017940E+02 -0.27730830602E+03  0.29824408170E+03  0.90434632106E+02 0.  0.
        -11    1    3    3    0    0 -0.99553444963E+01  0.17477820655E+02 -0.64402343226E+02  0.67470326158E+02  0.00000000000E+00 0.  1.
         12    1    3    3    0    0 -0.39581689345E+01 -0.64603507869E+02 -0.61903784684E+03  0.62241235218E+03  0.00000000000E+00 0. -1.
        -11    1    4    4    0    0 -0.36244202188E+02  0.21212831873E+02 -0.51547069064E+02  0.66488546061E+02  0.00000000000E+00 0. -1.
         11    1    4    4    0    0  0.32699509780E+02  0.40905186068E+02 -0.22576123696E+03  0.23175553564E+03  0.00000000000E+00 0.  1.
          1    1    1    2  501    0  0.17458205839E+02 -0.14992330726E+02 -0.19353175485E+02  0.30068327740E+02  0.00000000000E+00 0. -1.
<scales pt_clust_5="13000.00000" pt_clust_6="13000.00000" pt_clust_7="13000.00000" pt_clust_8="13000.00000" pt_clust_9="23.01215"></scales>
<clustering>
<clus scale="   23.012">  1  9  2 -1</clus>
<clus scale="   80.207">  5  6 -1 -1</clus>
<clus scale="   90.435">  7  8 -1 -1</clus>
<clus scale="   95.368">  2  5  1 -1</clus>
<clus scale="   23.012">  1  5  2 -1</clus>
</clustering>
</event>
<event>
 9    2  0.7820252E-005  0.1011864E+03  0.7546771E-02  0.1282013E+00
         21   -1    0    0  501  502  0.00000000000E+00  0.00000000000E+00  0.35734119927E+02  0.35734119927E+02  0.00000000000E+00 0. -1.
          4   -1    0    0  502    0 -0.00000000000E+00 -0.00000000000E+00 -0.34985873517E+03  0.34985873517E+03  0.00000000000E+00 0. -1.
         23    2    1    2    0    0 -0.12394629226E+02 -0.33258619395E+02 -0.16244975474E+03  0.18937077598E+03  0.90617908736E+02 0.  0.
         24    2    1    2    0    0  0.29614000863E+02  0.50068380684E+02 -0.12216234137E+03  0.15814237822E+03  0.81862948581E+02 0.  0.
        -13    1    4    4    0    0 -0.15589099322E+02  0.52049381200E+02 -0.56363593176E+02  0.78288011449E+02  0.00000000000E+00 0.  1.
         14    1    4    4    0    0  0.45203100185E+02 -0.19810005161E+01 -0.65798748190E+02  0.79854366773E+02  0.00000000000E+00 0. -1.
        -13    1    3    3    0    0  0.24805072757E+02 -0.43623988647E+02 -0.12850378977E+03  0.13795494919E+03  0.00000000000E+00 0.  1.
         13    1    3    3    0    0 -0.37199701983E+02  0.10365369252E+02 -0.33945964967E+02  0.51415826793E+02  0.00000000000E+00 0. -1.
          3    1    1    2  501    0 -0.17219371637E+02 -0.16809761289E+02 -0.29512519133E+02  0.38079700888E+02  0.00000000000E+00 0. -1.
<scales pt_clust_5="13000.00000" pt_clust_6="13000.00000" pt_clust_7="13000.00000" pt_clust_8="13000.00000" pt_clust_9="24.06397"></scales>
<clustering>
<clus scale="   24.064">  1  9  2 -1</clus>
<clus scale="   81.863">  5  6 -1 -1</clus>
<clus scale="   90.618">  7  8 -1 -1</clus>
<clus scale="   93.427">  1  5  2 -1</clus>
<clus scale="   24.064">  1  5  2 -1</clus>
</clustering>
</event>
<event>
 9    2  0.7820252E-005  0.9623936E+02  0.7546771E-02  0.1292432E+00
          2   -1    0    0  502    0 -0.00000000000E+00  0.00000000000E+00  0.91074157053E+03  0.91074157053E+03  0.00000000000E+00 0. -1.
         21   -1    0    0  501  502  0.00000000000E+00 -0.00000000000E+00 -0.11105995265E+03  0.11105995265E+03  0.00000000000E+00 0.  1.
         24    2    1    2    0    0  0.92692651725E+01 -0.36982073262E+02  0.87321662892E+03  0.87779745072E+03  0.81040054530E+02 0.  0.
         23    2    1    2    0    0 -0.11063156098E+02  0.15500785911E+02 -0.30174218365E+02  0.95580709382E+02  0.88670856347E+02 0.  0.
        -11    1    3    3    0    0 -0.50800286636E+01 -0.22113072704E+02  0.57434751545E+02  0.61753909680E+02  0.00000000000E+00 0.  1.
         12    1    3    3    0    0  0.14349293836E+02 -0.14869000558E+02  0.81578187738E+03  0.81604354104E+03  0.00000000000E+00 0. -1.
        -11    1    4    4    0    0  0.32067216787E+02  0.19978084074E+01 -0.37947585584E+02  0.49722398199E+02  0.00000000000E+00 0.  1.
         11    1    4    4    0    0 -0.43130372885E+02  0.13502977503E+02  0.77733672195E+01  0.45858311184E+02  0.00000000000E+00 0. -1.
          1    1    1    2  501    0  0.17938909255E+01  0.21481287352E+02 -0.43360792680E+02  0.48423363088E+02  0.00000000000E+00 0. -1.
<scales pt_clust_5="13000.00000" pt_clust_6="13000.00000" pt_clust_7="13000.00000" pt_clust_8="13000.00000" pt_clust_9="21.55606"></scales>
<clustering>
<clus scale="   21.556">  2  9  1 -1</clus>
<clus scale="   81.040">  5  6 -1 -1</clus>
<clus scale="   88.671">  7  8 -1 -1</clus>
<clus scale="   89.258">  1  5  2 -1</clus>
<clus scale="   21.556">  2  5  1 -1</clus>
</clustering>
</event>
<event>
 9    2  0.7820252E-005  0.1620977E+03  0.7546771E-02  0.1211934E+00
          2   -1    0    0  502    0 -0.00000000000E+00  0.00000000000E+00  0.71189837345E+03  0.71189837345E+03  0.00000000000E+00 0. -1.
         21   -1    0    0  501  502  0.00000000000E+00 -0.00000000000E+00 -0.76834727653E+02  0.76834727653E+02  0.00000000000E+00 0. -1.
         24    2    1    2    0    0  0.14571348369E+02  0.45171017285E+02  0.31694095270E+03  0.33027841894E+03  0.79871907003E+02 0.  0.
         23    2    1    2    0    0 -0.12471833047E+03 -0.10595409252E+03  0.25939165675E+03  0.31961565835E+03  0.89940012200E+02 0.  0.
        -11    1    3    3    0    0  0.39065733972E+02  0.72423610654E+01  0.82989542323E+02  0.92010040211E+02  0.00000000000E+00 0.  1.
         12    1    3    3    0    0 -0.24494385603E+02  0.37928656220E+02  0.23395141037E+03  0.23826837873E+03  0.00000000000E+00 0. -1.
        -13    1    4    4    0    0  0.13554510168E+02 -0.18952072758E+02  0.29591371678E+02  0.37663710459E+02  0.00000000000E+00 0.  1.
         13    1    4    4    0    0 -0.13827284064E+03 -0.87002019761E+02  0.22980028507E+03  0.28195194789E+03  0.00000000000E+00 0. -1.
          1    1    1    2  501    0  0.11014698210E+03  0.60783075234E+02  0.58731036353E+02  0.13883902381E+03  0.00000000000E+00 0. -1.
<scales pt_clust_5="13000.00000" pt_clust_6="13000.00000" pt_clust_7="13000.00000" pt_clust_8="13000.00000" pt_clust_9="134.85713"></scales>
<clustering>
<clus scale="   79.872">  5  6 -1 -1</clus>
<clus scale="   89.940">  7  8 -1 -1</clus>
<clus scale="   92.910">  1  5  2 -1</clus>
<clus scale="  134.857">  2  9  1 -1</clus>
<clus scale="  134.857">  2  5  1 -1</clus>
</clustering>
</event>
<event>
 9    2  0.7820252E-005  0.1229189E+03  0.7546771E-02  0.1243457E+00
         21   -1    0    0  501  502  0.00000000000E+00  0.00000000000E+00  0.62464045643E+02  0.62464045643E+02  0.00000000000E+00 0. -1.
          2   -1    0    0  502    0 -0.00000000000E+00 -0.00000000000E+00 -0.61855465190E+03  0.61855465190E+03  0.00000000000E+00 0. -1.
         24    2    1    2    0    0 -0.20808591686E+02 -0.65233747241E+02 -0.54007322279E+03  0.55427099111E+03  0.10415760344E+03 0.  0.
         23    2    1    2    0    0  0.50497693107E+01  0.46108077959E+02 -0.14479186918E+02  0.10191833356E+03  0.89589312080E+02 0.  0.
        -13    1    3    3    0    0  0.23608437680E+02  0.17289310074E+02 -0.93584602772E+02  0.98052824786E+02  0.00000000000E+00 0.  1.
         14    1    3    3    0    0 -0.44417029366E+02 -0.82523057315E+02 -0.44648862001E+03  0.45621816633E+03  0.00000000000E+00 0. -1.
        -13    1    4    4    0    0  0.29827540383E+02  0.44088752398E+02 -0.39776466507E+02  0.66450489397E+02  0.00000000000E+00 0.  1.
         13    1    4    4    0    0 -0.24777771072E+02  0.20193255616E+01  0.25297279589E+02  0.35467844164E+02  0.00000000000E+00 0. -1.
          1    1    1    2  501    0  0.15758822376E+02  0.19125669282E+02 -0.15381965489E+01  0.24829372863E+02  0.00000000000E+00 0. -1.
<scales pt_clust_5="13000.00000" pt_clust_6="13000.00000" pt_clust_7="13000.00000" pt_clust_8="13000.00000" pt_clust_9="24.78168"></scales>
<clustering>
<clus scale="   24.782">  1  9  2 -1</clus>
<clus scale="   89.589">  7  8 -1 -1</clus>
<clus scale="  104.158">  5  6 -1 -1</clus>
<clus scale="  110.844">  1  7  2 -1</clus>
<clus scale="   24.782">  1  5  2 -1</clus>
</clustering>
</event>
<event>
 9    2  0.7820252E-005  0.9354890E+02  0.7546771E-02  0.1302495E+00
          4   -1    0    0  502    0 -0.00000000000E+00  0.00000000000E+00  0.18813727747E+03  0.18813727747E+03  0.00000000000E+00 0. -1.
         21   -1    0    0  501  502  0.00000000000E+00 -0.00000000000E+00 -0.15188242819E+03  0.15188242819E+03  0.00000000000E+00 0. -1.
         24    2    1    2    0    0 -0.24378748841E+02  0.57851410797E+01  0.74698970583E+02  0.11217061640E+03  0.79840589461E+02 0.  0.
         23    2    1    2    0    0 -0.66562304008E+01 -0.29685439002E+01  0.69049668774E+02  0.11592939455E+03  0.92836685141E+02 0.  0.
        -13    1    3    3    0    0 -0.27403309837E+02  0.31728619462E+02  0.11027916922E+02  0.43350451377E+02  0.00000000000E+00 0.  1.
         14    1    3    3    0    0  0.30245609959E+01 -0.25943478382E+02  0.63671053662E+02  0.68820165025E+02  0.00000000000E+00 0. -1.
        -11    1    4    4    0    0  0.16036611419E+02  0.18482306942E+02 -0.13305198666E+02  0.27853130654E+02  0.00000000000E+00 0.  1.
         11    1    4    4    0    0 -0.22692841819E+02 -0.21450850842E+02  0.82354867440E+02  0.88076263901E+02  0.00000000000E+00 0. -1.
          3    1    1    2  501    0  0.31034979242E+02 -0.28165971796E+01 -0.10749379008E+03  0.11191969470E+03  0.00000000000E+00 0. -1.
<scales pt_clust_5="13000.00000" pt_clust_6="13000.00000" pt_clust_7="13000.00000" pt_clust_8="13000.00000" pt_clust_9="31.16253"></scales>
<clustering>
<clus scale="   31.163">  2  9  1 -1</clus>
<clus scale="   79.841">  5  6 -1 -1</clus>
<clus scale="   80.668">  1  5  2 -1</clus>
<clus scale="   92.837">  7  8 -1 -1</clus>
<clus scale="   31.163">  2  5  1 -1</clus>
</clustering>
</event>
<event>
 9    2  0.1799417E-004  0.1199445E+03  0.7546771E-02  0.1250513E+00
         21   -1    0    0  501  502  0.00000000000E+00  0.00000000000E+00  0.23988475896E+03  0.23988475896E+03  0.00000000000E+00 0. -1.
          2   -1    0    0  502    0 -0.00000000000E+00 -0.00000000000E+00 -0.43246748249E+03  0.43246748249E+03  0.00000000000E+00 0. -1.
         24    2    1    2    0    0 -0.56872221286E+02  0.62623879124E+02 -0.36449849884E+03  0.38035827223E+03  0.68242653871E+02 0.  0.
         23    2    1    2    0    0  0.22839012420E+02 -0.34381998115E+02 -0.13802685473E+02  0.10108244566E+03  0.91232693764E+02 0.  0.
        -13    1    3    3    0    0 -0.19678033476E+01  0.22987989948E+02 -0.24388507937E+02  0.33572596731E+02  0.00000000000E+00 0.  1.
         14    1    3    3    0    0 -0.54904417939E+02  0.39635889175E+02 -0.34010999090E+03  0.34678567550E+03  0.00000000000E+00 0. -1.
        -11    1    4    4    0    0 -0.60356059661E+01 -0.57416700147E+02  0.78538986771E+01  0.58264824033E+02  0.00000000000E+00 0.  1.
         11    1    4    4    0    0  0.28874618386E+02  0.23034702032E+02 -0.21656584150E+02  0.42817621626E+02  0.00000000000E+00 0. -1.
          1    1    1    2  501    0  0.34033208866E+02 -0.28241881009E+02  0.18571846079E+03  0.19091152356E+03  0.00000000000E+00 0. -1.
<scales pt_clust_5="13000.00000" pt_clust_6="13000.00000" pt_clust_7="13000.00000" pt_clust_8="13000.00000" pt_clust_9="44.22514"></scales>
<clustering>
<clus scale="   44.225">  1  9  2 -1</clus>
<clus scale="   68.243">  5  6 -1 -1</clus>
<clus scale="   91.233">  7  8 -1 -1</clus>
<clus scale="  103.539">  2  5  1 -1</clus>
<clus scale="   44.225">  1  5  2 -1</clus>
</clustering>
</event>
<event>
 9    2  0.7820252E-005  0.9094708E+02  0.7546771E-02  0.1305983E+00
          2   -1    0    0  502    0 -0.00000000000E+00  0.00000000000E+00  0.96872545209E+03  0.96872545209E+03  0.00000000000E+00 0. -1.
         21   -1    0    0  501  502  0.00000000000E+00 -0.00000000000E+00 -0.40011829562E+02  0.40011829562E+02  0.00000000000E+00 0. -1.
         24    2    1    2    0    0  0.96003050703E+01  0.13476005133E+02  0.68027328028E+03  0.68525026462E+03  0.80761505277E+02 0.  0.
         23    2    1    2    0    0  0.18004758114E+02 -0.23447195728E+02  0.27070547190E+03  0.28664681950E+03  0.89504213941E+02 0.  0.
        -13    1    3    3    0    0 -0.20910032170E+02 -0.14825299593E+02  0.91917533873E+02  0.95424587956E+02  0.00000000000E+00 0.  1.
         14    1    3    3    0    0  0.30510337241E+02  0.28301304726E+02  0.58835574640E+03  0.58982567667E+03  0.00000000000E+00 0. -1.
        -13    1    4    4    0    0 -0.25220767402E+02 -0.40432301778E+02  0.14552818750E+03  0.15313168024E+03  0.00000000000E+00 0.  1.
         13    1    4    4    0    0  0.43225525516E+02  0.16985106050E+02  0.12517728440E+03  0.13351513927E+03  0.00000000000E+00 0. -1.
          1    1    1    2  501    0 -0.27605063184E+02  0.99711905949E+01 -0.22265129649E+02  0.36840197524E+02  0.00000000000E+00 0. -1.
<scales pt_clust_5="13000.00000" pt_clust_6="13000.00000" pt_clust_7="13000.00000" pt_clust_8="13000.00000" pt_clust_9="29.35071"></scales>
<clustering>
<clus scale="   29.351">  2  9  1 -1</clus>
<clus scale="   80.762">  5  6 -1 -1</clus>
<clus scale="   82.358">  1  5  2 -1</clus>
<clus scale="   89.504">  7  8 -1 -1</clus>
<clus scale="   29.351">  2  5  1 -1</clus>
</clustering>
</event>
<event>
 9    2  0.7820252E-005  0.9106318E+02  0.7546771E-02  0.1307415E+00
          2   -1    0    0  502    0 -0.00000000000E+00  0.00000000000E+00  0.12690699165E+04  0.12690699165E+04  0.00000000000E+00 0. -1.
         21   -1    0    0  501  502  0.00000000000E+00 -0.00000000000E+00 -0.15244760279E+02  0.15244760279E+02  0.00000000000E+00 0. -1.
         24    2    1    2    0    0  0.79210141310E+01 -0.89446188975E+00  0.75345719112E+03  0.75772268627E+03  0.79889848626E+02 0.  0.
         23    2    1    2    0    0  0.46102209785E+02  0.75060748574E+01  0.24530830547E+03  0.26579005010E+03  0.91029836286E+02 0.  0.
        -13    1    3    3    0    0 -0.13336360783E+02  0.29040398991E+02  0.16169020947E+03  0.16481786047E+03  0.00000000000E+00 0.  1.
         14    1    3    3    0    0  0.21257374914E+02 -0.29934860880E+02  0.59176698165E+03  0.59290482580E+03  0.00000000000E+00 0. -1.
        -11    1    4    4    0    0  0.35487105717E+02  0.29654215604E+02  0.23439568201E+03  0.23891430037E+03  0.00000000000E+00 0.  1.
         11    1    4    4    0    0  0.10615104068E+02 -0.22148140747E+02  0.10912623456E+02  0.26875749731E+02  0.00000000000E+00 0. -1.
          1    1    1    2  501    0 -0.54023223916E+02 -0.66116129676E+01  0.25505965968E+03  0.26080194045E+03  0.00000000000E+00 0. -1.
<scales pt_clust_5="13000.00000" pt_clust_6="13000.00000" pt_clust_7="13000.00000" pt_clust_8="13000.00000" pt_clust_9="54.42633"></scales>
<clustering>
<clus scale="   54.426">  2  9  1 -1</clus>
<clus scale="   79.890">  5  6 -1 -1</clus>
<clus scale="   79.928">  1  5  2 -1</clus>
<clus scale="   91.030">  7  8 -1 -1</clus>
<clus scale="   54.426">  2  5  1 -1</clus>
</clustering>
</event>
<event>
 9    2  0.7820252E-005  0.1711877E+03  0.7546771E-02  0.1178307E+00
          2   -1    0    0  502    0 -0.00000000000E+00  0.00000000000E+00  0.20198672247E+03  0.20198672247E+03  0.00000000000E+00 0. -1.
         21   -1    0    0  501  502  0.00000000000E+00 -0.00000000000E+00 -0.27041239447E+03  0.27041239447E+03  0.00000000000E+00 0. -1.
         24    2    1    2    0    0 -0.37690656675E+02  0.14046965381E+03  0.10707357241E+03  0.19694661108E+03  0.78555130100E+02 0.  0.
         23    2    1    2    0    0  0.69935930641E+02 -0.12802424717E+03 -0.11896857560E+03  0.20919269636E+03  0.91251410798E+02 0.  0.
        -13    1    3    3    0    0 -0.39576933484E+02  0.43371354996E+02  0.98643892722E+01  0.59537503088E+02  0.00000000000E+00 0.  1.
         14    1    3    3    0    0  0.18862768097E+01  0.97098298815E+02  0.97209183139E+02  0.13740910799E+03  0.00000000000E+00 0. -1.
        -11    1    4    4    0    0 -0.11539166217E+02 -0.71937721226E+02 -0.44399193748E+02  0.85319848205E+02  0.00000000000E+00 0.  1.
         11    1    4    4    0    0  0.81475096859E+02 -0.56086525941E+02 -0.74569381851E+02  0.12387284815E+03  0.00000000000E+00 0. -1.
          1    1    1    2  501    0 -0.32245273967E+02 -0.12445406643E+02 -0.56530668810E+02  0.66259809507E+02  0.00000000000E+00 0. -1.
<scales pt_clust_5="13000.00000" pt_clust_6="13000.00000" pt_clust_7="13000.00000" pt_clust_8="13000.00000" pt_clust_9="34.56365"></scales>
<clustering>
<clus scale="   34.564">  2  9  1 -1</clus>
<clus scale="   78.555">  5  6 -1 -1</clus>
<clus scale="   91.251">  7  8 -1 -1</clus>
<clus scale="  164.771">  1  5  2 -1</clus>
<clus scale="   34.564">  2  5  1 -1</clus>
</clustering>
</event>
<event>
 9    2  0.7820252E-005  0.1444320E+03  0.7546771E-02  0.1209455E+00
          2   -1    0    0  502    0 -0.00000000000E+00  0.00000000000E+00  0.27585511691E+03  0.27585511691E+03  0.00000000000E+00 0. -1.
         21   -1    0    0  501  502  0.00000000000E+00 -0.00000000000E+00 -0.22117289712E+03  0.22117289712E+03  0.00000000000E+00 0. -1.
         23    2    1    2    0    0 -0.12166187314E+03  0.11441887891E+02  0.18932826329E+03  0.24374771135E+03  0.92925923902E+02 0.  0.
         24    2    1    2    0    0  0.80346006016E+02 -0.28275347502E+02 -0.85058639556E+01  0.11948302643E+03  0.83359869981E+02 0.  0.
        -13    1    4    4    0    0  0.86393659347E+01 -0.40550287379E+02 -0.19656055333E+02  0.45883820259E+02  0.00000000000E+00 0.  1.
         14    1    4    4    0    0  0.71706640081E+02  0.12274939878E+02  0.11150191377E+02  0.73599206167E+02  0.00000000000E+00 0. -1.
        -11    1    3    3    0    0 -0.52840700341E+02 -0.12356121043E+02  0.17324573817E+02  0.56964499451E+02  0.00000000000E+00 0.  1.
         11    1    3    3    0    0 -0.68821172798E+02  0.23798008933E+02  0.17200368947E+03  0.18678321190E+03  0.00000000000E+00 0. -1.
          1    1    1    2  501    0  0.41315867123E+02  0.16833459611E+02 -0.12614017954E+03  0.13379727626E+03  0.00000000000E+00 0. -1.
<scales pt_clust_5="13000.00000" pt_clust_6="13000.00000" pt_clust_7="13000.00000" pt_clust_8="13000.00000" pt_clust_9="44.61352"></scales>
<clustering>
<clus scale="   44.614">  2  9  1 -1</clus>
<clus scale="   83.360">  5  6 -1 -1</clus>
<clus scale="   92.926">  7  8 -1 -1</clus>
<clus scale="  138.471">  2  5  1 -1</clus>
<clus scale="   44.614">  2  5  1 -1</clus>
</clustering>
</event>
<event>
 9    2  0.7820252E-005  0.1102707E+03  0.7546771E-02  0.1260656E+00
         21   -1    0    0  501  502  0.00000000000E+00  0.00000000000E+00  0.13482060721E+03  0.13482060721E+03  0.00000000000E+00 0.  1.
         -3   -1    0    0    0  501 -0.00000000000E+00 -0.00000000000E+00 -0.18547760183E+03  0.18547760183E+03  0.00000000000E+00 0.  1.
         23    2    1    2    0    0 -0.25327564014E+02 -0.68850576783E+02 -0.71972975869E+02  0.13760251057E+03  0.91501116046E+02 0.  0.
         24    2    1    2    0    0 -0.36466370857E+02  0.44472201671E+02 -0.89138090017E+01  0.10971189356E+03  0.93003605702E+02 0.  0.
        -13    1    4    4    0    0 -0.27598597909E+02 -0.21211209956E+02  0.16761244886E+02  0.38633371124E+02  0.00000000000E+00 0.  1.
         14    1    4    4    0    0 -0.88677729480E+01  0.65683411627E+02 -0.25675053887E+02  0.71078522439E+02  0.00000000000E+00 0. -1.
        -13    1    3    3    0    0  0.14013871953E+02 -0.74082016582E+02 -0.34117565168E+02  0.82755918465E+02  0.00000000000E+00 0.  1.
         13    1    3    3    0    0 -0.39341435967E+02  0.52314397982E+01 -0.37855410701E+02  0.54846592106E+02  0.00000000000E+00 0. -1.
         -4    1    1    2    0  502  0.61793934870E+02  0.24378375112E+02  0.30229790254E+02  0.72983804907E+02  0.00000000000E+00 0.  1.
<scales pt_clust_5="13000.00000" pt_clust_6="13000.00000" pt_clust_7="13000.00000" pt_clust_8="13000.00000" pt_clust_9="66.42888"></scales>
<clustering>
<clus scale="   66.429">  1  9  2 -1</clus>
<clus scale="   91.501">  7  8 -1 -1</clus>
<clus scale="   93.004">  5  6 -1 -1</clus>
<clus scale="  109.006">  2  7  1 -1</clus>
<clus scale="   66.429">  1  5  2 -1</clus>
</clustering>
</event>
<event>
 9    2  0.7820252E-005  0.9248186E+02  0.7546771E-02  0.1299886E+00
         -3   -1    0    0    0  501 -0.00000000000E+00  0.00000000000E+00  0.54019922963E+02  0.54019922963E+02  0.00000000000E+00 0.  1.
         21   -1    0    0  501  502  0.00000000000E+00 -0.00000000000E+00 -0.33916258813E+03  0.33916258813E+03  0.00000000000E+00 0. -1.
         23    2    1    2    0    0  0.32662685135E+02 -0.68272203245E+01 -0.14227193030E+02  0.92759507578E+02  0.85372426972E+02 0.  0.
         24    2    1    2    0    0 -0.34279126975E+02  0.31525015092E+02 -0.14468637924E+03  0.17179027889E+03  0.80055396202E+02 0.  0.
        -11    1    4    4    0    0 -0.10664425816E+01  0.52587387620E+02 -0.92986966632E+02  0.10683232938E+03  0.00000000000E+00 0.  1.
         12    1    4    4    0    0 -0.33212684393E+02 -0.21062372528E+02 -0.51699412605E+02  0.64957949512E+02  0.00000000000E+00 0. -1.
        -13    1    3    3    0    0  0.54683792060E+01 -0.40048056656E+02 -0.26225782077E+02  0.48182379130E+02  0.00000000000E+00 0. -1.
         13    1    3    3    0    0  0.27194305929E+02  0.33220836332E+02  0.11998589047E+02  0.44577128448E+02  0.00000000000E+00 0.  1.
         -4    1    1    2    0  502  0.16164418399E+01 -0.24697794768E+02 -0.12622909290E+03  0.12863272462E+03  0.00000000000E+00 0.  1.
<scales pt_clust_5="13000.00000" pt_clust_6="13000.00000" pt_clust_7="13000.00000" pt_clust_8="13000.00000" pt_clust_9="24.75064"></scales>
<clustering>
<clus scale="   24.751">  2  9  1 -1</clus>
<clus scale="   80.055">  5  6 -1 -1</clus>
<clus scale="   85.372">  7  8 -1 -1</clus>
<clus scale="   87.597">  2  5  1 -1</clus>
<clus scale="   24.751">  2  5  1 -1</clus>
</clustering>
</event>
<event>
 9    2  0.7820252E-005  0.1096281E+03  0.7546771E-02  0.1265297E+00
         21   -1    0    0  501  502  0.00000000000E+00  0.00000000000E+00  0.79925759922E+02  0.79925759922E+02  0.00000000000E+00 0.  1.
          4   -1    0    0  502    0 -0.00000000000E+00 -0.00000000000E+00 -0.23205535920E+03  0.23205535920E+03  0.00000000000E+00 0. -1.
         23    2    1    2    0    0 -0.47576464651E+02  0.31576147330E+02 -0.14316261046E+03  0.17890541844E+03  0.90835250001E+02 0.  0.
         24    2    1    2    0    0  0.69856698045E+02 -0.26847722572E+02 -0.80630422762E+01  0.11028131716E+03  0.80598993759E+02 0.  0.
        -11    1    4    4    0    0  0.76990130032E+02 -0.45822277073E+02 -0.45657046378E+01  0.89710684187E+02  0.00000000000E+00 0.  1.
         12    1    4    4    0    0 -0.71334319867E+01  0.18974554500E+02 -0.34973376384E+01  0.20570632974E+02  0.00000000000E+00 0. -1.
        -11    1    3    3    0    0 -0.27847666782E+02 -0.18172001660E+02 -0.89791216151E+01  0.34443269510E+02  0.00000000000E+00 0.  1.
         11    1    3    3    0    0 -0.19728797868E+02  0.49748148990E+02 -0.13418348885E+03  0.14446214893E+03  0.00000000000E+00 0. -1.
          3    1    1    2  501    0 -0.22280233395E+02 -0.47284247579E+01 -0.90394653729E+00  0.22794383522E+02  0.00000000000E+00 0. -1.
<scales pt_clust_5="13000.00000" pt_clust_6="13000.00000" pt_clust_7="13000.00000" pt_clust_8="13000.00000" pt_clust_9="22.77645"></scales>
<clustering>
<clus scale="   22.776">  1  9  2 -1</clus>
<clus scale="   80.599">  5  6 -1 -1</clus>
<clus scale="   90.835">  7  8 -1 -1</clus>
<clus scale="  101.309">  1  5  2 -1</clus>
<clus scale="   22.776">  1  5  2 -1</clus>
</clustering>
</event>
<event>
 9    2  0.7820252E-005  0.1164462E+03  0.7546771E-02  0.1251152E+00
         21   -1    0    0  501  502  0.00000000000E+00  0.00000000000E+00  0.23518259119E+02  0.23518259119E+02  0.00000000000E+00 0.  1.
          4   -1    0    0  502    0 -0.00000000000E+00 -0.00000000000E+00 -0.84197403309E+03  0.84197403309E+03  0.00000000000E+00 0. -1.
         23    2    1    2    0    0 -0.19956189268E+02 -0.60472689427E+02 -0.27423260845E+03  0.29523577633E+03  0.88912566213E+02 0.  0.
         24    2    1    2    0    0 -0.11965885123E+02  0.89991777617E+02 -0.34066910624E+03  0.36211077259E+03  0.82626080825E+02 0.  0.
        -13    1    4    4    0    0 -0.60667191409E+00  0.83629814216E+02 -0.33878583877E+03  0.34895581157E+03  0.00000000000E+00 0.  1.
         14    1    4    4    0    0 -0.11359213209E+02  0.63619634012E+01 -0.18832674698E+01  0.13154961019E+02  0.00000000000E+00 0. -1.
        -13    1    3    3    0    0 -0.50237770127E+02 -0.58993264727E+02 -0.17298532205E+03  0.18954672373E+03  0.00000000000E+00 0.  1.
         13    1    3    3    0    0  0.30281580859E+02 -0.14794247000E+01 -0.10124728640E+03  0.10568905260E+03  0.00000000000E+00 0. -1.
          3    1    1    2  501    0  0.31922074392E+02 -0.29519088191E+02 -0.20355405928E+03  0.20814574330E+03  0.00000000000E+00 0. -1.
<scales pt_clust_5="13000.00000" pt_clust_6="13000.00000" pt_clust_7="13000.00000" pt_clust_8="13000.00000" pt_clust_9="43.47870"></scales>
<clustering>
<clus scale="   43.479">  1  9  2 -1</clus>
<clus scale="   82.626">  5  6 -1 -1</clus>
<clus scale="   88.913">  7  8 -1 -1</clus>
<clus scale="  111.720">  1  5  2 -1</clus>
<clus scale="   43.479">  1  5  2 -1</clus>
</clustering>
</event>
<event>
 9    2  0.7820252E-005  0.2269844E+03  0.7546771E-02  0.1128780E+00
          4   -1    0    0  502    0 -0.00000000000E+00  0.00000000000E+00  0.71009998151E+03  0.71009998151E+03  0.00000000000E+00 0. -1.
         21   -1    0    0  501  502  0.00000000000E+00 -0.00000000000E+00 -0.74115626022E+02  0.74115626022E+02  0.00000000000E+00 0. -1.
         24    2    1    2    0    0 -0.94305115937E+02  0.35586704431E+02  0.33642596217E+03  0.36057942717E+03  0.81702061465E+02 0.  0.
         23    2    1    2    0    0 -0.42875419365E+02 -0.19716869112E+01  0.25906810488E+03  0.27670785728E+03  0.87228241847E+02 0.  0.
        -11    1    3    3    0    0 -0.76613346381E+02  0.24780379294E+02  0.32875878426E+03  0.33847601136E+03  0.00000000000E+00 0.  1.
         12    1    3    3    0    0 -0.17691769556E+02  0.10806325137E+02  0.76671779149E+01  0.22103415803E+02  0.00000000000E+00 0. -1.
        -11    1    4    4    0    0 -0.67135958542E+01 -0.41872891238E+02  0.13368637408E+03  0.14025140999E+03  0.00000000000E+00 0.  1.
         11    1    4    4    0    0 -0.36161823510E+02  0.39901204327E+02  0.12538173080E+03  0.13645644728E+03  0.00000000000E+00 0. -1.
          3    1    1    2  501    0  0.13718053530E+03 -0.33615017520E+02  0.40490288431E+02  0.14692832309E+03  0.00000000000E+00 0. -1.
<scales pt_clust_5="13000.00000" pt_clust_6="13000.00000" pt_clust_7="13000.00000" pt_clust_8="13000.00000" pt_clust_9="141.23905"></scales>
<clustering>
<clus scale="   81.702">  5  6 -1 -1</clus>
<clus scale="   87.228">  7  8 -1 -1</clus>
<clus scale="   90.917">  5  7 -1 -1</clus>
<clus scale="  141.239">  2  9  1 -1</clus>
<clus scale="  141.239">  2  5  1 -1</clus>
</clustering>
</event>
<event>
 9    2  0.7820252E-005  0.9482574E+02  0.7546771E-02  0.1299018E+00
          2   -1    0    0  502    0 -0.00000000000E+00  0.00000000000E+00  0.43227100980E+03  0.43227100980E+03  0.00000000000E+00 0. -1.
         21   -1    0    0  501  502  0.00000000000E+00 -0.00000000000E+00 -0.38540849727E+02  0.38540849727E+02  0.00000000000E+00 0.  1.
         24    2    1    2    0    0  0.12427599289E+02  0.27475023070E+02  0.30926343120E+03  0.32049807536E+03  0.78522763061E+02 0.  0.
         23    2    1    2    0    0 -0.89200741630E+01 -0.63678101607E+01  0.89498559426E+02  0.12833341820E+03  0.91320081893E+02 0.  0.
        -11    1    3    3    0    0  0.24594906305E+02 -0.22098905003E+02  0.12310301963E+03  0.12746616987E+03  0.00000000000E+00 0.  1.
         12    1    3    3    0    0 -0.12167307015E+02  0.49573928074E+02  0.18616041157E+03  0.19303190550E+03  0.00000000000E+00 0. -1.
        -11    1    4    4    0    0 -0.14126871172E+01  0.22973837632E+02 -0.94288786831E+01  0.24873613603E+02  0.00000000000E+00 0.  1.
         11    1    4    4    0    0 -0.75073870458E+01 -0.29341647793E+02  0.98927438109E+02  0.10345980459E+03  0.00000000000E+00 0. -1.
          1    1    1    2  501    0 -0.35075251263E+01 -0.21107212910E+02 -0.50318305515E+01  0.21980365967E+02  0.00000000000E+00 0. -1.
<scales pt_clust_5="13000.00000" pt_clust_6="13000.00000" pt_clust_7="13000.00000" pt_clust_8="13000.00000" pt_clust_9="21.39666"></scales>
<clustering>
<clus scale="   21.397">  2  9  1 -1</clus>
<clus scale="   78.523">  5  6 -1 -1</clus>
<clus scale="   82.574">  1  5  2 -1</clus>
<clus scale="   91.320">  7  8 -1 -1</clus>
<clus scale="   21.397">  2  5  1 -1</clus>
</clustering>
</event>
<event>
 9    2  0.7820252E-005  0.4461738E+03  0.7546771E-02  0.1063231E+00
         21   -1    0    0  501  502  0.00000000000E+00  0.00000000000E+00  0.17617589778E+03  0.17617589778E+03  0.00000000000E+00 0.  1.
          2   -1    0    0  502    0 -0.00000000000E+00 -0.00000000000E+00 -0.20712568116E+04  0.20712568116E+04  0.00000000000E+00 0. -1.
         24    2    1    2    0    0  0.93065950753E+02 -0.11096476069E+03 -0.42026869128E+02  0.17131543405E+03  0.81291272040E+02 0.  0.
         23    2    1    2    0    0  0.37716321860E+03  0.73515631474E+02 -0.12495579190E+04  0.13101371955E+04  0.86068789430E+02 0.  0.
        -11    1    3    3    0    0  0.78441078270E+02 -0.84864781921E+02  0.48942208901E+01  0.11566757268E+03  0.00000000000E+00 0.  1.
         12    1    3    3    0    0  0.14624872484E+02 -0.26099978771E+02 -0.46921090018E+02  0.55647861374E+02  0.00000000000E+00 0. -1.
        -13    1    4    4    0    0  0.56349396533E+02 -0.19075115990E+02 -0.21054740840E+03  0.21879059789E+03  0.00000000000E+00 0.  1.
         13    1    4    4    0    0  0.32081382206E+03  0.92590747465E+02 -0.10390105106E+04  0.10913465976E+04  0.00000000000E+00 0. -1.
          1    1    1    2  501    0 -0.47022916935E+03  0.37449129218E+02 -0.60349612568E+03  0.76598007983E+03  0.00000000000E+00 0. -1.
<scales pt_clust_5="13000.00000" pt_clust_6="13000.00000" pt_clust_7="13000.00000" pt_clust_8="13000.00000" pt_clust_9="437.79361"></scales>
<clustering>
<clus scale="   81.291">  5  6 -1 -1</clus>
<clus scale="   86.069">  7  8 -1 -1</clus>
<clus scale="  166.081">  2  5  1 -1</clus>
<clus scale="  437.794">  1  9  2 -1</clus>
<clus scale="  437.794">  1  5  2 -1</clus>
</clustering>
</event>
<event>
 9    2  0.7820252E-005  0.1079385E+03  0.7546771E-02  0.1270889E+00
         21   -1    0    0  501  502  0.00000000000E+00  0.00000000000E+00  0.52317242207E+03  0.52317242207E+03  0.00000000000E+00 0. -1.
          2   -1    0    0  502    0 -0.00000000000E+00 -0.00000000000E+00 -0.22643904853E+03  0.22643904853E+03  0.00000000000E+00 0. -1.
         24    2    1    2    0    0  0.96424562240E+00 -0.55227862850E+02 -0.11140232134E+03  0.14654927709E+03  0.77557506470E+02 0.  0.
         23    2    1    2    0    0 -0.74341453704E+02  0.52931080792E+02  0.48180405248E+03  0.49905970900E+03  0.92720532306E+02 0.  0.
        -11    1    3    3    0    0 -0.36728539731E+02 -0.15283345179E+02 -0.39384123153E+02  0.55979241037E+02  0.00000000000E+00 0.  1.
         12    1    3    3    0    0  0.37692785353E+02 -0.39944517671E+02 -0.72018198189E+02  0.90570036049E+02  0.00000000000E+00 0. -1.
        -13    1    4    4    0    0 -0.60204817059E+02 -0.57380036830E+01  0.33363908625E+03  0.33907607488E+03  0.00000000000E+00 0.  1.
         13    1    4    4    0    0 -0.14136636645E+02  0.58669084475E+02  0.14816496623E+03  0.15998363412E+03  0.00000000000E+00 0. -1.
          1    1    1    2  501    0  0.73377208082E+02  0.22967820578E+01 -0.73668357596E+02  0.10400248451E+03  0.00000000000E+00 0. -1.
<scales pt_clust_5="13000.00000" pt_clust_6="13000.00000" pt_clust_7="13000.00000" pt_clust_8="13000.00000" pt_clust_9="73.41318"></scales>
<clustering>
<clus scale="   73.413">  1  9  2 -1</clus>
<clus scale="   77.558">  5  6 -1 -1</clus>
<clus scale="   92.721">  7  8 -1 -1</clus>
<clus scale="   95.230">  2  5  1 -1</clus>
<clus scale="   73.413">  1  5  2 -1</clus>
</clustering>
</event>
<event>
 9    2  0.7820252E-005  0.1202641E+03  0.7546771E-02  0.1246495E+00
         21   -1    0    0  501  502  0.00000000000E+00  0.00000000000E+00  0.44855573882E+02  0.44855573882E+02  0.00000000000E+00 0. -1.
          2   -1    0    0  502    0 -0.00000000000E+00 -0.00000000000E+00 -0.59726184160E+03  0.59726184160E+03  0.00000000000E+00 0. -1.
         23    2    1    2    0    0  0.85022838014E+01  0.85656444171E+02 -0.31731447971E+03  0.34159241429E+03  0.92669213897E+02 0.  0.
         24    2    1    2    0    0 -0.60539668442E+02 -0.44586437340E+02 -0.95180128501E+02  0.14570282150E+03  0.80728269407E+02 0.  0.
        -11    1    4    4    0    0  0.18866089511E+02 -0.18100641688E+02 -0.17154399403E+02  0.31270369071E+02  0.00000000000E+00 0.  1.
         12    1    4    4    0    0 -0.79405757953E+02 -0.26485795652E+02 -0.78025729098E+02  0.11443245243E+03  0.00000000000E+00 0. -1.
        -13    1    3    3    0    0 -0.22810113862E+01  0.10309407354E+03 -0.23261970132E+03  0.25445140293E+03  0.00000000000E+00 0. -1.
         13    1    3    3    0    0  0.10783295188E+02 -0.17437629365E+02 -0.84694778398E+02  0.87141011360E+02  0.00000000000E+00 0.  1.
          1    1    1    2  501    0  0.52037384640E+02 -0.41070006831E+02 -0.13991165950E+03  0.15482217969E+03  0.00000000000E+00 0. -1.
<scales pt_clust_5="13000.00000" pt_clust_6="13000.00000" pt_clust_7="13000.00000" pt_clust_8="13000.00000" pt_clust_9="66.29208"></scales>
<clustering>
<clus scale="   66.292">  1  9  2 -1</clus>
<clus scale="   80.728">  5  6 -1 -1</clus>
<clus scale="   92.669">  7  8 -1 -1</clus>
<clus scale="  111.323">  1  5  2 -1</clus>
<clus scale="   66.292">  1  5  2 -1</clus>
</clustering>
</event>
<event>
 9    2  0.7820252E-005  0.9028654E+02  0.7546771E-02  0.1307565E+00
          2   -1    0    0  502    0 -0.00000000000E+00  0.00000000000E+00  0.17940449151E+03  0.17940449151E+03  0.00000000000E+00 0. -1.
         21   -1    0    0  501  502  0.00000000000E+00 -0.00000000000E+00 -0.78370759828E+02  0.78370759828E+02  0.00000000000E+00 0. -1.
         24    2    1    2    0    0  0.10786593435E+01 -0.17650307587E+02  0.10023944851E+03  0.12988566606E+03  0.80682354625E+02 0.  0.
         23    2    1    2    0    0 -0.69723931444E+01 -0.46114364121E+01 -0.25208651675E+02  0.93155251182E+02  0.89289109591E+02 0.  0.
        -11    1    3    3    0    0  0.20521745649E+02  0.24189870924E+02  0.20527639337E+02  0.37784598404E+02  0.00000000000E+00 0.  1.
         12    1    3    3    0    0 -0.19443086306E+02 -0.41840178510E+02  0.79711809169E+02  0.92101067659E+02  0.00000000000E+00 0. -1.
        -11    1    4    4    0    0 -0.40742708040E+02 -0.44453408256E+00 -0.39035896967E+02  0.56426652576E+02  0.00000000000E+00 0. -1.
         11    1    4    4    0    0  0.33770314895E+02 -0.41669023296E+01  0.13827245292E+02  0.36728598605E+02  0.00000000000E+00 0.  1.
          1    1    1    2  501    0  0.58937338009E+01  0.22261743999E+02  0.26002934848E+02  0.34734334090E+02  0.00000000000E+00 0. -1.
<scales pt_clust_5="13000.00000" pt_clust_6="13000.00000" pt_clust_7="13000.00000" pt_clust_8="13000.00000" pt_clust_9="23.02872"></scales>
<clustering>
<clus scale="   23.029">  2  9  1 -1</clus>
<clus scale="   80.682">  5  6 -1 -1</clus>
<clus scale="   81.785">  1  5  2 -1</clus>
<clus scale="   89.289">  7  8 -1 -1</clus>
<clus scale="   23.029">  2  5  1 -1</clus>
</clustering>
</event>
<event>
 9    2  0.7820252E-005  0.1022106E+03  0.7546771E-02  0.1282890E+00
         21   -1    0    0  501  502  0.00000000000E+00  0.00000000000E+00  0.10325773889E+03  0.10325773889E+03  0.00000000000E+00 0. -1.
         -1   -1    0    0    0  501 -0.00000000000E+00 -0.00000000000E+00 -0.14890600454E+03  0.14890600454E+03  0.00000000000E+00 0.  1.
         24    2    1    2    0    0  0.31156848941E+01  0.39177410750E+02 -0.82522739030E+02  0.12138925992E+03  0.79879740623E+02 0.  0.
         23    2    1    2    0    0 -0.23923394845E+02 -0.37697434475E+02  0.34217674180E+02  0.10974570073E+03  0.94232925323E+02 0.  0.
        -13    1    3    3    0    0  0.13362996290E+02  0.61574385422E+02 -0.49142928239E+02  0.79906207555E+02  0.00000000000E+00 0.  1.
         14    1    3    3    0    0 -0.10247311396E+02 -0.22396974672E+02 -0.33379810791E+02  0.41483052368E+02  0.00000000000E+00 0. -1.
        -11    1    4    4    0    0 -0.36674542839E+02 -0.55017197933E+02  0.50143654309E+02  0.82983734722E+02  0.00000000000E+00 0. -1.
         11    1    4    4    0    0  0.12751147994E+02  0.17319763458E+02 -0.15925980129E+02  0.26761966006E+02  0.00000000000E+00 0.  1.
         -2    1    1    2    0  502  0.20807709951E+02 -0.14799762752E+01  0.26567992085E+01  0.21028782780E+02  0.00000000000E+00 0.  1.
<scales pt_clust_5="13000.00000" pt_clust_6="13000.00000" pt_clust_7="13000.00000" pt_clust_8="13000.00000" pt_clust_9="20.86028"></scales>
<clustering>
<clus scale="   20.860">  1  9  2 -1</clus>
<clus scale="   79.880">  5  6 -1 -1</clus>
<clus scale="   89.151">  2  5  1 -1</clus>
<clus scale="   94.233">  7  8 -1 -1</clus>
<clus scale="   20.860">  1  5  2 -1</clus>
</clustering>
</event>
<event>
 9    2  0.7820252E-005  0.1303847E+03  0.7546771E-02  0.1231407E+00
         21   -1    0    0  501  502  0.00000000000E+00  0.00000000000E+00  0.11685906226E+03  0.11685906226E+03  0.00000000000E+00 0.  1.
          2   -1    0    0  502    0 -0.00000000000E+00 -0.00000000000E+00 -0.40318175214E+03  0.40318175214E+03  0.00000000000E+00 0. -1.
         23    2    1    2    0    0 -0.11326225241E+03 -0.10630123623E+02 -0.27555691637E+03  0.31424975996E+03  0.99397988563E+02 0.  0.
         24    2    1    2    0    0  0.41643766679E+02 -0.28735197508E+02 -0.55787355833E+02  0.11248629100E+03  0.83552508712E+02 0.  0.
        -13    1    4    4    0    0  0.25672311335E+02 -0.15979876759E+02  0.18492379416E+02  0.35445622113E+02  0.00000000000E+00 0.  1.
         14    1    4    4    0    0  0.15971455345E+02 -0.12755320748E+02 -0.74279735249E+02  0.77040668883E+02  0.00000000000E+00 0. -1.
        -13    1    3    3    0    0 -0.64884371219E+02 -0.51251765577E+02 -0.19553540259E+03  0.21229889018E+03  0.00000000000E+00 0. -1.
         13    1    3    3    0    0 -0.48377881191E+02  0.40621641954E+02 -0.80021513773E+02  0.10195086979E+03  0.00000000000E+00 0.  1.
          1    1    1    2  501    0  0.71618485730E+02  0.39365321131E+02  0.45021582322E+02  0.93304763441E+02  0.00000000000E+00 0. -1.
<scales pt_clust_5="13000.00000" pt_clust_6="13000.00000" pt_clust_7="13000.00000" pt_clust_8="13000.00000" pt_clust_9="81.72415"></scales>
<clustering>
<clus scale="   81.724">  1  9  2 -1</clus>
<clus scale="   83.553">  5  6 -1 -1</clus>
<clus scale="   99.398">  7  8 -1 -1</clus>
<clus scale="  118.749">  1  5  2 -1</clus>
<clus scale="   81.724">  1  5  2 -1</clus>
</clustering>
</event>
<event>
 9    2  0.7820252E-005  0.1431491E+03  0.7546771E-02  0.1216265E+00
         21   -1    0    0  501  502  0.00000000000E+00  0.00000000000E+00  0.53150872979E+02  0.53150872979E+02  0.00000000000E+00 0.  1.
          2   -1    0    0  502    0 -0.00000000000E+00 -0.00000000000E+00 -0.53903460859E+03  0.53903460859E+03  0.00000000000E+00 0. -1.
         24    2    1    2    0    0  0.65691663546E+02 -0.78133842796E+02 -0.28896677680E+03  0.31225688244E+03  0.59852071729E+02 0.  0.
         23    2    1    2    0    0 -0.80000772948E+02  0.97533560727E+02 -0.11654801743E+03  0.19602230374E+03  0.94490126753E+02 0.  0.
        -13    1    3    3    0    0  0.46111570683E+02 -0.97779476921E+01 -0.12122385856E+03  0.13006578757E+03  0.00000000000E+00 0.  1.
         14    1    3    3    0    0  0.19580092863E+02 -0.68355895104E+02 -0.16774291824E+03  0.18219109487E+03  0.00000000000E+00 0. -1.
        -11    1    4    4    0    0  0.13346142360E+02  0.50525830224E+02 -0.48575755340E+02  0.71348321932E+02  0.00000000000E+00 0. -1.
         11    1    4    4    0    0 -0.93346915308E+02  0.47007730503E+02 -0.67972262092E+02  0.12467398180E+03  0.00000000000E+00 0.  1.
          1    1    1    2  501    0  0.14309109402E+02 -0.19399717931E+02 -0.80368941383E+02  0.83906295394E+02  0.00000000000E+00 0. -1.
<scales pt_clust_5="13000.00000" pt_clust_6="13000.00000" pt_clust_7="13000.00000" pt_clust_8="13000.00000" pt_clust_9="24.10602"></scales>
<clustering>
<clus scale="   24.106">  1  9  2 -1</clus>
<clus scale="   59.852">  5  6 -1 -1</clus>
<clus scale="   94.490">  7  8 -1 -1</clus>
<clus scale="  123.067">  2  5  1 -1</clus>
<clus scale="   24.106">  1  5  2 -1</clus>
</clustering>
</event>
<event>
 9    2  0.7820252E-005  0.9713361E+02  0.7546771E-02  0.1293446E+00
         21   -1    0    0  501  502  0.00000000000E+00  0.00000000000E+00  0.20132266556E+03  0.20132266556E+03  0.00000000000E+00 0. -1.
          2   -1    0    0  502    0 -0.00000000000E+00 -0.00000000000E+00 -0.11115770109E+03  0.11115770109E+03  0.00000000000E+00 0. -1.
         24    2    1    2    0    0  0.14874851373E+02 -0.32288182709E+02 -0.59943296772E+02  0.10412189000E+03  0.77358782328E+02 0.  0.
         23    2    1    2    0    0  0.22275305319E+02  0.46564743251E+02  0.99414131244E+02  0.14390811482E+03  0.90343297919E+02 0.  0.
        -13    1    3    3    0    0 -0.20139703376E+02  0.12513114438E+02 -0.34362303012E+01  0.23958158604E+02  0.00000000000E+00 0.  1.
         14    1    3    3    0    0  0.35014554749E+02 -0.44801297147E+02 -0.56507066471E+02  0.80163731397E+02  0.00000000000E+00 0. -1.
        -13    1    4    4    0    0 -0.23725115250E+02 -0.14337612868E+02  0.27195832560E+02  0.38833768102E+02  0.00000000000E+00 0.  1.
         13    1    4    4    0    0  0.46000420569E+02  0.60902356119E+02  0.72218298684E+02  0.10507434672E+03  0.00000000000E+00 0. -1.
          1    1    1    2  501    0 -0.37150156692E+02 -0.14276560542E+02  0.50694130001E+02  0.64450361828E+02  0.00000000000E+00 0. -1.
<scales pt_clust_5="13000.00000" pt_clust_6="13000.00000" pt_clust_7="13000.00000" pt_clust_8="13000.00000" pt_clust_9="39.79892"></scales>
<clustering>
<clus scale="   39.799">  1  9  2 -1</clus>
<clus scale="   77.359">  5  6 -1 -1</clus>
<clus scale="   85.190">  2  5  1 -1</clus>
<clus scale="   90.343">  7  8 -1 -1</clus>
<clus scale="   39.799">  1  5  2 -1</clus>
</clustering>
</event>
<event>
 9    2  0.7820252E-005  0.1527317E+03  0.7546771E-02  0.1209105E+00
          2   -1    0    0  502    0 -0.00000000000E+00  0.00000000000E+00  0.33796714936E+03  0.33796714936E+03  0.00000000000E+00 0. -1.
         21   -1    0    0  501  502  0.00000000000E+00 -0.00000000000E+00 -0.19502702907E+03  0.19502702907E+03  0.00000000000E+00 0. -1.
         24    2    1    2    0    0 -0.69263918440E+02 -0.21695434420E+02  0.14930292279E+03  0.19029289712E+03  0.93015276525E+02 0.  0.
         23    2    1    2    0    0 -0.81225503836E+02 -0.63574892687E+02 -0.72830291894E+02  0.15740146467E+03  0.93976700361E+02 0.  0.
        -13    1    3    3    0    0 -0.20014021691E+02  0.36185449724E+02  0.43436143964E+02  0.59972047143E+02  0.00000000000E+00 0.  1.
         14    1    3    3    0    0 -0.49249896749E+02 -0.57880884144E+02  0.10586677883E+03  0.13032084997E+03  0.00000000000E+00 0. -1.
        -13    1    4    4    0    0 -0.59068455772E+02 -0.85674123531E+01 -0.77609800263E+02  0.97906915581E+02  0.00000000000E+00 0. -1.
         13    1    4    4    0    0 -0.22157048063E+02 -0.55007480334E+02  0.47795083687E+01  0.59494549093E+02  0.00000000000E+00 0.  1.
          1    1    1    2  501    0  0.15048942228E+03  0.85270327107E+02  0.66467489396E+02  0.18529981664E+03  0.00000000000E+00 0. -1.
<scales pt_clust_5="13000.00000" pt_clust_6="13000.00000" pt_clust_7="13000.00000" pt_clust_8="13000.00000" pt_clust_9="120.39666"></scales>
<clustering>
<clus scale="   93.015">  5  6 -1 -1</clus>
<clus scale="   93.977">  7  8 -1 -1</clus>
<clus scale="  117.983">  1  5  2 -1</clus>
<clus scale="  120.397">  2  9  1 -1</clus>
<clus scale="  120.397">  2  5  1 -1</clus>
</clustering>
</event>
<event>
 9    2  0.7820252E-005  0.9538734E+02  0.7546771E-02  0.1297087E+00
         21   -1    0    0  501  502  0.00000000000E+00  0.00000000000E+00  0.17331724596E+03  0.17331724596E+03  0.00000000000E+00 0. -1.
          4   -1    0    0  502    0 -0.00000000000E+00 -0.00000000000E+00 -0.18509942710E+03  0.18509942710E+03  0.00000000000E+00 0. -1.
         24    2    1    2    0    0 -0.86470398621E+00 -0.32820508503E+02 -0.10067184120E+03  0.13380211657E+03  0.81793968573E+02 0.  0.
         23    2    1    2    0    0  0.26771097727E+02 -0.19966198793E+02 -0.19710690937E+02  0.10111713165E+03  0.93385342580E+02 0.  0.
        -11    1    3    3    0    0  0.19632091209E+02 -0.90617118803E+01  0.61393640508E+01  0.22477219988E+02  0.00000000000E+00 0.  1.
         12    1    3    3    0    0 -0.20496795195E+02 -0.23758796623E+02 -0.10681120525E+03  0.11132489658E+03  0.00000000000E+00 0. -1.
        -13    1    4    4    0    0 -0.29709856061E+02  0.63813578027E+01  0.10111339156E+02  0.32025559387E+02  0.00000000000E+00 0.  1.
         13    1    4    4    0    0  0.56480953787E+02 -0.26347556595E+02 -0.29822030093E+02  0.69091572265E+02  0.00000000000E+00 0. -1.
          3    1    1    2  501    0 -0.25906393740E+02  0.52786707296E+02  0.10860035101E+03  0.12349742484E+03  0.00000000000E+00 0. -1.
<scales pt_clust_5="13000.00000" pt_clust_6="13000.00000" pt_clust_7="13000.00000" pt_clust_8="13000.00000" pt_clust_9="58.80117"></scales>
<clustering>
<clus scale="   58.801">  1  9  2 -1</clus>
<clus scale="   81.794">  5  6 -1 -1</clus>
<clus scale="   84.072">  2  5  1 -1</clus>
<clus scale="   93.385">  7  8 -1 -1</clus>
<clus scale="   58.801">  1  5  2 -1</clus>
</clustering>
</event>
<event>
 9    2  0.7820252E-005  0.1268636E+03  0.7546771E-02  0.1245574E+00
          2   -1    0    0  502    0 -0.00000000000E+00  0.00000000000E+00  0.50142741343E+03  0.50142741343E+03  0.00000000000E+00 0. -1.
         21   -1    0    0  501  502  0.00000000000E+00 -0.00000000000E+00 -0.17655039949E+03  0.17655039949E+03  0.00000000000E+00 0.  1.
         24    2    1    2    0    0  0.50811413338E+02  0.19793541012E+02  0.41086210592E+03  0.42206756779E+03  0.79748214454E+02 0.  0.
         23    2    1    2    0    0 -0.20590585552E+02  0.81403430900E+02 -0.85750184715E+02  0.15029689022E+03  0.90474141360E+02 0.  0.
        -13    1    3    3    0    0  0.23542284775E+02 -0.12973099122E+02  0.36732879408E+02  0.45517523031E+02  0.00000000000E+00 0.  1.
         14    1    3    3    0    0  0.27269128563E+02  0.32766640134E+02  0.37412922651E+03  0.37655004475E+03  0.00000000000E+00 0. -1.
        -13    1    4    4    0    0 -0.28651047173E+02 -0.86764094267E+01 -0.78884356614E+01  0.30957874634E+02  0.00000000000E+00 0. -1.
         13    1    4    4    0    0  0.80604616220E+01  0.90079840327E+02 -0.77861749054E+02  0.11933901558E+03  0.00000000000E+00 0.  1.
          1    1    1    2  501    0 -0.30220827786E+02 -0.10119697191E+03 -0.23490725670E+00  0.10561335492E+03  0.00000000000E+00 0. -1.
<scales pt_clust_5="13000.00000" pt_clust_6="13000.00000" pt_clust_7="13000.00000" pt_clust_8="13000.00000" pt_clust_9="88.93148"></scales>
<clustering>
<clus scale="   79.748">  5  6 -1 -1</clus>
<clus scale="   90.474">  7  8 -1 -1</clus>
<clus scale="   96.609">  1  5  2 -1</clus>
<clus scale="   88.931">  2  9  1 -1</clus>
<clus scale="   88.931">  2  5  1 -1</clus>
</clustering>
</event>
<event>
 9    2  0.7820252E-005  0.1774189E+03  0.7546771E-02  0.1195419E+00
          2   -1    0    0  502    0 -0.00000000000E+00  0.00000000000E+00  0.11697315688E+04  0.11697315688E+04  0.00000000000E+00 0. -1.
         21   -1    0    0  501  502  0.00000000000E+00 -0.00000000000E+00 -0.48108490865E+02  0.48108490865E+02  0.00000000000E+00 0. -1.
         23    2    1    2    0    0 -0.45415701077E+02 -0.99354064947E+01  0.29627225991E+03  0.31308120938E+03  0.89896014771E+02 0.  0.
         24    2    1    2    0    0  0.11763783590E+03 -0.11650276447E+03  0.24559788325E+03  0.30699960676E+03  0.80739604450E+02 0.  0.
        -11    1    4    4    0    0  0.15989320065E+02 -0.19211619042E+02  0.12387857254E+01  0.25025571970E+02  0.00000000000E+00 0.  1.
         12    1    4    4    0    0  0.10164851583E+03 -0.97291145432E+02  0.24435909752E+03  0.28197403479E+03  0.00000000000E+00 0. -1.
        -13    1    3    3    0    0 -0.61499758163E+02  0.18421397136E+02  0.14897434389E+03  0.16221875127E+03  0.00000000000E+00 0.  1.
         13    1    3    3    0    0  0.16084057086E+02 -0.28356803631E+02  0.14729791602E+03  0.15086245812E+03  0.00000000000E+00 0. -1.
          1    1    1    2  501    0 -0.72222134822E+02  0.12643817097E+03  0.57975293478E+03  0.59775924353E+03  0.00000000000E+00 0. -1.
<scales pt_clust_5="13000.00000" pt_clust_6="13000.00000" pt_clust_7="13000.00000" pt_clust_8="13000.00000" pt_clust_9="157.98298"></scales>
<clustering>
<clus scale="   80.740">  5  6 -1 -1</clus>
<clus scale="   89.896">  7  8 -1 -1</clus>
<clus scale="  101.206">  1  7  2 -1</clus>
<clus scale="  157.983">  2  9  1 -1</clus>
<clus scale="  157.983">  2  5  1 -1</clus>
</clustering>
</event>
<event>
 9    2  0.7820252E-005  0.1198911E+03  0.7546771E-02  0.1244163E+00
          2   -1    0    0  502    0 -0.00000000000E+00  0.00000000000E+00  0.64353554571E+03  0.64353554571E+03  0.00000000000E+00 0. -1.
         21   -1    0    0  501  502  0.00000000000E+00 -0.00000000000E+00 -0.13268879893E+03  0.13268879893E+03  0.00000000000E+00 0. -1.
         24    2    1    2    0    0  0.20065204264E+02 -0.79515775877E+02  0.48631712723E+03  0.50082460062E+03  0.87152517518E+02 0.  0.
         23    2    1    2    0    0 -0.56665150283E+02  0.54981762142E+02  0.12045674878E+03  0.16983702333E+03  0.90004737329E+02 0.  0.
        -13    1    3    3    0    0  0.48638429865E+02 -0.46686186889E+02  0.19617990157E+03  0.20744119814E+03  0.00000000000E+00 0.  1.
         14    1    3    3    0    0 -0.28573225601E+02 -0.32829588988E+02  0.29013722566E+03  0.29338340248E+03  0.00000000000E+00 0. -1.
        -11    1    4    4    0    0  0.20626916838E+02  0.73790398880E+01  0.51101807149E+02  0.55599591921E+02  0.00000000000E+00 0.  1.
         11    1    4    4    0    0 -0.77292067121E+02  0.47602722254E+02  0.69354941631E+02  0.11423743141E+03  0.00000000000E+00 0. -1.
          1    1    1    2  501    0  0.36599946019E+02  0.24534013735E+02 -0.95927129226E+02  0.10556272069E+03  0.00000000000E+00 0. -1.
<scales pt_clust_5="13000.00000" pt_clust_6="13000.00000" pt_clust_7="13000.00000" pt_clust_8="13000.00000" pt_clust_9="44.06216"></scales>
<clustering>
<clus scale="   44.062">  2  9  1 -1</clus>
<clus scale="   87.153">  5  6 -1 -1</clus>
<clus scale="   90.005">  7  8 -1 -1</clus>
<clus scale="  117.765">  1  5  2 -1</clus>
<clus scale="   44.062">  2  5  1 -1</clus>
</clustering>
</event>
<event>
 9    2  0.7820252E-005  0.2797345E+03  0.7546771E-02  0.1096057E+00
         21   -1    0    0  501  502  0.00000000000E+00  0.00000000000E+00  0.18764123579E+03  0.18764123579E+03  0.00000000000E+00 0. -1.
          2   -1    0    0  502    0 -0.00000000000E+00 -0.00000000000E+00 -0.80777726734E+03  0.80777726734E+03  0.00000000000E+00 0. -1.
         24    2    1    2    0    0 -0.27827043501E+03 -0.16395033339E+03 -0.42030611583E+03  0.53707401494E+03  0.86470339974E+02 0.  0.
         23    2    1    2    0    0  0.12669189253E+03  0.10332617299E+03  0.15617914072E+02  0.18803150159E+03  0.91568513658E+02 0.  0.
        -13    1    3    3    0    0 -0.59093167673E+02 -0.77851629332E+02 -0.14398214323E+03  0.17402222911E+03  0.00000000000E+00 0.  1.
         14    1    3    3    0    0 -0.21917726733E+03 -0.86098704062E+02 -0.27632397260E+03  0.36305178582E+03  0.00000000000E+00 0. -1.
        -11    1    4    4    0    0  0.72180207456E+01  0.57749913071E+02 -0.53789317749E+01  0.58447285568E+02  0.00000000000E+00 0.  1.
         11    1    4    4    0    0  0.11947387178E+03  0.45576259917E+02  0.20996845847E+02  0.12958421602E+03  0.00000000000E+00 0. -1.
          1    1    1    2  501    0  0.15157854248E+03  0.60624160407E+02 -0.21544782979E+03  0.27031298660E+03  0.00000000000E+00 0. -1.
<scales pt_clust_5="13000.00000" pt_clust_6="13000.00000" pt_clust_7="13000.00000" pt_clust_8="13000.00000" pt_clust_9="163.25247"></scales>
<clustering>
<clus scale="   86.470">  5  6 -1 -1</clus>
<clus scale="   91.569">  7  8 -1 -1</clus>
<clus scale="  163.252">  1  9  2 -1</clus>
<clus scale="  278.107">  2  5  1 -1</clus>
<clus scale="  163.252">  1  5  2 -1</clus>
</clustering>
</event>
<event>
 9    2  0.7820252E-005  0.1274165E+03  0.7546771E-02  0.1235127E+00
          2   -1    0    0  502    0 -0.00000000000E+00  0.00000000000E+00  0.74610853470E+03  0.74610853470E+03  0.00000000000E+00 0. -1.
         21   -1    0    0  501  502  0.00000000000E+00 -0.00000000000E+00 -0.30755690804E+02  0.30755690804E+02  0.00000000000E+00 0.  1.
         24    2    1    2    0    0 -0.41204488028E+02 -0.75883635742E+02  0.38768388826E+03  0.40455718958E+03  0.76886841630E+02 0.  0.
         23    2    1    2    0    0  0.62218455949E+02  0.72052734908E+02  0.32519306780E+03  0.35080371828E+03  0.90829425569E+02 0.  0.
        -11    1    3    3    0    0 -0.31438623390E+02  0.24989111870E+01  0.63650499506E+02  0.71035327023E+02  0.00000000000E+00 0.  1.
         12    1    3    3    0    0 -0.97658646373E+01 -0.78382546929E+02  0.32403338875E+03  0.33352186256E+03  0.00000000000E+00 0. -1.
        -11    1    4    4    0    0  0.70966460489E+02  0.20286936888E+02  0.13938513686E+03  0.15772131973E+03  0.00000000000E+00 0.  1.
         11    1    4    4    0    0 -0.87480045408E+01  0.51765798020E+02  0.18580793094E+03  0.19308239855E+03  0.00000000000E+00 0. -1.
          1    1    1    2  501    0 -0.21013967921E+02  0.38309008339E+01  0.24758878357E+01  0.21503317641E+02  0.00000000000E+00 0. -1.
<scales pt_clust_5="13000.00000" pt_clust_6="13000.00000" pt_clust_7="13000.00000" pt_clust_8="13000.00000" pt_clust_9="21.36031"></scales>
<clustering>
<clus scale="   21.360">  2  9  1 -1</clus>
<clus scale="   76.887">  5  6 -1 -1</clus>
<clus scale="   90.829">  7  8 -1 -1</clus>
<clus scale="  117.884">  1  5  2 -1</clus>
<clus scale="   21.360">  2  5  1 -1</clus>
</clustering>
</event>
<event>
 9    2  0.7820252E-005  0.9187487E+02  0.7546771E-02  0.1302403E+00
         21   -1    0    0  501  502  0.00000000000E+00  0.00000000000E+00  0.25382264667E+03  0.25382264667E+03  0.00000000000E+00 0.  1.
          2   -1    0    0  502    0 -0.00000000000E+00 -0.00000000000E+00 -0.57141025560E+03  0.57141025560E+03  0.00000000000E+00 0. -1.
         24    2    1    2    0    0  0.26828904583E+02  0.60896597374E+01 -0.53717931147E+03  0.54386078776E+03  0.80411875457E+02 0.  0.
         23    2    1    2    0    0 -0.73145934665E+02 -0.36988675951E+02  0.15916570667E+03  0.19920571349E+03  0.87353902030E+02 0.  0.
        -11    1    3    3    0    0 -0.16193865583E+02  0.24248215251E+02 -0.99130871552E+02  0.10333028075E+03  0.00000000000E+00 0.  1.
         12    1    3    3    0    0  0.43022770166E+02 -0.18158555514E+02 -0.43804843992E+03  0.44053050701E+03  0.00000000000E+00 0. -1.
        -11    1    4    4    0    0 -0.25214387845E+02  0.25306026420E+02  0.80164880730E+02  0.87764277642E+02  0.00000000000E+00 0. -1.
         11    1    4    4    0    0 -0.47931546820E+02 -0.62294702371E+02  0.79000825937E+02  0.11144143584E+03  0.00000000000E+00 0.  1.
          1    1    1    2  501    0  0.46317030082E+02  0.30899016213E+02  0.60425995881E+02  0.82166401021E+02  0.00000000000E+00 0. -1.
<scales pt_clust_5="13000.00000" pt_clust_6="13000.00000" pt_clust_7="13000.00000" pt_clust_8="13000.00000" pt_clust_9="55.67779"></scales>
<clustering>
<clus scale="   55.678">  1  9  2 -1</clus>
<clus scale="   80.412">  5  6 -1 -1</clus>
<clus scale="   85.302">  2  5  1 -1</clus>
<clus scale="   87.354">  7  8 -1 -1</clus>
<clus scale="   55.678">  1  5  2 -1</clus>
</clustering>
</event>
<event>
 9    2  0.7820252E-005  0.1101276E+03  0.7546771E-02  0.1263627E+00
         21   -1    0    0  501  502  0.00000000000E+00  0.00000000000E+00  0.37903421165E+03  0.37903421165E+03  0.00000000000E+00 0. -1.
          4   -1    0    0  502    0 -0.00000000000E+00 -0.00000000000E+00 -0.16236152962E+03  0.16236152962E+03  0.00000000000E+00 0. -1.
         24    2    1    2    0    0 -0.30966398505E+02 -0.58087447845E+02 -0.11215999370E+03  0.15396829340E+03  0.82421488425E+02 0.  0.
         23    2    1    2    0    0 -0.22511689724E+01  0.51445345838E+02  0.68548195904E+02  0.12494785866E+03  0.90892358601E+02 0.  0.
        -13    1    3    3    0    0 -0.38610244870E+02 -0.62439381936E+02 -0.44728395728E+02  0.85965439624E+02  0.00000000000E+00 0.  1.
         14    1    3    3    0    0  0.76438463647E+01  0.43519340905E+01 -0.67431597968E+02  0.68002853779E+02  0.00000000000E+00 0. -1.
        -11    1    4    4    0    0  0.23470551032E+02 -0.18532337930E+02  0.20206189302E+02  0.36091611228E+02  0.00000000000E+00 0.  1.
         11    1    4    4    0    0 -0.25721720004E+02  0.69977683768E+02  0.48342006602E+02  0.88856247433E+02  0.00000000000E+00 0. -1.
          3    1    1    2  501    0  0.33217567477E+02  0.66421020071E+01  0.26028447982E+03  0.26247958920E+03  0.00000000000E+00 0. -1.
<scales pt_clust_5="13000.00000" pt_clust_6="13000.00000" pt_clust_7="13000.00000" pt_clust_8="13000.00000" pt_clust_9="33.87513"></scales>
<clustering>
<clus scale="   33.875">  1  9  2 -1</clus>
<clus scale="   82.421">  5  6 -1 -1</clus>
<clus scale="   90.892">  7  8 -1 -1</clus>
<clus scale="  103.247">  2  5  1 -1</clus>
<clus scale="   33.875">  1  5  2 -1</clus>
</clustering>
</event>
<event>
 9    2  0.7820252E-005  0.9255386E+02  0.7546771E-02  0.1301349E+00
          2   -1    0    0  502    0 -0.00000000000E+00  0.00000000000E+00  0.23159295910E+03  0.23159295910E+03  0.00000000000E+00 0. -1.
         21   -1    0    0  501  502  0.00000000000E+00 -0.00000000000E+00 -0.75939118888E+02  0.75939118888E+02  0.00000000000E+00 0.  1.
         23    2    1    2    0    0 -0.30975812700E+02  0.84017357185E+01  0.12581616831E+03  0.15755031442E+03  0.89231738926E+02 0.  0.
         24    2    1    2    0    0  0.30795184431E+01  0.21136254930E+02 -0.19140259653E+02  0.86345815355E+02  0.81443388826E+02 0.  0.
        -13    1    4    4    0    0  0.71398389417E+01  0.46621836905E+02 -0.32507149048E+02  0.57282525396E+02  0.00000000000E+00 0.  1.
         14    1    4    4    0    0 -0.40603204986E+01 -0.25485581976E+02  0.13366889394E+02  0.29063289959E+02  0.00000000000E+00 0. -1.
        -11    1    3    3    0    0 -0.19380289322E+01  0.45713528067E+02  0.77164089338E+02  0.89709415826E+02  0.00000000000E+00 0.  1.
         11    1    3    3    0    0 -0.29037783768E+02 -0.37311792349E+02  0.48652078972E+02  0.67840898599E+02  0.00000000000E+00 0. -1.
          1    1    1    2  501    0  0.27896294257E+02 -0.29537990648E+02  0.48977931550E+02  0.63635948203E+02  0.00000000000E+00 0. -1.
<scales pt_clust_5="13000.00000" pt_clust_6="13000.00000" pt_clust_7="13000.00000" pt_clust_8="13000.00000" pt_clust_9="40.62878"></scales>
<clustering>
<clus scale="   40.629">  2  9  1 -1</clus>
<clus scale="   81.443">  5  6 -1 -1</clus>
<clus scale="   85.070">  2  5  1 -1</clus>
<clus scale="   89.232">  7  8 -1 -1</clus>
<clus scale="   40.629">  2  5  1 -1</clus>
</clustering>
</event>
<event>
 9    2  0.7820252E-005  0.1098217E+03  0.7546771E-02  0.1264837E+00
         21   -1    0    0  501  502  0.00000000000E+00  0.00000000000E+00  0.73597565218E+02  0.73597565218E+02  0.00000000000E+00 0. -1.
          2   -1    0    0  502    0 -0.00000000000E+00 -0.00000000000E+00 -0.96669740630E+03  0.96669740630E+03  0.00000000000E+00 0. -1.
         24    2    1    2    0    0 -0.59936828302E+02 -0.21019555371E+02 -0.66439987027E+03  0.67229058813E+03  0.80704412406E+02 0.  0.
         23    2    1    2    0    0  0.46479921602E+02  0.38567577527E+02 -0.28627605715E+03  0.30632758759E+03  0.90745627301E+02 0.  0.
        -11    1    3    3    0    0 -0.34102561481E+02 -0.11302335048E+02 -0.85608833884E+02  0.92841800479E+02  0.00000000000E+00 0.  1.
         12    1    3    3    0    0 -0.25834266821E+02 -0.97172203230E+01 -0.57879103639E+03  0.57944878766E+03  0.00000000000E+00 0. -1.
        -11    1    4    4    0    0  0.41850149442E+02  0.64334072213E+02 -0.25051845613E+03  0.26201107747E+03  0.00000000000E+00 0.  1.
         11    1    4    4    0    0  0.46297721601E+01 -0.25766494686E+02 -0.35757601022E+02  0.44316510123E+02  0.00000000000E+00 0. -1.
          1    1    1    2  501    0  0.13456906700E+02 -0.17548022156E+02  0.57576086345E+02  0.61676795786E+02  0.00000000000E+00 0. -1.
<scales pt_clust_5="13000.00000" pt_clust_6="13000.00000" pt_clust_7="13000.00000" pt_clust_8="13000.00000" pt_clust_9="22.11383"></scales>
<clustering>
<clus scale="   22.114">  1  9  2 -1</clus>
<clus scale="   80.704">  5  6 -1 -1</clus>
<clus scale="   90.746">  7  8 -1 -1</clus>
<clus scale="  101.682">  2  5  1 -1</clus>
<clus scale="   22.114">  1  5  2 -1</clus>
</clustering>
</event>
<event>
 9    2  0.7820252E-005  0.1122659E+03  0.7546771E-02  0.1260449E+00
         -1   -1    0    0    0  501 -0.00000000000E+00  0.00000000000E+00  0.31204649743E+02  0.31204649743E+02  0.00000000000E+00 0.  1.
         21   -1    0    0  501  502  0.00000000000E+00 -0.00000000000E+00 -0.89378509063E+03  0.89378509063E+03  0.00000000000E+00 0.  1.
         23    2    1    2    0    0 -0.44462161213E+02 -0.44171645488E+02 -0.96025317836E+02  0.14666598918E+03  0.91444150568E+02 0.  0.
         24    2    1    2    0    0  0.44134722605E+02  0.64918998493E+02 -0.59925093520E+03  0.60973771634E+03  0.80722049571E+02 0.  0.
        -13    1    4    4    0    0  0.37097704019E+02  0.29196532177E+02 -0.11773411572E+03  0.12684636037E+03  0.00000000000E+00 0.  1.
         14    1    4    4    0    0  0.70370185853E+01  0.35722466316E+02 -0.48151681948E+03  0.48289135597E+03  0.00000000000E+00 0. -1.
        -11    1    3    3    0    0  0.25935894868E+02 -0.21179286712E+02 -0.47538526296E+02  0.58147607953E+02  0.00000000000E+00 0. -1.
         11    1    3    3    0    0 -0.70398056081E+02 -0.22992358775E+02 -0.48486791541E+02  0.88518381232E+02  0.00000000000E+00 0.  1.
         -2    1    1    2    0  502  0.32743860849E+00 -0.20747353005E+02 -0.16730418785E+03  0.16858603485E+03  0.00000000000E+00 0.  1.
<scales pt_clust_5="13000.00000" pt_clust_6="13000.00000" pt_clust_7="13000.00000" pt_clust_8="13000.00000" pt_clust_9="20.74994"></scales>
<clustering>
<clus scale="   20.750">  2  9  1 -1</clus>
<clus scale="   80.722">  5  6 -1 -1</clus>
<clus scale="   91.444">  7  8 -1 -1</clus>
<clus scale="  103.719">  2  5  1 -1</clus>
<clus scale="   20.750">  2  5  1 -1</clus>
</clustering>
</event>
<event>
 9    2  0.7820252E-005  0.9624607E+02  0.7546771E-02  0.1296245E+00
         21   -1    0    0  501  502  0.00000000000E+00  0.00000000000E+00  0.65322613354E+02  0.65322613354E+02  0.00000000000E+00 0.  1.
          2   -1    0    0  502    0 -0.00000000000E+00 -0.00000000000E+00 -0.23873702999E+03  0.23873702999E+03  0.00000000000E+00 0. -1.
         23    2    1    2    0    0 -0.30939151511E+02  0.46453718115E+02 -0.60473606618E+02  0.12287445644E+03  0.91246347462E+02 0.  0.
         24    2    1    2    0    0  0.10613910016E+02 -0.22444435666E+01 -0.27289823341E+02  0.82677994696E+02  0.77286633620E+02 0.  0.
        -11    1    4    4    0    0 -0.18229296664E+02 -0.27615135213E+02  0.37363501563E+01  0.33299598529E+02  0.00000000000E+00 0.  1.
         12    1    4    4    0    0  0.28843206680E+02  0.25370691647E+02 -0.31026173497E+02  0.49378396167E+02  0.00000000000E+00 0. -1.
        -13    1    3    3    0    0 -0.84753742250E+01  0.71877881962E+02 -0.47400528945E+02  0.86516310762E+02  0.00000000000E+00 0.  1.
         13    1    3    3    0    0 -0.22463777286E+02 -0.25424163847E+02 -0.13073077673E+02  0.36358145678E+02  0.00000000000E+00 0. -1.
          1    1    1    2  501    0  0.20325241495E+02 -0.44209274548E+02 -0.85650986683E+02  0.98507192213E+02  0.00000000000E+00 0. -1.
<scales pt_clust_5="13000.00000" pt_clust_6="13000.00000" pt_clust_7="13000.00000" pt_clust_8="13000.00000" pt_clust_9="48.65776"></scales>
<clustering>
<clus scale="   48.658">  1  9  2 -1</clus>
<clus scale="   77.287">  5  6 -1 -1</clus>
<clus scale="   83.130">  1  5  2 -1</clus>
<clus scale="   91.246">  7  8 -1 -1</clus>
<clus scale="   48.658">  1  5  2 -1</clus>
</clustering>
</event>
<event>
 9    2  0.7820252E-005  0.9951831E+02  0.7546771E-02  0.1281629E+00
         -1   -1    0    0    0  501 -0.00000000000E+00  0.00000000000E+00  0.33431629119E+03  0.33431629119E+03  0.00000000000E+00 0.  1.
         21   -1    0    0  501  502  0.00000000000E+00 -0.00000000000E+00 -0.94622587756E+02  0.94622587756E+02  0.00000000000E+00 0. -1.
         23    2    1    2    0    0  0.44414292954E+02 -0.20865457459E+02  0.20664529676E+03  0.23063506905E+03  0.89901388566E+02 0.  0.
         24    2    1    2    0    0 -0.13444684879E+02  0.37067498531E+02  0.89179676795E+02  0.13218012091E+03  0.89240184956E+02 0.  0.
        -13    1    4    4    0    0 -0.34758169675E+02  0.13652219098E+02 -0.21488263384E+00  0.37343802966E+02  0.00000000000E+00 0.  1.
         14    1    4    4    0    0  0.21313484796E+02  0.23415279433E+02  0.89394559429E+02  0.94836317941E+02  0.00000000000E+00 0. -1.
        -13    1    3    3    0    0  0.13684830837E+02 -0.46393043783E+02  0.16884530493E+03  0.17563691555E+03  0.00000000000E+00 0.  1.
         13    1    3    3    0    0  0.30729462117E+02  0.25527586324E+02  0.37799991832E+02  0.54998153497E+02  0.00000000000E+00 0. -1.
         -2    1    1    2    0  502 -0.30969608075E+02 -0.16202041072E+02 -0.56131270128E+02  0.66123688988E+02  0.00000000000E+00 0.  1.
<scales pt_clust_5="13000.00000" pt_clust_6="13000.00000" pt_clust_7="13000.00000" pt_clust_8="13000.00000" pt_clust_9="34.95172"></scales>
<clustering>
<clus scale="   34.952">  2  9  1 -1</clus>
<clus scale="   89.240">  5  6 -1 -1</clus>
<clus scale="   89.901">  7  8 -1 -1</clus>
<clus scale="   98.921">  2  5  1 -1</clus>
<clus scale="   34.952">  2  5  1 -1</clus>
</clustering>
</event>
<event>
 9    2  0.7820252E-005  0.1193016E+03  0.7546771E-02  0.1245414E+00
          2   -1    0    0  502    0 -0.00000000000E+00  0.00000000000E+00  0.14846437152E+04  0.14846437152E+04  0.00000000000E+00 0. -1.
         21   -1    0    0  501  502  0.00000000000E+00 -0.00000000000E+00 -0.18951673064E+02  0.18951673064E+02  0.00000000000E+00 0.  1.
         24    2    1    2    0    0 -0.18547102652E+02  0.81217026536E+02  0.10855051726E+04  0.10920595099E+04  0.85628810182E+02 0.  0.
         23    2    1    2    0    0 -0.12216962319E+02 -0.70326922353E+02  0.34539225967E+03  0.36383171770E+03  0.89345260600E+02 0.  0.
        -13    1    3    3    0    0 -0.21048010209E+02  0.89205353554E+01  0.63363132247E+02  0.67360828476E+02  0.00000000000E+00 0.  1.
         14    1    3    3    0    0  0.25009075573E+01  0.72296491181E+02  0.10221420403E+04  0.10246986815E+04  0.00000000000E+00 0. -1.
        -13    1    4    4    0    0 -0.40050561427E+02 -0.57273229685E+02  0.30591277427E+03  0.31379435268E+03  0.00000000000E+00 0. -1.
         13    1    4    4    0    0  0.27833599108E+02 -0.13053692668E+02  0.39479485398E+02  0.50037365027E+02  0.00000000000E+00 0.  1.
          1    1    1    2  501    0  0.30764064971E+02 -0.10890104184E+02  0.34794609857E+02  0.47704160592E+02  0.00000000000E+00 0. -1.
<scales pt_clust_5="13000.00000" pt_clust_6="13000.00000" pt_clust_7="13000.00000" pt_clust_8="13000.00000" pt_clust_9="32.63468"></scales>
<clustering>
<clus scale="   32.635">  2  9  1 -1</clus>
<clus scale="   85.629">  5  6 -1 -1</clus>
<clus scale="   89.345">  7  8 -1 -1</clus>
<clus scale="  116.544">  1  5  2 -1</clus>
<clus scale="   32.635">  2  5  1 -1</clus>
</clustering>
</event>
<event>
 9    2  0.7820252E-005  0.1046522E+03  0.7546771E-02  0.1271183E+00
         21   -1    0    0  501  502  0.00000000000E+00  0.00000000000E+00  0.73958052637E+02  0.73958052637E+02  0.00000000000E+00 0.  1.
          2   -1    0    0  502    0 -0.00000000000E+00 -0.00000000000E+00 -0.57696816874E+03  0.57696816874E+03  0.00000000000E+00 0. -1.
         24    2    1    2    0    0 -0.11740590741E+02 -0.58503237925E+02 -0.15978791400E+03  0.18993395807E+03  0.83559922495E+02 0.  0.
         23    2    1    2    0    0  0.88943708558E+02  0.41197618450E+02 -0.23381907483E+02  0.13151142938E+03  0.84500386991E+02 0.  0.
        -13    1    3    3    0    0  0.34345285186E+02 -0.40742124613E+02 -0.83284734661E+02  0.98872980940E+02  0.00000000000E+00 0.  1.
         14    1    3    3    0    0 -0.46085875927E+02 -0.17761113313E+02 -0.76503179341E+02  0.91060977127E+02  0.00000000000E+00 0. -1.
        -13    1    4    4    0    0  0.69728002257E+02  0.60058433840E+02 -0.39482645206E+02  0.10013934814E+03  0.00000000000E+00 0. -1.
         13    1    4    4    0    0  0.19215706300E+02 -0.18860815390E+02  0.16100737723E+02  0.31372081235E+02  0.00000000000E+00 0.  1.
          1    1    1    2  501    0 -0.77203117817E+02  0.17305619475E+02 -0.31984029462E+03  0.32948083393E+03  0.00000000000E+00 0. -1.
<scales pt_clust_5="13000.00000" pt_clust_6="13000.00000" pt_clust_7="13000.00000" pt_clust_8="13000.00000" pt_clust_9="79.11897"></scales>
<clustering>
<clus scale="   79.119">  1  9  2 -1</clus>
<clus scale="   83.560">  5  6 -1 -1</clus>
<clus scale="   84.500">  7  8 -1 -1</clus>
<clus scale="  103.894">  2  5  1 -1</clus>
<clus scale="   79.119">  1  5  2 -1</clus>
</clustering>
</event>
<event>
 9    2  0.7820252E-005  0.1011965E+03  0.7546771E-02  0.1281646E+00
         -3   -1    0    0    0  501 -0.00000000000E+00  0.00000000000E+00  0.79403763215E+02  0.79403763215E+02  0.00000000000E+00 0.  1.
         21   -1    0    0  501  502  0.00000000000E+00 -0.00000000000E+00 -0.27831972469E+03  0.27831972469E+03  0.00000000000E+00 0.  1.
         24    2    1    2    0    0 -0.23487220358E+02  0.61446620303E+02 -0.12824137273E+02  0.10535252806E+03  0.81285669131E+02 0.  0.
         23    2    1    2    0    0  0.19102491571E+02  0.96013691617E+01 -0.14019832650E+03  0.16767588451E+03  0.89456917109E+02 0.  0.
        -13    1    3    3    0    0 -0.29795676405E+02  0.79725391924E+02 -0.84702083160E+01  0.85531660096E+02  0.00000000000E+00 0.  1.
         14    1    3    3    0    0  0.63084560471E+01 -0.18278771621E+02 -0.43539289566E+01  0.19820867969E+02  0.00000000000E+00 0. -1.
        -11    1    4    4    0    0 -0.78693633360E+01 -0.36193983507E+02 -0.41861210476E+02  0.55895368895E+02  0.00000000000E+00 0. -1.
         11    1    4    4    0    0  0.26971854907E+02  0.45795352668E+02 -0.98337116027E+02  0.11178051562E+03  0.00000000000E+00 0.  1.
         -4    1    1    2    0  502  0.43847287869E+01 -0.71047989465E+02 -0.45893497698E+02  0.84695075326E+02  0.00000000000E+00 0.  1.
<scales pt_clust_5="13000.00000" pt_clust_6="13000.00000" pt_clust_7="13000.00000" pt_clust_8="13000.00000" pt_clust_9="71.18320"></scales>
<clustering>
<clus scale="   71.183">  2  9  1 -1</clus>
<clus scale="   81.286">  5  6 -1 -1</clus>
<clus scale="   89.457">  7  8 -1 -1</clus>
<clus scale="   94.051">  1  5  2 -1</clus>
<clus scale="   71.183">  2  5  1 -1</clus>
</clustering>
</event>
<event>
 9    2  0.9655182E-005  0.1109793E+03  0.7546771E-02  0.1272799E+00
         21   -1    0    0  501  502  0.00000000000E+00  0.00000000000E+00  0.17719580153E+03  0.17719580153E+03  0.00000000000E+00 0. -1.
          2   -1    0    0  502    0 -0.00000000000E+00 -0.00000000000E+00 -0.11455625327E+04  0.11455625327E+04  0.00000000000E+00 0. -1.
         24    2    1    2    0    0  0.34591275579E+02 -0.24649674024E+01 -0.10261842287E+04  0.10296770979E+04  0.77318964445E+02 0.  0.
         23    2    1    2    0    0 -0.13003975416E+02  0.60969408531E+02 -0.76791016479E+02  0.14472951519E+03  0.10565699315E+03 0.  0.
        -13    1    3    3    0    0  0.36734555111E+02  0.14259758132E+02 -0.23263474126E+03  0.23594849244E+03  0.00000000000E+00 0.  1.
         14    1    3    3    0    0 -0.21432795322E+01 -0.16724725535E+02 -0.79354948740E+03  0.79372860541E+03  0.00000000000E+00 0. -1.
        -13    1    4    4    0    0 -0.39992227563E+02  0.25144619507E+02  0.88425067320E+01  0.48060587605E+02  0.00000000000E+00 0.  1.
         13    1    4    4    0    0  0.26988252147E+02  0.35824789025E+02 -0.85633523211E+02  0.96668927583E+02  0.00000000000E+00 0. -1.
          1    1    1    2  501    0 -0.21587300163E+02 -0.58504441129E+02  0.13460851395E+03  0.14835172121E+03  0.00000000000E+00 0. -1.
<scales pt_clust_5="13000.00000" pt_clust_6="13000.00000" pt_clust_7="13000.00000" pt_clust_8="13000.00000" pt_clust_9="62.36009"></scales>
<clustering>
<clus scale="   62.360">  1  9  2 -1</clus>
<clus scale="   77.319">  5  6 -1 -1</clus>
<clus scale="   84.447">  2  5  1 -1</clus>
<clus scale="  105.657">  7  8 -1 -1</clus>
<clus scale="   62.360">  1  5  2 -1</clus>
</clustering>
</event>
<event>
 9    2  0.7820252E-005  0.1324529E+03  0.7546771E-02  0.1236040E+00
          2   -1    0    0  502    0 -0.00000000000E+00  0.00000000000E+00  0.23257940906E+03  0.23257940906E+03  0.00000000000E+00 0. -1.
         21   -1    0    0  501  502  0.00000000000E+00 -0.00000000000E+00 -0.29943408011E+03  0.29943408011E+03  0.00000000000E+00 0.  1.
         24    2    1    2    0    0 -0.42123453148E+02  0.48449020411E+02  0.16780006549E+03  0.19688948635E+03  0.80541386693E+02 0.  0.
         23    2    1    2    0    0 -0.13243181990E+02  0.58084508757E+02 -0.61611547377E+02  0.12450870794E+03  0.90317459865E+02 0.  0.
        -13    1    3    3    0    0 -0.24227971703E+02  0.70050775857E+02  0.11001015568E+03  0.13265119737E+03  0.00000000000E+00 0.  1.
         14    1    3    3    0    0 -0.17895481444E+02 -0.21601755446E+02  0.57789909809E+02  0.64238288973E+02  0.00000000000E+00 0. -1.
        -13    1    4    4    0    0  0.12574218441E+02  0.40522979706E+02 -0.78335393754E+02  0.89087915950E+02  0.00000000000E+00 0.  1.
         13    1    4    4    0    0 -0.25817400432E+02  0.17561529051E+02  0.16723846377E+02  0.35420791992E+02  0.00000000000E+00 0. -1.
          1    1    1    2  501    0  0.55366635138E+02 -0.10653352917E+03 -0.17304318916E+03  0.21061529488E+03  0.00000000000E+00 0. -1.
<scales pt_clust_5="13000.00000" pt_clust_6="13000.00000" pt_clust_7="13000.00000" pt_clust_8="13000.00000" pt_clust_9="96.88402"></scales>
<clustering>
<clus scale="   80.541">  5  6 -1 -1</clus>
<clus scale="   90.317">  7  8 -1 -1</clus>
<clus scale="  102.998">  1  5  2 -1</clus>
<clus scale="   96.884">  2  9  1 -1</clus>
<clus scale="   96.884">  2  5  1 -1</clus>
</clustering>
</event>
<event>
 9    2  0.7820252E-005  0.9541722E+02  0.7546771E-02  0.1293534E+00
         -1   -1    0    0    0  501 -0.00000000000E+00  0.00000000000E+00  0.70195620387E+03  0.70195620387E+03  0.00000000000E+00 0.  1.
         21   -1    0    0  501  502  0.00000000000E+00 -0.00000000000E+00 -0.50885716298E+02  0.50885716298E+02  0.00000000000E+00 0.  1.
         24    2    1    2    0    0 -0.38311718574E+02 -0.21479390154E+02  0.47495461828E+03  0.48381960672E+03  0.81057821542E+02 0.  0.
         23    2    1    2    0    0 -0.32174674648E+01 -0.20487140401E+02  0.71417359897E+01  0.90030356359E+02  0.87317728180E+02 0.  0.
        -11    1    3    3    0    0 -0.61106028860E+02 -0.29653359936E+02  0.34255056751E+03  0.34921935774E+03  0.00000000000E+00 0.  1.
         12    1    3    3    0    0  0.22794310287E+02  0.81739697824E+01  0.13240405078E+03  0.13460024898E+03  0.00000000000E+00 0. -1.
        -13    1    4    4    0    0 -0.38733641950E+02  0.12761621627E+02 -0.49058430080E+00  0.40784735848E+02  0.00000000000E+00 0.  1.
         13    1    4    4    0    0  0.35516174485E+02 -0.33248762028E+02  0.76323202905E+01  0.49245620511E+02  0.00000000000E+00 0. -1.
         -2    1    1    2    0  502  0.41529186038E+02  0.41966530555E+02  0.16897413330E+03  0.17899195709E+03  0.00000000000E+00 0.  1.
<scales pt_clust_5="13000.00000" pt_clust_6="13000.00000" pt_clust_7="13000.00000" pt_clust_8="13000.00000" pt_clust_9="59.04123"></scales>
<clustering>
<clus scale="   59.041">  2  9  1 -1</clus>
<clus scale="   81.058">  5  6 -1 -1</clus>
<clus scale="   87.318">  7  8 -1 -1</clus>
<clus scale="   89.724">  1  5  2 -1</clus>
<clus scale="   59.041">  2  5  1 -1</clus>
</clustering>
</event>
<event>
 9    2  0.7820252E-005  0.1956777E+03  0.7546771E-02  0.1186656E+00
         21   -1    0    0  501  502  0.00000000000E+00  0.00000000000E+00  0.13310271170E+03  0.13310271170E+03  0.00000000000E+00 0. -1.
          2   -1    0    0  502    0 -0.00000000000E+00 -0.00000000000E+00 -0.49907764479E+03  0.49907764479E+03  0.00000000000E+00 0. -1.
         24    2    1    2    0    0  0.30170666979E+02 -0.32133129663E+02 -0.19833603237E+03  0.21843297354E+03  0.80205829138E+02 0.  0.
         23    2    1    2    0    0 -0.16074557583E+03 -0.79589640390E+02 -0.12504554226E+03  0.23669942799E+03  0.90645356005E+02 0.  0.
        -13    1    3    3    0    0  0.25127752277E+02 -0.37906024466E+02 -0.20393256474E+03  0.20894200532E+03  0.00000000000E+00 0.  1.
         14    1    3    3    0    0  0.50429147018E+01  0.57728948028E+01  0.55965323773E+01  0.94909682195E+01  0.00000000000E+00 0. -1.
        -13    1    4    4    0    0 -0.39043624129E+02 -0.49048606807E+02 -0.83726232174E+02  0.10459566133E+03  0.00000000000E+00 0. -1.
         13    1    4    4    0    0 -0.12170195170E+03 -0.30541033582E+02 -0.41319310086E+02  0.13210376666E+03  0.00000000000E+00 0.  1.
          1    1    1    2  501    0  0.13057490885E+03  0.11172277005E+03 -0.42593358463E+02  0.17704795496E+03  0.00000000000E+00 0. -1.
<scales pt_clust_5="13000.00000" pt_clust_6="13000.00000" pt_clust_7="13000.00000" pt_clust_8="13000.00000" pt_clust_9="173.41617"></scales>
<clustering>
<clus scale="   80.206">  5  6 -1 -1</clus>
<clus scale="   90.645">  7  8 -1 -1</clus>
<clus scale="   91.519">  2  5  1 -1</clus>
<clus scale="  173.416">  1  9  2 -1</clus>
<clus scale="  173.416">  1  5  2 -1</clus>
</clustering>
</event>
<event>
 9    2  0.7820252E-005  0.9220259E+02  0.7546771E-02  0.1302426E+00
         21   -1    0    0  501  502  0.00000000000E+00  0.00000000000E+00  0.55218281063E+02  0.55218281063E+02  0.00000000000E+00 0.  1.
         -3   -1    0    0    0  501 -0.00000000000E+00 -0.00000000000E+00 -0.29393594168E+03  0.29393594168E+03  0.00000000000E+00 0.  1.
         24    2    1    2    0    0 -0.36296274254E+02 -0.30810713014E+02 -0.12107124372E+03  0.15269855676E+03  0.79949256530E+02 0.  0.
         23    2    1    2    0    0 -0.11707173962E+02 -0.44857413420E+01 -0.37636063344E+02  0.96696819726E+02  0.88185156821E+02 0.  0.
        -11    1    3    3    0    0 -0.31898833196E+02 -0.38173824327E+02 -0.13067432806E+03  0.13982330434E+03  0.00000000000E+00 0.  1.
         12    1    3    3    0    0 -0.43974410580E+01  0.73631113137E+01  0.96030843387E+01  0.12875252421E+02  0.00000000000E+00 0. -1.
        -13    1    4    4    0    0 -0.32318639387E+02  0.12349689023E+02 -0.54959020813E+02  0.64942307008E+02  0.00000000000E+00 0. -1.
         13    1    4    4    0    0  0.20611465424E+02 -0.16835430365E+02  0.17322957469E+02  0.31754512718E+02  0.00000000000E+00 0.  1.
         -4    1    1    2    0  502  0.48003448216E+02  0.35296454356E+02 -0.80010353554E+02  0.99758846257E+02  0.00000000000E+00 0.  1.
<scales pt_clust_5="13000.00000" pt_clust_6="13000.00000" pt_clust_7="13000.00000" pt_clust_8="13000.00000" pt_clust_9="59.58334"></scales>
<clustering>
<clus scale="   59.583">  1  9  2 -1</clus>
<clus scale="   79.949">  5  6 -1 -1</clus>
<clus scale="   84.360">  2  5  1 -1</clus>
<clus scale="   88.185">  7  8 -1 -1</clus>
<clus scale="   59.583">  1  5  2 -1</clus>
</clustering>
</event>
<event>
 9    2  0.7820252E-005  0.1049902E+03  0.7546771E-02  0.1273257E+00
         21   -1    0    0  501  502  0.00000000000E+00  0.00000000000E+00  0.68340099291E+02  0.68340099291E+02  0.00000000000E+00 0. -1.
          2   -1    0    0  502    0 -0.00000000000E+00 -0.00000000000E+00 -0.74038773437E+03  0.74038773437E+03  0.00000000000E+00 0. -1.
         23    2    1    2    0    0  0.53077487033E+02  0.86126696000E+01 -0.34800753926E+03  0.36295554942E+03  0.87955021257E+02 0.  0.
         24    2    1    2    0    0 -0.47037676265E+02  0.77158728826E+02 -0.33767278106E+03  0.35871447466E+03  0.80542875788E+02 0.  0.
        -11    1    4    4    0    0 -0.50408824486E+02  0.12128260442E+02 -0.10502839948E+03  0.11712860020E+03  0.00000000000E+00 0.  1.
         12    1    4    4    0    0  0.33711482205E+01  0.65030468384E+02 -0.23264438158E+03  0.24158587446E+03  0.00000000000E+00 0. -1.
        -11    1    3    3    0    0  0.59304388000E+00  0.40127467737E+02 -0.10652411824E+03  0.11383300547E+03  0.00000000000E+00 0.  1.
         11    1    3    3    0    0  0.52484443153E+02 -0.31514798136E+02 -0.24148342102E+03  0.24912254395E+03  0.00000000000E+00 0. -1.
          1    1    1    2  501    0 -0.60398107677E+01 -0.85771398426E+02  0.13632685242E+02  0.87057809581E+02  0.00000000000E+00 0. -1.
<scales pt_clust_5="13000.00000" pt_clust_6="13000.00000" pt_clust_7="13000.00000" pt_clust_8="13000.00000" pt_clust_9="85.98379"></scales>
<clustering>
<clus scale="   80.543">  5  6 -1 -1</clus>
<clus scale="   85.984">  1  9  2 -1</clus>
<clus scale="   87.955">  7  8 -1 -1</clus>
<clus scale="   98.864">  1  5  2 -1</clus>
<clus scale="   85.984">  1  5  2 -1</clus>
</clustering>
</event>
<event>
 9    2  0.7820252E-005  0.1313096E+03  0.7546771E-02  0.1229650E+00
         21   -1    0    0  501  502  0.00000000000E+00  0.00000000000E+00  0.75353933951E+02  0.75353933951E+02  0.00000000000E+00 0.  1.
          2   -1    0    0  502    0 -0.00000000000E+00 -0.00000000000E+00 -0.35608980310E+03  0.35608980310E+03  0.00000000000E+00 0. -1.
         23    2    1    2    0    0 -0.99327958624E+02 -0.75620745725E+01 -0.18980906962E+03  0.23334848028E+03  0.92199793950E+02 0.  0.
         24    2    1    2    0    0  0.86463448758E+02 -0.20039900253E+02 -0.11133174480E+03  0.16143838265E+03  0.76092499114E+02 0.  0.
        -13    1    4    4    0    0  0.45095880750E+02  0.27760251455E+02 -0.41790035333E+02  0.67458706440E+02  0.00000000000E+00 0.  1.
         14    1    4    4    0    0  0.41367568008E+02 -0.47800151708E+02 -0.69541709462E+02  0.93979676213E+02  0.00000000000E+00 0. -1.
        -11    1    3    3    0    0 -0.51608284681E+02  0.42248564562E+02 -0.96746085384E+02  0.11750813288E+03  0.00000000000E+00 0. -1.
         11    1    3    3    0    0 -0.47719673943E+02 -0.49810639134E+02 -0.93062984237E+02  0.11584034741E+03  0.00000000000E+00 0.  1.
          1    1    1    2  501    0  0.12864509865E+02  0.27601974825E+02  0.20404945267E+02  0.36656874112E+02  0.00000000000E+00 0. -1.
<scales pt_clust_5="13000.00000" pt_clust_6="13000.00000" pt_clust_7="13000.00000" pt_clust_8="13000.00000" pt_clust_9="30.45266"></scales>
<clustering>
<clus scale="   30.453">  1  9  2 -1</clus>
<clus scale="   76.092">  5  6 -1 -1</clus>
<clus scale="   92.200">  7  8 -1 -1</clus>
<clus scale="  120.547">  1  5  2 -1</clus>
<clus scale="   30.453">  1  5  2 -1</clus>
</clustering>
</event>
<event>
 9    2  0.7820252E-005  0.2573807E+03  0.7546771E-02  0.1148618E+00
         21   -1    0    0  501  502  0.00000000000E+00  0.00000000000E+00  0.34939843786E+03  0.34939843786E+03  0.00000000000E+00 0. -1.
          2   -1    0    0  502    0 -0.00000000000E+00 -0.00000000000E+00 -0.37826482047E+03  0.37826482047E+03  0.00000000000E+00 0. -1.
         24    2    1    2    0    0 -0.32397718383E+02  0.38221364285E+02 -0.11437267226E+03  0.14956087720E+03  0.82321704226E+02 0.  0.
         23    2    1    2    0    0 -0.19467547196E+03  0.71069561857E+02 -0.11709008833E+03  0.25475731362E+03  0.90784239028E+02 0.  0.
        -13    1    3    3    0    0 -0.17986841736E+02 -0.98092656055E+01  0.41166333631E+01  0.20897244737E+02  0.00000000000E+00 0.  1.
         14    1    3    3    0    0 -0.14410876647E+02  0.48030629891E+02 -0.11848930562E+03  0.12866363247E+03  0.00000000000E+00 0. -1.
        -13    1    4    4    0    0 -0.84255635075E+02  0.47445432217E+00 -0.87374808044E+01  0.84708799540E+02  0.00000000000E+00 0. -1.
         13    1    4    4    0    0 -0.11041983688E+03  0.70595107535E+02 -0.10835260752E+03  0.17004851408E+03  0.00000000000E+00 0.  1.
          1    1    1    2  501    0  0.22707319034E+03 -0.10929092614E+03  0.20259637797E+03  0.32334506750E+03  0.00000000000E+00 0. -1.
<scales pt_clust_5="13000.00000" pt_clust_6="13000.00000" pt_clust_7="13000.00000" pt_clust_8="13000.00000" pt_clust_9="240.83821"></scales>
<clustering>
<clus scale="   82.322">  5  6 -1 -1</clus>
<clus scale="   90.784">  7  8 -1 -1</clus>
<clus scale="   96.371">  2  5  1 -1</clus>
<clus scale="  240.838">  1  9  2 -1</clus>
<clus scale="  240.838">  1  5  2 -1</clus>
</clustering>
</event>
<event>
 9    2  0.7820252E-005  0.9459581E+02  0.7546771E-02  0.1307495E+00
          2   -1    0    0  502    0 -0.00000000000E+00  0.00000000000E+00  0.47923494233E+03  0.47923494233E+03  0.00000000000E+00 0. -1.
         21   -1    0    0  501  502  0.00000000000E+00 -0.00000000000E+00 -0.37622046539E+02  0.37622046539E+02  0.00000000000E+00 0.  1.
         24    2    1    2    0    0  0.17358770111E+02 -0.29610926375E+02  0.27602812393E+03  0.28619836788E+03  0.67378384644E+02 0.  0.
         23    2    1    2    0    0 -0.33166825990E+01 -0.31608444171E+02  0.90151369464E+02  0.13249961860E+03  0.91753939357E+02 0.  0.
        -11    1    3    3    0    0  0.24817947655E+02  0.13996820115E+02  0.72085753670E+02  0.77512562733E+02  0.00000000000E+00 0.  1.
         12    1    3    3    0    0 -0.74591775443E+01 -0.43607746490E+02  0.20394237026E+03  0.20868580515E+03  0.00000000000E+00 0. -1.
        -11    1    4    4    0    0  0.26163106650E+02 -0.39774498521E+02  0.12769338554E+02  0.49290718085E+02  0.00000000000E+00 0.  1.
         11    1    4    4    0    0 -0.29479789249E+02  0.81660543501E+01  0.77382030909E+02  0.83208900519E+02  0.00000000000E+00 0. -1.
          1    1    1    2  501    0 -0.14042087512E+02  0.61219370546E+02  0.75433402399E+02  0.98159002385E+02  0.00000000000E+00 0. -1.
<scales pt_clust_5="13000.00000" pt_clust_6="13000.00000" pt_clust_7="13000.00000" pt_clust_8="13000.00000" pt_clust_9="62.80917"></scales>
<clustering>
<clus scale="   62.809">  2  9  1 -1</clus>
<clus scale="   67.378">  5  6 -1 -1</clus>
<clus scale="   71.200">  1  5  2 -1</clus>
<clus scale="   91.754">  7  8 -1 -1</clus>
<clus scale="   62.809">  2  5  1 -1</clus>
</clustering>
</event>
<event>
 9    2  0.7820252E-005  0.9330411E+02  0.7546771E-02  0.1303171E+00
          2   -1    0    0  502    0 -0.00000000000E+00  0.00000000000E+00  0.83486665697E+03  0.83486665697E+03  0.00000000000E+00 0. -1.
         21   -1    0    0  501  502  0.00000000000E+00 -0.00000000000E+00 -0.36526237218E+02  0.36526237218E+02  0.00000000000E+00 0. -1.
         24    2    1    2    0    0  0.83266372210E+00  0.17221666295E+02  0.59692033458E+03  0.60238420119E+03  0.79092103870E+02 0.  0.
         23    2    1    2    0    0  0.34592802691E+02  0.23438395937E+02  0.60162110815E+02  0.11780677617E+03  0.92265576094E+02 0.  0.
        -11    1    3    3    0    0  0.23491819248E+02  0.49413054910E+01  0.56997154799E+02  0.61846242624E+02  0.00000000000E+00 0.  1.
         12    1    3    3    0    0 -0.22659155526E+02  0.12280360804E+02  0.53992317978E+03  0.54053795857E+03  0.00000000000E+00 0. -1.
        -11    1    4    4    0    0  0.63220683426E+02  0.28918781351E+00  0.46728795065E+02  0.78616275228E+02  0.00000000000E+00 0. -1.
         11    1    4    4    0    0 -0.28627880735E+02  0.23149208124E+02  0.13433315750E+02  0.39190500943E+02  0.00000000000E+00 0.  1.
          1    1    1    2  501    0 -0.35425466414E+02 -0.40660062233E+02  0.14125797435E+03  0.15120191682E+03  0.00000000000E+00 0. -1.
<scales pt_clust_5="13000.00000" pt_clust_6="13000.00000" pt_clust_7="13000.00000" pt_clust_8="13000.00000" pt_clust_9="53.92780"></scales>
<clustering>
<clus scale="   53.928">  2  9  1 -1</clus>
<clus scale="   79.092">  5  6 -1 -1</clus>
<clus scale="   80.301">  1  5  2 -1</clus>
<clus scale="   92.266">  7  8 -1 -1</clus>
<clus scale="   53.928">  2  5  1 -1</clus>
</clustering>
</event>
<event>
 9    2  0.7820252E-005  0.2865877E+03  0.7546771E-02  0.1124972E+00
         21   -1    0    0  501  502  0.00000000000E+00  0.00000000000E+00  0.21281393955E+03  0.21281393955E+03  0.00000000000E+00 0.  1.
          2   -1    0    0  502    0 -0.00000000000E+00 -0.00000000000E+00 -0.11133696871E+04  0.11133696871E+04  0.00000000000E+00 0. -1.
         24    2    1    2    0    0  0.38416470326E+02 -0.87118942349E+02 -0.28618529849E+03  0.31185374557E+03  0.79279242212E+02 0.  0.
         23    2    1    2    0    0 -0.25318581687E+03 -0.10112053859E+03  0.50125120695E+02  0.29106344565E+03  0.88752354774E+02 0.  0.
        -11    1    3    3    0    0 -0.20054196586E+02 -0.41102126050E+01 -0.30369179934E+02  0.36624469118E+02  0.00000000000E+00 0.  1.
         12    1    3    3    0    0  0.58470666911E+02 -0.83008729744E+02 -0.25581611856E+03  0.27522927645E+03  0.00000000000E+00 0. -1.
        -13    1    4    4    0    0 -0.17007123575E+03 -0.36606797165E+02  0.63090607686E+02  0.18505325614E+03  0.00000000000E+00 0.  1.
         13    1    4    4    0    0 -0.83114581121E+02 -0.64513741421E+02 -0.12965486991E+02  0.10601018951E+03  0.00000000000E+00 0. -1.
          1    1    1    2  501    0  0.21476934655E+03  0.18823948094E+03 -0.66449556972E+03  0.72326643540E+03  0.00000000000E+00 0. -1.
<scales pt_clust_5="13000.00000" pt_clust_6="13000.00000" pt_clust_7="13000.00000" pt_clust_8="13000.00000" pt_clust_9="272.49877"></scales>
<clustering>
<clus scale="   79.279">  5  6 -1 -1</clus>
<clus scale="   88.752">  7  8 -1 -1</clus>
<clus scale="  123.898">  2  5  1 -1</clus>
<clus scale="  272.499">  1  9  2 -1</clus>
<clus scale="  272.499">  1  5  2 -1</clus>
</clustering>
</event>
<event>
 9    2  0.7820252E-005  0.8768593E+02  0.7546771E-02  0.1310393E+00
         21   -1    0    0  501  502  0.00000000000E+00  0.00000000000E+00  0.36768897317E+02  0.36768897317E+02  0.00000000000E+00 0. -1.
          2   -1    0    0  502    0 -0.00000000000E+00 -0.00000000000E+00 -0.73679301172E+03  0.73679301172E+03  0.00000000000E+00 0. -1.
         24    2    1    2    0    0  0.18930341020E+02 -0.14354153631E+02 -0.46831892605E+03  0.47567515744E+03  0.79873896631E+02 0.  0.
         23    2    1    2    0    0 -0.39002678280E+02  0.11241354137E+02 -0.25248030626E+03  0.26883173882E+03  0.82925398932E+02 0.  0.
        -11    1    3    3    0    0 -0.28610778575E+02  0.27384207578E+01 -0.10508083222E+03  0.10894061180E+03  0.00000000000E+00 0.  1.
         12    1    3    3    0    0  0.47541119594E+02 -0.17092574389E+02 -0.36323809383E+03  0.36673454563E+03  0.00000000000E+00 0. -1.
        -11    1    4    4    0    0  0.23324581067E+02  0.15925658480E+02 -0.10319498166E+03  0.10699003187E+03  0.00000000000E+00 0. -1.
         11    1    4    4    0    0 -0.62327259347E+02 -0.46843043430E+01 -0.14928532461E+03  0.16184170695E+03  0.00000000000E+00 0.  1.
          1    1    1    2  501    0  0.20072337260E+02  0.31127994942E+01  0.20775117914E+02  0.29055012788E+02  0.00000000000E+00 0. -1.
<scales pt_clust_5="13000.00000" pt_clust_6="13000.00000" pt_clust_7="13000.00000" pt_clust_8="13000.00000" pt_clust_9="20.31227"></scales>
<clustering>
<clus scale="   20.312">  1  9  2 -1</clus>
<clus scale="   79.874">  5  6 -1 -1</clus>
<clus scale="   82.925">  7  8 -1 -1</clus>
<clus scale="   84.806">  2  5  1 -1</clus>
<clus scale="   20.312">  1  5  2 -1</clus>
</clustering>
</event>
<event>
 9    2  0.7820252E-005  0.1875489E+03  0.7546771E-02  0.1161268E+00
         21   -1    0    0  501  502  0.00000000000E+00  0.00000000000E+00  0.25539218599E+02  0.25539218599E+02  0.00000000000E+00 0. -1.
          2   -1    0    0  502    0 -0.00000000000E+00 -0.00000000000E+00 -0.22959039508E+04  0.22959039508E+04  0.00000000000E+00 0. -1.
         24    2    1    2    0    0  0.17074811982E+03 -0.91682488733E+02 -0.11199770977E+04  0.11393701279E+04  0.79088493713E+02 0.  0.
         23    2    1    2    0    0 -0.84664426297E+02  0.11262341424E+03 -0.51699827363E+03  0.54251772167E+03  0.84771250248E+02 0.  0.
        -11    1    3    3    0    0  0.23527596940E+01 -0.23218078022E+02 -0.70389536767E+02  0.74157275513E+02  0.00000000000E+00 0.  1.
         12    1    3    3    0    0  0.16839536013E+03 -0.68464410711E+02 -0.10495875609E+04  0.10652128524E+04  0.00000000000E+00 0. -1.
        -13    1    4    4    0    0 -0.52443044377E+02  0.77022145767E+01 -0.13399393691E+03  0.14409709276E+03  0.00000000000E+00 0.  1.
         13    1    4    4    0    0 -0.32221381920E+02  0.10492119966E+03 -0.38300433672E+03  0.39842062890E+03  0.00000000000E+00 0. -1.
          1    1    1    2  501    0 -0.86083693526E+02 -0.20940925503E+02 -0.63338936093E+03  0.63955531988E+03  0.00000000000E+00 0. -1.
<scales pt_clust_5="13000.00000" pt_clust_6="13000.00000" pt_clust_7="13000.00000" pt_clust_8="13000.00000" pt_clust_9="88.59420"></scales>
<clustering>
<clus scale="   79.088">  5  6 -1 -1</clus>
<clus scale="   84.771">  7  8 -1 -1</clus>
<clus scale="   88.594">  1  9  2 -1</clus>
<clus scale="  185.050">  2  5  1 -1</clus>
<clus scale="   88.594">  1  5  2 -1</clus>
</clustering>
</event>
<event>
 9    2  0.7820252E-005  0.2277923E+03  0.7546771E-02  0.1129014E+00
         21   -1    0    0  501  502  0.00000000000E+00  0.00000000000E+00  0.79142076634E+03  0.79142076634E+03  0.00000000000E+00 0. -1.
          2   -1    0    0  502    0 -0.00000000000E+00 -0.00000000000E+00 -0.11748724558E+03  0.11748724558E+03  0.00000000000E+00 0. -1.
         23    2    1    2    0    0 -0.19192236117E+03 -0.12124976472E+03  0.74260040852E+02  0.25565722953E+03  0.91161215335E+02 0.  0.
         24    2    1    2    0    0  0.12267022210E+03  0.90827628932E+02  0.49560312974E+03  0.52459619484E+03  0.79253163114E+02 0.  0.
        -11    1    4    4    0    0  0.71038641140E+02  0.61534228541E+02  0.17595015728E+03  0.19947783753E+03  0.00000000000E+00 0.  1.
         12    1    4    4    0    0  0.51631580955E+02  0.29293400391E+02  0.31965297246E+03  0.32511835731E+03  0.00000000000E+00 0. -1.
        -13    1    3    3    0    0 -0.57742386689E+01 -0.41194725102E+02  0.18261053172E+02  0.45429211652E+02  0.00000000000E+00 0.  1.
         13    1    3    3    0    0 -0.18614812251E+03 -0.80055039622E+02  0.55998987680E+02  0.21022801788E+03  0.00000000000E+00 0. -1.
          1    1    1    2  501    0  0.69252139080E+02  0.30422135791E+02  0.10407035017E+03  0.12865458755E+03  0.00000000000E+00 0. -1.
<scales pt_clust_5="13000.00000" pt_clust_6="13000.00000" pt_clust_7="13000.00000" pt_clust_8="13000.00000" pt_clust_9="75.63971"></scales>
<clustering>
<clus scale="   75.640">  1  9  2 -1</clus>
<clus scale="   79.253">  5  6 -1 -1</clus>
<clus scale="   91.161">  7  8 -1 -1</clus>
<clus scale="  223.294">  1  5  2 -1</clus>
<clus scale="   75.640">  1  5  2 -1</clus>
</clustering>
</event>
<event>
 9    2  0.7820252E-005  0.1119056E+03  0.7546771E-02  0.1262348E+00
         21   -1    0    0  501  502  0.00000000000E+00  0.00000000000E+00  0.33009399699E+03  0.33009399699E+03  0.00000000000E+00 0. -1.
          4   -1    0    0  502    0 -0.00000000000E+00 -0.00000000000E+00 -0.13977738148E+03  0.13977738148E+03  0.00000000000E+00 0. -1.
         24    2    1    2    0    0  0.52670747431E+02  0.19913879892E+01 -0.83521860324E+02  0.14283448536E+03  0.10318728504E+03 0.  0.
         23    2    1    2    0    0 -0.14562858134E+02 -0.12943161342E+02  0.62962677868E+02  0.11246579830E+03  0.91129878303E+02 0.  0.
        -11    1    3    3    0    0  0.28832078967E+02 -0.46447881261E+02 -0.66795514546E+02  0.86315324333E+02  0.00000000000E+00 0.  1.
         12    1    3    3    0    0  0.23838668464E+02  0.48439269250E+02 -0.16726345779E+02  0.56519161023E+02  0.00000000000E+00 0. -1.
        -11    1    4    4    0    0 -0.15235747185E+02 -0.33727415698E+02  0.78313823349E+02  0.86618251480E+02  0.00000000000E+00 0.  1.
         11    1    4    4    0    0  0.67288905153E+00  0.20784254357E+02 -0.15351145481E+02  0.25847546816E+02  0.00000000000E+00 0. -1.
          3    1    1    2  501    0 -0.38107889298E+02  0.10951773352E+02  0.21087579796E+03  0.21457109482E+03  0.00000000000E+00 0. -1.
<scales pt_clust_5="13000.00000" pt_clust_6="13000.00000" pt_clust_7="13000.00000" pt_clust_8="13000.00000" pt_clust_9="39.65038"></scales>
<clustering>
<clus scale="   39.650">  1  9  2 -1</clus>
<clus scale="   91.130">  7  8 -1 -1</clus>
<clus scale="  100.896">  1  7  2 -1</clus>
<clus scale="  103.187">  5  6 -1 -1</clus>
<clus scale="   39.650">  1  5  2 -1</clus>
</clustering>
</event>
<event>
 9    2  0.7820252E-005  0.1206825E+03  0.7546771E-02  0.1243967E+00
         21   -1    0    0  501  502  0.00000000000E+00  0.00000000000E+00  0.34535310670E+02  0.34535310670E+02  0.00000000000E+00 0. -1.
          2   -1    0    0  502    0 -0.00000000000E+00 -0.00000000000E+00 -0.55218002878E+03  0.55218002878E+03  0.00000000000E+00 0. -1.
         23    2    1    2    0    0 -0.71636617280E+02 -0.30732137725E+02 -0.21736997179E+03  0.24610579898E+03  0.85100472559E+02 0.  0.
         24    2    1    2    0    0  0.69800407777E+02  0.65216531295E+02 -0.25805603932E+03  0.28606630729E+03  0.78203068079E+02 0.  0.
        -11    1    4    4    0    0  0.51783675681E+02 -0.19109403426E+01 -0.13706089526E+03  0.14652948430E+03  0.00000000000E+00 0.  1.
         12    1    4    4    0    0  0.18016732096E+02  0.67127471637E+02 -0.12099514407E+03  0.13953682299E+03  0.00000000000E+00 0. -1.
        -13    1    3    3    0    0 -0.21521117546E+02 -0.48443509503E+02 -0.60306129153E+02  0.80291726390E+02  0.00000000000E+00 0.  1.
         13    1    3    3    0    0 -0.50115499734E+02  0.17711371777E+02 -0.15706384264E+03  0.16581407259E+03  0.00000000000E+00 0. -1.
          1    1    1    2  501    0  0.18362095028E+01 -0.34484393569E+02 -0.42218706996E+02  0.54543233179E+02  0.00000000000E+00 0. -1.
<scales pt_clust_5="13000.00000" pt_clust_6="13000.00000" pt_clust_7="13000.00000" pt_clust_8="13000.00000" pt_clust_9="34.53325"></scales>
<clustering>
<clus scale="   34.533">  1  9  2 -1</clus>
<clus scale="   78.203">  5  6 -1 -1</clus>
<clus scale="   85.100">  7  8 -1 -1</clus>
<clus scale="  115.922">  1  5  2 -1</clus>
<clus scale="   34.533">  1  5  2 -1</clus>
</clustering>
</event>
<event>
 9    2  0.7820252E-005  0.1134107E+03  0.7546771E-02  0.1259993E+00
         -3   -1    0    0    0  501 -0.00000000000E+00  0.00000000000E+00  0.71799964318E+03  0.71799964318E+03  0.00000000000E+00 0.  1.
         21   -1    0    0  501  502  0.00000000000E+00 -0.00000000000E+00 -0.26034808728E+02  0.26034808728E+02  0.00000000000E+00 0.  1.
         23    2    1    2    0    0 -0.61242700553E+02  0.50457084613E+02  0.45293342329E+03  0.46959669276E+03  0.95266899616E+02 0.  0.
         24    2    1    2    0    0  0.36424660701E+02 -0.17981347916E+02  0.19143856902E+03  0.21170270356E+03  0.80741712927E+02 0.  0.
        -11    1    4    4    0    0 -0.17910169037E+02  0.15838448588E+02  0.32375023999E+02  0.40246400926E+02  0.00000000000E+00 0.  1.
         12    1    4    4    0    0  0.54334829738E+02 -0.33819796503E+02  0.15906354502E+03  0.17145630264E+03  0.00000000000E+00 0. -1.
        -11    1    3    3    0    0 -0.59164421993E+02  0.72916825936E+02  0.41476759591E+03  0.42526397797E+03  0.00000000000E+00 0.  1.
         11    1    3    3    0    0 -0.20782785603E+01 -0.22459741323E+02  0.38165827372E+02  0.44332714794E+02  0.00000000000E+00 0. -1.
         -4    1    1    2    0  502  0.24818039852E+02 -0.32475736697E+02  0.47592842143E+02  0.62735055586E+02  0.00000000000E+00 0.  1.
<scales pt_clust_5="13000.00000" pt_clust_6="13000.00000" pt_clust_7="13000.00000" pt_clust_8="13000.00000" pt_clust_9="40.87308"></scales>
<clustering>
<clus scale="   40.873">  2  9  1 -1</clus>
<clus scale="   80.742">  5  6 -1 -1</clus>
<clus scale="   95.267">  7  8 -1 -1</clus>
<clus scale="  101.516">  2  5  1 -1</clus>
<clus scale="   40.873">  2  5  1 -1</clus>
</clustering>
</event>
<event>
 9    2  0.7820252E-005  0.1306420E+03  0.7546771E-02  0.1237968E+00
         21   -1    0    0  501  502  0.00000000000E+00  0.00000000000E+00  0.85349226403E+02  0.85349226403E+02  0.00000000000E+00 0. -1.
          2   -1    0    0  502    0 -0.00000000000E+00 -0.00000000000E+00 -0.50460671311E+03  0.50460671311E+03  0.00000000000E+00 0. -1.
         24    2    1    2    0    0 -0.44928529913E+02 -0.35575939717E+02 -0.30795244342E+03  0.32399549149E+03  0.82789798963E+02 0.  0.
         23    2    1    2    0    0  0.40853386962E+02  0.68366977210E+02 -0.15647318385E+03  0.20999599633E+03  0.11520164240E+03 0.  0.
        -11    1    3    3    0    0 -0.11016238833E+02 -0.43355753107E+02 -0.67108118962E+02  0.80650966988E+02  0.00000000000E+00 0.  1.
         12    1    3    3    0    0 -0.33912291080E+02  0.77798133901E+01 -0.24084432446E+03  0.24334452451E+03  0.00000000000E+00 0. -1.
        -11    1    4    4    0    0 -0.19931232421E+02  0.53987551756E+02 -0.12997452432E+03  0.14214530151E+03  0.00000000000E+00 0. -1.
         11    1    4    4    0    0  0.60784619383E+02  0.14379425454E+02 -0.26498659530E+02  0.67850694815E+02  0.00000000000E+00 0.  1.
          1    1    1    2  501    0  0.40751429502E+01 -0.32791037493E+02  0.45168140569E+02  0.55964451685E+02  0.00000000000E+00 0. -1.
<scales pt_clust_5="13000.00000" pt_clust_6="13000.00000" pt_clust_7="13000.00000" pt_clust_8="13000.00000" pt_clust_9="33.04329"></scales>
<clustering>
<clus scale="   33.043">  1  9  2 -1</clus>
<clus scale="   82.790">  5  6 -1 -1</clus>
<clus scale="  103.199">  2  5  1 -1</clus>
<clus scale="  115.202">  7  8 -1 -1</clus>
<clus scale="   33.043">  1  5  2 -1</clus>
</clustering>
</event>
<event>
 9    2  0.7820252E-005  0.1146957E+03  0.7546771E-02  0.1256501E+00
          2   -1    0    0  502    0 -0.00000000000E+00  0.00000000000E+00  0.16069053793E+03  0.16069053793E+03  0.00000000000E+00 0. -1.
         21   -1    0    0  501  502  0.00000000000E+00 -0.00000000000E+00 -0.13010155908E+03  0.13010155908E+03  0.00000000000E+00 0. -1.
         24    2    1    2    0    0  0.28348762089E+02  0.65009437369E+02  0.76358921641E+02  0.13025154750E+03  0.78133868792E+02 0.  0.
         23    2    1    2    0    0 -0.10871411944E+01 -0.72942733483E+02 -0.12775612111E+02  0.11701171978E+03  0.90590849744E+02 0.  0.
        -11    1    3    3    0    0  0.17068719288E+02  0.15278790602E+02 -0.13747300715E+02  0.26716491112E+02  0.00000000000E+00 0.  1.
         12    1    3    3    0    0  0.11280042800E+02  0.49730646768E+02  0.90106222356E+02  0.10353505639E+03  0.00000000000E+00 0. -1.
        -13    1    4    4    0    0 -0.26865651498E+02 -0.83678663341E+02 -0.14318490303E+02  0.89044377102E+02  0.00000000000E+00 0.  1.
         13    1    4    4    0    0  0.25778510303E+02  0.10735929858E+02  0.15428781924E+01  0.27967342679E+02  0.00000000000E+00 0. -1.
          1    1    1    2  501    0 -0.27261620894E+02  0.79332961137E+01 -0.32994330677E+02  0.43528829732E+02  0.00000000000E+00 0. -1.
<scales pt_clust_5="13000.00000" pt_clust_6="13000.00000" pt_clust_7="13000.00000" pt_clust_8="13000.00000" pt_clust_9="28.39248"></scales>
<clustering>
<clus scale="   28.392">  2  9  1 -1</clus>
<clus scale="   78.134">  5  6 -1 -1</clus>
<clus scale="   90.591">  7  8 -1 -1</clus>
<clus scale="  105.135">  1  5  2 -1</clus>
<clus scale="   28.392">  2  5  1 -1</clus>
</clustering>
</event>
<event>
 9    2  0.7820252E-005  0.1693708E+03  0.7546771E-02  0.1180261E+00
         21   -1    0    0  501  502  0.00000000000E+00  0.00000000000E+00  0.15090341738E+03  0.15090341738E+03  0.00000000000E+00 0.  1.
          2   -1    0    0  502    0 -0.00000000000E+00 -0.00000000000E+00 -0.45792325000E+03  0.45792325000E+03  0.00000000000E+00 0. -1.
         24    2    1    2    0    0  0.31233476905E+02  0.15625358418E+03 -0.31837422291E+03  0.36536544780E+03  0.82091729081E+02 0.  0.
         23    2    1    2    0    0  0.48670957507E+02 -0.91245853609E+02  0.24477877742E+01  0.14006851558E+03  0.94437966337E+02 0.  0.
        -11    1    3    3    0    0  0.57969533418E+02  0.11831149462E+03 -0.21688853542E+03  0.25376901576E+03  0.00000000000E+00 0.  1.
         12    1    3    3    0    0 -0.26736056513E+02  0.37942089551E+02 -0.10148568749E+03  0.11159643203E+03  0.00000000000E+00 0. -1.
        -13    1    4    4    0    0  0.71014543340E+02 -0.36125159739E+02  0.92221119779E+01  0.80206856822E+02  0.00000000000E+00 0.  1.
         13    1    4    4    0    0 -0.22343585833E+02 -0.55120693870E+02 -0.67743242036E+01  0.59861658756E+02  0.00000000000E+00 0. -1.
          1    1    1    2  501    0 -0.79904434412E+02 -0.65007730567E+02  0.89066025127E+01  0.10339270400E+03  0.00000000000E+00 0. -1.
<scales pt_clust_5="13000.00000" pt_clust_6="13000.00000" pt_clust_7="13000.00000" pt_clust_8="13000.00000" pt_clust_9="103.00837"></scales>
<clustering>
<clus scale="   82.092">  5  6 -1 -1</clus>
<clus scale="   94.438">  7  8 -1 -1</clus>
<clus scale="  103.008">  1  9  2 -1</clus>
<clus scale="  162.810">  2  5  1 -1</clus>
<clus scale="  103.008">  1  5  2 -1</clus>
</clustering>
</event>
<event>
 9    2  0.7820252E-005  0.9930050E+02  0.7546771E-02  0.1287935E+00
         -3   -1    0    0    0  501 -0.00000000000E+00  0.00000000000E+00  0.15564933872E+03  0.15564933872E+03  0.00000000000E+00 0.  1.
         21   -1    0    0  501  502  0.00000000000E+00 -0.00000000000E+00 -0.21474654149E+03  0.21474654149E+03  0.00000000000E+00 0.  1.
         23    2    1    2    0    0  0.14522052353E+02  0.40065865234E+02  0.92638896091E+02  0.13783793629E+03  0.92742482440E+02 0.  0.
         24    2    1    2    0    0  0.52691817497E+02 -0.18559219783E+02 -0.54620127256E+02  0.11250898707E+03  0.80957035522E+02 0.  0.
        -11    1    4    4    0    0  0.42868619808E+02 -0.35550837688E+02 -0.13171355442E+01  0.55707409477E+02  0.00000000000E+00 0.  1.
         12    1    4    4    0    0  0.98231976883E+01  0.16991617905E+02 -0.53302991712E+02  0.56801577595E+02  0.00000000000E+00 0. -1.
        -13    1    3    3    0    0  0.31319059856E+02 -0.62694625558E+01 -0.10701681347E+01  0.31958331165E+02  0.00000000000E+00 0. -1.
         13    1    3    3    0    0 -0.16797007503E+02  0.46335327790E+02  0.93709064226E+02  0.10587960512E+03  0.00000000000E+00 0.  1.
         -4    1    1    2    0  502 -0.67213869850E+02 -0.21506645451E+02 -0.97115971608E+02  0.12004895685E+03  0.00000000000E+00 0.  1.
<scales pt_clust_5="13000.00000" pt_clust_6="13000.00000" pt_clust_7="13000.00000" pt_clust_8="13000.00000" pt_clust_9="70.57082"></scales>
<clustering>
<clus scale="   70.571">  2  9  1 -1</clus>
<clus scale="   80.957">  5  6 -1 -1</clus>
<clus scale="   88.394">  2  5  1 -1</clus>
<clus scale="   92.742">  7  8 -1 -1</clus>
<clus scale="   70.571">  2  5  1 -1</clus>
</clustering>
</event>
<event>
 9    2  0.7820252E-005  0.9542565E+02  0.7546771E-02  0.1294195E+00
          2   -1    0    0  502    0 -0.00000000000E+00  0.00000000000E+00  0.43482751271E+03  0.43482751271E+03  0.00000000000E+00 0. -1.
         21   -1    0    0  501  502  0.00000000000E+00 -0.00000000000E+00 -0.50668285180E+02  0.50668285180E+02  0.00000000000E+00 0. -1.
         23    2    1    2    0    0  0.22632083998E+02  0.15441876804E+02  0.12937168772E+03  0.16084231853E+03  0.91556294489E+02 0.  0.
         24    2    1    2    0    0  0.65934320356E+02 -0.12921489405E+02  0.17692651949E+03  0.20670137544E+03  0.83115376571E+02 0.  0.
        -11    1    4    4    0    0  0.46670121914E+02 -0.47513677859E+02  0.99406353829E+02  0.11965480786E+03  0.00000000000E+00 0.  1.
         12    1    4    4    0    0  0.19264198442E+02  0.34592188454E+02  0.77520165659E+02  0.87046567580E+02  0.00000000000E+00 0. -1.
        -13    1    3    3    0    0 -0.32941834592E+02 -0.42185104285E+01  0.68384370103E+02  0.76022249183E+02  0.00000000000E+00 0.  1.
         13    1    3    3    0    0  0.55573918590E+02  0.19660387232E+02  0.60987317622E+02  0.84820069349E+02  0.00000000000E+00 0. -1.
          1    1    1    2  501    0 -0.88566404354E+02 -0.25203873990E+01  0.77861020315E+02  0.11795210391E+03  0.00000000000E+00 0. -1.
<scales pt_clust_5="13000.00000" pt_clust_6="13000.00000" pt_clust_7="13000.00000" pt_clust_8="13000.00000" pt_clust_9="88.60226"></scales>
<clustering>
<clus scale="   83.115">  5  6 -1 -1</clus>
<clus scale="   88.602">  2  9  1 -1</clus>
<clus scale="   88.602">  2  5  1 -1</clus>
<clus scale="   91.556">  7  8 -1 -1</clus>
<clus scale="   88.602">  2  5  1 -1</clus>
</clustering>
</event>
<event>
 9    2  0.7820252E-005  0.2971259E+03  0.7546771E-02  0.1099631E+00
          2   -1    0    0  502    0 -0.00000000000E+00  0.00000000000E+00  0.16154359071E+04  0.16154359071E+04  0.00000000000E+00 0. -1.
         21   -1    0    0  501  502  0.00000000000E+00 -0.00000000000E+00 -0.11418014497E+03  0.11418014497E+03  0.00000000000E+00 0. -1.
         24    2    1    2    0    0  0.13987337183E+03  0.12407427673E+03  0.38754721900E+03  0.44147604931E+03  0.98738385984E+02 0.  0.
         23    2    1    2    0    0  0.22405399492E+03 -0.12315276140E+03  0.35633724325E+03  0.44786905636E+03  0.90794633321E+02 0.  0.
        -11    1    3    3    0    0  0.41747533500E+02  0.23548794283E+02  0.28117794144E+02  0.55569889446E+02  0.00000000000E+00 0.  1.
         12    1    3    3    0    0  0.98125838335E+02  0.10052548245E+03  0.35942942486E+03  0.38590615987E+03  0.00000000000E+00 0. -1.
        -13    1    4    4    0    0  0.85695244780E+02 -0.94718564599E+02  0.19862122951E+03  0.23614756884E+03  0.00000000000E+00 0.  1.
         13    1    4    4    0    0  0.13835875014E+03 -0.28434196802E+02  0.15771601374E+03  0.21172148753E+03  0.00000000000E+00 0. -1.
          1    1    1    2  501    0 -0.36392736676E+03 -0.92151533114E+00  0.75737129991E+03  0.84027094641E+03  0.00000000000E+00 0. -1.
<scales pt_clust_5="13000.00000" pt_clust_6="13000.00000" pt_clust_7="13000.00000" pt_clust_8="13000.00000" pt_clust_9="282.91376"></scales>
<clustering>
<clus scale="   90.795">  7  8 -1 -1</clus>
<clus scale="   98.738">  5  6 -1 -1</clus>
<clus scale="  211.443">  1  5  2 -1</clus>
<clus scale="  282.914">  2  9  1 -1</clus>
<clus scale="  282.914">  2  5  1 -1</clus>
</clustering>
</event>
<event>
 9    2  0.7820252E-005  0.5145532E+03  0.7546771E-02  0.1037232E+00
         21   -1    0    0  501  502  0.00000000000E+00  0.00000000000E+00  0.12924717200E+04  0.12924717200E+04  0.00000000000E+00 0.  1.
         -3   -1    0    0    0  501 -0.00000000000E+00 -0.00000000000E+00 -0.44255966168E+03  0.44255966168E+03  0.00000000000E+00 0.  1.
         24    2    1    2    0    0  0.97457297834E+02 -0.18988713718E+03  0.14976709440E+03  0.27220579595E+03  0.78171369532E+02 0.  0.
         23    2    1    2    0    0  0.25387662420E+02 -0.34482427554E+03 -0.19972445665E+03  0.40889382645E+03  0.88068089077E+02 0.  0.
        -11    1    3    3    0    0  0.78198297726E+02 -0.19134919350E+03  0.14442327366E+03  0.25216575817E+03  0.00000000000E+00 0.  1.
         12    1    3    3    0    0  0.19259000109E+02  0.14620563208E+01  0.53438207408E+01  0.20040037774E+02  0.00000000000E+00 0. -1.
        -11    1    4    4    0    0  0.65765036328E+01 -0.33505676334E+03 -0.19264618787E+03  0.38654733056E+03  0.00000000000E+00 0.  1.
         11    1    4    4    0    0  0.18811158788E+02 -0.97675122044E+01 -0.70782687800E+01  0.22346495889E+02  0.00000000000E+00 0. -1.
         -4    1    1    2    0  502 -0.12284496025E+03  0.53471141272E+03  0.89986942061E+03  0.10539317593E+04  0.00000000000E+00 0.  1.
<scales pt_clust_5="13000.00000" pt_clust_6="13000.00000" pt_clust_7="13000.00000" pt_clust_8="13000.00000" pt_clust_9="506.96051"></scales>
<clustering>
<clus scale="   78.171">  5  6 -1 -1</clus>
<clus scale="   88.068">  7  8 -1 -1</clus>
<clus scale="  227.301">  2  5  1 -1</clus>
<clus scale="  506.961">  1  9  2 -1</clus>
<clus scale="  506.961">  1  5  2 -1</clus>
</clustering>
</event>
<event>
 9    2  0.7820252E-005  0.1206566E+03  0.7546771E-02  0.1244993E+00
         21   -1    0    0  501  502  0.00000000000E+00  0.00000000000E+00  0.10585819309E+03  0.10585819309E+03  0.00000000000E+00 0.  1.
          2   -1    0    0  502    0 -0.00000000000E+00 -0.00000000000E+00 -0.35627961112E+03  0.35627961112E+03  0.00000000000E+00 0. -1.
         24    2    1    2    0    0  0.37415580452E+02  0.63973332084E+02 -0.19295242867E+03  0.22243084645E+03  0.82172555302E+02 0.  0.
         23    2    1    2    0    0  0.18520737378E+01 -0.97139519713E+02 -0.10484661275E+03  0.16980285297E+03  0.91655224647E+02 0.  0.
        -11    1    3    3    0    0  0.27390464610E+02  0.23525183018E+02 -0.14057423569E+02  0.38746392671E+02  0.00000000000E+00 0.  1.
         12    1    3    3    0    0  0.10025115842E+02  0.40448149066E+02 -0.17889500510E+03  0.18368445378E+03  0.00000000000E+00 0. -1.
        -13    1    4    4    0    0 -0.37476559223E+02 -0.11811884220E+02 -0.25676302390E+02  0.46939169192E+02  0.00000000000E+00 0. -1.
         13    1    4    4    0    0  0.39328632961E+02 -0.85327635493E+02 -0.79170310362E+02  0.12286368378E+03  0.00000000000E+00 0.  1.
          1    1    1    2  501    0 -0.39267654190E+02  0.33166187629E+02  0.47377623388E+02  0.69904104781E+02  0.00000000000E+00 0. -1.
<scales pt_clust_5="13000.00000" pt_clust_6="13000.00000" pt_clust_7="13000.00000" pt_clust_8="13000.00000" pt_clust_9="51.39985"></scales>
<clustering>
<clus scale="   51.400">  1  9  2 -1</clus>
<clus scale="   82.173">  5  6 -1 -1</clus>
<clus scale="   91.655">  7  8 -1 -1</clus>
<clus scale="  113.621">  2  5  1 -1</clus>
<clus scale="   51.400">  1  5  2 -1</clus>
</clustering>
</event>
<event>
 9    2  0.7820252E-005  0.1137545E+03  0.7546771E-02  0.1260668E+00
          2   -1    0    0  502    0 -0.00000000000E+00  0.00000000000E+00  0.26486320340E+03  0.26486320340E+03  0.00000000000E+00 0. -1.
         21   -1    0    0  501  502  0.00000000000E+00 -0.00000000000E+00 -0.93706303961E+02  0.93706303961E+02  0.00000000000E+00 0. -1.
         23    2    1    2    0    0 -0.24551832502E+02  0.44764240954E+02  0.17716781880E+03  0.20971331751E+03  0.99923019235E+02 0.  0.
         24    2    1    2    0    0 -0.91881948848E+00 -0.73062890165E+02 -0.58529576910E+01  0.11078267397E+03  0.83063310733E+02 0.  0.
        -11    1    4    4    0    0 -0.26045707437E+02  0.63956488572E+01 -0.58303852101E+01  0.27445884790E+02  0.00000000000E+00 0.  1.
         12    1    4    4    0    0  0.25126887948E+02 -0.79458539022E+02 -0.22572480931E-01  0.83336789181E+02  0.00000000000E+00 0. -1.
        -13    1    3    3    0    0 -0.10379130345E+02  0.67701238669E+02  0.65265236144E+02  0.94608324755E+02  0.00000000000E+00 0. -1.
         13    1    3    3    0    0 -0.14172702158E+02 -0.22936997715E+02  0.11190258266E+03  0.11510499275E+03  0.00000000000E+00 0.  1.
          1    1    1    2  501    0  0.25470651991E+02  0.28298649211E+02 -0.15796167135E+00  0.38073515885E+02  0.00000000000E+00 0. -1.
<scales pt_clust_5="13000.00000" pt_clust_6="13000.00000" pt_clust_7="13000.00000" pt_clust_8="13000.00000" pt_clust_9="38.07319"></scales>
<clustering>
<clus scale="   38.073">  2  9  1 -1</clus>
<clus scale="   83.063">  5  6 -1 -1</clus>
<clus scale="   99.272">  2  5  1 -1</clus>
<clus scale="   99.923">  7  8 -1 -1</clus>
<clus scale="   38.073">  2  5  1 -1</clus>
</clustering>
</event>
<event>
 9    2  0.7820252E-005  0.2291043E+03  0.7546771E-02  0.1127960E+00
          2   -1    0    0  502    0 -0.00000000000E+00  0.00000000000E+00  0.16272514944E+04  0.16272514944E+04  0.00000000000E+00 0. -1.
         21   -1    0    0  501  502  0.00000000000E+00 -0.00000000000E+00 -0.35991314571E+02  0.35991314571E+02  0.00000000000E+00 0.  1.
         23    2    1    2    0    0  0.13967741347E+03 -0.16102096020E+03  0.89902711662E+03  0.92834495593E+03  0.90205716682E+02 0.  0.
         24    2    1    2    0    0 -0.11800102392E+03  0.17124375384E+03  0.62366417710E+03  0.66226133664E+03  0.79902486370E+02 0.  0.
        -11    1    4    4    0    0 -0.10678132940E+03  0.15440048994E+03  0.45237117374E+03  0.48977693130E+03  0.00000000000E+00 0.  1.
         12    1    4    4    0    0 -0.11219694520E+02  0.16843263901E+02  0.17129300336E+03  0.17248440534E+03  0.00000000000E+00 0. -1.
        -13    1    3    3    0    0  0.68692210025E+02 -0.67292357509E+02  0.23372635576E+03  0.25273482244E+03  0.00000000000E+00 0.  1.
         13    1    3    3    0    0  0.70985203443E+02 -0.93728602689E+02  0.66530076085E+03  0.67561013348E+03  0.00000000000E+00 0. -1.
          1    1    1    2  501    0 -0.21676389550E+02 -0.10222793639E+02  0.68568886075E+02  0.72636516376E+02  0.00000000000E+00 0. -1.
<scales pt_clust_5="13000.00000" pt_clust_6="13000.00000" pt_clust_7="13000.00000" pt_clust_8="13000.00000" pt_clust_9="23.96605"></scales>
<clustering>
<clus scale="   23.966">  2  9  1 -1</clus>
<clus scale="   79.902">  5  6 -1 -1</clus>
<clus scale="   90.206">  7  8 -1 -1</clus>
<clus scale="  225.247">  2  5  1 -1</clus>
<clus scale="   23.966">  2  5  1 -1</clus>
</clustering>
</event>
<event>
 9    2  0.7820252E-005  0.3780390E+03  0.7546771E-02  0.1107034E+00
          2   -1    0    0  502    0 -0.00000000000E+00  0.00000000000E+00  0.97541586186E+03  0.97541586186E+03  0.00000000000E+00 0. -1.
         21   -1    0    0  501  502  0.00000000000E+00 -0.00000000000E+00 -0.26952840447E+03  0.26952840447E+03  0.00000000000E+00 0. -1.
         24    2    1    2    0    0  0.11053075321E+02 -0.28573195865E+02  0.20373883654E+03  0.22068954281E+03  0.79093380227E+02 0.  0.
         23    2    1    2    0    0 -0.25516228642E+03  0.29417549691E+03  0.52833089295E+03  0.66256507667E+03  0.90619716316E+02 0.  0.
        -13    1    3    3    0    0 -0.10894261355E+02 -0.18030811945E+02  0.66336352863E+01  0.22086199921E+02  0.00000000000E+00 0.  1.
         14    1    3    3    0    0  0.21947336676E+02 -0.10542383920E+02  0.19710520125E+03  0.19860334289E+03  0.00000000000E+00 0. -1.
        -13    1    4    4    0    0 -0.13053080416E+03  0.21684352573E+03  0.33952897706E+03  0.42348474795E+03  0.00000000000E+00 0.  1.
         13    1    4    4    0    0 -0.12463148226E+03  0.77331971189E+02  0.18880191589E+03  0.23908032872E+03  0.00000000000E+00 0. -1.
          1    1    1    2  501    0  0.24410921110E+03 -0.26560230105E+03 -0.26182272092E+02  0.36168964685E+03  0.00000000000E+00 0. -1.
<scales pt_clust_5="13000.00000" pt_clust_6="13000.00000" pt_clust_7="13000.00000" pt_clust_8="13000.00000" pt_clust_9="367.01712"></scales>
<clustering>
<clus scale="   79.093">  5  6 -1 -1</clus>
<clus scale="   84.820">  1  5  2 -1</clus>
<clus scale="   90.620">  7  8 -1 -1</clus>
<clus scale="  367.017">  2  9  1 -1</clus>
<clus scale="  367.017">  2  5  1 -1</clus>
</clustering>
</event>
<event>
 9    2  0.7820252E-005  0.9769199E+02  0.7546771E-02  0.1291804E+00
         -3   -1    0    0    0  501 -0.00000000000E+00  0.00000000000E+00  0.21323591413E+03  0.21323591413E+03  0.00000000000E+00 0.  1.
         21   -1    0    0  501  502  0.00000000000E+00 -0.00000000000E+00 -0.12617272411E+03  0.12617272411E+03  0.00000000000E+00 0.  1.
         23    2    1    2    0    0  0.85963138292E+01  0.38029043027E+01  0.88555361033E+02  0.12830610765E+03  0.92369078161E+02 0.  0.
         24    2    1    2    0    0 -0.67751074518E+02  0.30567595016E+02  0.54937830080E+02  0.12241790983E+03  0.80270751269E+02 0.  0.
        -13    1    4    4    0    0 -0.81208324874E+02  0.42279418370E+02  0.45633411723E+02  0.10229735828E+03  0.00000000000E+00 0.  1.
         14    1    4    4    0    0  0.13457250356E+02 -0.11711823354E+02  0.93044183571E+01  0.20120551543E+02  0.00000000000E+00 0. -1.
        -11    1    3    3    0    0  0.67078951351E+01  0.36794341082E+02  0.41108555192E+01  0.37626035213E+02  0.00000000000E+00 0.  1.
         11    1    3    3    0    0  0.18884186941E+01 -0.32991436779E+02  0.84444505513E+02  0.90680072438E+02  0.00000000000E+00 0. -1.
         -4    1    1    2    0  502  0.59154760688E+02 -0.34370499319E+02 -0.56430001101E+02  0.88684620762E+02  0.00000000000E+00 0.  1.
<scales pt_clust_5="13000.00000" pt_clust_6="13000.00000" pt_clust_7="13000.00000" pt_clust_8="13000.00000" pt_clust_9="68.41503"></scales>
<clustering>
<clus scale="   68.415">  2  9  1 -1</clus>
<clus scale="   80.271">  5  6 -1 -1</clus>
<clus scale="   86.343">  2  5  1 -1</clus>
<clus scale="   92.369">  7  8 -1 -1</clus>
<clus scale="   68.415">  2  5  1 -1</clus>
</clustering>
</event>
<event>
 9    2  0.7820252E-005  0.1582501E+03  0.7546771E-02  0.1194777E+00
         21   -1    0    0  501  502  0.00000000000E+00  0.00000000000E+00  0.81482388869E+02  0.81482388869E+02  0.00000000000E+00 0. -1.
          2   -1    0    0  502    0 -0.00000000000E+00 -0.00000000000E+00 -0.39990221266E+03  0.39990221266E+03  0.00000000000E+00 0. -1.
         24    2    1    2    0    0  0.11182572976E+03  0.61282213748E+02 -0.12586709496E+03  0.18640458226E+03  0.51416331418E+02 0.  0.
         23    2    1    2    0    0 -0.11391790698E+03 -0.96104758909E+02 -0.10323847738E+03  0.19909455442E+03  0.82262045753E+02 0.  0.
        -11    1    3    3    0    0  0.29397547559E+02  0.18311984245E+02 -0.69610779070E+02  0.77750917244E+02  0.00000000000E+00 0.  1.
         12    1    3    3    0    0  0.82428182197E+02  0.42970229504E+02 -0.56256315886E+02  0.10865366501E+03  0.00000000000E+00 0. -1.
        -11    1    4    4    0    0 -0.55791042270E+02 -0.15711774164E+02 -0.77185176638E+02  0.96524876263E+02  0.00000000000E+00 0.  1.
         11    1    4    4    0    0 -0.58126864710E+02 -0.80392984745E+02 -0.26053300740E+02  0.10256967815E+03  0.00000000000E+00 0. -1.
          1    1    1    2  501    0  0.20921772240E+01  0.34822545160E+02 -0.89314251454E+02  0.95885464851E+02  0.00000000000E+00 0. -1.
<scales pt_clust_5="13000.00000" pt_clust_6="13000.00000" pt_clust_7="13000.00000" pt_clust_8="13000.00000" pt_clust_9="34.88536"></scales>
<clustering>
<clus scale="   34.885">  1  9  2 -1</clus>
<clus scale="   51.416">  5  6 -1 -1</clus>
<clus scale="   82.262">  7  8 -1 -1</clus>
<clus scale="  144.636">  2  5  1 -1</clus>
<clus scale="   34.885">  1  5  2 -1</clus>
</clustering>
</event>
<event>
 9    2  0.7820252E-005  0.1109892E+03  0.7546771E-02  0.1262593E+00
         21   -1    0    0  501  502  0.00000000000E+00  0.00000000000E+00  0.21038186806E+03  0.21038186806E+03  0.00000000000E+00 0. -1.
          2   -1    0    0  502    0 -0.00000000000E+00 -0.00000000000E+00 -0.11223857438E+03  0.11223857438E+03  0.00000000000E+00 0. -1.
         23    2    1    2    0    0 -0.46016082800E+02 -0.89081102814E+01  0.45274402893E+01  0.10257781296E+03  0.91131090692E+02 0.  0.
         24    2    1    2    0    0  0.80212892574E+02  0.36110512516E+01 -0.62986321761E+01  0.11430528953E+03  0.81110286776E+02 0.  0.
        -13    1    4    4    0    0  0.28597255843E+02  0.40603665268E+02 -0.10132973352E+02  0.50686663175E+02  0.00000000000E+00 0.  1.
         14    1    4    4    0    0  0.51615636731E+02 -0.36992614016E+02  0.38343411757E+01  0.63618626354E+02  0.00000000000E+00 0. -1.
        -13    1    3    3    0    0 -0.18164993333E+02 -0.13071426005E+02  0.46747373276E+02  0.51828043267E+02  0.00000000000E+00 0.  1.
         13    1    3    3    0    0 -0.27851089467E+02  0.41633157237E+01 -0.42219932987E+02  0.50749769692E+02  0.00000000000E+00 0. -1.
          1    1    1    2  501    0 -0.34196809774E+02  0.52970590298E+01  0.99914485574E+02  0.10573733995E+03  0.00000000000E+00 0. -1.
<scales pt_clust_5="13000.00000" pt_clust_6="13000.00000" pt_clust_7="13000.00000" pt_clust_8="13000.00000" pt_clust_9="34.60463"></scales>
<clustering>
<clus scale="   34.605">  1  9  2 -1</clus>
<clus scale="   81.110">  5  6 -1 -1</clus>
<clus scale="   91.131">  7  8 -1 -1</clus>
<clus scale="  102.920">  1  5  2 -1</clus>
<clus scale="   34.605">  1  5  2 -1</clus>
</clustering>
</event>
<event>
 9    2  0.7820252E-005  0.1010098E+03  0.7546771E-02  0.1283486E+00
         21   -1    0    0  501  502  0.00000000000E+00  0.00000000000E+00  0.52762578604E+03  0.52762578604E+03  0.00000000000E+00 0. -1.
          2   -1    0    0  502    0 -0.00000000000E+00 -0.00000000000E+00 -0.57289043711E+02  0.57289043711E+02  0.00000000000E+00 0. -1.
         24    2    1    2    0    0 -0.56836713952E+02 -0.20985336175E+01  0.15745084589E+02  0.10017931516E+03  0.80951662122E+02 0.  0.
         23    2    1    2    0    0 -0.94580423915E+01  0.14580050203E+02  0.19027889109E+03  0.21194984491E+03  0.91731390103E+02 0.  0.
        -11    1    3    3    0    0  0.10399809157E+02 -0.19549413854E+02  0.20998406146E+02  0.30516694992E+02  0.00000000000E+00 0.  1.
         12    1    3    3    0    0 -0.67236523109E+02  0.17450880237E+02 -0.52533215571E+01  0.69662620164E+02  0.00000000000E+00 0. -1.
        -13    1    4    4    0    0 -0.25275849861E+02 -0.21012459815E+02  0.15794411180E+03  0.16132803385E+03  0.00000000000E+00 0. -1.
         13    1    4    4    0    0  0.15817807470E+02  0.35592510018E+02  0.32334779291E+02  0.50621811054E+02  0.00000000000E+00 0.  1.
          1    1    1    2  501    0  0.66294756343E+02 -0.12481516585E+02  0.26431276664E+03  0.27278566969E+03  0.00000000000E+00 0. -1.
<scales pt_clust_5="13000.00000" pt_clust_6="13000.00000" pt_clust_7="13000.00000" pt_clust_8="13000.00000" pt_clust_9="67.45949"></scales>
<clustering>
<clus scale="   67.459">  1  9  2 -1</clus>
<clus scale="   80.952">  5  6 -1 -1</clus>
<clus scale="   91.332">  2  5  1 -1</clus>
<clus scale="   91.731">  7  8 -1 -1</clus>
<clus scale="   67.459">  1  5  2 -1</clus>
</clustering>
</event>
<event>
 9    2  0.7820252E-005  0.2648089E+03  0.7546771E-02  0.1104288E+00
         21   -1    0    0  501  502  0.00000000000E+00  0.00000000000E+00  0.60798655032E+02  0.60798655032E+02  0.00000000000E+00 0.  1.
         -1   -1    0    0    0  501 -0.00000000000E+00 -0.00000000000E+00 -0.10543516584E+04  0.10543516584E+04  0.00000000000E+00 0.  1.
         24    2    1    2    0    0 -0.50817104432E+02 -0.51358961674E+02 -0.39374429060E+03  0.40829509468E+03  0.80313117926E+02 0.  0.
         23    2    1    2    0    0 -0.77111544511E+02 -0.95569343513E+02 -0.39710143241E+03  0.42570773504E+03  0.91966506584E+02 0.  0.
        -13    1    3    3    0    0 -0.54377386087E+02 -0.45219058400E+02 -0.39483099399E+03  0.40111491767E+03  0.00000000000E+00 0.  1.
         14    1    3    3    0    0  0.35602816552E+01 -0.61399032735E+01  0.10867033882E+01  0.71801770122E+01  0.00000000000E+00 0. -1.
        -11    1    4    4    0    0 -0.37397149133E+02 -0.27512393702E+01 -0.40955847443E+02  0.55529249240E+02  0.00000000000E+00 0. -1.
         11    1    4    4    0    0 -0.39714395378E+02 -0.92818104142E+02 -0.35614558497E+03  0.37017848580E+03  0.00000000000E+00 0.  1.
         -2    1    1    2    0  502  0.12792864894E+03  0.14692830519E+03 -0.20270728033E+03  0.28114748369E+03  0.00000000000E+00 0.  1.
<scales pt_clust_5="13000.00000" pt_clust_6="13000.00000" pt_clust_7="13000.00000" pt_clust_8="13000.00000" pt_clust_9="194.81701"></scales>
<clustering>
<clus scale="   80.313">  5  6 -1 -1</clus>
<clus scale="   91.967">  7  8 -1 -1</clus>
<clus scale="   99.342">  5  7 -1 -1</clus>
<clus scale="  194.817">  1  9  2 -1</clus>
<clus scale="  194.817">  1  5  2 -1</clus>
</clustering>
</event>
<event>
 9    2  0.7820252E-005  0.9100403E+02  0.7546771E-02  0.1305185E+00
         -1   -1    0    0    0  501 -0.00000000000E+00  0.00000000000E+00  0.98827111184E+02  0.98827111184E+02  0.00000000000E+00 0.  1.
         21   -1    0    0  501  502  0.00000000000E+00 -0.00000000000E+00 -0.33520547119E+03  0.33520547119E+03  0.00000000000E+00 0.  1.
         24    2    1    2    0    0  0.27997107227E+02 -0.23717383420E+01  0.62830175863E+02  0.10454796708E+03  0.78696780532E+02 0.  0.
         23    2    1    2    0    0 -0.23625596125E+02 -0.37834148116E+02 -0.21389826666E+03  0.23507346421E+03  0.86703365231E+02 0.  0.
        -13    1    3    3    0    0  0.33969380373E+02  0.21820741355E+02  0.68014995146E+02  0.79095531611E+02  0.00000000000E+00 0.  1.
         14    1    3    3    0    0 -0.59722731451E+01 -0.24192479697E+02 -0.51848192829E+01  0.25452435471E+02  0.00000000000E+00 0. -1.
        -13    1    4    4    0    0 -0.42833690379E+02 -0.64730140096E+01 -0.45969843590E+02  0.63165271008E+02  0.00000000000E+00 0. -1.
         13    1    4    4    0    0  0.19208094253E+02 -0.31361134106E+02 -0.16792842307E+03  0.17190819320E+03  0.00000000000E+00 0.  1.
         -2    1    1    2    0  502 -0.43715111021E+01  0.40205886458E+02 -0.85310269213E+02  0.94411151081E+02  0.00000000000E+00 0.  1.
<scales pt_clust_5="13000.00000" pt_clust_6="13000.00000" pt_clust_7="13000.00000" pt_clust_8="13000.00000" pt_clust_9="40.44284"></scales>
<clustering>
<clus scale="   40.443">  2  9  1 -1</clus>
<clus scale="   78.697">  5  6 -1 -1</clus>
<clus scale="   83.411">  1  5  2 -1</clus>
<clus scale="   86.703">  7  8 -1 -1</clus>
<clus scale="   40.443">  2  5  1 -1</clus>
</clustering>
</event>
<event>
 9    2  0.7820252E-005  0.9802135E+02  0.7546771E-02  0.1290624E+00
         21   -1    0    0  501  502  0.00000000000E+00  0.00000000000E+00  0.42878883233E+03  0.42878883233E+03  0.00000000000E+00 0.  1.
          4   -1    0    0  502    0 -0.00000000000E+00 -0.00000000000E+00 -0.39121932758E+02  0.39121932758E+02  0.00000000000E+00 0. -1.
         23    2    1    2    0    0  0.17271897179E+02  0.33640526471E+02  0.69266241966E+02  0.11969949186E+03  0.90000847893E+02 0.  0.
         24    2    1    2    0    0 -0.39832574953E+02 -0.21491364532E+02  0.14453092652E+03  0.17048466118E+03  0.78277188254E+02 0.  0.
        -13    1    4    4    0    0 -0.17854630187E+01  0.25832959762E+02  0.23025576613E+02  0.34651217390E+02  0.00000000000E+00 0.  1.
         14    1    4    4    0    0 -0.38047111935E+02 -0.47324324294E+02  0.12150534990E+03  0.13583344379E+03  0.00000000000E+00 0. -1.
        -13    1    3    3    0    0  0.31229786382E+02  0.59862191698E+02  0.43012319890E+02  0.80055238521E+02  0.00000000000E+00 0.  1.
         13    1    3    3    0    0 -0.13957889203E+02 -0.26221665227E+02  0.26253922076E+02  0.39644253337E+02  0.00000000000E+00 0. -1.
          3    1    1    2  501    0  0.22560677774E+02 -0.12149161939E+02  0.17586973109E+03  0.17772661205E+03  0.00000000000E+00 0. -1.
<scales pt_clust_5="13000.00000" pt_clust_6="13000.00000" pt_clust_7="13000.00000" pt_clust_8="13000.00000" pt_clust_9="25.62394"></scales>
<clustering>
<clus scale="   25.624">  1  9  2 -1</clus>
<clus scale="   78.277">  5  6 -1 -1</clus>
<clus scale="   87.380">  1  5  2 -1</clus>
<clus scale="   90.001">  7  8 -1 -1</clus>
<clus scale="   25.624">  1  5  2 -1</clus>
</clustering>
</event>
<event>
 9    2  0.7820252E-005  0.1705266E+03  0.7546771E-02  0.1177448E+00
         21   -1    0    0  501  502  0.00000000000E+00  0.00000000000E+00  0.31244027608E+03  0.31244027608E+03  0.00000000000E+00 0.  1.
         -3   -1    0    0    0  501 -0.00000000000E+00 -0.00000000000E+00 -0.15433899189E+03  0.15433899189E+03  0.00000000000E+00 0.  1.
         24    2    1    2    0    0 -0.11128206759E+03  0.97649264528E+02 -0.46797331364E+02  0.17553339092E+03  0.81871262825E+02 0.  0.
         23    2    1    2    0    0  0.10306469090E+03 -0.11748005019E+03  0.20456677762E+03  0.26977740118E+03  0.80674574555E+02 0.  0.
        -11    1    3    3    0    0 -0.93785618377E+02  0.10058018234E+03 -0.13982693068E+02  0.13823035484E+03  0.00000000000E+00 0.  1.
         12    1    3    3    0    0 -0.17496449210E+02 -0.29309178163E+01 -0.32814638296E+02  0.37303036079E+02  0.00000000000E+00 0. -1.
        -13    1    4    4    0    0  0.72509630528E+02 -0.22873997086E+02  0.98013680575E+02  0.12404655514E+03  0.00000000000E+00 0. -1.
         13    1    4    4    0    0  0.30555060370E+02 -0.94606053105E+02  0.10655309704E+03  0.14573084604E+03  0.00000000000E+00 0.  1.
         -4    1    1    2    0  502  0.82173766894E+01  0.19830785663E+02  0.33183794468E+00  0.21468475868E+02  0.00000000000E+00 0.  1.
<scales pt_clust_5="13000.00000" pt_clust_6="13000.00000" pt_clust_7="13000.00000" pt_clust_8="13000.00000" pt_clust_9="21.46592"></scales>
<clustering>
<clus scale="   21.466">  1  9  2 -1</clus>
<clus scale="   80.675">  7  8 -1 -1</clus>
<clus scale="   81.871">  5  6 -1 -1</clus>
<clus scale="  169.955">  1  7  2 -1</clus>
<clus scale="   21.466">  1  5  2 -1</clus>
</clustering>
</event>
<event>
 9    2  0.7820252E-005  0.1707121E+03  0.7546771E-02  0.1179451E+00
          2   -1    0    0  502    0 -0.00000000000E+00  0.00000000000E+00  0.39548127286E+03  0.39548127286E+03  0.00000000000E+00 0. -1.
         21   -1    0    0  501  502  0.00000000000E+00 -0.00000000000E+00 -0.21373902173E+03  0.21373902173E+03  0.00000000000E+00 0.  1.
         24    2    1    2    0    0 -0.10387568112E+02  0.14848104995E+03  0.30849356227E+03  0.35057916145E+03  0.74719118781E+02 0.  0.
         23    2    1    2    0    0 -0.21461158310E+02 -0.12114728076E+03 -0.34926483513E+02  0.15767938157E+03  0.92226260735E+02 0.  0.
        -13    1    3    3    0    0 -0.18480886124E+02  0.33241633743E+02  0.28003756558E+02  0.47230919398E+02  0.00000000000E+00 0.  1.
         14    1    3    3    0    0  0.80933180113E+01  0.11523941621E+03  0.28048980572E+03  0.30334824205E+03  0.00000000000E+00 0. -1.
        -13    1    4    4    0    0 -0.51252511457E+02 -0.10252831396E+03 -0.41561684726E+02  0.12192722719E+03  0.00000000000E+00 0.  1.
         13    1    4    4    0    0  0.29791353148E+02 -0.18618966798E+02  0.66352012131E+01  0.35752154371E+02  0.00000000000E+00 0. -1.
          1    1    1    2  501    0  0.31848726422E+02 -0.27333769192E+02 -0.91824827630E+02  0.10096175158E+03  0.00000000000E+00 0. -1.
<scales pt_clust_5="13000.00000" pt_clust_6="13000.00000" pt_clust_7="13000.00000" pt_clust_8="13000.00000" pt_clust_9="41.96995"></scales>
<clustering>
<clus scale="   41.970">  2  9  1 -1</clus>
<clus scale="   74.719">  5  6 -1 -1</clus>
<clus scale="   92.226">  7  8 -1 -1</clus>
<clus scale="  161.926">  1  5  2 -1</clus>
<clus scale="   41.970">  2  5  1 -1</clus>
</clustering>
</event>
<event>
 9    2  0.7820252E-005  0.9863649E+02  0.7546771E-02  0.1288633E+00
         21   -1    0    0  501  502  0.00000000000E+00  0.00000000000E+00  0.37930387286E+03  0.37930387286E+03  0.00000000000E+00 0. -1.
         -1   -1    0    0    0  501 -0.00000000000E+00 -0.00000000000E+00 -0.46595002721E+02  0.46595002721E+02  0.00000000000E+00 0.  1.
         24    2    1    2    0    0 -0.31998585387E+02 -0.29487565811E+02  0.32447791164E+02  0.98227628528E+02  0.81868075895E+02 0.  0.
         23    2    1    2    0    0  0.12378448464E+02 -0.93709649338E+00  0.18906184465E+03  0.21072733073E+03  0.92236233009E+02 0.  0.
        -13    1    3    3    0    0 -0.51517029777E+02  0.19828329864E+01  0.32962897261E+02  0.61192226463E+02  0.00000000000E+00 0.  1.
         14    1    3    3    0    0  0.19518444389E+02 -0.31470398798E+02 -0.51510609716E+00  0.37035402066E+02  0.00000000000E+00 0. -1.
        -11    1    4    4    0    0 -0.38009496167E+02 -0.14058308980E+02  0.72333761194E+02  0.82912790683E+02  0.00000000000E+00 0. -1.
         11    1    4    4    0    0  0.50387944631E+02  0.13121212487E+02  0.11672808345E+03  0.12781454005E+03  0.00000000000E+00 0.  1.
         -2    1    1    2    0  502  0.19620136923E+02  0.30424662305E+02  0.11119923433E+03  0.11694391632E+03  0.00000000000E+00 0.  1.
<scales pt_clust_5="13000.00000" pt_clust_6="13000.00000" pt_clust_7="13000.00000" pt_clust_8="13000.00000" pt_clust_9="36.20235"></scales>
<clustering>
<clus scale="   36.202">  1  9  2 -1</clus>
<clus scale="   81.868">  5  6 -1 -1</clus>
<clus scale="   89.017">  2  5  1 -1</clus>
<clus scale="   92.236">  7  8 -1 -1</clus>
<clus scale="   36.202">  1  5  2 -1</clus>
</clustering>
</event>
<event>
 9    2  0.7820252E-005  0.9567426E+02  0.7546771E-02  0.1294699E+00
          2   -1    0    0  502    0 -0.00000000000E+00  0.00000000000E+00  0.52423923189E+03  0.52423923189E+03  0.00000000000E+00 0. -1.
         21   -1    0    0  501  502  0.00000000000E+00 -0.00000000000E+00 -0.30071485922E+02  0.30071485922E+02  0.00000000000E+00 0. -1.
         24    2    1    2    0    0 -0.17855446230E+02  0.20992812624E+02  0.14716576513E+03  0.17077137501E+03  0.82131510104E+02 0.  0.
         23    2    1    2    0    0 -0.29004785464E+02 -0.38741416734E+02  0.16385124325E+03  0.19365757186E+03  0.91180317350E+02 0.  0.
        -11    1    3    3    0    0  0.31469186526E+02  0.17588519249E+02  0.48723116874E+02  0.60610294735E+02  0.00000000000E+00 0.  1.
         12    1    3    3    0    0 -0.49324632756E+02  0.34042933752E+01  0.98442648261E+02  0.11016108027E+03  0.00000000000E+00 0. -1.
        -11    1    4    4    0    0 -0.34803792835E+02  0.43007505353E+01  0.13955246133E+03  0.14389124335E+03  0.00000000000E+00 0.  1.
         11    1    4    4    0    0  0.57990073712E+01 -0.43042167270E+02  0.24298781922E+02  0.49766328503E+02  0.00000000000E+00 0. -1.
          1    1    1    2  501    0  0.46860231693E+02  0.17748604110E+02  0.18315073758E+03  0.18988177095E+03  0.00000000000E+00 0. -1.
<scales pt_clust_5="13000.00000" pt_clust_6="13000.00000" pt_clust_7="13000.00000" pt_clust_8="13000.00000" pt_clust_9="50.10885"></scales>
<clustering>
<clus scale="   50.109">  2  9  1 -1</clus>
<clus scale="   82.132">  5  6 -1 -1</clus>
<clus scale="   87.094">  1  5  2 -1</clus>
<clus scale="   91.180">  7  8 -1 -1</clus>
<clus scale="   50.109">  2  5  1 -1</clus>
</clustering>
</event>
<event>
 9    2  0.7820252E-005  0.1136281E+03  0.7546771E-02  0.1257747E+00
         -3   -1    0    0    0  501 -0.00000000000E+00  0.00000000000E+00  0.88453302793E+02  0.88453302793E+02  0.00000000000E+00 0.  1.
         21   -1    0    0  501  502  0.00000000000E+00 -0.00000000000E+00 -0.36842286071E+03  0.36842286071E+03  0.00000000000E+00 0. -1.
         24    2    1    2    0    0  0.75504377896E+02  0.32980034942E+01  0.28221892476E+02  0.11339803436E+03  0.79692227181E+02 0.  0.
         23    2    1    2    0    0 -0.35399738198E+02 -0.31719108706E+02 -0.19386998284E+03  0.21903722232E+03  0.90180325990E+02 0.  0.
        -13    1    3    3    0    0  0.78070989215E+02 -0.44223870661E+01  0.48178573901E+02  0.91846675757E+02  0.00000000000E+00 0.  1.
         14    1    3    3    0    0 -0.25666113196E+01  0.77203905603E+01 -0.19956681426E+02  0.21551358602E+02  0.00000000000E+00 0. -1.
        -13    1    4    4    0    0  0.59434466430E+01  0.26793298511E+02 -0.32905329643E+02  0.42848175247E+02  0.00000000000E+00 0.  1.
         13    1    4    4    0    0 -0.41343184841E+02 -0.58512407217E+02 -0.16096465319E+03  0.17618904707E+03  0.00000000000E+00 0. -1.
         -4    1    1    2    0  502 -0.40104639697E+02  0.28421105212E+02 -0.11432146756E+03  0.12444090682E+03  0.00000000000E+00 0.  1.
<scales pt_clust_5="13000.00000" pt_clust_6="13000.00000" pt_clust_7="13000.00000" pt_clust_8="13000.00000" pt_clust_9="49.15426"></scales>
<clustering>
<clus scale="   49.154">  2  9  1 -1</clus>
<clus scale="   79.692">  5  6 -1 -1</clus>
<clus scale="   90.180">  7  8 -1 -1</clus>
<clus scale="  105.497">  1  5  2 -1</clus>
<clus scale="   49.154">  2  5  1 -1</clus>
</clustering>
</event>
<event>
 9    2  0.7820252E-005  0.1371243E+03  0.7546771E-02  0.1219512E+00
          2   -1    0    0  502    0 -0.00000000000E+00  0.00000000000E+00  0.86363316660E+03  0.86363316660E+03  0.00000000000E+00 0. -1.
         21   -1    0    0  501  502  0.00000000000E+00 -0.00000000000E+00 -0.43713572493E+03  0.43713572493E+03  0.00000000000E+00 0.  1.
         24    2    1    2    0    0 -0.97512057343E+02  0.38634640262E+02  0.83989427435E+03  0.85004082383E+03  0.78394982928E+02 0.  0.
         23    2    1    2    0    0  0.96196075877E+02 -0.89904324929E+01 -0.22827580274E+03  0.26324391748E+03  0.88617182769E+02 0.  0.
        -11    1    3    3    0    0  0.87656216447E+01  0.18874851342E+02  0.88707623198E+02  0.91116071850E+02  0.00000000000E+00 0.  1.
         12    1    3    3    0    0 -0.10627767899E+03  0.19759788919E+02  0.75118665115E+03  0.75892475198E+03  0.00000000000E+00 0. -1.
        -11    1    4    4    0    0  0.34341515466E+02 -0.46590366111E+02 -0.11633727208E+03  0.12993984290E+03  0.00000000000E+00 0.  1.
         11    1    4    4    0    0  0.61854560410E+02  0.37599933618E+02 -0.11193853066E+03  0.13330407457E+03  0.00000000000E+00 0. -1.
          1    1    1    2  501    0  0.13159814661E+01 -0.29644207769E+02 -0.18512102994E+03  0.18748415023E+03  0.00000000000E+00 0. -1.
<scales pt_clust_5="13000.00000" pt_clust_6="13000.00000" pt_clust_7="13000.00000" pt_clust_8="13000.00000" pt_clust_9="29.67340"></scales>
<clustering>
<clus scale="   29.673">  2  9  1 -1</clus>
<clus scale="   78.395">  5  6 -1 -1</clus>
<clus scale="   88.617">  7  8 -1 -1</clus>
<clus scale="  130.751">  1  5  2 -1</clus>
<clus scale="   29.673">  2  5  1 -1</clus>
</clustering>
</event>
<event>
 9    2  0.7820252E-005  0.1065517E+03  0.7546771E-02  0.1271061E+00
         21   -1    0    0  501  502  0.00000000000E+00  0.00000000000E+00  0.81272621146E+02  0.81272621146E+02  0.00000000000E+00 0. -1.
          2   -1    0    0  502    0 -0.00000000000E+00 -0.00000000000E+00 -0.28344930903E+03  0.28344930903E+03  0.00000000000E+00 0. -1.
         23    2    1    2    0    0 -0.76580744967E+02 -0.14148173602E+02 -0.12593700556E+03  0.17274231696E+03  0.88966271049E+02 0.  0.
         24    2    1    2    0    0  0.14342434068E+02  0.56422848301E+02 -0.59144526080E+02  0.11482392754E+03  0.79355000759E+02 0.  0.
        -13    1    4    4    0    0  0.14879904846E+02  0.76533778259E+02 -0.43066822547E+02  0.89070657273E+02  0.00000000000E+00 0.  1.
         14    1    4    4    0    0 -0.53747077732E+00 -0.20110929958E+02 -0.16077703533E+02  0.25753270268E+02  0.00000000000E+00 0. -1.
        -13    1    3    3    0    0 -0.64667523755E+02 -0.48878945778E+02 -0.79461072738E+02  0.11351256340E+03  0.00000000000E+00 0. -1.
         13    1    3    3    0    0 -0.11913221213E+02  0.34730772176E+02 -0.46475932817E+02  0.59229753560E+02  0.00000000000E+00 0.  1.
          1    1    1    2  501    0  0.62238310899E+02 -0.42274674699E+02 -0.17095156246E+02  0.77155685673E+02  0.00000000000E+00 0. -1.
<scales pt_clust_5="13000.00000" pt_clust_6="13000.00000" pt_clust_7="13000.00000" pt_clust_8="13000.00000" pt_clust_9="75.23799"></scales>
<clustering>
<clus scale="   75.238">  1  9  2 -1</clus>
<clus scale="   79.355">  5  6 -1 -1</clus>
<clus scale="   88.966">  7  8 -1 -1</clus>
<clus scale="   98.669">  1  5  2 -1</clus>
<clus scale="   75.238">  1  5  2 -1</clus>
</clustering>
</event>
<event>
 9    2  0.7820252E-005  0.1360785E+03  0.7546771E-02  0.1221424E+00
         21   -1    0    0  501  502  0.00000000000E+00  0.00000000000E+00  0.12153518337E+03  0.12153518337E+03  0.00000000000E+00 0. -1.
          2   -1    0    0  502    0 -0.00000000000E+00 -0.00000000000E+00 -0.46994741591E+03  0.46994741591E+03  0.00000000000E+00 0. -1.
         24    2    1    2    0    0  0.15870578357E+02 -0.82470111740E+02 -0.35099958083E+03  0.37516277969E+03  0.10243637508E+03 0.  0.
         23    2    1    2    0    0 -0.20348148670E+02  0.13121560054E+03  0.23032594007E+02  0.16327097994E+03  0.92170122724E+02 0.  0.
        -13    1    3    3    0    0 -0.78617948225E+01  0.19155869278E+02 -0.11877492607E+03  0.12056632286E+03  0.00000000000E+00 0.  1.
         14    1    3    3    0    0  0.23732373179E+02 -0.10162598102E+03 -0.23222465476E+03  0.25459645683E+03  0.00000000000E+00 0. -1.
        -13    1    4    4    0    0 -0.56941309904E+02  0.70725346140E+02  0.16343562442E+02  0.92257787712E+02  0.00000000000E+00 0.  1.
         13    1    4    4    0    0  0.36593161234E+02  0.60490254403E+02  0.66890315652E+01  0.71013192226E+02  0.00000000000E+00 0. -1.
          1    1    1    2  501    0  0.44775703131E+01 -0.48745488803E+02 -0.20445245722E+02  0.53048839640E+02  0.00000000000E+00 0. -1.
<scales pt_clust_5="13000.00000" pt_clust_6="13000.00000" pt_clust_7="13000.00000" pt_clust_8="13000.00000" pt_clust_9="48.95070"></scales>
<clustering>
<clus scale="   48.951">  1  9  2 -1</clus>
<clus scale="   92.170">  7  8 -1 -1</clus>
<clus scale="  102.436">  5  6 -1 -1</clus>
<clus scale="  128.528">  1  7  2 -1</clus>
<clus scale="   48.951">  1  5  2 -1</clus>
</clustering>
</event>
<event>
 9    2  0.7820252E-005  0.1475878E+03  0.7546771E-02  0.1207000E+00
          2   -1    0    0  502    0 -0.00000000000E+00  0.00000000000E+00  0.26988328844E+03  0.26988328844E+03  0.00000000000E+00 0. -1.
         21   -1    0    0  501  502  0.00000000000E+00 -0.00000000000E+00 -0.14323293731E+03  0.14323293731E+03  0.00000000000E+00 0.  1.
         23    2    1    2    0    0  0.68405779135E+01 -0.11234579110E+03  0.19039226875E+03  0.24255301730E+03  0.99570979287E+02 0.  0.
         24    2    1    2    0    0  0.15516148922E+02  0.97436534607E+02 -0.40321019415E+02  0.13491706369E+03  0.82717593746E+02 0.  0.
        -13    1    4    4    0    0  0.15536643634E+02  0.63423510869E+02 -0.65584060729E+02  0.92548355189E+02  0.00000000000E+00 0.  1.
         14    1    4    4    0    0 -0.20494711611E-01  0.34013023738E+02  0.25263041314E+02  0.42368708504E+02  0.00000000000E+00 0. -1.
        -13    1    3    3    0    0 -0.14671537215E+02 -0.11359892006E+03  0.18894879693E+03  0.22095614159E+03  0.00000000000E+00 0. -1.
         13    1    3    3    0    0  0.21512115128E+02  0.12531289578E+01  0.14434718145E+01  0.21596875708E+02  0.00000000000E+00 0.  1.
          1    1    1    2  501    0 -0.22356726836E+02  0.14909256496E+02 -0.23420898204E+02  0.35646144767E+02  0.00000000000E+00 0. -1.
<scales pt_clust_5="13000.00000" pt_clust_6="13000.00000" pt_clust_7="13000.00000" pt_clust_8="13000.00000" pt_clust_9="26.87209"></scales>
<clustering>
<clus scale="   26.872">  2  9  1 -1</clus>
<clus scale="   82.718">  5  6 -1 -1</clus>
<clus scale="   99.571">  7  8 -1 -1</clus>
<clus scale="  136.784">  2  5  1 -1</clus>
<clus scale="   26.872">  2  5  1 -1</clus>
</clustering>
</event>
<event>
 9    2  0.8531905E-005  0.9372764E+02  0.7546771E-02  0.1301010E+00
          2   -1    0    0  502    0 -0.00000000000E+00  0.00000000000E+00  0.14183814420E+04  0.14183814420E+04  0.00000000000E+00 0. -1.
         21   -1    0    0  501  502  0.00000000000E+00 -0.00000000000E+00 -0.81391325539E+02  0.81391325539E+02  0.00000000000E+00 0.  1.
         24    2    1    2    0    0  0.15028400748E+02  0.85030519206E+01  0.13337080997E+04  0.13362445507E+04  0.80461476929E+02 0.  0.
         23    2    1    2    0    0 -0.12185566384E+02 -0.51092749922E+02  0.33634244132E+02  0.11115244200E+03  0.92003510054E+02 0.  0.
        -13    1    3    3    0    0 -0.20395653855E+02 -0.52865581998E+01  0.11316999886E+03  0.11511463433E+03  0.00000000000E+00 0.  1.
         14    1    3    3    0    0  0.35424054603E+02  0.13789610120E+02  0.12205381009E+04  0.12211299164E+04  0.00000000000E+00 0. -1.
        -11    1    4    4    0    0 -0.20027066449E+02 -0.13399635298E+02  0.59887311311E+02  0.64553262294E+02  0.00000000000E+00 0. -1.
         11    1    4    4    0    0  0.78415000645E+01 -0.37693114624E+02 -0.26253067179E+02  0.46599179710E+02  0.00000000000E+00 0.  1.
          1    1    1    2  501    0 -0.28428343635E+01  0.42589698002E+02 -0.30352227391E+02  0.52375774846E+02  0.00000000000E+00 0. -1.
<scales pt_clust_5="13000.00000" pt_clust_6="13000.00000" pt_clust_7="13000.00000" pt_clust_8="13000.00000" pt_clust_9="42.68447"></scales>
<clustering>
<clus scale="   42.684">  2  9  1 -1</clus>
<clus scale="   80.461">  5  6 -1 -1</clus>
<clus scale="   82.427">  1  5  2 -1</clus>
<clus scale="   92.004">  7  8 -1 -1</clus>
<clus scale="   42.684">  2  5  1 -1</clus>
</clustering>
</event>
<event>
 9    2  0.7820252E-005  0.1928242E+03  0.7546771E-02  0.1186423E+00
          2   -1    0    0  502    0 -0.00000000000E+00  0.00000000000E+00  0.12235911972E+03  0.12235911972E+03  0.00000000000E+00 0. -1.
         21   -1    0    0  501  502  0.00000000000E+00 -0.00000000000E+00 -0.80572939651E+03  0.80572939651E+03  0.00000000000E+00 0.  1.
         24    2    1    2    0    0  0.47772565075E+02  0.13278883906E+01  0.44941347345E+02  0.10612586753E+03  0.83420583772E+02 0.  0.
         23    2    1    2    0    0 -0.20130996602E+03  0.77772366237E+01 -0.35812476949E+03  0.42109490974E+03  0.92094433343E+02 0.  0.
        -13    1    3    3    0    0  0.79802088124E+01  0.39594926365E+02  0.13465919154E+02  0.42576670904E+02  0.00000000000E+00 0.  1.
         14    1    3    3    0    0  0.39792356262E+02 -0.38267037975E+02  0.31475428191E+02  0.63549196628E+02  0.00000000000E+00 0. -1.
        -11    1    4    4    0    0 -0.71409183022E+02 -0.30085294192E+02 -0.19062217080E+03  0.20576979455E+03  0.00000000000E+00 0. -1.
         11    1    4    4    0    0 -0.12990078300E+03  0.37862530815E+02 -0.16750259869E+03  0.21532511519E+03  0.00000000000E+00 0.  1.
          1    1    1    2  501    0  0.15353740094E+03 -0.91051250143E+01 -0.37018685464E+03  0.40086773896E+03  0.00000000000E+00 0. -1.
<scales pt_clust_5="13000.00000" pt_clust_6="13000.00000" pt_clust_7="13000.00000" pt_clust_8="13000.00000" pt_clust_9="169.41011"></scales>
<clustering>
<clus scale="   83.421">  5  6 -1 -1</clus>
<clus scale="   92.094">  7  8 -1 -1</clus>
<clus scale="   96.140">  1  5  2 -1</clus>
<clus scale="  169.410">  2  9  1 -1</clus>
<clus scale="  169.410">  2  5  1 -1</clus>
</clustering>
</event>
<event>
 9    2  0.7820252E-005  0.1733184E+03  0.7546771E-02  0.1209261E+00
         21   -1    0    0  501  502  0.00000000000E+00  0.00000000000E+00  0.57710343330E+02  0.57710343330E+02  0.00000000000E+00 0. -1.
          2   -1    0    0  502    0 -0.00000000000E+00 -0.00000000000E+00 -0.90774004624E+03  0.90774004624E+03  0.00000000000E+00 0. -1.
         24    2    1    2    0    0  0.18449127379E+01  0.79384579551E+00 -0.41048313913E+03  0.41829596529E+03  0.80442980905E+02 0.  0.
         23    2    1    2    0    0 -0.13607721002E+03 -0.61042969125E+02 -0.28219760652E+03  0.33173167514E+03  0.90372363033E+02 0.  0.
        -11    1    3    3    0    0 -0.16249882071E+02 -0.31056612198E+02 -0.10664101245E+03  0.11225362962E+03  0.00000000000E+00 0.  1.
         12    1    3    3    0    0  0.18094794809E+02  0.31850457993E+02 -0.30384212668E+03  0.30604233566E+03  0.00000000000E+00 0. -1.
        -13    1    4    4    0    0 -0.11071556458E+03 -0.44287823312E+02 -0.12950237378E+03  0.17604037136E+03  0.00000000000E+00 0.  1.
         13    1    4    4    0    0 -0.25361645433E+02 -0.16755145813E+02 -0.15269523274E+03  0.15569130378E+03  0.00000000000E+00 0. -1.
          1    1    1    2  501    0  0.13423229728E+03  0.60249123330E+02 -0.15734895726E+03  0.21542274914E+03  0.00000000000E+00 0. -1.
<scales pt_clust_5="13000.00000" pt_clust_6="13000.00000" pt_clust_7="13000.00000" pt_clust_8="13000.00000" pt_clust_9="147.89219"></scales>
<clustering>
<clus scale="   80.443">  5  6 -1 -1</clus>
<clus scale="   80.468">  2  5  1 -1</clus>
<clus scale="   90.372">  7  8 -1 -1</clus>
<clus scale="  147.892">  1  9  2 -1</clus>
<clus scale="  147.892">  1  5  2 -1</clus>
</clustering>
</event>
<event>
 9    2  0.7820252E-005  0.1421078E+03  0.7546771E-02  0.1213242E+00
         21   -1    0    0  501  502  0.00000000000E+00  0.00000000000E+00  0.98602712300E+02  0.98602712300E+02  0.00000000000E+00 0. -1.
          2   -1    0    0  502    0 -0.00000000000E+00 -0.00000000000E+00 -0.76418541126E+03  0.76418541126E+03  0.00000000000E+00 0. -1.
         24    2    1    2    0    0  0.11690353148E+03 -0.36270121573E+02 -0.37890815734E+03  0.40637702530E+03  0.81172271146E+02 0.  0.
         23    2    1    2    0    0 -0.87775972626E+02 -0.97242434491E+02 -0.27568939470E+03  0.31931736841E+03  0.93798864488E+02 0.  0.
        -13    1    3    3    0    0  0.61628305708E+02 -0.35744706107E+02 -0.30977152061E+03  0.31785865894E+03  0.00000000000E+00 0.  1.
         14    1    3    3    0    0  0.55275225776E+02 -0.52541546580E+00 -0.69136636728E+02  0.88518366366E+02  0.00000000000E+00 0. -1.
        -13    1    4    4    0    0  0.19585187983E+02 -0.19523797763E+02 -0.61589391122E+02  0.67513045896E+02  0.00000000000E+00 0.  1.
         13    1    4    4    0    0 -0.10736116061E+03 -0.77718636728E+02 -0.21410000358E+03  0.25180432251E+03  0.00000000000E+00 0. -1.
          1    1    1    2  501    0 -0.29127558857E+02  0.13351255606E+03 -0.10985146919E+02  0.13709372985E+03  0.00000000000E+00 0. -1.
<scales pt_clust_5="13000.00000" pt_clust_6="13000.00000" pt_clust_7="13000.00000" pt_clust_8="13000.00000" pt_clust_9="136.65291"></scales>
<clustering>
<clus scale="   81.172">  5  6 -1 -1</clus>
<clus scale="   93.799">  7  8 -1 -1</clus>
<clus scale="  136.653">  1  9  2 -1</clus>
<clus scale="  134.109">  2  5  1 -1</clus>
<clus scale="  136.653">  1  5  2 -1</clus>
</clustering>
</event>
<event>
 9    2  0.7820252E-005  0.9601456E+02  0.7546771E-02  0.1289357E+00
         -1   -1    0    0    0  501 -0.00000000000E+00  0.00000000000E+00  0.30920301163E+02  0.30920301163E+02  0.00000000000E+00 0.  1.
         21   -1    0    0  501  502  0.00000000000E+00 -0.00000000000E+00 -0.50231655907E+03  0.50231655907E+03  0.00000000000E+00 0. -1.
         24    2    1    2    0    0  0.24172333728E+02  0.33437894514E+02 -0.14612040676E+03  0.17677656402E+03  0.90533893134E+02 0.  0.
         23    2    1    2    0    0  0.20662074629E+02 -0.24104941877E+02 -0.18301090499E+03  0.20700614578E+03  0.91381527099E+02 0.  0.
        -13    1    3    3    0    0  0.11064459110E+02  0.58545752616E+02 -0.54039921801E+02  0.80438427092E+02  0.00000000000E+00 0.  1.
         14    1    3    3    0    0  0.13107874618E+02 -0.25107858102E+02 -0.92080484962E+02  0.96338136925E+02  0.00000000000E+00 0. -1.
        -13    1    4    4    0    0  0.54444628233E+02 -0.20641850030E+02 -0.83000368973E+02  0.10138720218E+03  0.00000000000E+00 0. -1.
         13    1    4    4    0    0 -0.33782553604E+02 -0.34630918474E+01 -0.10001053602E+03  0.10561894360E+03  0.00000000000E+00 0.  1.
         -2    1    1    2    0  502 -0.44834408357E+02 -0.93329526366E+01 -0.14226494616E+03  0.14945415044E+03  0.00000000000E+00 0.  1.
<scales pt_clust_5="13000.00000" pt_clust_6="13000.00000" pt_clust_7="13000.00000" pt_clust_8="13000.00000" pt_clust_9="45.79550"></scales>
<clustering>
<clus scale="   45.796">  2  9  1 -1</clus>
<clus scale="   90.534">  5  6 -1 -1</clus>
<clus scale="   91.382">  7  8 -1 -1</clus>
<clus scale="   95.208">  1  5  2 -1</clus>
<clus scale="   45.796">  2  5  1 -1</clus>
</clustering>
</event>
<event>
 9    2  0.7820252E-005  0.1134942E+03  0.7546771E-02  0.1261014E+00
          2   -1    0    0  502    0 -0.00000000000E+00  0.00000000000E+00  0.30405655691E+03  0.30405655691E+03  0.00000000000E+00 0. -1.
         21   -1    0    0  501  502  0.00000000000E+00 -0.00000000000E+00 -0.12312450739E+03  0.12312450739E+03  0.00000000000E+00 0.  1.
         23    2    1    2    0    0 -0.22878623022E+02 -0.36277639342E+02  0.11531942418E+03  0.15634851200E+03  0.96471701042E+02 0.  0.
         24    2    1    2    0    0  0.50500465793E+02  0.11915493428E+03 -0.14307312899E+02  0.15243150188E+03  0.79262022142E+02 0.  0.
        -13    1    4    4    0    0  0.63446573935E+02  0.81135565456E+02  0.13072511264E+02  0.10382359210E+03  0.00000000000E+00 0.  1.
         14    1    4    4    0    0 -0.12946108142E+02  0.38019368824E+02 -0.27379824163E+02  0.48607909778E+02  0.00000000000E+00 0. -1.
        -13    1    3    3    0    0  0.16950882103E+02 -0.57456165181E+02  0.57724624857E+02  0.83190598244E+02  0.00000000000E+00 0. -1.
         13    1    3    3    0    0 -0.39829505125E+02  0.21178525839E+02  0.57594799324E+02  0.73157913751E+02  0.00000000000E+00 0.  1.
          1    1    1    2  501    0 -0.27621842771E+02 -0.82877294938E+02  0.79919938239E+02  0.11840105043E+03  0.00000000000E+00 0. -1.
<scales pt_clust_5="13000.00000" pt_clust_6="13000.00000" pt_clust_7="13000.00000" pt_clust_8="13000.00000" pt_clust_9="87.35914"></scales>
<clustering>
<clus scale="   79.262">  5  6 -1 -1</clus>
<clus scale="   87.359">  2  9  1 -1</clus>
<clus scale="   96.472">  7  8 -1 -1</clus>
<clus scale="   99.281">  2  5  1 -1</clus>
<clus scale="   87.359">  2  5  1 -1</clus>
</clustering>
</event>
<event>
 9    2  0.7820252E-005  0.1321614E+03  0.7546771E-02  0.1227167E+00
          2   -1    0    0  502    0 -0.00000000000E+00  0.00000000000E+00  0.51665376812E+03  0.51665376812E+03  0.00000000000E+00 0. -1.
         21   -1    0    0  501  502  0.00000000000E+00 -0.00000000000E+00 -0.19920059732E+03  0.19920059732E+03  0.00000000000E+00 0. -1.
         23    2    1    2    0    0  0.86735379061E+02 -0.43485495138E+02  0.36995013950E+03  0.39311211301E+03  0.90884615912E+02 0.  0.
         24    2    1    2    0    0 -0.10283535365E+03 -0.58293341991E+01  0.98496792587E+02  0.16308550338E+03  0.79285384301E+02 0.  0.
        -13    1    4    4    0    0 -0.83114994949E+02  0.22949314383E+02  0.94571002730E+02  0.12797831056E+03  0.00000000000E+00 0.  1.
         14    1    4    4    0    0 -0.19720358703E+02 -0.28778648582E+02  0.39257898571E+01  0.35107192818E+02  0.00000000000E+00 0. -1.
        -13    1    3    3    0    0 -0.49467253378E+01 -0.36191104309E+02  0.64604761463E+02  0.74216179680E+02  0.00000000000E+00 0.  1.
         13    1    3    3    0    0  0.91682104399E+02 -0.72943908296E+01  0.30534537803E+03  0.31889593333E+03  0.00000000000E+00 0. -1.
          1    1    1    2  501    0  0.16099974591E+02  0.49314829337E+02 -0.15099376129E+03  0.15965674906E+03  0.00000000000E+00 0. -1.
<scales pt_clust_5="13000.00000" pt_clust_6="13000.00000" pt_clust_7="13000.00000" pt_clust_8="13000.00000" pt_clust_9="51.87641"></scales>
<clustering>
<clus scale="   51.876">  2  9  1 -1</clus>
<clus scale="   79.285">  5  6 -1 -1</clus>
<clus scale="   90.885">  7  8 -1 -1</clus>
<clus scale="  124.470">  2  5  1 -1</clus>
<clus scale="   51.876">  2  5  1 -1</clus>
</clustering>
</event>
<event>
 9    2  0.7820252E-005  0.2973719E+03  0.7546771E-02  0.1086902E+00
          2   -1    0    0  502    0 -0.00000000000E+00  0.00000000000E+00  0.24412477819E+04  0.24412477819E+04  0.00000000000E+00 0. -1.
         21   -1    0    0  501  502  0.00000000000E+00 -0.00000000000E+00 -0.49601509678E+02  0.49601509678E+02  0.00000000000E+00 0. -1.
         23    2    1    2    0    0  0.11610993535E+03  0.24701800978E+03  0.12541603043E+04  0.12866645527E+04  0.89934355080E+02 0.  0.
         24    2    1    2    0    0 -0.78795798853E+02 -0.29603143106E+03  0.78758951492E+03  0.84890711768E+03  0.80639099368E+02 0.  0.
        -13    1    4    4    0    0 -0.28603717770E+02 -0.49435937823E+02  0.23291742769E+03  0.23981787411E+03  0.00000000000E+00 0.  1.
         14    1    4    4    0    0 -0.50192081083E+02 -0.24659549324E+03  0.55467208723E+03  0.60908924358E+03  0.00000000000E+00 0. -1.
        -13    1    3    3    0    0  0.92816622674E+02  0.93382028595E+02  0.60588681554E+03  0.62002738807E+03  0.00000000000E+00 0. -1.
         13    1    3    3    0    0  0.23293312681E+02  0.15363598118E+03  0.64827348873E+03  0.66663716467E+03  0.00000000000E+00 0.  1.
          1    1    1    2  501    0 -0.37314136502E+02  0.49013421289E+02  0.34989645300E+03  0.35527762112E+03  0.00000000000E+00 0. -1.
<scales pt_clust_5="13000.00000" pt_clust_6="13000.00000" pt_clust_7="13000.00000" pt_clust_8="13000.00000" pt_clust_9="61.60084"></scales>
<clustering>
<clus scale="   61.601">  2  9  1 -1</clus>
<clus scale="   80.639">  5  6 -1 -1</clus>
<clus scale="   89.934">  7  8 -1 -1</clus>
<clus scale="  294.694">  2  5  1 -1</clus>
<clus scale="   61.601">  2  5  1 -1</clus>
</clustering>
</event>
<event>
 9    2  0.7820252E-005  0.1124878E+03  0.7546771E-02  0.1259530E+00
         21   -1    0    0  501  502  0.00000000000E+00  0.00000000000E+00  0.64535104783E+02  0.64535104783E+02  0.00000000000E+00 0.  1.
          2   -1    0    0  502    0 -0.00000000000E+00 -0.00000000000E+00 -0.10073888719E+04  0.10073888719E+04  0.00000000000E+00 0. -1.
         24    2    1    2    0    0  0.61918993218E+02  0.75967478767E+01 -0.87763218062E+03  0.88372495653E+03  0.82703579339E+02 0.  0.
         23    2    1    2    0    0 -0.10016150937E+03  0.43409546066E+01 -0.55468185172E+02  0.14696641631E+03  0.92039318294E+02 0.  0.
        -13    1    3    3    0    0 -0.17607354566E+01 -0.27415522426E+02 -0.15197003461E+03  0.15443316508E+03  0.00000000000E+00 0.  1.
         14    1    3    3    0    0  0.63679728675E+02  0.35012270303E+02 -0.72566214602E+03  0.72929179145E+03  0.00000000000E+00 0. -1.
        -11    1    4    4    0    0 -0.10724192065E+03  0.28324264321E+02 -0.42362521640E+02  0.11873363775E+03  0.00000000000E+00 0.  1.
         11    1    4    4    0    0  0.70804112813E+01 -0.23983309714E+02 -0.13105663532E+02  0.28232778563E+02  0.00000000000E+00 0. -1.
          1    1    1    2  501    0  0.38242516149E+02 -0.11937702483E+02 -0.97534013227E+01  0.41232603839E+02  0.00000000000E+00 0. -1.
<scales pt_clust_5="13000.00000" pt_clust_6="13000.00000" pt_clust_7="13000.00000" pt_clust_8="13000.00000" pt_clust_9="40.06244"></scales>
<clustering>
<clus scale="   40.062">  1  9  2 -1</clus>
<clus scale="   82.704">  5  6 -1 -1</clus>
<clus scale="   92.039">  7  8 -1 -1</clus>
<clus scale="  104.986">  2  5  1 -1</clus>
<clus scale="   40.062">  1  5  2 -1</clus>
</clustering>
</event>
<event>
 9    2  0.7820252E-005  0.2722021E+03  0.7546771E-02  0.1100820E+00
         -1   -1    0    0    0  501 -0.00000000000E+00  0.00000000000E+00  0.30122726750E+03  0.30122726750E+03  0.00000000000E+00 0.  1.
         21   -1    0    0  501  502  0.00000000000E+00 -0.00000000000E+00 -0.32832293644E+03  0.32832293644E+03  0.00000000000E+00 0.  1.
         23    2    1    2    0    0 -0.11207967731E+03 -0.26950401626E+03  0.50813209974E+02  0.31045252784E+03  0.92760556761E+02 0.  0.
         24    2    1    2    0    0  0.60776726869E+02  0.20781423036E+03 -0.54448129005E+02  0.23550324331E+03  0.74944072379E+02 0.  0.
        -13    1    4    4    0    0  0.55592788441E+02  0.17323163814E+03 -0.72863398258E+02  0.19598171696E+03  0.00000000000E+00 0.  1.
         14    1    4    4    0    0  0.51839384287E+01  0.34582592227E+02  0.18415269253E+02  0.39521526342E+02  0.00000000000E+00 0. -1.
        -11    1    3    3    0    0 -0.11074437043E+03 -0.15283922531E+03  0.20137428981E+02  0.18981480559E+03  0.00000000000E+00 0.  1.
         11    1    3    3    0    0 -0.13353068859E+01 -0.11666479095E+03  0.30675780993E+02  0.12063772225E+03  0.00000000000E+00 0. -1.
         -2    1    1    2    0  502  0.51302950442E+02  0.61689785894E+02 -0.23460749905E+02  0.83594432792E+02  0.00000000000E+00 0.  1.
<scales pt_clust_5="13000.00000" pt_clust_6="13000.00000" pt_clust_7="13000.00000" pt_clust_8="13000.00000" pt_clust_9="80.23480"></scales>
<clustering>
<clus scale="   74.944">  5  6 -1 -1</clus>
<clus scale="   80.235">  2  9  1 -1</clus>
<clus scale="   92.761">  7  8 -1 -1</clus>
<clus scale="  266.657">  2  5  1 -1</clus>
<clus scale="   80.235">  2  5  1 -1</clus>
</clustering>
</event>
<event>
 9    2  0.7820252E-005  0.1052623E+03  0.7546771E-02  0.1275200E+00
         -1   -1    0    0    0  501 -0.00000000000E+00  0.00000000000E+00  0.11128520786E+03  0.11128520786E+03  0.00000000000E+00 0.  1.
         21   -1    0    0  501  502  0.00000000000E+00 -0.00000000000E+00 -0.14512197759E+03  0.14512197759E+03  0.00000000000E+00 0. -1.
         23    2    1    2    0    0 -0.28391250817E+02 -0.46955477876E+02  0.44079174649E+02  0.11473752752E+03  0.90613721688E+02 0.  0.
         24    2    1    2    0    0  0.78641212281E+01  0.52424020169E+02 -0.74630696770E+02  0.12017405709E+03  0.77858466481E+02 0.  0.
        -11    1    4    4    0    0  0.14844865015E+02 -0.13743667900E+02 -0.40782160629E+02  0.45524093074E+02  0.00000000000E+00 0.  1.
         12    1    4    4    0    0 -0.69807437866E+01  0.66167688068E+02 -0.33848536141E+02  0.74649964012E+02  0.00000000000E+00 0. -1.
        -13    1    3    3    0    0 -0.23433852484E+02 -0.69362656268E+02  0.52714946059E+02  0.90217454324E+02  0.00000000000E+00 0.  1.
         13    1    3    3    0    0 -0.49573983326E+01  0.22407178392E+02 -0.86357714093E+01  0.24520073196E+02  0.00000000000E+00 0. -1.
         -2    1    1    2    0  502  0.20527129589E+02 -0.54685422928E+01 -0.32852476034E+01  0.21495600847E+02  0.00000000000E+00 0.  1.
<scales pt_clust_5="13000.00000" pt_clust_6="13000.00000" pt_clust_7="13000.00000" pt_clust_8="13000.00000" pt_clust_9="21.24307"></scales>
<clustering>
<clus scale="   21.243">  2  9  1 -1</clus>
<clus scale="   77.858">  5  6 -1 -1</clus>
<clus scale="   90.614">  7  8 -1 -1</clus>
<clus scale="   94.505">  2  5  1 -1</clus>
<clus scale="   21.243">  2  5  1 -1</clus>
</clustering>
</event>
<event>
 9    2  0.7820252E-005  0.2601389E+03  0.7546771E-02  0.1107060E+00
          2   -1    0    0  502    0 -0.00000000000E+00  0.00000000000E+00  0.49318008225E+03  0.49318008225E+03  0.00000000000E+00 0. -1.
         21   -1    0    0  501  502  0.00000000000E+00 -0.00000000000E+00 -0.14973173619E+03  0.14973173619E+03  0.00000000000E+00 0. -1.
         24    2    1    2    0    0  0.85296800100E+01  0.11341211345E+03  0.17133515568E+03  0.22021101939E+03  0.78753378160E+02 0.  0.
         23    2    1    2    0    0  0.38331802768E+02  0.75719982439E+02  0.19220496123E+03  0.22681657937E+03  0.85441036464E+02 0.  0.
        -13    1    3    3    0    0  0.40920033601E+02  0.67888008209E+02  0.76617537042E+02  0.11024281288E+03  0.00000000000E+00 0.  1.
         14    1    3    3    0    0 -0.32390353591E+02  0.45524105238E+02  0.94717618643E+02  0.10996820652E+03  0.00000000000E+00 0. -1.
        -11    1    4    4    0    0 -0.18550506483E+02  0.39368341769E+02  0.35405038102E+02  0.56102623356E+02  0.00000000000E+00 0.  1.
         11    1    4    4    0    0  0.56882309251E+02  0.36351640670E+02  0.15679992313E+03  0.17071395602E+03  0.00000000000E+00 0. -1.
          1    1    1    2  501    0 -0.46861482778E+02 -0.18913209589E+03 -0.20091770856E+02  0.19588421968E+03  0.00000000000E+00 0. -1.
<scales pt_clust_5="13000.00000" pt_clust_6="13000.00000" pt_clust_7="13000.00000" pt_clust_8="13000.00000" pt_clust_9="194.85109"></scales>
<clustering>
<clus scale="   78.753">  5  6 -1 -1</clus>
<clus scale="   85.441">  7  8 -1 -1</clus>
<clus scale="   96.174">  5  7 -1 -1</clus>
<clus scale="  194.851">  2  9  1 -1</clus>
<clus scale="  194.851">  2  5  1 -1</clus>
</clustering>
</event>
<event>
 9    2  0.7820252E-005  0.2147567E+03  0.7546771E-02  0.1138440E+00
          2   -1    0    0  502    0 -0.00000000000E+00  0.00000000000E+00  0.16924221977E+04  0.16924221977E+04  0.00000000000E+00 0. -1.
         21   -1    0    0  501  502  0.00000000000E+00 -0.00000000000E+00 -0.57765839983E+02  0.57765839983E+02  0.00000000000E+00 0.  1.
         24    2    1    2    0    0 -0.13018875641E+03  0.19270238038E+03  0.93465706641E+03  0.96635603230E+03  0.78592809327E+02 0.  0.
         23    2    1    2    0    0  0.98451869917E+02 -0.72529296858E+02  0.12353001136E+03  0.19411543728E+03  0.86416836850E+02 0.  0.
        -13    1    3    3    0    0 -0.77575866236E+01  0.75564436418E+02  0.30050346680E+03  0.30995563838E+03  0.00000000000E+00 0.  1.
         14    1    3    3    0    0 -0.12243116978E+03  0.11713794397E+03  0.63415359961E+03  0.65640039393E+03  0.00000000000E+00 0. -1.
        -11    1    4    4    0    0  0.64671266314E+02 -0.19614859441E+02  0.15759646053E+02  0.69393672919E+02  0.00000000000E+00 0.  1.
         11    1    4    4    0    0  0.33780603603E+02 -0.52914437417E+02  0.10777036531E+03  0.12472176436E+03  0.00000000000E+00 0. -1.
          1    1    1    2  501    0  0.31736886490E+02 -0.12017308352E+03  0.57646927997E+03  0.58971656812E+03  0.00000000000E+00 0. -1.
<scales pt_clust_5="13000.00000" pt_clust_6="13000.00000" pt_clust_7="13000.00000" pt_clust_8="13000.00000" pt_clust_9="124.29326"></scales>
<clustering>
<clus scale="   78.593">  5  6 -1 -1</clus>
<clus scale="   86.417">  7  8 -1 -1</clus>
<clus scale="  124.293">  2  9  1 -1</clus>
<clus scale="  211.730">  1  5  2 -1</clus>
<clus scale="  124.293">  2  5  1 -1</clus>
</clustering>
</event>
<event>
 9    2  0.7820252E-005  0.8850510E+02  0.7546771E-02  0.1307264E+00
         -1   -1    0    0    0  501 -0.00000000000E+00  0.00000000000E+00  0.71672343542E+02  0.71672343542E+02  0.00000000000E+00 0.  1.
         21   -1    0    0  501  502  0.00000000000E+00 -0.00000000000E+00 -0.25334092114E+03  0.25334092114E+03  0.00000000000E+00 0. -1.
         24    2    1    2    0    0  0.11754917500E+02  0.12299811123E+02 -0.35509278134E+02  0.90502210636E+02  0.81487900067E+02 0.  0.
         23    2    1    2    0    0 -0.72247286339E+02 -0.67167665475E+01 -0.13247533485E+03  0.17223948780E+03  0.82776454859E+02 0.  0.
        -11    1    3    3    0    0  0.19961894491E+02 -0.32234207594E+02 -0.17689964203E+02  0.41838453657E+02  0.00000000000E+00 0.  1.
         12    1    3    3    0    0 -0.82069769909E+01  0.44534018717E+02 -0.17819313930E+02  0.48663756979E+02  0.00000000000E+00 0. -1.
        -11    1    4    4    0    0 -0.26668955306E+02 -0.30443470782E+02 -0.10797915946E+03  0.11531494685E+03  0.00000000000E+00 0. -1.
         11    1    4    4    0    0 -0.45578331034E+02  0.23726704234E+02 -0.24496175391E+02  0.56924540951E+02  0.00000000000E+00 0.  1.
         -2    1    1    2    0  502  0.60492368840E+02 -0.55830445753E+01 -0.13683964613E+02  0.62271566241E+02  0.00000000000E+00 0.  1.
<scales pt_clust_5="13000.00000" pt_clust_6="13000.00000" pt_clust_7="13000.00000" pt_clust_8="13000.00000" pt_clust_9="60.74949"></scales>
<clustering>
<clus scale="   60.749">  2  9  1 -1</clus>
<clus scale="   81.488">  5  6 -1 -1</clus>
<clus scale="   82.776">  7  8 -1 -1</clus>
<clus scale="   87.301">  1  5  2 -1</clus>
<clus scale="   60.749">  2  5  1 -1</clus>
</clustering>
</event>
<event>
 9    2  0.7820252E-005  0.1875014E+03  0.7546771E-02  0.1164100E+00
          2   -1    0    0  502    0 -0.00000000000E+00  0.00000000000E+00  0.23790563352E+03  0.23790563352E+03  0.00000000000E+00 0. -1.
         21   -1    0    0  501  502  0.00000000000E+00 -0.00000000000E+00 -0.16559990369E+03  0.16559990369E+03  0.00000000000E+00 0. -1.
         23    2    1    2    0    0  0.12732223198E+03 -0.80016958532E+02  0.38899811192E+02  0.18984264392E+03  0.10914838400E+03 0.  0.
         24    2    1    2    0    0 -0.11118811494E+03  0.11000698231E+03  0.26013129571E+02  0.17881515895E+03  0.82667073859E+02 0.  0.
        -13    1    4    4    0    0  0.39894909107E+01  0.32062994284E+02  0.23088711026E+02  0.39711965665E+02  0.00000000000E+00 0.  1.
         14    1    4    4    0    0 -0.11517760585E+03  0.77943988023E+02  0.29244185451E+01  0.13910319328E+03  0.00000000000E+00 0. -1.
        -13    1    3    3    0    0  0.95451424269E+02 -0.61309890408E+02 -0.24869089656E+02  0.11613935025E+03  0.00000000000E+00 0.  1.
         13    1    3    3    0    0  0.31870807707E+02 -0.18707068124E+02  0.63768900847E+02  0.73703293664E+02  0.00000000000E+00 0. -1.
          1    1    1    2  501    0 -0.16134117037E+02 -0.29990023775E+02  0.73927890665E+01  0.34847734342E+02  0.00000000000E+00 0. -1.
<scales pt_clust_5="13000.00000" pt_clust_6="13000.00000" pt_clust_7="13000.00000" pt_clust_8="13000.00000" pt_clust_9="34.05455"></scales>
<clustering>
<clus scale="   34.055">  2  9  1 -1</clus>
<clus scale="   82.667">  5  6 -1 -1</clus>
<clus scale="  109.148">  7  8 -1 -1</clus>
<clus scale="  173.428">  2  5  1 -1</clus>
<clus scale="   34.055">  2  5  1 -1</clus>
</clustering>
</event>
<event>
 9    2  0.7820252E-005  0.1723060E+03  0.7546771E-02  0.1207413E+00
         21   -1    0    0  501  502  0.00000000000E+00  0.00000000000E+00  0.28651970408E+03  0.28651970408E+03  0.00000000000E+00 0.  1.
         -1   -1    0    0    0  501 -0.00000000000E+00 -0.00000000000E+00 -0.27457185786E+03  0.27457185786E+03  0.00000000000E+00 0.  1.
         24    2    1    2    0    0  0.25219173543E+02  0.16610989535E+02 -0.16273206536E+03  0.18368685262E+03  0.79669335646E+02 0.  0.
         23    2    1    2    0    0  0.12204710436E+03  0.29739275282E+02  0.17325732147E+02  0.15695961084E+03  0.92499828444E+02 0.  0.
        -13    1    3    3    0    0  0.24306926159E+02  0.47327457518E+02 -0.11772578002E+03  0.12919006996E+03  0.00000000000E+00 0.  1.
         14    1    3    3    0    0  0.91224738401E+00 -0.30716467983E+02 -0.45006285341E+02  0.54496782665E+02  0.00000000000E+00 0. -1.
        -13    1    4    4    0    0  0.34917353627E+02 -0.28948186655E+02 -0.13773064732E+02  0.47401649834E+02  0.00000000000E+00 0. -1.
         13    1    4    4    0    0  0.87129750738E+02  0.58687461937E+02  0.31098796879E+02  0.10955796100E+03  0.00000000000E+00 0.  1.
         -2    1    1    2    0  502 -0.14726627791E+03 -0.46350264817E+02  0.15735417943E+03  0.22044509848E+03  0.00000000000E+00 0.  1.
<scales pt_clust_5="13000.00000" pt_clust_6="13000.00000" pt_clust_7="13000.00000" pt_clust_8="13000.00000" pt_clust_9="145.37243"></scales>
<clustering>
<clus scale="   79.669">  5  6 -1 -1</clus>
<clus scale="   85.201">  2  5  1 -1</clus>
<clus scale="   92.500">  7  8 -1 -1</clus>
<clus scale="  145.372">  1  9  2 -1</clus>
<clus scale="  145.372">  1  5  2 -1</clus>
</clustering>
</event>
<event>
 9    2  0.7820252E-005  0.2089096E+03  0.7546771E-02  0.1143501E+00
          2   -1    0    0  502    0 -0.00000000000E+00  0.00000000000E+00  0.51981125673E+03  0.51981125673E+03  0.00000000000E+00 0. -1.
         21   -1    0    0  501  502  0.00000000000E+00 -0.00000000000E+00 -0.12665590955E+03  0.12665590955E+03  0.00000000000E+00 0. -1.
         24    2    1    2    0    0 -0.17081425304E+03 -0.59924790333E+02  0.25244419001E+03  0.32090926210E+03  0.80536922526E+02 0.  0.
         23    2    1    2    0    0  0.20192496339E+03  0.32839109178E+02  0.56454895482E+02  0.23174624150E+03  0.93097085315E+02 0.  0.
        -11    1    3    3    0    0 -0.58020174198E+02 -0.52925408210E+02  0.14538119112E+03  0.16523658850E+03  0.00000000000E+00 0.  1.
         12    1    3    3    0    0 -0.11279407885E+03 -0.69993821227E+01  0.10706299889E+03  0.15567267360E+03  0.00000000000E+00 0. -1.
        -11    1    4    4    0    0  0.54361964078E+02 -0.30545625373E+02  0.27946427160E+01  0.62418494020E+02  0.00000000000E+00 0.  1.
         11    1    4    4    0    0  0.14756299932E+03  0.63384734551E+02  0.53660252766E+02  0.16932774748E+03  0.00000000000E+00 0. -1.
          1    1    1    2  501    0 -0.31110710351E+02  0.27085681155E+02  0.84256261684E+02  0.93811662681E+02  0.00000000000E+00 0. -1.
<scales pt_clust_5="13000.00000" pt_clust_6="13000.00000" pt_clust_7="13000.00000" pt_clust_8="13000.00000" pt_clust_9="41.24939"></scales>
<clustering>
<clus scale="   41.249">  2  9  1 -1</clus>
<clus scale="   80.537">  5  6 -1 -1</clus>
<clus scale="   93.097">  7  8 -1 -1</clus>
<clus scale="  203.623">  1  5  2 -1</clus>
<clus scale="   41.249">  2  5  1 -1</clus>
</clustering>
</event>
<event>
 9    2  0.8251447E-005  0.1184875E+03  0.7546771E-02  0.1258789E+00
          2   -1    0    0  502    0 -0.00000000000E+00  0.00000000000E+00  0.57295714034E+03  0.57295714034E+03  0.00000000000E+00 0. -1.
         21   -1    0    0  501  502  0.00000000000E+00 -0.00000000000E+00 -0.94072752556E+02  0.94072752556E+02  0.00000000000E+00 0. -1.
         24    2    1    2    0    0 -0.52129618515E+02  0.72443462615E+01  0.38911561474E+03  0.40093178808E+03  0.81026905290E+02 0.  0.
         23    2    1    2    0    0  0.86004058551E+01  0.18424310574E+02  0.14989346716E+03  0.18755734380E+03  0.11088860859E+03 0.  0.
        -13    1    3    3    0    0 -0.49253271490E+02 -0.15993277969E+01  0.98234430953E+02  0.10990198372E+03  0.00000000000E+00 0.  1.
         14    1    3    3    0    0 -0.28763470249E+01  0.88436740584E+01  0.29088118379E+03  0.29102980436E+03  0.00000000000E+00 0. -1.
        -13    1    4    4    0    0  0.40238948266E+02  0.50508655824E+02  0.66056425802E+02  0.92378291067E+02  0.00000000000E+00 0.  1.
         13    1    4    4    0    0 -0.31638542410E+02 -0.32084345250E+02  0.83837041357E+02  0.95179052735E+02  0.00000000000E+00 0. -1.
          1    1    1    2  501    0  0.43529212660E+02 -0.25668656835E+02 -0.60124694113E+02  0.78540761014E+02  0.00000000000E+00 0. -1.
<scales pt_clust_5="13000.00000" pt_clust_6="13000.00000" pt_clust_7="13000.00000" pt_clust_8="13000.00000" pt_clust_9="50.53387"></scales>
<clustering>
<clus scale="   50.534">  2  9  1 -1</clus>
<clus scale="   81.027">  5  6 -1 -1</clus>
<clus scale="   91.150">  1  5  2 -1</clus>
<clus scale="  110.889">  7  8 -1 -1</clus>
<clus scale="   50.534">  2  5  1 -1</clus>
</clustering>
</event>
<event>
 9    2  0.7820252E-005  0.1016899E+03  0.7546771E-02  0.1287078E+00
          2   -1    0    0  502    0 -0.00000000000E+00  0.00000000000E+00  0.11018484098E+03  0.11018484098E+03  0.00000000000E+00 0. -1.
         21   -1    0    0  501  502  0.00000000000E+00 -0.00000000000E+00 -0.26163363763E+03  0.26163363763E+03  0.00000000000E+00 0. -1.
         24    2    1    2    0    0 -0.23133299820E+01  0.16615444546E+02  0.60303679192E+02  0.10258272595E+03  0.81272734954E+02 0.  0.
         23    2    1    2    0    0 -0.12223412356E+02 -0.35073853297E+02 -0.74339177813E+02  0.12982827723E+03  0.99747086248E+02 0.  0.
        -11    1    3    3    0    0 -0.26962538690E+02 -0.23463744603E+02  0.22604914220E+02  0.42290754903E+02  0.00000000000E+00 0.  1.
         12    1    3    3    0    0  0.24649208708E+02  0.40079189148E+02  0.37698764973E+02  0.60291971051E+02  0.00000000000E+00 0. -1.
        -13    1    4    4    0    0  0.35581403781E+02 -0.20302464741E+02 -0.68009316653E+02  0.79394543397E+02  0.00000000000E+00 0.  1.
         13    1    4    4    0    0 -0.47804816137E+02 -0.14771388557E+02 -0.63298611602E+01  0.50433733830E+02  0.00000000000E+00 0. -1.
          1    1    1    2  501    0  0.14536742338E+02  0.18458408752E+02 -0.13741329802E+03  0.13940747543E+03  0.00000000000E+00 0. -1.
<scales pt_clust_5="13000.00000" pt_clust_6="13000.00000" pt_clust_7="13000.00000" pt_clust_8="13000.00000" pt_clust_9="23.49531"></scales>
<clustering>
<clus scale="   23.495">  2  9  1 -1</clus>
<clus scale="   81.273">  5  6 -1 -1</clus>
<clus scale="   83.646">  1  5  2 -1</clus>
<clus scale="   99.747">  7  8 -1 -1</clus>
<clus scale="   23.495">  2  5  1 -1</clus>
</clustering>
</event>
<event>
 9    2  0.7820252E-005  0.1051405E+03  0.7546771E-02  0.1273937E+00
          4   -1    0    0  502    0 -0.00000000000E+00  0.00000000000E+00  0.30873888756E+03  0.30873888756E+03  0.00000000000E+00 0. -1.
         21   -1    0    0  501  502  0.00000000000E+00 -0.00000000000E+00 -0.82571281482E+02  0.82571281482E+02  0.00000000000E+00 0.  1.
         23    2    1    2    0    0  0.62911743287E+01 -0.57346978571E+02  0.23256680381E+03  0.25626063708E+03  0.90851202845E+02 0.  0.
         24    2    1    2    0    0  0.90279011575E+01  0.39907511721E+02  0.26348051124E+02  0.94909883411E+02  0.81483456481E+02 0.  0.
        -11    1    4    4    0    0  0.27610931610E+02 -0.29323143972E+01 -0.15849793647E+02  0.31971518117E+02  0.00000000000E+00 0.  1.
         12    1    4    4    0    0 -0.18583030452E+02  0.42839826118E+02  0.42197844771E+02  0.62938365294E+02  0.00000000000E+00 0. -1.
        -11    1    3    3    0    0  0.40097528983E+02 -0.27287923171E+02  0.56440305492E+02  0.74417408350E+02  0.00000000000E+00 0.  1.
         11    1    3    3    0    0 -0.33806354654E+02 -0.30059055400E+02  0.17612649831E+03  0.18184322873E+03  0.00000000000E+00 0. -1.
          3    1    1    2  501    0 -0.15319075486E+02  0.17439466851E+02 -0.32747248856E+02  0.40139648547E+02  0.00000000000E+00 0. -1.
<scales pt_clust_5="13000.00000" pt_clust_6="13000.00000" pt_clust_7="13000.00000" pt_clust_8="13000.00000" pt_clust_9="23.21226"></scales>
<clustering>
<clus scale="   23.212">  2  9  1 -1</clus>
<clus scale="   81.483">  5  6 -1 -1</clus>
<clus scale="   90.851">  7  8 -1 -1</clus>
<clus scale="   97.160">  2  5  1 -1</clus>
<clus scale="   23.212">  2  5  1 -1</clus>
</clustering>
</event>
<event>
 9    2  0.7820252E-005  0.1344874E+03  0.7546771E-02  0.1223512E+00
         21   -1    0    0  501  502  0.00000000000E+00  0.00000000000E+00  0.54918231800E+03  0.54918231800E+03  0.00000000000E+00 0. -1.
         -1   -1    0    0    0  501 -0.00000000000E+00 -0.00000000000E+00 -0.68833736831E+02  0.68833736831E+02  0.00000000000E+00 0.  1.
         24    2    1    2    0    0  0.27733947108E+02 -0.95174225889E+02  0.39574514210E+02  0.13366190306E+03  0.80449096068E+02 0.  0.
         23    2    1    2    0    0  0.22907691232E+02  0.10537231269E+03  0.25454057396E+03  0.29108881493E+03  0.91179536024E+02 0.  0.
        -13    1    3    3    0    0  0.39011218075E+01 -0.39292265420E+02 -0.23612374731E+02  0.46007011570E+02  0.00000000000E+00 0.  1.
         14    1    3    3    0    0  0.23832825300E+02 -0.55881960469E+02  0.63186888941E+02  0.87654891487E+02  0.00000000000E+00 0. -1.
        -11    1    4    4    0    0  0.57162335003E+02  0.51462338261E+02  0.12771160254E+03  0.14908439967E+03  0.00000000000E+00 0. -1.
         11    1    4    4    0    0 -0.34254643771E+02  0.53909974430E+02  0.12682897142E+03  0.14200441526E+03  0.00000000000E+00 0.  1.
         -2    1    1    2    0  502 -0.50641638340E+02 -0.10198086802E+02  0.18623349300E+03  0.19326533684E+03  0.00000000000E+00 0.  1.
<scales pt_clust_5="13000.00000" pt_clust_6="13000.00000" pt_clust_7="13000.00000" pt_clust_8="13000.00000" pt_clust_9="51.65827"></scales>
<clustering>
<clus scale="   51.658">  1  9  2 -1</clus>
<clus scale="   80.449">  5  6 -1 -1</clus>
<clus scale="   91.180">  7  8 -1 -1</clus>
<clus scale="  127.457">  2  5  1 -1</clus>
<clus scale="   51.658">  1  5  2 -1</clus>
</clustering>
</event>
<event>
 9    2  0.7820252E-005  0.2460649E+03  0.7546771E-02  0.1116292E+00
          2   -1    0    0  502    0 -0.00000000000E+00  0.00000000000E+00  0.10921353541E+04  0.10921353541E+04  0.00000000000E+00 0. -1.
         21   -1    0    0  501  502  0.00000000000E+00 -0.00000000000E+00 -0.17199353470E+03  0.17199353470E+03  0.00000000000E+00 0.  1.
         24    2    1    2    0    0 -0.82978556438E+02  0.16783940311E+03  0.23647387337E+03  0.31321994916E+03  0.84447248018E+02 0.  0.
         23    2    1    2    0    0  0.76684365863E+02 -0.35121939743E+03  0.17545895514E+03  0.41059031367E+03  0.92536498984E+02 0.  0.
        -11    1    3    3    0    0  0.15653133153E+02  0.36755068954E+02  0.61822378440E+02  0.73606807751E+02  0.00000000000E+00 0.  1.
         12    1    3    3    0    0 -0.98631689591E+02  0.13108433416E+03  0.17465149494E+03  0.23961314141E+03  0.00000000000E+00 0. -1.
        -13    1    4    4    0    0 -0.62342225773E+01 -0.18737669391E+03  0.93452568943E+02  0.20948096237E+03  0.00000000000E+00 0.  1.
         13    1    4    4    0    0  0.82918588441E+02 -0.16384270351E+03  0.82006386199E+02  0.20110935130E+03  0.00000000000E+00 0. -1.
          1    1    1    2  501    0  0.62941905750E+01  0.18337999431E+03  0.50820899090E+03  0.54031862598E+03  0.00000000000E+00 0. -1.
<scales pt_clust_5="13000.00000" pt_clust_6="13000.00000" pt_clust_7="13000.00000" pt_clust_8="13000.00000" pt_clust_9="183.48807"></scales>
<clustering>
<clus scale="   84.447">  5  6 -1 -1</clus>
<clus scale="   92.536">  7  8 -1 -1</clus>
<clus scale="  183.488">  2  9  1 -1</clus>
<clus scale="  243.138">  1  5  2 -1</clus>
<clus scale="  183.488">  2  5  1 -1</clus>
</clustering>
</event>
<event>
 9    2  0.7820252E-005  0.1504643E+03  0.7546771E-02  0.1201710E+00
         21   -1    0    0  501  502  0.00000000000E+00  0.00000000000E+00  0.50558081499E+03  0.50558081499E+03  0.00000000000E+00 0. -1.
          2   -1    0    0  502    0 -0.00000000000E+00 -0.00000000000E+00 -0.19842039031E+04  0.19842039031E+04  0.00000000000E+00 0. -1.
         24    2    1    2    0    0 -0.71579633460E+02  0.99277063472E+02 -0.18160422723E+04  0.18220578434E+04  0.83100364594E+02 0.  0.
         23    2    1    2    0    0  0.10869992172E+03 -0.12747593967E+02 -0.12835999979E+03  0.19252637677E+03  0.92800549965E+02 0.  0.
        -13    1    3    3    0    0 -0.17503793371E+02  0.15497506721E+02 -0.85308774393E+02  0.88454182973E+02  0.00000000000E+00 0.  1.
         14    1    3    3    0    0 -0.54075840089E+02  0.83779556751E+02 -0.17307334979E+04  0.17336036604E+04  0.00000000000E+00 0. -1.
        -13    1    4    4    0    0  0.75280927498E+02  0.22192738723E+01 -0.13568304369E+03  0.15518386374E+03  0.00000000000E+00 0. -1.
         13    1    4    4    0    0  0.33418994219E+02 -0.14966867840E+02  0.73230438973E+01  0.37342513031E+02  0.00000000000E+00 0.  1.
          1    1    1    2  501    0 -0.37120288256E+02 -0.86529469504E+02  0.46577918405E+03  0.47520049788E+03  0.00000000000E+00 0. -1.
<scales pt_clust_5="13000.00000" pt_clust_6="13000.00000" pt_clust_7="13000.00000" pt_clust_8="13000.00000" pt_clust_9="94.15554"></scales>
<clustering>
<clus scale="   83.100">  5  6 -1 -1</clus>
<clus scale="   92.801">  7  8 -1 -1</clus>
<clus scale="   94.156">  1  9  2 -1</clus>
<clus scale="  144.683">  2  5  1 -1</clus>
<clus scale="   94.156">  1  5  2 -1</clus>
</clustering>
</event>
<event>
 9    2  0.7820252E-005  0.1566523E+03  0.7546771E-02  0.1194429E+00
          2   -1    0    0  502    0 -0.00000000000E+00  0.00000000000E+00  0.10460578056E+04  0.10460578056E+04  0.00000000000E+00 0. -1.
         21   -1    0    0  501  502  0.00000000000E+00 -0.00000000000E+00 -0.89468448334E+02  0.89468448334E+02  0.00000000000E+00 0.  1.
         24    2    1    2    0    0 -0.98968461502E+00  0.13578462064E+03  0.16844195638E+03  0.23071902710E+03  0.80125739442E+02 0.  0.
         23    2    1    2    0    0 -0.95988263680E+02 -0.98947189794E+02  0.70812935906E+02  0.18001039087E+03  0.91569513472E+02 0.  0.
        -11    1    3    3    0    0 -0.11596080480E+02  0.14218281105E+03  0.16445608206E+03  0.21770673800E+03  0.00000000000E+00 0.  1.
         12    1    3    3    0    0  0.10606395865E+02 -0.63981904108E+01  0.39858743145E+01  0.13012289108E+02  0.00000000000E+00 0. -1.
        -11    1    4    4    0    0 -0.81044765367E+02 -0.56044562430E+02  0.32443461708E+01  0.98588907862E+02  0.00000000000E+00 0.  1.
         11    1    4    4    0    0 -0.14943498312E+02 -0.42902627364E+02  0.67568589735E+02  0.81421483009E+02  0.00000000000E+00 0. -1.
          1    1    1    2  501    0  0.96977948295E+02 -0.36837430845E+02  0.71733446496E+03  0.72479683593E+03  0.00000000000E+00 0. -1.
<scales pt_clust_5="13000.00000" pt_clust_6="13000.00000" pt_clust_7="13000.00000" pt_clust_8="13000.00000" pt_clust_9="103.73876"></scales>
<clustering>
<clus scale="   80.126">  5  6 -1 -1</clus>
<clus scale="   91.570">  7  8 -1 -1</clus>
<clus scale="  103.739">  2  9  1 -1</clus>
<clus scale="  150.250">  1  5  2 -1</clus>
<clus scale="  103.739">  2  5  1 -1</clus>
</clustering>
</event>
<event>
 9    2  0.7820252E-005  0.2236552E+03  0.7546771E-02  0.1155134E+00
         21   -1    0    0  501  502  0.00000000000E+00  0.00000000000E+00  0.14913021260E+03  0.14913021260E+03  0.00000000000E+00 0. -1.
          2   -1    0    0  502    0 -0.00000000000E+00 -0.00000000000E+00 -0.12688131536E+04  0.12688131536E+04  0.00000000000E+00 0. -1.
         24    2    1    2    0    0 -0.23307890172E+02  0.96245495578E+02  0.73186365283E+02  0.14564766498E+03  0.77785249815E+02 0.  0.
         23    2    1    2    0    0 -0.19327821092E+02 -0.24585571102E+03 -0.53388410714E+03  0.59519710195E+03  0.91699263877E+02 0.  0.
        -11    1    3    3    0    0 -0.95241168862E+01  0.44845800418E+02 -0.99735313018E+01  0.46918290082E+02  0.00000000000E+00 0.  1.
         12    1    3    3    0    0 -0.13783773285E+02  0.51399695159E+02  0.83159896585E+02  0.98729374902E+02  0.00000000000E+00 0. -1.
        -13    1    4    4    0    0  0.57698618254E+01 -0.17954537617E+03 -0.45475783023E+03  0.48895246964E+03  0.00000000000E+00 0. -1.
         13    1    4    4    0    0 -0.25097682917E+02 -0.66310334856E+02 -0.79126276911E+02  0.10624463231E+03  0.00000000000E+00 0.  1.
          1    1    1    2  501    0  0.42635711264E+02  0.14961021544E+03 -0.65898519917E+03  0.67709859930E+03  0.00000000000E+00 0. -1.
<scales pt_clust_5="13000.00000" pt_clust_6="13000.00000" pt_clust_7="13000.00000" pt_clust_8="13000.00000" pt_clust_9="203.99248"></scales>
<clustering>
<clus scale="   77.785">  5  6 -1 -1</clus>
<clus scale="   91.699">  7  8 -1 -1</clus>
<clus scale="  125.925">  2  5  1 -1</clus>
<clus scale="  203.992">  1  9  2 -1</clus>
<clus scale="  203.992">  1  5  2 -1</clus>
</clustering>
</event>
<event>
 9    2  0.7820252E-005  0.1170844E+03  0.7546771E-02  0.1252193E+00
          2   -1    0    0  502    0 -0.00000000000E+00  0.00000000000E+00  0.30703653522E+03  0.30703653522E+03  0.00000000000E+00 0. -1.
         21   -1    0    0  501  502  0.00000000000E+00 -0.00000000000E+00 -0.73317609692E+02  0.73317609692E+02  0.00000000000E+00 0.  1.
         24    2    1    2    0    0  0.32411084999E+02 -0.61195289067E+02  0.14156563460E+03  0.17714320383E+03  0.80892174695E+02 0.  0.
         23    2    1    2    0    0  0.65038877789E+01  0.81352824772E+02  0.99435670580E+02  0.15878421033E+03  0.93082706298E+02 0.  0.
        -11    1    3    3    0    0  0.24324244271E+02  0.60304998655E+01  0.62439635806E+01  0.25826785885E+02  0.00000000000E+00 0.  1.
         12    1    3    3    0    0  0.80868407280E+01 -0.67225788933E+02  0.13532167102E+03  0.15131641794E+03  0.00000000000E+00 0. -1.
        -11    1    4    4    0    0  0.19737826484E+02  0.15762244015E+02  0.87171306476E+02  0.90757185960E+02  0.00000000000E+00 0. -1.
         11    1    4    4    0    0 -0.13233938705E+02  0.65590580757E+02  0.12264364104E+02  0.68027024370E+02  0.00000000000E+00 0.  1.
          1    1    1    2  501    0 -0.38914972778E+02 -0.20157535704E+02 -0.72823796560E+01  0.44426730753E+02  0.00000000000E+00 0. -1.
<scales pt_clust_5="13000.00000" pt_clust_6="13000.00000" pt_clust_7="13000.00000" pt_clust_8="13000.00000" pt_clust_9="43.82581"></scales>
<clustering>
<clus scale="   43.826">  2  9  1 -1</clus>
<clus scale="   80.892">  5  6 -1 -1</clus>
<clus scale="   93.083">  7  8 -1 -1</clus>
<clus scale="  107.647">  1  5  2 -1</clus>
<clus scale="   43.826">  2  5  1 -1</clus>
</clustering>
</event>
<event>
 9    2  0.7820252E-005  0.1725988E+03  0.7546771E-02  0.1175379E+00
         21   -1    0    0  501  502  0.00000000000E+00  0.00000000000E+00  0.26505198367E+03  0.26505198367E+03  0.00000000000E+00 0.  1.
         -3   -1    0    0    0  501 -0.00000000000E+00 -0.00000000000E+00 -0.63894166353E+03  0.63894166353E+03  0.00000000000E+00 0.  1.
         24    2    1    2    0    0 -0.12884819224E+01 -0.13383403817E+03 -0.28078745525E+03  0.32075485901E+03  0.78287129138E+02 0.  0.
         23    2    1    2    0    0 -0.53740490879E+02  0.17913500479E+03 -0.30108418596E+03  0.36338233122E+03  0.80110182298E+02 0.  0.
        -13    1    3    3    0    0  0.31829251346E+02 -0.22964888392E+02 -0.76121878474E+02  0.85644776388E+02  0.00000000000E+00 0.  1.
         14    1    3    3    0    0 -0.33117733269E+02 -0.11086914978E+03 -0.20466557678E+03  0.23511008262E+03  0.00000000000E+00 0. -1.
        -13    1    4    4    0    0 -0.34457574873E+02  0.10471599586E+03 -0.24362335430E+03  0.26740438107E+03  0.00000000000E+00 0.  1.
         13    1    4    4    0    0 -0.19282916006E+02  0.74419008931E+02 -0.57460831652E+02  0.95977950146E+02  0.00000000000E+00 0. -1.
         -4    1    1    2    0  502  0.55028972802E+02 -0.45300966617E+02  0.20798196135E+03  0.21985645697E+03  0.00000000000E+00 0.  1.
<scales pt_clust_5="13000.00000" pt_clust_6="13000.00000" pt_clust_7="13000.00000" pt_clust_8="13000.00000" pt_clust_9="71.27668"></scales>
<clustering>
<clus scale="   71.277">  1  9  2 -1</clus>
<clus scale="   78.287">  5  6 -1 -1</clus>
<clus scale="   80.110">  7  8 -1 -1</clus>
<clus scale="  171.760">  2  5  1 -1</clus>
<clus scale="   71.277">  1  5  2 -1</clus>
</clustering>
</event>
<event>
 9    2  0.7820252E-005  0.9989118E+02  0.7546771E-02  0.1289571E+00
          2   -1    0    0  502    0 -0.00000000000E+00  0.00000000000E+00  0.67836871055E+03  0.67836871055E+03  0.00000000000E+00 0. -1.
         21   -1    0    0  501  502  0.00000000000E+00 -0.00000000000E+00 -0.88648701315E+02  0.88648701315E+02  0.00000000000E+00 0. -1.
         24    2    1    2    0    0  0.23322926154E+02 -0.25602855223E+02  0.54151369971E+03  0.54802728811E+03  0.76794247620E+02 0.  0.
         23    2    1    2    0    0  0.61575009049E-01  0.43753490341E+02  0.10968034386E+03  0.15076009117E+03  0.93725426391E+02 0.  0.
        -11    1    3    3    0    0 -0.22254430596E+02 -0.10048314997E+01  0.65087486816E+02  0.68794260716E+02  0.00000000000E+00 0.  1.
         12    1    3    3    0    0  0.45577356749E+02 -0.24598023723E+02  0.47642621289E+03  0.47923302740E+03  0.00000000000E+00 0. -1.
        -13    1    4    4    0    0  0.17407847417E+02  0.69380734608E+02  0.66744118178E+02  0.97834026789E+02  0.00000000000E+00 0.  1.
         13    1    4    4    0    0 -0.17346272408E+02 -0.25627244267E+02  0.42936225681E+02  0.52926064381E+02  0.00000000000E+00 0. -1.
          1    1    1    2  501    0 -0.23384501163E+02 -0.18150635118E+02 -0.61474034327E+02  0.68230032583E+02  0.00000000000E+00 0. -1.
<scales pt_clust_5="13000.00000" pt_clust_6="13000.00000" pt_clust_7="13000.00000" pt_clust_8="13000.00000" pt_clust_9="29.60203"></scales>
<clustering>
<clus scale="   29.602">  2  9  1 -1</clus>
<clus scale="   76.794">  5  6 -1 -1</clus>
<clus scale="   84.209">  1  5  2 -1</clus>
<clus scale="   93.725">  7  8 -1 -1</clus>
<clus scale="   29.602">  2  5  1 -1</clus>
</clustering>
</event>
<event>
 9    2  0.9535497E-005  0.1052832E+03  0.7546771E-02  0.1274779E+00
         21   -1    0    0  501  502  0.00000000000E+00  0.00000000000E+00  0.23374519706E+03  0.23374519706E+03  0.00000000000E+00 0. -1.
          2   -1    0    0  502    0 -0.00000000000E+00 -0.00000000000E+00 -0.24308821133E+03  0.24308821133E+03  0.00000000000E+00 0. -1.
         24    2    1    2    0    0  0.43046204141E+02  0.36189426266E+02 -0.18712122909E+03  0.21092012288E+03  0.79437356434E+02 0.  0.
         23    2    1    2    0    0  0.56332317679E+00 -0.47458404584E+02  0.23939745407E+02  0.10561651257E+03  0.91264006154E+02 0.  0.
        -13    1    3    3    0    0  0.76831526532E+01 -0.23915677297E+02 -0.30766756263E+02  0.39718808469E+02  0.00000000000E+00 0.  1.
         14    1    3    3    0    0  0.35363051488E+02  0.60105103563E+02 -0.15635447282E+03  0.17120131441E+03  0.00000000000E+00 0. -1.
        -13    1    4    4    0    0  0.23962306241E+02 -0.30827551544E+02 -0.26772799397E+02  0.47342505660E+02  0.00000000000E+00 0. -1.
         13    1    4    4    0    0 -0.23398983064E+02 -0.16630853040E+02  0.50712544803E+02  0.58274006913E+02  0.00000000000E+00 0.  1.
          1    1    1    2  501    0 -0.43609527318E+02  0.11268978317E+02  0.15383846940E+03  0.16029677294E+03  0.00000000000E+00 0. -1.
<scales pt_clust_5="13000.00000" pt_clust_6="13000.00000" pt_clust_7="13000.00000" pt_clust_8="13000.00000" pt_clust_9="45.04199"></scales>
<clustering>
<clus scale="   45.042">  1  9  2 -1</clus>
<clus scale="   79.437">  5  6 -1 -1</clus>
<clus scale="   91.264">  7  8 -1 -1</clus>
<clus scale="   95.214">  2  5  1 -1</clus>
<clus scale="   45.042">  1  5  2 -1</clus>
</clustering>
</event>
<event>
 9    2  0.7820252E-005  0.9844208E+02  0.7546771E-02  0.1290470E+00
          2   -1    0    0  502    0 -0.00000000000E+00  0.00000000000E+00  0.86447413668E+03  0.86447413668E+03  0.00000000000E+00 0. -1.
         21   -1    0    0  501  502  0.00000000000E+00 -0.00000000000E+00 -0.27783832704E+02  0.27783832704E+02  0.00000000000E+00 0. -1.
         24    2    1    2    0    0  0.15793406720E+02 -0.34650354538E+02  0.67853220729E+03  0.68414421641E+03  0.78722765145E+02 0.  0.
         23    2    1    2    0    0 -0.12148340130E+02  0.13422696242E+02  0.68381469867E+02  0.11578963527E+03  0.91670405650E+02 0.  0.
        -11    1    3    3    0    0  0.37389995337E+02 -0.98237008049E+01  0.16136568864E+03  0.16593192074E+03  0.00000000000E+00 0.  1.
         12    1    3    3    0    0 -0.21596588617E+02 -0.24826653733E+02  0.51716651865E+03  0.51821229568E+03  0.00000000000E+00 0. -1.
        -13    1    4    4    0    0 -0.41065080023E+02  0.27065592637E+02  0.11455051850E+02  0.50498567454E+02  0.00000000000E+00 0.  1.
         13    1    4    4    0    0  0.28916739892E+02 -0.13642896394E+02  0.56926418017E+02  0.65291067814E+02  0.00000000000E+00 0. -1.
          1    1    1    2  501    0 -0.36450665892E+01  0.21227658296E+02  0.89776626817E+02  0.92324117704E+02  0.00000000000E+00 0. -1.
<scales pt_clust_5="13000.00000" pt_clust_6="13000.00000" pt_clust_7="13000.00000" pt_clust_8="13000.00000" pt_clust_9="21.53835"></scales>
<clustering>
<clus scale="   21.538">  2  9  1 -1</clus>
<clus scale="   78.723">  5  6 -1 -1</clus>
<clus scale="   86.514">  1  5  2 -1</clus>
<clus scale="   91.670">  7  8 -1 -1</clus>
<clus scale="   21.538">  2  5  1 -1</clus>
</clustering>
</event>
<event>
 9    2  0.7820252E-005  0.9138973E+02  0.7546771E-02  0.1303857E+00
          2   -1    0    0  502    0 -0.00000000000E+00  0.00000000000E+00  0.30946903460E+03  0.30946903460E+03  0.00000000000E+00 0. -1.
         21   -1    0    0  501  502  0.00000000000E+00 -0.00000000000E+00 -0.45463703474E+02  0.45463703474E+02  0.00000000000E+00 0. -1.
         23    2    1    2    0    0  0.97022692937E+01 -0.14954095241E+02  0.12876295179E+03  0.15883974534E+03  0.91282024249E+02 0.  0.
         24    2    1    2    0    0  0.24612163997E+02 -0.21727063071E+02  0.73776500306E+02  0.11671388974E+03  0.84269426101E+02 0.  0.
        -13    1    4    4    0    0  0.17450238048E+02 -0.53167306931E+02  0.58764082949E+02  0.81144875248E+02  0.00000000000E+00 0.  1.
         14    1    4    4    0    0  0.71619259494E+01  0.31440243860E+02  0.15012417357E+02  0.35569014495E+02  0.00000000000E+00 0. -1.
        -13    1    3    3    0    0 -0.97835194420E+01 -0.29548180612E+02  0.36024437968E+01  0.31333525679E+02  0.00000000000E+00 0. -1.
         13    1    3    3    0    0  0.19485788736E+02  0.14594085371E+02  0.12516050799E+03  0.12750621966E+03  0.00000000000E+00 0.  1.
          1    1    1    2  501    0 -0.34314433291E+02  0.36681158312E+02  0.61465879032E+02  0.79379102995E+02  0.00000000000E+00 0. -1.
<scales pt_clust_5="13000.00000" pt_clust_6="13000.00000" pt_clust_7="13000.00000" pt_clust_8="13000.00000" pt_clust_9="50.22938"></scales>
<clustering>
<clus scale="   50.229">  2  9  1 -1</clus>
<clus scale="   84.269">  5  6 -1 -1</clus>
<clus scale="   84.386">  2  5  1 -1</clus>
<clus scale="   91.282">  7  8 -1 -1</clus>
<clus scale="   50.229">  2  5  1 -1</clus>
</clustering>
</event>
<event>
 9    2  0.7820252E-005  0.2764675E+03  0.7546771E-02  0.1135637E+00
          2   -1    0    0  502    0 -0.00000000000E+00  0.00000000000E+00  0.17425341677E+03  0.17425341677E+03  0.00000000000E+00 0. -1.
         21   -1    0    0  501  502  0.00000000000E+00 -0.00000000000E+00 -0.93384806372E+03  0.93384806372E+03  0.00000000000E+00 0. -1.
         24    2    1    2    0    0 -0.50264051060E+02  0.55160311021E+02 -0.35470414081E+03  0.37026715862E+03  0.75588401915E+02 0.  0.
         23    2    1    2    0    0  0.16047786688E+03 -0.22910117874E+03 -0.43900333390E+03  0.52910915405E+03  0.94826546186E+02 0.  0.
        -13    1    3    3    0    0 -0.44448587341E+02  0.67163387249E+02 -0.34359765205E+03  0.35291067425E+03  0.00000000000E+00 0.  1.
         14    1    3    3    0    0 -0.58154637187E+01 -0.12003076228E+02 -0.11106488759E+02  0.17356484372E+02  0.00000000000E+00 0. -1.
        -11    1    4    4    0    0  0.12494271496E+03 -0.96715530345E+02 -0.24648625173E+03  0.29277986291E+03  0.00000000000E+00 0. -1.
         11    1    4    4    0    0  0.35535151920E+02 -0.13238564840E+03 -0.19251708217E+03  0.23632929114E+03  0.00000000000E+00 0.  1.
          1    1    1    2  501    0 -0.11021381582E+03  0.17394086772E+03  0.34112827768E+02  0.20872516782E+03  0.00000000000E+00 0. -1.
<scales pt_clust_5="13000.00000" pt_clust_6="13000.00000" pt_clust_7="13000.00000" pt_clust_8="13000.00000" pt_clust_9="259.69655"></scales>
<clustering>
<clus scale="   75.588">  5  6 -1 -1</clus>
<clus scale="   94.827">  7  8 -1 -1</clus>
<clus scale="  106.220">  1  5  2 -1</clus>
<clus scale="  259.697">  2  9  1 -1</clus>
<clus scale="  259.697">  2  5  1 -1</clus>
</clustering>
</event>
<event>
 9    2  0.7820252E-005  0.1875376E+03  0.7546771E-02  0.1174351E+00
          2   -1    0    0  502    0 -0.00000000000E+00  0.00000000000E+00  0.15734548366E+03  0.15734548366E+03  0.00000000000E+00 0. -1.
         21   -1    0    0  501  502  0.00000000000E+00 -0.00000000000E+00 -0.55698257563E+03  0.55698257563E+03  0.00000000000E+00 0. -1.
         23    2    1    2    0    0  0.90485190853E+02  0.44846404651E+02 -0.30092558964E+03  0.33066688985E+03  0.92658576338E+02 0.  0.
         24    2    1    2    0    0 -0.20934318319E+03  0.28725300855E+02 -0.90043466268E+02  0.24360706189E+03  0.81159494368E+02 0.  0.
        -13    1    4    4    0    0 -0.78632339497E+02 -0.14515743802E+02 -0.66353115880E+02  0.10390614813E+03  0.00000000000E+00 0.  1.
         14    1    4    4    0    0 -0.13071084369E+03  0.43241044657E+02 -0.23690350388E+02  0.13970091375E+03  0.00000000000E+00 0. -1.
        -13    1    3    3    0    0  0.29945635747E+02  0.61315824446E+02 -0.10757725111E+03  0.12739402020E+03  0.00000000000E+00 0. -1.
         13    1    3    3    0    0  0.60539555107E+02 -0.16469419795E+02 -0.19334833854E+03  0.20327286965E+03  0.00000000000E+00 0.  1.
          1    1    1    2  501    0  0.11885799234E+03 -0.73571705506E+02 -0.86680360578E+01  0.14005410755E+03  0.00000000000E+00 0. -1.
<scales pt_clust_5="13000.00000" pt_clust_6="13000.00000" pt_clust_7="13000.00000" pt_clust_8="13000.00000" pt_clust_9="169.06649"></scales>
<clustering>
<clus scale="   81.159">  5  6 -1 -1</clus>
<clus scale="   92.659">  7  8 -1 -1</clus>
<clus scale="  137.056">  1  7  2 -1</clus>
<clus scale="  169.066">  2  9  1 -1</clus>
<clus scale="  169.066">  2  5  1 -1</clus>
</clustering>
</event>
<event>
 9    2  0.7820252E-005  0.9255264E+02  0.7546771E-02  0.1300140E+00
          2   -1    0    0  502    0 -0.00000000000E+00  0.00000000000E+00  0.78464561561E+02  0.78464561561E+02  0.00000000000E+00 0. -1.
         21   -1    0    0  501  502  0.00000000000E+00 -0.00000000000E+00 -0.46000156290E+03  0.46000156290E+03  0.00000000000E+00 0. -1.
         24    2    1    2    0    0  0.21662184761E+02 -0.13809809566E+02  0.38030299704E+01  0.89634781983E+02  0.85790267603E+02 0.  0.
         23    2    1    2    0    0  0.65340781235E+01 -0.51312318050E+02 -0.71503878697E+02  0.12707203580E+03  0.91426743645E+02 0.  0.
        -11    1    3    3    0    0 -0.49208446730E+01 -0.40786578079E+02 -0.19173841347E+02  0.45336473789E+02  0.00000000000E+00 0.  1.
         12    1    3    3    0    0  0.26583029434E+02  0.26976768513E+02  0.22976871317E+02  0.44298308194E+02  0.00000000000E+00 0. -1.
        -11    1    4    4    0    0 -0.38408377614E+02 -0.12288134940E+02 -0.48949707143E+02  0.63421412478E+02  0.00000000000E+00 0.  1.
         11    1    4    4    0    0  0.44942455738E+02 -0.39024183110E+02 -0.22554171554E+02  0.63650623324E+02  0.00000000000E+00 0. -1.
          1    1    1    2  501    0 -0.28196262885E+02  0.65122127616E+02 -0.31383615261E+03  0.32175930668E+03  0.00000000000E+00 0. -1.
<scales pt_clust_5="13000.00000" pt_clust_6="13000.00000" pt_clust_7="13000.00000" pt_clust_8="13000.00000" pt_clust_9="70.96422"></scales>
<clustering>
<clus scale="   70.964">  2  9  1 -1</clus>
<clus scale="   85.790">  5  6 -1 -1</clus>
<clus scale="   86.989">  1  5  2 -1</clus>
<clus scale="   91.427">  7  8 -1 -1</clus>
<clus scale="   70.964">  2  5  1 -1</clus>
</clustering>
</event>
<event>
 9    2  0.7820252E-005  0.2744036E+03  0.7546771E-02  0.1118938E+00
          2   -1    0    0  502    0 -0.00000000000E+00  0.00000000000E+00  0.16086661688E+04  0.16086661688E+04  0.00000000000E+00 0. -1.
         21   -1    0    0  501  502  0.00000000000E+00 -0.00000000000E+00 -0.18814130660E+03  0.18814130660E+03  0.00000000000E+00 0. -1.
         23    2    1    2    0    0 -0.57842730112E+02  0.12407227945E+03  0.30283860020E+03  0.34441679026E+03  0.90399091209E+02 0.  0.
         24    2    1    2    0    0  0.38001171393E+02  0.15172301772E+03  0.11599477971E+04  0.11726715926E+04  0.72220557781E+02 0.  0.
        -13    1    4    4    0    0  0.53984064198E+02  0.82498257931E+02  0.57032695946E+03  0.57878586924E+03  0.00000000000E+00 0.  1.
         14    1    4    4    0    0 -0.15982892805E+02  0.69224759786E+02  0.58962083764E+03  0.59388572336E+03  0.00000000000E+00 0. -1.
        -13    1    3    3    0    0 -0.34296271940E+02  0.10377645581E+03  0.13487276600E+03  0.17359853127E+03  0.00000000000E+00 0. -1.
         13    1    3    3    0    0 -0.23546458173E+02  0.20295823641E+02  0.16796583419E+03  0.17081825899E+03  0.00000000000E+00 0.  1.
          1    1    1    2  501    0  0.19841558719E+02 -0.27579529717E+03 -0.42261535068E+02  0.27971909255E+03  0.00000000000E+00 0. -1.
<scales pt_clust_5="13000.00000" pt_clust_6="13000.00000" pt_clust_7="13000.00000" pt_clust_8="13000.00000" pt_clust_9="264.72912"></scales>
<clustering>
<clus scale="   72.221">  5  6 -1 -1</clus>
<clus scale="   90.399">  7  8 -1 -1</clus>
<clus scale="  164.048">  1  7  2 -1</clus>
<clus scale="  264.729">  2  9  1 -1</clus>
<clus scale="  264.729">  2  5  1 -1</clus>
</clustering>
</event>
<event>
 9    2  0.7820252E-005  0.9263584E+02  0.7546771E-02  0.1302746E+00
         21   -1    0    0  501  502  0.00000000000E+00  0.00000000000E+00  0.88061801101E+02  0.88061801101E+02  0.00000000000E+00 0. -1.
          2   -1    0    0  502    0 -0.00000000000E+00 -0.00000000000E+00 -0.21441654219E+03  0.21441654219E+03  0.00000000000E+00 0. -1.
         23    2    1    2    0    0 -0.10939884597E+02 -0.33089345567E+01 -0.11186368265E+03  0.14444888416E+03  0.90671751479E+02 0.  0.
         24    2    1    2    0    0  0.31704700751E+02 -0.49711895605E+02 -0.23133657307E+01  0.99799894295E+02  0.80487307236E+02 0.  0.
        -11    1    4    4    0    0  0.32239306915E+02  0.66026801475E+01  0.20792809271E+02  0.38926972819E+02  0.00000000000E+00 0.  1.
         12    1    4    4    0    0 -0.53460616434E+00 -0.56314575752E+02 -0.23106175001E+02  0.60872921477E+02  0.00000000000E+00 0. -1.
        -13    1    3    3    0    0 -0.13452993910E+02 -0.33893876552E+02 -0.10741990614E+03  0.11344079578E+03  0.00000000000E+00 0.  1.
         13    1    3    3    0    0  0.25131093129E+01  0.30584941995E+02 -0.44437765133E+01  0.31008088380E+02  0.00000000000E+00 0. -1.
          1    1    1    2  501    0 -0.20764816154E+02  0.53020830161E+02 -0.12177692705E+02  0.58229564832E+02  0.00000000000E+00 0. -1.
<scales pt_clust_5="13000.00000" pt_clust_6="13000.00000" pt_clust_7="13000.00000" pt_clust_8="13000.00000" pt_clust_9="56.94195"></scales>
<clustering>
<clus scale="   56.942">  1  9  2 -1</clus>
<clus scale="   80.487">  5  6 -1 -1</clus>
<clus scale="   82.694">  1  5  2 -1</clus>
<clus scale="   90.672">  7  8 -1 -1</clus>
<clus scale="   56.942">  1  5  2 -1</clus>
</clustering>
</event>
<event>
 9    2  0.7820252E-005  0.1186114E+03  0.7546771E-02  0.1254189E+00
         21   -1    0    0  501  502  0.00000000000E+00  0.00000000000E+00  0.97424450951E+03  0.97424450951E+03  0.00000000000E+00 0.  1.
          2   -1    0    0  502    0 -0.00000000000E+00 -0.00000000000E+00 -0.21896920110E+03  0.21896920110E+03  0.00000000000E+00 0. -1.
         24    2    1    2    0    0  0.48238463688E+02 -0.37445240280E+02 -0.19830706445E+03  0.22171871703E+03  0.78130674313E+02 0.  0.
         23    2    1    2    0    0 -0.61408599296E+02  0.78714140088E+02  0.71575841146E+03  0.72975792324E+03  0.10133899072E+03 0.  0.
        -13    1    3    3    0    0  0.42128244226E+02  0.15410579308E+02 -0.74505908115E+02  0.86967840379E+02  0.00000000000E+00 0.  1.
         14    1    3    3    0    0  0.61102194616E+01 -0.52855819588E+02 -0.12380115634E+03  0.13475087665E+03  0.00000000000E+00 0. -1.
        -13    1    4    4    0    0 -0.20136281319E+01 -0.22393611976E+02  0.72770551920E+02  0.76164832976E+02  0.00000000000E+00 0. -1.
         13    1    4    4    0    0 -0.59394971164E+02  0.10110775206E+03  0.64298785954E+03  0.65359309026E+03  0.00000000000E+00 0.  1.
          1    1    1    2  501    0  0.13170135608E+02 -0.41268899808E+02  0.23782396140E+03  0.24173707034E+03  0.00000000000E+00 0. -1.
<scales pt_clust_5="13000.00000" pt_clust_6="13000.00000" pt_clust_7="13000.00000" pt_clust_8="13000.00000" pt_clust_9="43.31945"></scales>
<clustering>
<clus scale="   43.319">  1  9  2 -1</clus>
<clus scale="   78.131">  5  6 -1 -1</clus>
<clus scale="   99.516">  2  5  1 -1</clus>
<clus scale="  101.339">  7  8 -1 -1</clus>
<clus scale="   43.319">  1  5  2 -1</clus>
</clustering>
</event>
<event>
 9    2  0.7820252E-005  0.1034211E+03  0.7546771E-02  0.1277110E+00
          2   -1    0    0  502    0 -0.00000000000E+00  0.00000000000E+00  0.51355950781E+03  0.51355950781E+03  0.00000000000E+00 0. -1.
         21   -1    0    0  501  502  0.00000000000E+00 -0.00000000000E+00 -0.16468734183E+03  0.16468734183E+03  0.00000000000E+00 0. -1.
         24    2    1    2    0    0 -0.44955299444E+02 -0.13691771732E+01  0.31564517997E+03  0.32914062091E+03  0.81724017868E+02 0.  0.
         23    2    1    2    0    0  0.62806184868E+02  0.14765555589E+02  0.17411639538E+03  0.20646001343E+03  0.90258404124E+02 0.  0.
        -11    1    3    3    0    0 -0.23023044911E+01  0.32734196981E+02  0.67455573196E+02  0.75013882803E+02  0.00000000000E+00 0.  1.
         12    1    3    3    0    0 -0.42652994953E+02 -0.34103374154E+02  0.24818960677E+03  0.25412673810E+03  0.00000000000E+00 0. -1.
        -11    1    4    4    0    0  0.36225176196E+02 -0.15726558118E+02  0.14938445402E+02  0.42222567090E+02  0.00000000000E+00 0.  1.
         11    1    4    4    0    0  0.26581008673E+02  0.30492113707E+02  0.15917794998E+03  0.16423744634E+03  0.00000000000E+00 0. -1.
          1    1    1    2  501    0 -0.17850885424E+02 -0.13396378416E+02 -0.14088940938E+03  0.14264621530E+03  0.00000000000E+00 0. -1.
<scales pt_clust_5="13000.00000" pt_clust_6="13000.00000" pt_clust_7="13000.00000" pt_clust_8="13000.00000" pt_clust_9="22.31854"></scales>
<clustering>
<clus scale="   22.319">  2  9  1 -1</clus>
<clus scale="   81.724">  5  6 -1 -1</clus>
<clus scale="   90.258">  7  8 -1 -1</clus>
<clus scale="   96.063">  1  5  2 -1</clus>
<clus scale="   22.319">  2  5  1 -1</clus>
</clustering>
</event>
<event>
 9    2  0.7820252E-005  0.8952865E+02  0.7546771E-02  0.1306611E+00
         21   -1    0    0  501  502  0.00000000000E+00  0.00000000000E+00  0.13758399026E+03  0.13758399026E+03  0.00000000000E+00 0. -1.
          2   -1    0    0  502    0 -0.00000000000E+00 -0.00000000000E+00 -0.34205005827E+03  0.34205005827E+03  0.00000000000E+00 0. -1.
         24    2    1    2    0    0 -0.62734774120E+00  0.31614906745E+02 -0.24481221442E+03  0.25977136414E+03  0.80921229643E+02 0.  0.
         23    2    1    2    0    0  0.31307696459E+02  0.39315883344E+02  0.85095452850E+02  0.13056004609E+03  0.85315760550E+02 0.  0.
        -13    1    3    3    0    0 -0.34329330542E+02  0.52172430986E+01 -0.53887318462E+02  0.64105894051E+02  0.00000000000E+00 0.  1.
         14    1    3    3    0    0  0.33701982801E+02  0.26397663646E+02 -0.19092489596E+03  0.19566547009E+03  0.00000000000E+00 0. -1.
        -11    1    4    4    0    0  0.41996452642E+02  0.61331301009E+02  0.67629268164E+02  0.10049352432E+03  0.00000000000E+00 0. -1.
         11    1    4    4    0    0 -0.10688756183E+02 -0.22015417665E+02  0.17466184686E+02  0.30066521768E+02  0.00000000000E+00 0.  1.
          1    1    1    2  501    0 -0.30680348718E+02 -0.70930790088E+02 -0.44749306442E+02  0.89302638298E+02  0.00000000000E+00 0. -1.
<scales pt_clust_5="13000.00000" pt_clust_6="13000.00000" pt_clust_7="13000.00000" pt_clust_8="13000.00000" pt_clust_9="77.28174"></scales>
<clustering>
<clus scale="   77.282">  1  9  2 -1</clus>
<clus scale="   80.921">  5  6 -1 -1</clus>
<clus scale="   85.316">  7  8 -1 -1</clus>
<clus scale="   85.351">  2  5  1 -1</clus>
<clus scale="   77.282">  1  5  2 -1</clus>
</clustering>
</event>
<event>
 9    2  0.7820252E-005  0.8853622E+02  0.7546771E-02  0.1310177E+00
          2   -1    0    0  502    0 -0.00000000000E+00  0.00000000000E+00  0.86975423816E+03  0.86975423816E+03  0.00000000000E+00 0. -1.
         21   -1    0    0  501  502  0.00000000000E+00 -0.00000000000E+00 -0.95176235834E+02  0.95176235834E+02  0.00000000000E+00 0. -1.
         24    2    1    2    0    0  0.13268020813E+02 -0.18734222471E+02  0.66328855819E+03  0.66865370086E+03  0.81357536672E+02 0.  0.
         23    2    1    2    0    0  0.19519859934E+02 -0.65135071075E+01  0.18846356216E+03  0.20870772914E+03  0.87275146728E+02 0.  0.
        -13    1    3    3    0    0 -0.15968616157E+02 -0.22604713399E+02  0.80600356604E+02  0.85219641248E+02  0.00000000000E+00 0.  1.
         14    1    3    3    0    0  0.29236636970E+02  0.38704909281E+01  0.58268820159E+03  0.58343405961E+03  0.00000000000E+00 0. -1.
        -11    1    4    4    0    0 -0.10570636100E+02 -0.41215203249E+02  0.73804889776E+02  0.85191508270E+02  0.00000000000E+00 0.  1.
         11    1    4    4    0    0  0.30090496034E+02  0.34701696141E+02  0.11465867238E+03  0.12351622087E+03  0.00000000000E+00 0. -1.
          1    1    1    2  501    0 -0.32787880747E+02  0.25247729578E+02 -0.77174118025E+02  0.87569043992E+02  0.00000000000E+00 0. -1.
<scales pt_clust_5="13000.00000" pt_clust_6="13000.00000" pt_clust_7="13000.00000" pt_clust_8="13000.00000" pt_clust_9="41.38228"></scales>
<clustering>
<clus scale="   41.382">  2  9  1 -1</clus>
<clus scale="   81.358">  5  6 -1 -1</clus>
<clus scale="   82.709">  1  5  2 -1</clus>
<clus scale="   87.275">  7  8 -1 -1</clus>
<clus scale="   41.382">  2  5  1 -1</clus>
</clustering>
</event>
<event>
 9    2  0.7820252E-005  0.9921559E+02  0.7546771E-02  0.1286616E+00
         21   -1    0    0  501  502  0.00000000000E+00  0.00000000000E+00  0.16729933595E+03  0.16729933595E+03  0.00000000000E+00 0. -1.
          2   -1    0    0  502    0 -0.00000000000E+00 -0.00000000000E+00 -0.12326709644E+03  0.12326709644E+03  0.00000000000E+00 0. -1.
         24    2    1    2    0    0  0.92234928836E+01 -0.53264721313E+02 -0.28578175027E+02  0.10097626625E+03  0.80357270365E+02 0.  0.
         23    2    1    2    0    0 -0.53114830008E+02 -0.14684932524E+01  0.34975374899E+02  0.10997502649E+03  0.89710021536E+02 0.  0.
        -11    1    3    3    0    0  0.12126336809E+02 -0.39694652806E+02  0.23076960434E+02  0.47489573684E+02  0.00000000000E+00 0.  1.
         12    1    3    3    0    0 -0.29028439252E+01 -0.13570068506E+02 -0.51655135462E+02  0.53486692566E+02  0.00000000000E+00 0. -1.
        -11    1    4    4    0    0  0.19236954692E+02 -0.10772706378E+02 -0.10071709788E+02  0.24239450624E+02  0.00000000000E+00 0.  1.
         11    1    4    4    0    0 -0.72351784699E+02  0.93042131256E+01  0.45047084687E+02  0.85735575871E+02  0.00000000000E+00 0. -1.
          1    1    1    2  501    0  0.43891337124E+02  0.54733214565E+02  0.37635039648E+02  0.79615139644E+02  0.00000000000E+00 0. -1.
<scales pt_clust_5="13000.00000" pt_clust_6="13000.00000" pt_clust_7="13000.00000" pt_clust_8="13000.00000" pt_clust_9="70.15821"></scales>
<clustering>
<clus scale="   70.158">  1  9  2 -1</clus>
<clus scale="   80.357">  5  6 -1 -1</clus>
<clus scale="   89.710">  7  8 -1 -1</clus>
<clus scale="   90.847">  2  5  1 -1</clus>
<clus scale="   70.158">  1  5  2 -1</clus>
</clustering>
</event>
<event>
 9    2  0.7820252E-005  0.9967252E+02  0.7546771E-02  0.1291227E+00
          2   -1    0    0  502    0 -0.00000000000E+00  0.00000000000E+00  0.36591264824E+03  0.36591264824E+03  0.00000000000E+00 0. -1.
         21   -1    0    0  501  502  0.00000000000E+00 -0.00000000000E+00 -0.39608324246E+03  0.39608324246E+03  0.00000000000E+00 0. -1.
         24    2    1    2    0    0 -0.12592844243E+02 -0.16505162344E+02  0.34032442100E+03  0.35006201116E+03  0.79320237142E+02 0.  0.
         23    2    1    2    0    0  0.98654308225E+01  0.46926689697E+02 -0.12921219227E+03  0.16872551464E+03  0.97329685757E+02 0.  0.
        -13    1    3    3    0    0  0.28297789212E+02 -0.27635058371E+02  0.15758370609E+03  0.16247179986E+03  0.00000000000E+00 0.  1.
         14    1    3    3    0    0 -0.40890633455E+02  0.11129896027E+02  0.18274071491E+03  0.18759021130E+03  0.00000000000E+00 0. -1.
        -13    1    4    4    0    0  0.70573378034E+01  0.76287515800E+02 -0.76171083488E+02  0.10803529536E+03  0.00000000000E+00 0. -1.
         13    1    4    4    0    0  0.28080930192E+01 -0.29360826103E+02 -0.53041108783E+02  0.60690219285E+02  0.00000000000E+00 0.  1.
          1    1    1    2  501    0  0.27274134207E+01 -0.30421527352E+02 -0.24128282294E+03  0.24320836489E+03  0.00000000000E+00 0. -1.
<scales pt_clust_5="13000.00000" pt_clust_6="13000.00000" pt_clust_7="13000.00000" pt_clust_8="13000.00000" pt_clust_9="30.54354"></scales>
<clustering>
<clus scale="   30.544">  2  9  1 -1</clus>
<clus scale="   79.320">  5  6 -1 -1</clus>
<clus scale="   82.178">  1  5  2 -1</clus>
<clus scale="   97.330">  7  8 -1 -1</clus>
<clus scale="   30.544">  2  5  1 -1</clus>
</clustering>
</event>
<event>
 9    2  0.7820252E-005  0.1238655E+03  0.7546771E-02  0.1257016E+00
         21   -1    0    0  501  502  0.00000000000E+00  0.00000000000E+00  0.58626712134E+02  0.58626712134E+02  0.00000000000E+00 0. -1.
         -1   -1    0    0    0  501 -0.00000000000E+00 -0.00000000000E+00 -0.50681128875E+03  0.50681128875E+03  0.00000000000E+00 0.  1.
         24    2    1    2    0    0  0.53458728721E+01  0.16672470724E+02 -0.58951719172E+02  0.10150001645E+03  0.80748984571E+02 0.  0.
         23    2    1    2    0    0  0.82027161038E+02 -0.14667215988E+02 -0.91252081234E+02  0.15340519858E+03  0.90899011262E+02 0.  0.
        -13    1    3    3    0    0  0.24103380354E+02  0.32193959342E+02 -0.28203994328E+01  0.40315984616E+02  0.00000000000E+00 0.  1.
         14    1    3    3    0    0 -0.18757507482E+02 -0.15521488618E+02 -0.56131319739E+02  0.61184031835E+02  0.00000000000E+00 0. -1.
        -11    1    4    4    0    0 -0.15239042596E+02 -0.13394764169E+02 -0.36552796959E+02  0.41806160933E+02  0.00000000000E+00 0.  1.
         11    1    4    4    0    0  0.97266203634E+02 -0.12724518188E+01 -0.54699284274E+02  0.11159903764E+03  0.00000000000E+00 0. -1.
         -2    1    1    2    0  502 -0.87373033910E+02 -0.20052547363E+01 -0.29798077621E+03  0.31053278586E+03  0.00000000000E+00 0.  1.
<scales pt_clust_5="13000.00000" pt_clust_6="13000.00000" pt_clust_7="13000.00000" pt_clust_8="13000.00000" pt_clust_9="84.14299"></scales>
<clustering>
<clus scale="   80.749">  5  6 -1 -1</clus>
<clus scale="   82.625">  2  5  1 -1</clus>
<clus scale="   84.143">  1  9  2 -1</clus>
<clus scale="   90.899">  7  8 -1 -1</clus>
<clus scale="   84.143">  1  5  2 -1</clus>
</clustering>
</event>
<event>
 9    2  0.7820252E-005  0.1677353E+03  0.7546771E-02  0.1204819E+00
          2   -1    0    0  502    0 -0.00000000000E+00  0.00000000000E+00  0.11425919028E+03  0.11425919028E+03  0.00000000000E+00 0. -1.
         21   -1    0    0  501  502  0.00000000000E+00 -0.00000000000E+00 -0.72520186800E+03  0.72520186800E+03  0.00000000000E+00 0. -1.
         24    2    1    2    0    0  0.50518885794E+02  0.22152693132E+02 -0.44038660472E+03  0.45108363319E+03  0.80580288446E+02 0.  0.
         23    2    1    2    0    0 -0.15445602729E+03  0.18204888271E+02 -0.20378640245E+03  0.27203345854E+03  0.91023197155E+02 0.  0.
        -11    1    3    3    0    0  0.37991483448E+02  0.48468791085E+01 -0.67679927053E+02  0.77765143718E+02  0.00000000000E+00 0.  1.
         12    1    3    3    0    0  0.12527402346E+02  0.17305814024E+02 -0.37270667766E+03  0.37331848947E+03  0.00000000000E+00 0. -1.
        -13    1    4    4    0    0 -0.15497194795E+03 -0.26608428653E+01 -0.15609683783E+03  0.21997637945E+03  0.00000000000E+00 0. -1.
         13    1    4    4    0    0  0.51592066109E+00  0.20865731136E+02 -0.47689564616E+02  0.52057079088E+02  0.00000000000E+00 0.  1.
          1    1    1    2  501    0  0.10393714149E+03 -0.40357581403E+02  0.33230329444E+02  0.11634396655E+03  0.00000000000E+00 0. -1.
<scales pt_clust_5="13000.00000" pt_clust_6="13000.00000" pt_clust_7="13000.00000" pt_clust_8="13000.00000" pt_clust_9="140.88982"></scales>
<clustering>
<clus scale="   80.580">  5  6 -1 -1</clus>
<clus scale="   91.023">  7  8 -1 -1</clus>
<clus scale="   97.653">  1  5  2 -1</clus>
<clus scale="  140.890">  2  9  1 -1</clus>
<clus scale="  140.890">  2  5  1 -1</clus>
</clustering>
</event>
<event>
 9    2  0.7820252E-005  0.2285263E+03  0.7546771E-02  0.1156991E+00
         -1   -1    0    0    0  501 -0.00000000000E+00  0.00000000000E+00  0.82318016644E+03  0.82318016644E+03  0.00000000000E+00 0.  1.
         21   -1    0    0  501  502  0.00000000000E+00 -0.00000000000E+00 -0.19133564516E+03  0.19133564516E+03  0.00000000000E+00 0.  1.
         24    2    1    2    0    0 -0.35284142175E+02 -0.68530834022E+02  0.41484683152E+03  0.42996517523E+03  0.82648123921E+02 0.  0.
         23    2    1    2    0    0  0.18432806401E+03 -0.10850274675E+03 -0.48829937566E+02  0.23210304195E+03  0.75748122398E+02 0.  0.
        -11    1    3    3    0    0 -0.60547845667E+02 -0.41164633208E+02  0.22887498881E+03  0.24030049759E+03  0.00000000000E+00 0.  1.
         12    1    3    3    0    0  0.25263703492E+02 -0.27366200814E+02  0.18597184271E+03  0.18966467764E+03  0.00000000000E+00 0. -1.
        -13    1    4    4    0    0  0.84827618363E+02 -0.72529397106E+02 -0.58226096411E+02  0.12588294795E+03  0.00000000000E+00 0.  1.
         13    1    4    4    0    0  0.99500445648E+02 -0.35973349648E+02  0.93961588448E+01  0.10622009400E+03  0.00000000000E+00 0. -1.
         -2    1    1    2    0  502 -0.14904392184E+03  0.17703358078E+03  0.26582762733E+03  0.35244759442E+03  0.00000000000E+00 0.  1.
<scales pt_clust_5="13000.00000" pt_clust_6="13000.00000" pt_clust_7="13000.00000" pt_clust_8="13000.00000" pt_clust_9="215.60732"></scales>
<clustering>
<clus scale="   75.748">  7  8 -1 -1</clus>
<clus scale="   82.648">  5  6 -1 -1</clus>
<clus scale="  113.014">  1  5  2 -1</clus>
<clus scale="  215.607">  2  9  1 -1</clus>
<clus scale="  215.607">  2  5  1 -1</clus>
</clustering>
</event>
<event>
 9    2  0.7820252E-005  0.1298754E+03  0.7546771E-02  0.1231703E+00
          2   -1    0    0  502    0 -0.00000000000E+00  0.00000000000E+00  0.31692733482E+03  0.31692733482E+03  0.00000000000E+00 0. -1.
         21   -1    0    0  501  502  0.00000000000E+00 -0.00000000000E+00 -0.99067419639E+02  0.99067419639E+02  0.00000000000E+00 0.  1.
         24    2    1    2    0    0  0.93063912167E+02  0.80238456640E+01  0.21894363224E+03  0.25121700346E+03  0.80301898389E+02 0.  0.
         23    2    1    2    0    0 -0.72795662676E+02 -0.15384992952E+02  0.32299468757E+02  0.12503576410E+03  0.95156608335E+02 0.  0.
        -11    1    3    3    0    0  0.41011651456E+02 -0.20290216488E+02  0.33980010550E+02  0.56993767706E+02  0.00000000000E+00 0.  1.
         12    1    3    3    0    0  0.52052260710E+02  0.28314062152E+02  0.18496362169E+03  0.19422323576E+03  0.00000000000E+00 0. -1.
        -13    1    4    4    0    0 -0.87075678870E+02 -0.35386621449E+02  0.15485912592E+02  0.95258597077E+02  0.00000000000E+00 0.  1.
         13    1    4    4    0    0  0.14280016195E+02  0.20001628497E+02  0.16813556165E+02  0.29777167024E+02  0.00000000000E+00 0. -1.
          1    1    1    2  501    0 -0.20268249491E+02  0.73611472883E+01 -0.33383185817E+02  0.39741986892E+02  0.00000000000E+00 0. -1.
<scales pt_clust_5="13000.00000" pt_clust_6="13000.00000" pt_clust_7="13000.00000" pt_clust_8="13000.00000" pt_clust_9="21.56359"></scales>
<clustering>
<clus scale="   21.564">  2  9  1 -1</clus>
<clus scale="   80.302">  5  6 -1 -1</clus>
<clus scale="   95.157">  7  8 -1 -1</clus>
<clus scale="  119.420">  1  5  2 -1</clus>
<clus scale="   21.564">  2  5  1 -1</clus>
</clustering>
</event>
<event>
 9    2  0.7820252E-005  0.9647748E+02  0.7546771E-02  0.1294280E+00
          2   -1    0    0  502    0 -0.00000000000E+00  0.00000000000E+00  0.10955770219E+04  0.10955770219E+04  0.00000000000E+00 0. -1.
         21   -1    0    0  501  502  0.00000000000E+00 -0.00000000000E+00 -0.26828745884E+02  0.26828745884E+02  0.00000000000E+00 0.  1.
         24    2    1    2    0    0 -0.10188557665E+02 -0.23159399139E+02  0.88533660644E+03  0.88937287479E+03  0.80765334302E+02 0.  0.
         23    2    1    2    0    0  0.29337788645E+02  0.50964233924E+02  0.13052225887E+03  0.17028664491E+03  0.92214003241E+02 0.  0.
        -11    1    3    3    0    0 -0.12915395342E+02  0.18334742933E+02  0.83519398772E+02  0.86478090905E+02  0.00000000000E+00 0.  1.
         12    1    3    3    0    0  0.27268376775E+01 -0.41494142072E+02  0.80181720767E+03  0.80289478388E+03  0.00000000000E+00 0. -1.
        -11    1    4    4    0    0  0.33881424139E+02  0.30229197909E+02  0.13989721020E+03  0.14708155809E+03  0.00000000000E+00 0. -1.
         11    1    4    4    0    0 -0.45436354935E+01  0.20735036015E+02 -0.93749513323E+01  0.23205086824E+02  0.00000000000E+00 0.  1.
          1    1    1    2  501    0 -0.19149230980E+02 -0.27804834785E+02  0.52889410741E+02  0.62746248120E+02  0.00000000000E+00 0. -1.
<scales pt_clust_5="13000.00000" pt_clust_6="13000.00000" pt_clust_7="13000.00000" pt_clust_8="13000.00000" pt_clust_9="33.76095"></scales>
<clustering>
<clus scale="   33.761">  2  9  1 -1</clus>
<clus scale="   80.765">  5  6 -1 -1</clus>
<clus scale="   85.601">  1  5  2 -1</clus>
<clus scale="   92.214">  7  8 -1 -1</clus>
<clus scale="   33.761">  2  5  1 -1</clus>
</clustering>
</event>
<event>
 9    2  0.7820252E-005  0.1026119E+03  0.7546771E-02  0.1283575E+00
         21   -1    0    0  501  502  0.00000000000E+00  0.00000000000E+00  0.80170333204E+02  0.80170333204E+02  0.00000000000E+00 0.  1.
          2   -1    0    0  502    0 -0.00000000000E+00 -0.00000000000E+00 -0.26633770539E+03  0.26633770539E+03  0.00000000000E+00 0. -1.
         24    2    1    2    0    0 -0.60301286713E+00  0.40752841692E+02 -0.91979533968E+02  0.12895758812E+03  0.80676310859E+02 0.  0.
         23    2    1    2    0    0  0.63252960744E+02  0.82852648527E+01 -0.51470652108E+02  0.12724812575E+03  0.97330749617E+02 0.  0.
        -11    1    3    3    0    0  0.31719736367E+02  0.33073979460E+02 -0.20636151273E+02  0.50258138961E+02  0.00000000000E+00 0.  1.
         12    1    3    3    0    0 -0.32322749234E+02  0.76788622328E+01 -0.71343382695E+02  0.78699449157E+02  0.00000000000E+00 0. -1.
        -13    1    4    4    0    0  0.64158465484E+02  0.36171272509E+02 -0.59953447865E+01  0.73895966110E+02  0.00000000000E+00 0.  1.
         13    1    4    4    0    0 -0.90550474047E+00 -0.27886007656E+02 -0.45475307321E+02  0.53352159636E+02  0.00000000000E+00 0. -1.
          1    1    1    2  501    0 -0.62649947877E+02 -0.49038106545E+02 -0.42717186113E+02  0.90302324732E+02  0.00000000000E+00 0. -1.
<scales pt_clust_5="13000.00000" pt_clust_6="13000.00000" pt_clust_7="13000.00000" pt_clust_8="13000.00000" pt_clust_9="79.55974"></scales>
<clustering>
<clus scale="   79.560">  1  9  2 -1</clus>
<clus scale="   80.676">  5  6 -1 -1</clus>
<clus scale="   86.975">  2  5  1 -1</clus>
<clus scale="   97.331">  7  8 -1 -1</clus>
<clus scale="   79.560">  1  5  2 -1</clus>
</clustering>
</event>
<event>
 9    2  0.7820252E-005  0.1271409E+03  0.7546771E-02  0.1253892E+00
         21   -1    0    0  501  502  0.00000000000E+00  0.00000000000E+00  0.65020673072E+02  0.65020673072E+02  0.00000000000E+00 0. -1.
         -1   -1    0    0    0  501 -0.00000000000E+00 -0.00000000000E+00 -0.41673100662E+03  0.41673100662E+03  0.00000000000E+00 0.  1.
         24    2    1    2    0    0  0.36552578943E+01  0.56581256935E+00 -0.29095827191E+02  0.86328542925E+02  0.81193405579E+02 0.  0.
         23    2    1    2    0    0  0.71613355472E+02 -0.51807845696E+02 -0.12452169477E+03  0.17740508220E+03  0.90301634331E+02 0.  0.
        -13    1    3    3    0    0  0.17372712229E+02  0.17118919510E+02 -0.50444274180E+02  0.56031181791E+02  0.00000000000E+00 0.  1.
         14    1    3    3    0    0 -0.13717454335E+02 -0.16553106941E+02  0.21348446989E+02  0.30297361134E+02  0.00000000000E+00 0. -1.
        -13    1    4    4    0    0  0.42496526093E+02 -0.26142029073E+02 -0.12902011781E+03  0.13833130959E+03  0.00000000000E+00 0.  1.
         13    1    4    4    0    0  0.29116829378E+02 -0.25665816623E+02  0.44984230345E+01  0.39073772607E+02  0.00000000000E+00 0. -1.
         -2    1    1    2    0  502 -0.75268613366E+02  0.51242033126E+02 -0.19809281159E+03  0.21801805458E+03  0.00000000000E+00 0.  1.
<scales pt_clust_5="13000.00000" pt_clust_6="13000.00000" pt_clust_7="13000.00000" pt_clust_8="13000.00000" pt_clust_9="89.50106"></scales>
<clustering>
<clus scale="   81.193">  5  6 -1 -1</clus>
<clus scale="   81.278">  2  5  1 -1</clus>
<clus scale="   89.501">  1  9  2 -1</clus>
<clus scale="   90.302">  7  8 -1 -1</clus>
<clus scale="   89.501">  1  5  2 -1</clus>
</clustering>
</event>
<event>
 9    2  0.7820252E-005  0.1219113E+03  0.7546771E-02  0.1255382E+00
          2   -1    0    0  502    0 -0.00000000000E+00  0.00000000000E+00  0.23320171405E+03  0.23320171405E+03  0.00000000000E+00 0. -1.
         21   -1    0    0  501  502  0.00000000000E+00 -0.00000000000E+00 -0.13432550961E+03  0.13432550961E+03  0.00000000000E+00 0. -1.
         23    2    1    2    0    0 -0.62643673487E+02  0.77891899650E+01  0.14557351004E+03  0.19659202859E+03  0.11606841764E+03 0.  0.
         24    2    1    2    0    0 -0.10460276886E+02 -0.18863046604E+02 -0.13396126905E+01  0.84193404878E+02  0.81372617895E+02 0.  0.
        -13    1    4    4    0    0  0.16141062801E+02 -0.19269942327E+02 -0.33864067401E+02  0.42173921404E+02  0.00000000000E+00 0.  1.
         14    1    4    4    0    0 -0.26601339687E+02  0.40689572244E+00  0.32524454710E+02  0.42019483475E+02  0.00000000000E+00 0. -1.
        -11    1    3    3    0    0 -0.57423203232E+02  0.32707686512E+02  0.15573759412E+03  0.16917864892E+03  0.00000000000E+00 0.  1.
         11    1    3    3    0    0 -0.52204702553E+01 -0.24918496547E+02 -0.10164084088E+02  0.27413379675E+02  0.00000000000E+00 0. -1.
          1    1    1    2  501    0  0.73103950373E+02  0.11073856639E+02 -0.45357692904E+02  0.86741790197E+02  0.00000000000E+00 0. -1.
<scales pt_clust_5="13000.00000" pt_clust_6="13000.00000" pt_clust_7="13000.00000" pt_clust_8="13000.00000" pt_clust_9="73.93793"></scales>
<clustering>
<clus scale="   73.938">  2  9  1 -1</clus>
<clus scale="   81.373">  5  6 -1 -1</clus>
<clus scale="   89.510">  2  5  1 -1</clus>
<clus scale="  116.068">  7  8 -1 -1</clus>
<clus scale="   73.938">  2  5  1 -1</clus>
</clustering>
</event>
<event>
 9    2  0.7820252E-005  0.1958790E+03  0.7546771E-02  0.1167580E+00
          2   -1    0    0  502    0 -0.00000000000E+00  0.00000000000E+00  0.17586200075E+03  0.17586200075E+03  0.00000000000E+00 0. -1.
         21   -1    0    0  501  502  0.00000000000E+00 -0.00000000000E+00 -0.69560603923E+03  0.69560603923E+03  0.00000000000E+00 0. -1.
         23    2    1    2    0    0 -0.20349091548E+02 -0.10316938843E+03 -0.60943843477E+02  0.15305050138E+03  0.93017717009E+02 0.  0.
         24    2    1    2    0    0  0.18852487022E+03  0.32929600259E+02  0.18814204325E+02  0.20721089270E+03  0.77177681393E+02 0.  0.
        -13    1    4    4    0    0  0.71934971573E+02  0.10358876285E+02  0.45165390150E+02  0.85567861493E+02  0.00000000000E+00 0.  1.
         14    1    4    4    0    0  0.11658989865E+03  0.22570723973E+02 -0.26351185825E+02  0.12164303121E+03  0.00000000000E+00 0. -1.
        -13    1    3    3    0    0  0.30478765643E+02 -0.38934887527E+02 -0.50156901908E+02  0.70431494595E+02  0.00000000000E+00 0. -1.
         13    1    3    3    0    0 -0.50827857192E+02 -0.64234500905E+02 -0.10786941569E+02  0.82619006782E+02  0.00000000000E+00 0.  1.
          1    1    1    2  501    0 -0.16817577867E+03  0.70239788174E+02 -0.47761439933E+03  0.51120664591E+03  0.00000000000E+00 0. -1.
<scales pt_clust_5="13000.00000" pt_clust_6="13000.00000" pt_clust_7="13000.00000" pt_clust_8="13000.00000" pt_clust_9="180.03381"></scales>
<clustering>
<clus scale="   77.178">  5  6 -1 -1</clus>
<clus scale="   93.018">  7  8 -1 -1</clus>
<clus scale="  140.393">  1  7  2 -1</clus>
<clus scale="  180.034">  2  9  1 -1</clus>
<clus scale="  180.034">  2  5  1 -1</clus>
</clustering>
</event>
<event>
 9    2  0.7820252E-005  0.1297806E+03  0.7546771E-02  0.1231274E+00
         21   -1    0    0  501  502  0.00000000000E+00  0.00000000000E+00  0.17311606860E+03  0.17311606860E+03  0.00000000000E+00 0. -1.
          2   -1    0    0  502    0 -0.00000000000E+00 -0.00000000000E+00 -0.33403878632E+03  0.33403878632E+03  0.00000000000E+00 0. -1.
         24    2    1    2    0    0 -0.10417251307E+02  0.94756371375E+02 -0.26751044177E+03  0.29502710907E+03  0.79949168797E+02 0.  0.
         23    2    1    2    0    0 -0.31079478603E+02 -0.65760040726E+02  0.32654797359E+02  0.12252393212E+03  0.93034731174E+02 0.  0.
        -11    1    3    3    0    0  0.22124994555E+02  0.12790937241E+02 -0.20552558058E+02  0.32795290855E+02  0.00000000000E+00 0.  1.
         12    1    3    3    0    0 -0.32542245862E+02  0.81965434134E+02 -0.24695788371E+03  0.26223181822E+03  0.00000000000E+00 0. -1.
        -13    1    4    4    0    0  0.18700826092E+02  0.14483347131E+02  0.71291174652E+01  0.24704504782E+02  0.00000000000E+00 0.  1.
         13    1    4    4    0    0 -0.49780304696E+02 -0.80243387857E+02  0.25525679894E+02  0.97819427337E+02  0.00000000000E+00 0. -1.
          1    1    1    2  501    0  0.41496729910E+02 -0.28996330649E+02  0.73932926695E+02  0.89603813725E+02  0.00000000000E+00 0. -1.
<scales pt_clust_5="13000.00000" pt_clust_6="13000.00000" pt_clust_7="13000.00000" pt_clust_8="13000.00000" pt_clust_9="50.62377"></scales>
<clustering>
<clus scale="   50.624">  1  9  2 -1</clus>
<clus scale="   79.949">  5  6 -1 -1</clus>
<clus scale="   93.035">  7  8 -1 -1</clus>
<clus scale="  120.745">  2  5  1 -1</clus>
<clus scale="   50.624">  1  5  2 -1</clus>
</clustering>
</event>
<event>
 9    2  0.7820252E-005  0.1015215E+03  0.7546771E-02  0.1283059E+00
         21   -1    0    0  501  502  0.00000000000E+00  0.00000000000E+00  0.76118608966E+02  0.76118608966E+02  0.00000000000E+00 0. -1.
          2   -1    0    0  502    0 -0.00000000000E+00 -0.00000000000E+00 -0.34415914956E+03  0.34415914956E+03  0.00000000000E+00 0. -1.
         24    2    1    2    0    0  0.27184942792E+02 -0.80976960840E+00 -0.19618098767E+03  0.21448004859E+03  0.82310597606E+02 0.  0.
         23    2    1    2    0    0 -0.70308251320E+02  0.10383821544E+01 -0.10002209206E+03  0.15429236446E+03  0.94113688634E+02 0.  0.
        -11    1    3    3    0    0  0.38879392223E+02  0.28348438157E+02 -0.15729075528E+03  0.16448593491E+03  0.00000000000E+00 0.  1.
         12    1    3    3    0    0 -0.11694449431E+02 -0.29158207765E+02 -0.38890232391E+02  0.49994113684E+02  0.00000000000E+00 0. -1.
        -11    1    4    4    0    0 -0.64484422823E+02 -0.38963213347E+02 -0.52115969087E+02  0.91610299721E+02  0.00000000000E+00 0. -1.
         11    1    4    4    0    0 -0.58238284963E+01  0.40001595501E+02 -0.47906122976E+02  0.62682064737E+02  0.00000000000E+00 0.  1.
          1    1    1    2  501    0  0.43123308528E+02 -0.22861254605E+00  0.28162539140E+02  0.51505345479E+02  0.00000000000E+00 0. -1.
<scales pt_clust_5="13000.00000" pt_clust_6="13000.00000" pt_clust_7="13000.00000" pt_clust_8="13000.00000" pt_clust_9="43.12391"></scales>
<clustering>
<clus scale="   43.124">  1  9  2 -1</clus>
<clus scale="   82.311">  5  6 -1 -1</clus>
<clus scale="   90.688">  2  5  1 -1</clus>
<clus scale="   94.114">  7  8 -1 -1</clus>
<clus scale="   43.124">  1  5  2 -1</clus>
</clustering>
</event>
<event>
 9    2  0.7820252E-005  0.9464549E+02  0.7546771E-02  0.1299958E+00
         21   -1    0    0  501  502  0.00000000000E+00  0.00000000000E+00  0.62197411937E+02  0.62197411937E+02  0.00000000000E+00 0.  1.
          2   -1    0    0  502    0 -0.00000000000E+00 -0.00000000000E+00 -0.32782615130E+03  0.32782615130E+03  0.00000000000E+00 0. -1.
         24    2    1    2    0    0 -0.66407733812E+01 -0.23335862206E+02 -0.25884988860E+03  0.27158006502E+03  0.78509900974E+02 0.  0.
         23    2    1    2    0    0  0.18942321694E+02  0.36769896623E+01 -0.11792700780E+02  0.94717182610E+02  0.91977959782E+02 0.  0.
        -13    1    3    3    0    0  0.35776641622E+02 -0.76584632761E+01 -0.12858793284E+03  0.13369172233E+03  0.00000000000E+00 0.  1.
         14    1    3    3    0    0 -0.42417415004E+02 -0.15677398930E+02 -0.13026195576E+03  0.13788834269E+03  0.00000000000E+00 0. -1.
        -13    1    4    4    0    0  0.24015084920E+02 -0.39155963652E+02 -0.21169707985E+02  0.50577369736E+02  0.00000000000E+00 0. -1.
         13    1    4    4    0    0 -0.50727632262E+01  0.42832953315E+02  0.93770072052E+01  0.44139812874E+02  0.00000000000E+00 0.  1.
          1    1    1    2  501    0 -0.12301548313E+02  0.19658872544E+02  0.50138500139E+01  0.23726315613E+02  0.00000000000E+00 0. -1.
<scales pt_clust_5="13000.00000" pt_clust_6="13000.00000" pt_clust_7="13000.00000" pt_clust_8="13000.00000" pt_clust_9="23.19050"></scales>
<clustering>
<clus scale="   23.191">  1  9  2 -1</clus>
<clus scale="   78.510">  5  6 -1 -1</clus>
<clus scale="   81.619">  2  5  1 -1</clus>
<clus scale="   91.978">  7  8 -1 -1</clus>
<clus scale="   23.191">  1  5  2 -1</clus>
</clustering>
</event>
<event>
 9    2  0.7820252E-005  0.1359088E+03  0.7546771E-02  0.1236046E+00
          2   -1    0    0  502    0 -0.00000000000E+00  0.00000000000E+00  0.11173618384E+04  0.11173618384E+04  0.00000000000E+00 0. -1.
         21   -1    0    0  501  502  0.00000000000E+00 -0.00000000000E+00 -0.34491850665E+02  0.34491850665E+02  0.00000000000E+00 0.  1.
         24    2    1    2    0    0  0.50502243301E+02  0.92428897150E+01  0.17607762391E+03  0.20022648488E+03  0.80320657492E+02 0.  0.
         23    2    1    2    0    0  0.76431672384E+02 -0.37561570912E+02  0.23691140870E+03  0.26923826765E+03  0.95443999506E+02 0.  0.
        -11    1    3    3    0    0 -0.17973347458E+02 -0.12647181618E+02  0.27773742123E+02  0.35417131070E+02  0.00000000000E+00 0.  1.
         12    1    3    3    0    0  0.68475590759E+02  0.21890071333E+02  0.14830388178E+03  0.16480935381E+03  0.00000000000E+00 0. -1.
        -13    1    4    4    0    0  0.88663101655E+02 -0.11755319419E+02  0.12475382052E+03  0.15350195068E+03  0.00000000000E+00 0.  1.
         13    1    4    4    0    0 -0.12231429270E+02 -0.25806251493E+02  0.11215758818E+03  0.11573631697E+03  0.00000000000E+00 0. -1.
          1    1    1    2  501    0 -0.12693391569E+03  0.28318681197E+02  0.66988095509E+03  0.68238893649E+03  0.00000000000E+00 0. -1.
<scales pt_clust_5="13000.00000" pt_clust_6="13000.00000" pt_clust_7="13000.00000" pt_clust_8="13000.00000" pt_clust_9="96.75567"></scales>
<clustering>
<clus scale="   80.321">  5  6 -1 -1</clus>
<clus scale="   95.327">  1  5  2 -1</clus>
<clus scale="   95.444">  7  8 -1 -1</clus>
<clus scale="   96.756">  2  9  1 -1</clus>
<clus scale="   96.756">  2  5  1 -1</clus>
</clustering>
</event>
<event>
 9    2  0.7820252E-005  0.9809036E+02  0.7546771E-02  0.1292109E+00
          2   -1    0    0  502    0 -0.00000000000E+00  0.00000000000E+00  0.62447118578E+03  0.62447118578E+03  0.00000000000E+00 0. -1.
         21   -1    0    0  501  502  0.00000000000E+00 -0.00000000000E+00 -0.41258742616E+02  0.41258742616E+02  0.00000000000E+00 0. -1.
         24    2    1    2    0    0  0.25700428965E+02 -0.60093956088E+01  0.49536710161E+03  0.50260023148E+03  0.80757677301E+02 0.  0.
         23    2    1    2    0    0 -0.13938424968E+02  0.31698273710E+02  0.89594728859E+02  0.13482203801E+03  0.94608172206E+02 0.  0.
        -13    1    3    3    0    0  0.98762654206E+01  0.24717207564E+02  0.57396018950E+02  0.63267558509E+02  0.00000000000E+00 0.  1.
         14    1    3    3    0    0  0.15824163545E+02 -0.30726603173E+02  0.43797108266E+03  0.43933267298E+03  0.00000000000E+00 0. -1.
        -11    1    4    4    0    0  0.31823543230E+02  0.38009980163E+02  0.67140810708E+02  0.83458881842E+02  0.00000000000E+00 0. -1.
         11    1    4    4    0    0 -0.45761968197E+02 -0.63117064535E+01  0.22453918151E+02  0.51363156172E+02  0.00000000000E+00 0.  1.
          1    1    1    2  501    0 -0.11762003997E+02 -0.25688878101E+02 -0.17493873119E+01  0.28307658895E+02  0.00000000000E+00 0. -1.
<scales pt_clust_5="13000.00000" pt_clust_6="13000.00000" pt_clust_7="13000.00000" pt_clust_8="13000.00000" pt_clust_9="28.25355"></scales>
<clustering>
<clus scale="   28.254">  2  9  1 -1</clus>
<clus scale="   80.758">  5  6 -1 -1</clus>
<clus scale="   84.810">  1  5  2 -1</clus>
<clus scale="   94.608">  7  8 -1 -1</clus>
<clus scale="   28.254">  2  5  1 -1</clus>
</clustering>
</event>
<event>
 9    2  0.7820252E-005  0.1298028E+03  0.7546771E-02  0.1238004E+00
         21   -1    0    0  501  502  0.00000000000E+00  0.00000000000E+00  0.47373231014E+02  0.47373231014E+02  0.00000000000E+00 0. -1.
          2   -1    0    0  502    0 -0.00000000000E+00 -0.00000000000E+00 -0.94313018966E+03  0.94313018966E+03  0.00000000000E+00 0. -1.
         24    2    1    2    0    0  0.35177870541E+02 -0.58426204082E+02 -0.62794322981E+03  0.63668394656E+03  0.80016523581E+02 0.  0.
         23    2    1    2    0    0  0.70340133305E+02  0.22036416032E+02 -0.15586637210E+03  0.19573570995E+03  0.92654218549E+02 0.  0.
        -13    1    3    3    0    0 -0.18225585889E+02 -0.47098211521E+02 -0.29261310082E+03  0.29693911881E+03  0.00000000000E+00 0.  1.
         14    1    3    3    0    0  0.53403456430E+02 -0.11327992562E+02 -0.33533012899E+03  0.33974482775E+03  0.00000000000E+00 0. -1.
        -11    1    4    4    0    0 -0.14354310836E+02  0.28154212941E+02 -0.27884744216E+02  0.42145757864E+02  0.00000000000E+00 0.  1.
         11    1    4    4    0    0  0.84694444141E+02 -0.61177969086E+01 -0.12798162788E+03  0.15358995209E+03  0.00000000000E+00 0. -1.
          1    1    1    2  501    0 -0.10551800385E+03  0.36389788050E+02 -0.11194735673E+03  0.15808376416E+03  0.00000000000E+00 0. -1.
<scales pt_clust_5="13000.00000" pt_clust_6="13000.00000" pt_clust_7="13000.00000" pt_clust_8="13000.00000" pt_clust_9="90.90634"></scales>
<clustering>
<clus scale="   80.017">  5  6 -1 -1</clus>
<clus scale="   92.654">  7  8 -1 -1</clus>
<clus scale="  105.137">  2  5  1 -1</clus>
<clus scale="   90.906">  1  9  2 -1</clus>
<clus scale="   90.906">  1  5  2 -1</clus>
</clustering>
</event>
<event>
 9    2  0.7820252E-005  0.9759095E+02  0.7546771E-02  0.1291667E+00
         -1   -1    0    0    0  501 -0.00000000000E+00  0.00000000000E+00  0.69256890759E+02  0.69256890759E+02  0.00000000000E+00 0.  1.
         21   -1    0    0  501  502  0.00000000000E+00 -0.00000000000E+00 -0.33480605176E+03  0.33480605176E+03  0.00000000000E+00 0.  1.
         24    2    1    2    0    0 -0.46001096475E+02 -0.12642981825E+02 -0.95780704222E+01  0.93715292722E+02  0.80092888515E+02 0.  0.
         23    2    1    2    0    0 -0.27083796314E+02  0.17602095964E+02 -0.18157072669E+03  0.20593783937E+03  0.91646598886E+02 0.  0.
        -13    1    3    3    0    0 -0.55733007099E+02  0.16613019513E+02 -0.19479924106E+02  0.61332111825E+02  0.00000000000E+00 0.  1.
         14    1    3    3    0    0  0.97319106246E+01 -0.29256001338E+02  0.99018536840E+01  0.32383180898E+02  0.00000000000E+00 0. -1.
        -13    1    4    4    0    0 -0.63890075766E+01  0.51346323605E+02 -0.66562760477E+02  0.84308157659E+02  0.00000000000E+00 0. -1.
         13    1    4    4    0    0 -0.20694788737E+02 -0.33744227641E+02 -0.11500796621E+03  0.12162968171E+03  0.00000000000E+00 0.  1.
         -2    1    1    2    0  502  0.73084892788E+02 -0.49591141390E+01 -0.74400363887E+02  0.10440981043E+03  0.00000000000E+00 0.  1.
<scales pt_clust_5="13000.00000" pt_clust_6="13000.00000" pt_clust_7="13000.00000" pt_clust_8="13000.00000" pt_clust_9="73.25295"></scales>
<clustering>
<clus scale="   73.253">  2  9  1 -1</clus>
<clus scale="   80.093">  5  6 -1 -1</clus>
<clus scale="   86.832">  1  5  2 -1</clus>
<clus scale="   91.647">  7  8 -1 -1</clus>
<clus scale="   73.253">  2  5  1 -1</clus>
</clustering>
</event>
<event>
 9    2  0.7820252E-005  0.1327223E+03  0.7546771E-02  0.1227155E+00
         21   -1    0    0  501  502  0.00000000000E+00  0.00000000000E+00  0.38584829805E+03  0.38584829805E+03  0.00000000000E+00 0. -1.
          2   -1    0    0  502    0 -0.00000000000E+00 -0.00000000000E+00 -0.81658198313E+02  0.81658198313E+02  0.00000000000E+00 0. -1.
         23    2    1    2    0    0  0.18077823893E+02 -0.92591895727E+02  0.20513614167E+02  0.13263573589E+03  0.90947035128E+02 0.  0.
         24    2    1    2    0    0 -0.61846669238E+02  0.90681138878E+02  0.20055805624E+03  0.24091313115E+03  0.75944212356E+02 0.  0.
        -11    1    4    4    0    0  0.17790269925E+02  0.11800352459E+02  0.34196691915E+02  0.40313220661E+02  0.00000000000E+00 0.  1.
         12    1    4    4    0    0 -0.79636939162E+02  0.78880786419E+02  0.16636136433E+03  0.20059991048E+03  0.00000000000E+00 0. -1.
        -13    1    3    3    0    0  0.33750296186E+02 -0.32759264677E+01  0.24553628152E+02  0.41865198462E+02  0.00000000000E+00 0.  1.
         13    1    3    3    0    0 -0.15672472292E+02 -0.89315969259E+02 -0.40400139846E+01  0.90770537431E+02  0.00000000000E+00 0. -1.
          1    1    1    2  501    0  0.43768845344E+02  0.19107568492E+01  0.83118429322E+02  0.93957629320E+02  0.00000000000E+00 0. -1.
<scales pt_clust_5="13000.00000" pt_clust_6="13000.00000" pt_clust_7="13000.00000" pt_clust_8="13000.00000" pt_clust_9="43.81053"></scales>
<clustering>
<clus scale="   43.811">  1  9  2 -1</clus>
<clus scale="   75.944">  5  6 -1 -1</clus>
<clus scale="   90.947">  7  8 -1 -1</clus>
<clus scale="  122.928">  1  5  2 -1</clus>
<clus scale="   43.811">  1  5  2 -1</clus>
</clustering>
</event>
<event>
 9    2  0.7820252E-005  0.1251817E+03  0.7546771E-02  0.1238702E+00
         -1   -1    0    0    0  501 -0.00000000000E+00  0.00000000000E+00  0.37183252942E+03  0.37183252942E+03  0.00000000000E+00 0.  1.
         21   -1    0    0  501  502  0.00000000000E+00 -0.00000000000E+00 -0.58282057216E+02  0.58282057216E+02  0.00000000000E+00 0.  1.
         23    2    1    2    0    0 -0.16464456621E+01 -0.80733616368E+02  0.20611385497E+03  0.24028192322E+03  0.93444388911E+02 0.  0.
         24    2    1    2    0    0  0.35585345060E+02  0.84728141732E+02  0.89549289355E+02  0.15126115030E+03  0.80097974897E+02 0.  0.
        -13    1    4    4    0    0 -0.29140705760E+01  0.72021542133E+02  0.83437990681E+02  0.11026102044E+03  0.00000000000E+00 0.  1.
         14    1    4    4    0    0  0.38499415636E+02  0.12706599599E+02  0.61112986740E+01  0.41000129868E+02  0.00000000000E+00 0. -1.
        -11    1    3    3    0    0  0.31903562789E+02  0.74548395603E+00  0.82665729169E+02  0.88611601069E+02  0.00000000000E+00 0.  1.
         11    1    3    3    0    0 -0.33550008451E+02 -0.81479100324E+02  0.12344812580E+03  0.15167032215E+03  0.00000000000E+00 0. -1.
         -2    1    1    2    0  502 -0.33938899398E+02 -0.39945253641E+01  0.17887327877E+02  0.38571513113E+02  0.00000000000E+00 0.  1.
<scales pt_clust_5="13000.00000" pt_clust_6="13000.00000" pt_clust_7="13000.00000" pt_clust_8="13000.00000" pt_clust_9="34.17316"></scales>
<clustering>
<clus scale="   34.173">  2  9  1 -1</clus>
<clus scale="   80.098">  5  6 -1 -1</clus>
<clus scale="   93.444">  7  8 -1 -1</clus>
<clus scale="  115.561">  2  5  1 -1</clus>
<clus scale="   34.173">  2  5  1 -1</clus>
</clustering>
</event>
<event>
 9    2  0.7820252E-005  0.1179051E+03  0.7546771E-02  0.1250217E+00
          2   -1    0    0  502    0 -0.00000000000E+00  0.00000000000E+00  0.27834589745E+03  0.27834589745E+03  0.00000000000E+00 0. -1.
         21   -1    0    0  501  502  0.00000000000E+00 -0.00000000000E+00 -0.91438518596E+02  0.91438518596E+02  0.00000000000E+00 0. -1.
         24    2    1    2    0    0  0.13078359241E+02  0.50801177495E+02  0.86029439907E+02  0.12937529073E+03  0.81148618015E+02 0.  0.
         23    2    1    2    0    0 -0.17251042774E+01 -0.11066148527E+03  0.10676728280E+03  0.17919771121E+03  0.91997971272E+02 0.  0.
        -13    1    3    3    0    0  0.43824914094E+02  0.32995376218E+02  0.73470061884E+02  0.91690609881E+02  0.00000000000E+00 0.  1.
         14    1    3    3    0    0 -0.30746554853E+02  0.17805801278E+02  0.12559378023E+02  0.37684680851E+02  0.00000000000E+00 0. -1.
        -13    1    4    4    0    0 -0.19033493550E+02 -0.10999241440E+02  0.66988332466E+02  0.70503147983E+02  0.00000000000E+00 0.  1.
         13    1    4    4    0    0  0.17308389272E+02 -0.99662243834E+02  0.39778950336E+02  0.10869456323E+03  0.00000000000E+00 0. -1.
          1    1    1    2  501    0 -0.11353254964E+02  0.59860307778E+02 -0.58893438567E+01  0.61211414104E+02  0.00000000000E+00 0. -1.
<scales pt_clust_5="13000.00000" pt_clust_6="13000.00000" pt_clust_7="13000.00000" pt_clust_8="13000.00000" pt_clust_9="60.92744"></scales>
<clustering>
<clus scale="   60.927">  2  9  1 -1</clus>
<clus scale="   81.149">  5  6 -1 -1</clus>
<clus scale="   91.998">  7  8 -1 -1</clus>
<clus scale="  109.650">  1  5  2 -1</clus>
<clus scale="   60.927">  2  5  1 -1</clus>
</clustering>
</event>
<event>
 9    2  0.7820252E-005  0.9808306E+02  0.7546771E-02  0.1289854E+00
         21   -1    0    0  501  502  0.00000000000E+00  0.00000000000E+00  0.26251855658E+02  0.26251855658E+02  0.00000000000E+00 0.  1.
          2   -1    0    0  502    0 -0.00000000000E+00 -0.00000000000E+00 -0.46013473518E+03  0.46013473518E+03  0.00000000000E+00 0. -1.
         23    2    1    2    0    0  0.36056387040E+02 -0.36674130686E+01 -0.18036343110E+03  0.20512318285E+03  0.90725078656E+02 0.  0.
         24    2    1    2    0    0 -0.35683919044E+02 -0.23435742396E+02 -0.16137116311E+03  0.18521120211E+03  0.80249367628E+02 0.  0.
        -13    1    4    4    0    0  0.21865855774E+02 -0.20487764134E+02 -0.33441927959E+02  0.44902412781E+02  0.00000000000E+00 0.  1.
         14    1    4    4    0    0 -0.57549774818E+02 -0.29479782623E+01 -0.12792923515E+03  0.14030878933E+03  0.00000000000E+00 0. -1.
        -13    1    3    3    0    0  0.20485318754E+02  0.28817552598E+02 -0.19708065445E+02  0.40478481515E+02  0.00000000000E+00 0.  1.
         13    1    3    3    0    0  0.15571068286E+02 -0.32484965667E+02 -0.16065536566E+03  0.16464470133E+03  0.00000000000E+00 0. -1.
          1    1    1    2  501    0 -0.37246799586E+00  0.27103155465E+02 -0.92148285311E+02  0.96052205879E+02  0.00000000000E+00 0. -1.
<scales pt_clust_5="13000.00000" pt_clust_6="13000.00000" pt_clust_7="13000.00000" pt_clust_8="13000.00000" pt_clust_9="27.10573"></scales>
<clustering>
<clus scale="   27.106">  1  9  2 -1</clus>
<clus scale="   80.249">  5  6 -1 -1</clus>
<clus scale="   88.483">  1  5  2 -1</clus>
<clus scale="   90.725">  7  8 -1 -1</clus>
<clus scale="   27.106">  1  5  2 -1</clus>
</clustering>
</event>
<event>
 9    2  0.7820252E-005  0.3327624E+03  0.7546771E-02  0.1099526E+00
         21   -1    0    0  501  502  0.00000000000E+00  0.00000000000E+00  0.89833802773E+02  0.89833802773E+02  0.00000000000E+00 0. -1.
          2   -1    0    0  502    0 -0.00000000000E+00 -0.00000000000E+00 -0.19467739180E+04  0.19467739180E+04  0.00000000000E+00 0. -1.
         24    2    1    2    0    0  0.83697451351E+02  0.95712764463E+02 -0.22446175290E+03  0.27049113786E+03  0.81339907194E+02 0.  0.
         23    2    1    2    0    0  0.82121778318E+02  0.23453928653E+03 -0.99077385459E+03  0.10256119513E+04  0.92164963018E+02 0.  0.
        -11    1    3    3    0    0 -0.13882595440E+02  0.16285580802E+02 -0.14956673366E+02  0.26108402409E+02  0.00000000000E+00 0.  1.
         12    1    3    3    0    0  0.97580046791E+02  0.79427183661E+02 -0.20950507953E+03  0.24438273545E+03  0.00000000000E+00 0. -1.
        -11    1    4    4    0    0  0.24209448974E+02  0.28749220864E+02 -0.61592472893E+02  0.72154333460E+02  0.00000000000E+00 0.  1.
         11    1    4    4    0    0  0.57912329344E+02  0.20579006566E+03 -0.92918138170E+03  0.95345761789E+03  0.00000000000E+00 0. -1.
          1    1    1    2  501    0 -0.16581922967E+03 -0.33025205099E+03 -0.64170450770E+03  0.74050463153E+03  0.00000000000E+00 0. -1.
<scales pt_clust_5="13000.00000" pt_clust_6="13000.00000" pt_clust_7="13000.00000" pt_clust_8="13000.00000" pt_clust_9="319.74437"></scales>
<clustering>
<clus scale="   81.340">  5  6 -1 -1</clus>
<clus scale="   92.165">  7  8 -1 -1</clus>
<clus scale="  150.938">  2  5  1 -1</clus>
<clus scale="  319.744">  1  9  2 -1</clus>
<clus scale="  319.744">  1  5  2 -1</clus>
</clustering>
</event>
<event>
 9    2  0.7820252E-005  0.9532628E+02  0.7546771E-02  0.1295091E+00
          2   -1    0    0  502    0 -0.00000000000E+00  0.00000000000E+00  0.13808854155E+03  0.13808854155E+03  0.00000000000E+00 0. -1.
         21   -1    0    0  501  502  0.00000000000E+00 -0.00000000000E+00 -0.15125327757E+03  0.15125327757E+03  0.00000000000E+00 0.  1.
         24    2    1    2    0    0 -0.26837737107E+01 -0.15855354089E+02 -0.21732315918E+02  0.88358476724E+02  0.84120936509E+02 0.  0.
         23    2    1    2    0    0  0.12415429306E+02  0.35078337737E+02 -0.68586501315E+02  0.12087728476E+03  0.92317805139E+02 0.  0.
        -13    1    3    3    0    0  0.87444610163E+01  0.30988998210E+02  0.59715961280E+01  0.32748184206E+02  0.00000000000E+00 0.  1.
         14    1    3    3    0    0 -0.11428234727E+02 -0.46844352299E+02 -0.27703912046E+02  0.55610292517E+02  0.00000000000E+00 0. -1.
        -11    1    4    4    0    0 -0.33008301501E+02 -0.83053211041E+01 -0.37994240728E+02  0.51010671973E+02  0.00000000000E+00 0.  1.
         11    1    4    4    0    0  0.45423730807E+02  0.43383658842E+02 -0.30592260587E+02  0.69866612790E+02  0.00000000000E+00 0. -1.
          1    1    1    2  501    0 -0.97316555952E+01 -0.19222983649E+02  0.77154081218E+02  0.80106057633E+02  0.00000000000E+00 0. -1.
<scales pt_clust_5="13000.00000" pt_clust_6="13000.00000" pt_clust_7="13000.00000" pt_clust_8="13000.00000" pt_clust_9="21.54597"></scales>
<clustering>
<clus scale="   21.546">  2  9  1 -1</clus>
<clus scale="   84.121">  5  6 -1 -1</clus>
<clus scale="   87.412">  1  5  2 -1</clus>
<clus scale="   92.318">  7  8 -1 -1</clus>
<clus scale="   21.546">  2  5  1 -1</clus>
</clustering>
</event>
<event>
 9    2  0.7820252E-005  0.8816446E+02  0.7546771E-02  0.1312947E+00
         21   -1    0    0  501  502  0.00000000000E+00  0.00000000000E+00  0.52282023818E+02  0.52282023818E+02  0.00000000000E+00 0.  1.
          2   -1    0    0  502    0 -0.00000000000E+00 -0.00000000000E+00 -0.33270858833E+03  0.33270858833E+03  0.00000000000E+00 0. -1.
         24    2    1    2    0    0  0.53816656424E+01  0.93729423621E+01 -0.93588159271E+02  0.12296763637E+03  0.79028359880E+02 0.  0.
         23    2    1    2    0    0  0.24194758332E+01  0.50077967696E+02 -0.50015940309E+02  0.11263872150E+03  0.87591270026E+02 0.  0.
        -11    1    3    3    0    0 -0.28594735043E+02  0.17642903696E+02 -0.14695813122E+02  0.36672848898E+02  0.00000000000E+00 0.  1.
         12    1    3    3    0    0  0.33976400685E+02 -0.82699613337E+01 -0.78892346150E+02  0.86294787473E+02  0.00000000000E+00 0. -1.
        -13    1    4    4    0    0 -0.15172034287E+02  0.16151249859E+02  0.21927604183E+02  0.31174882865E+02  0.00000000000E+00 0.  1.
         13    1    4    4    0    0  0.17591510120E+02  0.33926717837E+02 -0.71943544492E+02  0.81463838638E+02  0.00000000000E+00 0. -1.
          1    1    1    2  501    0 -0.78011414756E+01 -0.59450910058E+02 -0.13682246493E+03  0.14938425427E+03  0.00000000000E+00 0. -1.
<scales pt_clust_5="13000.00000" pt_clust_6="13000.00000" pt_clust_7="13000.00000" pt_clust_8="13000.00000" pt_clust_9="59.96059"></scales>
<clustering>
<clus scale="   59.961">  1  9  2 -1</clus>
<clus scale="   79.028">  5  6 -1 -1</clus>
<clus scale="   79.663">  2  5  1 -1</clus>
<clus scale="   87.591">  7  8 -1 -1</clus>
<clus scale="   59.961">  1  5  2 -1</clus>
</clustering>
</event>
<event>
 9    2  0.7820252E-005  0.1264967E+03  0.7546771E-02  0.1238215E+00
         21   -1    0    0  501  502  0.00000000000E+00  0.00000000000E+00  0.27315946188E+03  0.27315946188E+03  0.00000000000E+00 0. -1.
          2   -1    0    0  502    0 -0.00000000000E+00 -0.00000000000E+00 -0.77401951220E+02  0.77401951220E+02  0.00000000000E+00 0. -1.
         23    2    1    2    0    0 -0.10506217141E+03 -0.20531279095E+02  0.66148634868E+02  0.15657479058E+03  0.93168824556E+02 0.  0.
         24    2    1    2    0    0  0.59933094650E+02  0.15544149379E+02  0.10402048171E+03  0.14186876623E+03  0.73978982157E+02 0.  0.
        -11    1    4    4    0    0  0.26592063697E+02  0.31053485256E+02  0.11746089675E+02  0.42537364997E+02  0.00000000000E+00 0.  1.
         12    1    4    4    0    0  0.33341030953E+02 -0.15509335878E+02  0.92274392040E+02  0.99331401232E+02  0.00000000000E+00 0. -1.
        -13    1    3    3    0    0 -0.75781231953E+02 -0.45628133561E+02  0.76166056329E+02  0.11673041517E+03  0.00000000000E+00 0. -1.
         13    1    3    3    0    0 -0.29280939458E+02  0.25096854466E+02 -0.10017421462E+02  0.39844375417E+02  0.00000000000E+00 0.  1.
          1    1    1    2  501    0  0.45129076761E+02  0.49871297162E+01  0.25588394074E+02  0.52117856282E+02  0.00000000000E+00 0. -1.
<scales pt_clust_5="13000.00000" pt_clust_6="13000.00000" pt_clust_7="13000.00000" pt_clust_8="13000.00000" pt_clust_9="45.40382"></scales>
<clustering>
<clus scale="   45.404">  1  9  2 -1</clus>
<clus scale="   73.979">  5  6 -1 -1</clus>
<clus scale="   93.169">  7  8 -1 -1</clus>
<clus scale="  113.110">  1  5  2 -1</clus>
<clus scale="   45.404">  1  5  2 -1</clus>
</clustering>
</event>
<event>
 9    2  0.7820252E-005  0.1044504E+03  0.7546771E-02  0.1275461E+00
         -1   -1    0    0    0  501 -0.00000000000E+00  0.00000000000E+00  0.53178437649E+02  0.53178437649E+02  0.00000000000E+00 0.  1.
         21   -1    0    0  501  502  0.00000000000E+00 -0.00000000000E+00 -0.77802513395E+03  0.77802513395E+03  0.00000000000E+00 0.  1.
         24    2    1    2    0    0  0.45796442028E+02 -0.29707651096E+02 -0.21457537469E+02  0.10070720136E+03  0.81863641843E+02 0.  0.
         23    2    1    2    0    0 -0.49768649689E+02 -0.50077542659E+02 -0.46298012545E+03  0.47716267941E+03  0.91372574061E+02 0.  0.
        -11    1    3    3    0    0  0.26199839553E+02 -0.58184033628E+02 -0.13045828366E+02  0.65130691686E+02  0.00000000000E+00 0.  1.
         12    1    3    3    0    0  0.19596602475E+02  0.28476382532E+02 -0.84117091033E+01  0.35576509676E+02  0.00000000000E+00 0. -1.
        -13    1    4    4    0    0 -0.74827695919E+02 -0.50728981381E+02 -0.36153480598E+03  0.37266611003E+03  0.00000000000E+00 0.  1.
         13    1    4    4    0    0  0.25059046231E+02  0.65143872245E+00 -0.10144531947E+03  0.10449656938E+03  0.00000000000E+00 0. -1.
         -2    1    1    2    0  502  0.39722076605E+01  0.79785193755E+02 -0.24040903338E+03  0.25333369083E+03  0.00000000000E+00 0.  1.
<scales pt_clust_5="13000.00000" pt_clust_6="13000.00000" pt_clust_7="13000.00000" pt_clust_8="13000.00000" pt_clust_9="79.88401"></scales>
<clustering>
<clus scale="   79.884">  2  9  1 -1</clus>
<clus scale="   81.864">  5  6 -1 -1</clus>
<clus scale="   91.373">  7  8 -1 -1</clus>
<clus scale="   96.242">  1  5  2 -1</clus>
<clus scale="   79.884">  2  5  1 -1</clus>
</clustering>
</event>
<event>
 9    2  0.7820252E-005  0.1915384E+03  0.7546771E-02  0.1157155E+00
          2   -1    0    0  502    0 -0.00000000000E+00  0.00000000000E+00  0.11730606128E+04  0.11730606128E+04  0.00000000000E+00 0. -1.
         21   -1    0    0  501  502  0.00000000000E+00 -0.00000000000E+00 -0.72653622808E+02  0.72653622808E+02  0.00000000000E+00 0.  1.
         24    2    1    2    0    0  0.10291151762E+03 -0.94306307031E+02  0.38432823154E+03  0.41712826581E+03  0.82482365203E+02 0.  0.
         23    2    1    2    0    0 -0.21550087289E+03  0.15303493825E+03  0.38584084758E+03  0.47477458952E+03  0.81715559420E+02 0.  0.
        -11    1    3    3    0    0  0.31221534320E+02 -0.46943467657E+01  0.26089463536E+02  0.40957065379E+02  0.00000000000E+00 0.  1.
         12    1    3    3    0    0  0.71689983299E+02 -0.89611960266E+02  0.35823876801E+03  0.37617120043E+03  0.00000000000E+00 0. -1.
        -11    1    4    4    0    0 -0.59523202766E+02  0.87304053428E+02  0.12306689768E+03  0.16220502679E+03  0.00000000000E+00 0.  1.
         11    1    4    4    0    0 -0.15597767012E+03  0.65730884818E+02  0.26277394991E+03  0.31256956273E+03  0.00000000000E+00 0. -1.
          1    1    1    2  501    0  0.11258935527E+03 -0.58728631214E+02  0.33023791089E+03  0.35381138031E+03  0.00000000000E+00 0. -1.
<scales pt_clust_5="13000.00000" pt_clust_6="13000.00000" pt_clust_7="13000.00000" pt_clust_8="13000.00000" pt_clust_9="126.98595"></scales>
<clustering>
<clus scale="   81.716">  7  8 -1 -1</clus>
<clus scale="   82.482">  5  6 -1 -1</clus>
<clus scale="  126.986">  2  9  1 -1</clus>
<clus scale="  191.209">  2  7  1 -1</clus>
<clus scale="  126.986">  2  5  1 -1</clus>
</clustering>
</event>
<event>
 9    2  0.7820252E-005  0.2730697E+03  0.7546771E-02  0.1100090E+00
          2   -1    0    0  502    0 -0.00000000000E+00  0.00000000000E+00  0.50366445433E+03  0.50366445433E+03  0.00000000000E+00 0. -1.
         21   -1    0    0  501  502  0.00000000000E+00 -0.00000000000E+00 -0.58241015531E+03  0.58241015531E+03  0.00000000000E+00 0. -1.
         24    2    1    2    0    0  0.54119398572E+02 -0.25158057718E+03  0.42320013735E+03  0.50170337641E+03  0.79913863209E+02 0.  0.
         23    2    1    2    0    0 -0.80607872626E+02  0.24154260679E+03 -0.45846911370E+03  0.53248071684E+03  0.92202633169E+02 0.  0.
        -11    1    3    3    0    0  0.81364541431E+00 -0.33881411039E+02  0.17341334953E+02  0.38070118608E+02  0.00000000000E+00 0.  1.
         12    1    3    3    0    0  0.53305753158E+02 -0.21769916615E+03  0.40585880240E+03  0.46363325780E+03  0.00000000000E+00 0. -1.
        -11    1    4    4    0    0  0.13264838872E+02  0.87637217615E+02 -0.18188992716E+03  0.20233680699E+03  0.00000000000E+00 0.  1.
         11    1    4    4    0    0 -0.93872711498E+02  0.15390538918E+03 -0.27657918654E+03  0.33014390985E+03  0.00000000000E+00 0. -1.
          1    1    1    2  501    0  0.26488474053E+02  0.10037970392E+02 -0.43476724626E+02  0.51890516393E+02  0.00000000000E+00 0. -1.
<scales pt_clust_5="13000.00000" pt_clust_6="13000.00000" pt_clust_7="13000.00000" pt_clust_8="13000.00000" pt_clust_9="28.32667"></scales>
<clustering>
<clus scale="   28.327">  2  9  1 -1</clus>
<clus scale="   79.914">  5  6 -1 -1</clus>
<clus scale="   92.203">  7  8 -1 -1</clus>
<clus scale="  269.169">  1  5  2 -1</clus>
<clus scale="   28.327">  2  5  1 -1</clus>
</clustering>
</event>
<event>
 9    2  0.7820252E-005  0.1085631E+03  0.7546771E-02  0.1268345E+00
         21   -1    0    0  501  502  0.00000000000E+00  0.00000000000E+00  0.22323779978E+03  0.22323779978E+03  0.00000000000E+00 0. -1.
          4   -1    0    0  502    0 -0.00000000000E+00 -0.00000000000E+00 -0.83392947778E+02  0.83392947778E+02  0.00000000000E+00 0. -1.
         23    2    1    2    0    0 -0.58120927246E+02  0.17406832159E+02  0.25419241133E+02  0.11283659700E+03  0.91678349757E+02 0.  0.
         24    2    1    2    0    0  0.57331648004E+02  0.17815748190E+02  0.12236407074E+03  0.15767944062E+03  0.79281280510E+02 0.  0.
        -11    1    4    4    0    0 -0.77271778019E+01 -0.21658657730E+02  0.23009172543E+02  0.32530428102E+02  0.00000000000E+00 0.  1.
         12    1    4    4    0    0  0.65058825806E+02  0.39474405919E+02  0.99354898199E+02  0.12514901252E+03  0.00000000000E+00 0. -1.
        -13    1    3    3    0    0 -0.42979915468E+02  0.52301133098E+02  0.30885294765E+02  0.74408219235E+02  0.00000000000E+00 0. -1.
         13    1    3    3    0    0 -0.15141011778E+02 -0.34894300939E+02 -0.54660536325E+01  0.38428377770E+02  0.00000000000E+00 0.  1.
          3    1    1    2  501    0  0.78927924180E+00 -0.35222580349E+02 -0.79384598747E+01  0.36114709930E+02  0.00000000000E+00 0. -1.
<scales pt_clust_5="13000.00000" pt_clust_6="13000.00000" pt_clust_7="13000.00000" pt_clust_8="13000.00000" pt_clust_9="35.23144"></scales>
<clustering>
<clus scale="   35.231">  1  9  2 -1</clus>
<clus scale="   79.281">  5  6 -1 -1</clus>
<clus scale="   91.678">  7  8 -1 -1</clus>
<clus scale="   98.319">  1  5  2 -1</clus>
<clus scale="   35.231">  1  5  2 -1</clus>
</clustering>
</event>
<event>
 9    2  0.7820252E-005  0.1664917E+03  0.7546771E-02  0.1212844E+00
         -1   -1    0    0    0  501 -0.00000000000E+00  0.00000000000E+00  0.46007721869E+03  0.46007721869E+03  0.00000000000E+00 0.  1.
         21   -1    0    0  501  502  0.00000000000E+00 -0.00000000000E+00 -0.11644635979E+03  0.11644635979E+03  0.00000000000E+00 0.  1.
         24    2    1    2    0    0 -0.18651329357E+02  0.25003391496E+02  0.19167000113E+02  0.86259292088E+02  0.78104096596E+02 0.  0.
         23    2    1    2    0    0  0.72614713274E+02 -0.14653133383E+03  0.30185496125E+03  0.35538563790E+03  0.91859706152E+02 0.  0.
        -11    1    3    3    0    0 -0.42405917701E+01  0.28536029836E+02 -0.25926482711E+02  0.38787499573E+02  0.00000000000E+00 0.  1.
         12    1    3    3    0    0 -0.14410737587E+02 -0.35326383403E+01  0.45093482823E+02  0.47471792515E+02  0.00000000000E+00 0. -1.
        -13    1    4    4    0    0 -0.18359396755E+02 -0.56953232752E+02  0.10045617053E+03  0.11692809914E+03  0.00000000000E+00 0.  1.
         13    1    4    4    0    0  0.90974110028E+02 -0.89578101074E+02  0.20139879072E+03  0.23845753876E+03  0.00000000000E+00 0. -1.
         -2    1    1    2    0  502 -0.53963383917E+02  0.12152794233E+03  0.22608897533E+02  0.13487864849E+03  0.00000000000E+00 0.  1.
<scales pt_clust_5="13000.00000" pt_clust_6="13000.00000" pt_clust_7="13000.00000" pt_clust_8="13000.00000" pt_clust_9="138.85707"></scales>
<clustering>
<clus scale="   78.104">  5  6 -1 -1</clus>
<clus scale="   84.103">  1  5  2 -1</clus>
<clus scale="   91.860">  7  8 -1 -1</clus>
<clus scale="  138.857">  2  9  1 -1</clus>
<clus scale="  138.857">  2  5  1 -1</clus>
</clustering>
</event>
<event>
 9    2  0.7820252E-005  0.1073127E+03  0.7546771E-02  0.1270239E+00
         21   -1    0    0  501  502  0.00000000000E+00  0.00000000000E+00  0.37108789300E+02  0.37108789300E+02  0.00000000000E+00 0.  1.
         -3   -1    0    0    0  501 -0.00000000000E+00 -0.00000000000E+00 -0.60930892293E+03  0.60930892293E+03  0.00000000000E+00 0.  1.
         23    2    1    2    0    0 -0.52444449724E+02  0.41744704680E+02 -0.27319593531E+03  0.29586270557E+03  0.91682499954E+02 0.  0.
         24    2    1    2    0    0  0.58748311026E+02  0.34254812374E+02 -0.19278520834E+03  0.21979515391E+03  0.80740429216E+02 0.  0.
        -11    1    4    4    0    0  0.70807873924E+02  0.27106621235E+02 -0.19120339214E+03  0.20568728957E+03  0.00000000000E+00 0.  1.
         12    1    4    4    0    0 -0.12059562898E+02  0.71481911391E+01 -0.15818161991E+01  0.14107864343E+02  0.00000000000E+00 0. -1.
        -13    1    3    3    0    0  0.14010521165E+02  0.44114425751E+02 -0.95323410335E+02  0.10596664485E+03  0.00000000000E+00 0. -1.
         13    1    3    3    0    0 -0.66454970890E+02 -0.23697210709E+01 -0.17787252498E+03  0.18989606072E+03  0.00000000000E+00 0.  1.
         -4    1    1    2    0  502 -0.63038613020E+01 -0.75999517054E+02 -0.10621898998E+03  0.13075985275E+03  0.00000000000E+00 0.  1.
<scales pt_clust_5="13000.00000" pt_clust_6="13000.00000" pt_clust_7="13000.00000" pt_clust_8="13000.00000" pt_clust_9="76.26051"></scales>
<clustering>
<clus scale="   76.261">  1  9  2 -1</clus>
<clus scale="   80.740">  5  6 -1 -1</clus>
<clus scale="   91.682">  7  8 -1 -1</clus>
<clus scale="   98.129">  1  5  2 -1</clus>
<clus scale="   76.261">  1  5  2 -1</clus>
</clustering>
</event>
<event>
 9    2  0.7820252E-005  0.1644941E+03  0.7546771E-02  0.1188235E+00
          2   -1    0    0  502    0 -0.00000000000E+00  0.00000000000E+00  0.16120430401E+04  0.16120430401E+04  0.00000000000E+00 0. -1.
         21   -1    0    0  501  502  0.00000000000E+00 -0.00000000000E+00 -0.27537594438E+02  0.27537594438E+02  0.00000000000E+00 0.  1.
         24    2    1    2    0    0  0.12314957580E+03  0.38036041164E+02  0.12495869922E+04  0.12587328725E+04  0.79550202237E+02 0.  0.
         23    2    1    2    0    0 -0.10211554904E+03 -0.50158406297E+02  0.30440414922E+03  0.34185411154E+03  0.10610794710E+03 0.  0.
        -13    1    3    3    0    0  0.56124017138E+02  0.27136957645E+02  0.28402757566E+03  0.29078855463E+03  0.00000000000E+00 0.  1.
         14    1    3    3    0    0  0.67025558663E+02  0.10899083519E+02  0.96555941658E+03  0.96794431786E+03  0.00000000000E+00 0. -1.
        -13    1    4    4    0    0 -0.73910711722E+02 -0.83277484321E+02  0.23308559268E+03  0.25831536194E+03  0.00000000000E+00 0.  1.
         13    1    4    4    0    0 -0.28204837320E+02  0.33119078023E+02  0.71318556544E+02  0.83538749600E+02  0.00000000000E+00 0. -1.
          1    1    1    2  501    0 -0.21034026759E+02  0.12122365133E+02  0.30514304188E+02  0.38993650486E+02  0.00000000000E+00 0. -1.
<scales pt_clust_5="13000.00000" pt_clust_6="13000.00000" pt_clust_7="13000.00000" pt_clust_8="13000.00000" pt_clust_9="24.27719"></scales>
<clustering>
<clus scale="   24.277">  2  9  1 -1</clus>
<clus scale="   79.550">  5  6 -1 -1</clus>
<clus scale="  106.108">  7  8 -1 -1</clus>
<clus scale="  148.754">  1  5  2 -1</clus>
<clus scale="   24.277">  2  5  1 -1</clus>
</clustering>
</event>
<event>
 9    2  0.7820252E-005  0.1038757E+03  0.7546771E-02  0.1276481E+00
         -1   -1    0    0    0  501 -0.00000000000E+00  0.00000000000E+00  0.17523330280E+03  0.17523330280E+03  0.00000000000E+00 0.  1.
         21   -1    0    0  501  502  0.00000000000E+00 -0.00000000000E+00 -0.80924524237E+02  0.80924524237E+02  0.00000000000E+00 0.  1.
         23    2    1    2    0    0  0.16540833106E+02  0.30844818396E+02  0.32391192216E+02  0.10231724145E+03  0.90524176791E+02 0.  0.
         24    2    1    2    0    0 -0.30619359179E+02 -0.60872945007E+02  0.36996759926E+02  0.11235636119E+03  0.81315011311E+02 0.  0.
        -11    1    4    4    0    0 -0.13917506988E+02 -0.72009824971E+02  0.49704104636E+02  0.88598024305E+02  0.00000000000E+00 0.  1.
         12    1    4    4    0    0 -0.16701852191E+02  0.11136879964E+02 -0.12707344710E+02  0.23758336885E+02  0.00000000000E+00 0. -1.
        -13    1    3    3    0    0  0.53368269260E+02  0.26973576148E+02  0.23384348175E+02  0.64207271501E+02  0.00000000000E+00 0.  1.
         13    1    3    3    0    0 -0.36827436153E+02  0.38712422484E+01  0.90068440410E+01  0.38109969952E+02  0.00000000000E+00 0. -1.
         -2    1    1    2    0  502  0.14078526072E+02  0.30028126611E+02  0.24920826422E+02  0.41484224395E+02  0.00000000000E+00 0.  1.
<scales pt_clust_5="13000.00000" pt_clust_6="13000.00000" pt_clust_7="13000.00000" pt_clust_8="13000.00000" pt_clust_9="33.16466"></scales>
<clustering>
<clus scale="   33.165">  2  9  1 -1</clus>
<clus scale="   81.315">  5  6 -1 -1</clus>
<clus scale="   90.524">  7  8 -1 -1</clus>
<clus scale="   95.957">  2  5  1 -1</clus>
<clus scale="   33.165">  2  5  1 -1</clus>
</clustering>
</event>
<event>
 9    2  0.7820252E-005  0.1107907E+03  0.7546771E-02  0.1263551E+00
         21   -1    0    0  501  502  0.00000000000E+00  0.00000000000E+00  0.46203316905E+03  0.46203316905E+03  0.00000000000E+00 0.  1.
          2   -1    0    0  502    0 -0.00000000000E+00 -0.00000000000E+00 -0.73584162156E+02  0.73584162156E+02  0.00000000000E+00 0. -1.
         24    2    1    2    0    0 -0.57307218102E+02 -0.37311486399E+02 -0.13723160490E+02  0.10640110263E+03  0.80353003943E+02 0.  0.
         23    2    1    2    0    0  0.56205738741E+01  0.33789966531E+02  0.27355464918E+03  0.29055701943E+03  0.91749020491E+02 0.  0.
        -11    1    3    3    0    0 -0.48539734632E+01 -0.31926786095E+02  0.25117015074E+02  0.40911430859E+02  0.00000000000E+00 0.  1.
         12    1    3    3    0    0 -0.52453244639E+02 -0.53847003042E+01 -0.38840175564E+02  0.65489671769E+02  0.00000000000E+00 0. -1.
        -13    1    4    4    0    0 -0.21662482711E+02 -0.95873199372E+00  0.11005504260E+02  0.24316731858E+02  0.00000000000E+00 0. -1.
         13    1    4    4    0    0  0.27283056586E+02  0.34748698524E+02  0.26254914492E+03  0.26624028757E+03  0.00000000000E+00 0.  1.
          1    1    1    2  501    0  0.51686644228E+02  0.35215198680E+01  0.12861751820E+03  0.13865920914E+03  0.00000000000E+00 0. -1.
<scales pt_clust_5="13000.00000" pt_clust_6="13000.00000" pt_clust_7="13000.00000" pt_clust_8="13000.00000" pt_clust_9="51.80647"></scales>
<clustering>
<clus scale="   51.806">  1  9  2 -1</clus>
<clus scale="   80.353">  5  6 -1 -1</clus>
<clus scale="   91.749">  7  8 -1 -1</clus>
<clus scale="  101.554">  2  5  1 -1</clus>
<clus scale="   51.806">  1  5  2 -1</clus>
</clustering>
</event>
<event>
 9    2  0.7820252E-005  0.2558527E+03  0.7546771E-02  0.1109661E+00
          2   -1    0    0  502    0 -0.00000000000E+00  0.00000000000E+00  0.33917986682E+03  0.33917986682E+03  0.00000000000E+00 0. -1.
         21   -1    0    0  501  502  0.00000000000E+00 -0.00000000000E+00 -0.42197424224E+03  0.42197424224E+03  0.00000000000E+00 0. -1.
         24    2    1    2    0    0  0.66970021574E+02  0.88080802764E+02  0.11200990852E+03  0.17247560815E+03  0.70415937084E+02 0.  0.
         23    2    1    2    0    0  0.40853423527E+02  0.68109782869E+02  0.15085172616E+03  0.19434428774E+03  0.93303344827E+02 0.  0.
        -13    1    3    3    0    0  0.36498972687E+02  0.99721246526E+01  0.76396561660E+01  0.38600293051E+02  0.00000000000E+00 0.  1.
         14    1    3    3    0    0  0.30471048887E+02  0.78108678111E+02  0.10437025236E+03  0.13387531510E+03  0.00000000000E+00 0. -1.
        -13    1    4    4    0    0  0.62284047913E+02  0.73705864296E+02  0.13903168042E+03  0.16923848622E+03  0.00000000000E+00 0. -1.
         13    1    4    4    0    0 -0.21430624387E+02 -0.55960814266E+01  0.11820045738E+02  0.25105801524E+02  0.00000000000E+00 0.  1.
          1    1    1    2  501    0 -0.10782344510E+03 -0.15619058563E+03 -0.34565601011E+03  0.39433421317E+03  0.00000000000E+00 0. -1.
<scales pt_clust_5="13000.00000" pt_clust_6="13000.00000" pt_clust_7="13000.00000" pt_clust_8="13000.00000" pt_clust_9="189.79303"></scales>
<clustering>
<clus scale="   70.416">  5  6 -1 -1</clus>
<clus scale="   93.303">  7  8 -1 -1</clus>
<clus scale="  102.326">  5  7 -1 -1</clus>
<clus scale="  189.793">  2  9  1 -1</clus>
<clus scale="  189.793">  2  5  1 -1</clus>
</clustering>
</event>
<event>
 9    2  0.7820252E-005  0.9785853E+02  0.7546771E-02  0.1292661E+00
         21   -1    0    0  501  502  0.00000000000E+00  0.00000000000E+00  0.25090066602E+03  0.25090066602E+03  0.00000000000E+00 0. -1.
          4   -1    0    0  502    0 -0.00000000000E+00 -0.00000000000E+00 -0.80949222979E+02  0.80949222979E+02  0.00000000000E+00 0. -1.
         24    2    1    2    0    0  0.36576248999E+02 -0.28936735710E+02  0.18594895522E+02  0.90684921399E+02  0.75517072012E+02 0.  0.
         23    2    1    2    0    0  0.22663728410E+02  0.46155080267E+02  0.35150584212E+02  0.10959874009E+03  0.90179732973E+02 0.  0.
        -13    1    3    3    0    0 -0.27849876181E+01  0.20380635844E+02  0.18380013843E+02  0.27585347239E+02  0.00000000000E+00 0.  1.
         14    1    3    3    0    0  0.39361236617E+02 -0.49317371554E+02  0.21488167905E+00  0.63099574160E+02  0.00000000000E+00 0. -1.
        -11    1    4    4    0    0  0.13810296313E+02  0.67466659852E+02  0.16082132530E+01  0.68884401905E+02  0.00000000000E+00 0. -1.
         11    1    4    4    0    0  0.88534320970E+01 -0.21311579586E+02  0.33542370959E+02  0.40714338185E+02  0.00000000000E+00 0.  1.
          3    1    1    2  501    0 -0.59239977410E+02 -0.17218344557E+02  0.11620596331E+03  0.13156622751E+03  0.00000000000E+00 0. -1.
<scales pt_clust_5="13000.00000" pt_clust_6="13000.00000" pt_clust_7="13000.00000" pt_clust_8="13000.00000" pt_clust_9="61.69154"></scales>
<clustering>
<clus scale="   61.692">  1  9  2 -1</clus>
<clus scale="   75.517">  5  6 -1 -1</clus>
<clus scale="   84.538">  2  5  1 -1</clus>
<clus scale="   90.180">  7  8 -1 -1</clus>
<clus scale="   61.692">  1  5  2 -1</clus>
</clustering>
</event>
<event>
 9    2  0.7820252E-005  0.1062962E+03  0.7546771E-02  0.1271114E+00
         21   -1    0    0  501  502  0.00000000000E+00  0.00000000000E+00  0.89475315311E+03  0.89475315311E+03  0.00000000000E+00 0. -1.
          4   -1    0    0  502    0 -0.00000000000E+00 -0.00000000000E+00 -0.61714825137E+02  0.61714825137E+02  0.00000000000E+00 0. -1.
         24    2    1    2    0    0  0.60964387061E+02 -0.38464670298E+01 -0.60302366472E+01  0.10300502567E+03  0.82717711290E+02 0.  0.
         23    2    1    2    0    0 -0.46335940647E+00 -0.10565083086E+02  0.42645016142E+03  0.43618365308E+03  0.91019796533E+02 0.  0.
        -13    1    3    3    0    0  0.59004578020E+01  0.26488281790E+02  0.21256837405E+02  0.34471692893E+02  0.00000000000E+00 0.  1.
         14    1    3    3    0    0  0.55063929259E+02 -0.30334748819E+02 -0.27287074052E+02  0.68533332778E+02  0.00000000000E+00 0. -1.
        -13    1    4    4    0    0 -0.44226284126E+02 -0.16509115445E+02  0.20387021133E+03  0.20926437386E+03  0.00000000000E+00 0.  1.
         13    1    4    4    0    0  0.43762924720E+02  0.59440323594E+01  0.22257995009E+03  0.22691927922E+03  0.00000000000E+00 0. -1.
          3    1    1    2  501    0 -0.60501027655E+02  0.14411550116E+02  0.41261840321E+03  0.41727929950E+03  0.00000000000E+00 0. -1.
<scales pt_clust_5="13000.00000" pt_clust_6="13000.00000" pt_clust_7="13000.00000" pt_clust_8="13000.00000" pt_clust_9="62.19379"></scales>
<clustering>
<clus scale="   62.194">  1  9  2 -1</clus>
<clus scale="   82.718">  5  6 -1 -1</clus>
<clus scale="   91.020">  7  8 -1 -1</clus>
<clus scale="   99.280">  2  5  1 -1</clus>
<clus scale="   62.194">  1  5  2 -1</clus>
</clustering>
</event>
<event>
 9    2  0.7820252E-005  0.1212737E+03  0.7546771E-02  0.1244876E+00
         -3   -1    0    0    0  501 -0.00000000000E+00  0.00000000000E+00  0.73199300202E+02  0.73199300202E+02  0.00000000000E+00 0.  1.
         21   -1    0    0  501  502  0.00000000000E+00 -0.00000000000E+00 -0.32927817230E+03  0.32927817230E+03  0.00000000000E+00 0.  1.
         23    2    1    2    0    0  0.72656610131E+02  0.41240423521E+02 -0.39982179770E+02  0.13131698896E+03  0.93090393507E+02 0.  0.
         24    2    1    2    0    0 -0.57495104601E+02 -0.23556120932E+02 -0.22435724020E+03  0.24644525627E+03  0.80861085936E+02 0.  0.
        -13    1    4    4    0    0 -0.71736777090E+02 -0.53498225726E+00 -0.18718186513E+03  0.20045823013E+03  0.00000000000E+00 0.  1.
         14    1    4    4    0    0  0.14241672489E+02 -0.23021138675E+02 -0.37175375077E+02  0.45987026141E+02  0.00000000000E+00 0. -1.
        -11    1    3    3    0    0  0.92167979048E+02  0.46604783500E+02 -0.25352425817E+02  0.10634701548E+03  0.00000000000E+00 0.  1.
         11    1    3    3    0    0 -0.19511368917E+02 -0.53643599793E+01 -0.14629753953E+02  0.24969973483E+02  0.00000000000E+00 0. -1.
         -4    1    1    2    0  502 -0.15161505530E+02 -0.17684302589E+02  0.82605478732E+01  0.24715227273E+02  0.00000000000E+00 0.  1.
<scales pt_clust_5="13000.00000" pt_clust_6="13000.00000" pt_clust_7="13000.00000" pt_clust_8="13000.00000" pt_clust_9="23.29391"></scales>
<clustering>
<clus scale="   23.294">  2  9  1 -1</clus>
<clus scale="   80.861">  5  6 -1 -1</clus>
<clus scale="   93.090">  7  8 -1 -1</clus>
<clus scale="  112.161">  2  5  1 -1</clus>
<clus scale="   23.294">  2  5  1 -1</clus>
</clustering>
</event>
<event>
 9    2  0.7820252E-005  0.3799059E+03  0.7546771E-02  0.1072828E+00
         21   -1    0    0  501  502  0.00000000000E+00  0.00000000000E+00  0.10146463414E+03  0.10146463414E+03  0.00000000000E+00 0. -1.
          2   -1    0    0  502    0 -0.00000000000E+00 -0.00000000000E+00 -0.25137279470E+04  0.25137279470E+04  0.00000000000E+00 0. -1.
         24    2    1    2    0    0  0.53330721192E+02  0.18206290982E+03 -0.34787776848E+03  0.40455440878E+03  0.81573641010E+02 0.  0.
         23    2    1    2    0    0 -0.32732202772E+02 -0.48118929915E+03 -0.12741416118E+04  0.13654243718E+04  0.91281593742E+02 0.  0.
        -11    1    3    3    0    0  0.68586996908E+02  0.15744545695E+03 -0.32523484811E+03  0.36779199894E+03  0.00000000000E+00 0.  1.
         12    1    3    3    0    0 -0.15256275716E+02  0.24617452873E+02 -0.22642920372E+02  0.36762409845E+02  0.00000000000E+00 0. -1.
        -11    1    4    4    0    0 -0.22364839517E+02 -0.77709717414E+02 -0.30634590849E+03  0.31683876322E+03  0.00000000000E+00 0.  1.
         11    1    4    4    0    0 -0.10367363255E+02 -0.40347958173E+03 -0.96779570335E+03  0.10485856086E+04  0.00000000000E+00 0. -1.
          1    1    1    2  501    0 -0.20598518420E+02  0.29912638933E+03 -0.79024393251E+03  0.84521380054E+03  0.00000000000E+00 0. -1.
<scales pt_clust_5="13000.00000" pt_clust_6="13000.00000" pt_clust_7="13000.00000" pt_clust_8="13000.00000" pt_clust_9="368.77663"></scales>
<clustering>
<clus scale="   81.574">  5  6 -1 -1</clus>
<clus scale="   91.282">  7  8 -1 -1</clus>
<clus scale="  206.508">  2  5  1 -1</clus>
<clus scale="  368.777">  1  9  2 -1</clus>
<clus scale="  368.777">  1  5  2 -1</clus>
</clustering>
</event>
<event>
 9    2  0.7820252E-005  0.3236182E+03  0.7546771E-02  0.1105083E+00
         21   -1    0    0  501  502  0.00000000000E+00  0.00000000000E+00  0.58680678011E+02  0.58680678011E+02  0.00000000000E+00 0. -1.
          2   -1    0    0  502    0 -0.00000000000E+00 -0.00000000000E+00 -0.31275022242E+04  0.31275022242E+04  0.00000000000E+00 0. -1.
         24    2    1    2    0    0 -0.11460171805E+03  0.23951999851E+02 -0.21865362603E+03  0.26079852966E+03  0.80617695462E+02 0.  0.
         23    2    1    2    0    0 -0.26332910682E+03 -0.32045598271E+02 -0.11523095665E+04  0.11859533726E+04  0.91098440708E+02 0.  0.
        -11    1    3    3    0    0 -0.56092178044E+02 -0.16200565653E+02 -0.15439607590E+03  0.16506646849E+03  0.00000000000E+00 0.  1.
         12    1    3    3    0    0 -0.58509540009E+02  0.40152565504E+02 -0.64257550126E+02  0.95732061175E+02  0.00000000000E+00 0. -1.
        -13    1    4    4    0    0 -0.24531510172E+03 -0.45607738260E+01 -0.10581637667E+04  0.10862370169E+04  0.00000000000E+00 0. -1.
         13    1    4    4    0    0 -0.18014005107E+02 -0.27484824445E+02 -0.94145799831E+02  0.99716355632E+02  0.00000000000E+00 0.  1.
          1    1    1    2  501    0  0.37793082488E+03  0.80935984200E+01 -0.16978583536E+04  0.17394310000E+04  0.00000000000E+00 0. -1.
<scales pt_clust_5="13000.00000" pt_clust_6="13000.00000" pt_clust_7="13000.00000" pt_clust_8="13000.00000" pt_clust_9="310.53161"></scales>
<clustering>
<clus scale="   80.618">  5  6 -1 -1</clus>
<clus scale="   91.098">  7  8 -1 -1</clus>
<clus scale="  142.150">  2  5  1 -1</clus>
<clus scale="  310.532">  1  9  2 -1</clus>
<clus scale="  310.532">  1  5  2 -1</clus>
</clustering>
</event>
<event>
 9    2  0.7820252E-005  0.1076227E+03  0.7546771E-02  0.1270364E+00
          2   -1    0    0  502    0 -0.00000000000E+00  0.00000000000E+00  0.22452014761E+03  0.22452014761E+03  0.00000000000E+00 0. -1.
         21   -1    0    0  501  502  0.00000000000E+00 -0.00000000000E+00 -0.26852883701E+03  0.26852883701E+03  0.00000000000E+00 0. -1.
         24    2    1    2    0    0 -0.41599387559E+02 -0.32924889866E+02  0.17568243949E+03  0.20002004705E+03  0.79555906483E+02 0.  0.
         23    2    1    2    0    0  0.77754081766E+02  0.27626324361E+02 -0.76943697527E+02  0.14567879040E+03  0.92157833928E+02 0.  0.
        -13    1    3    3    0    0  0.15559156261E+02 -0.35128283628E+02  0.69976609671E+02  0.79829878838E+02  0.00000000000E+00 0.  1.
         14    1    3    3    0    0 -0.57158543820E+02  0.22033937615E+01  0.10570582982E+03  0.12019016821E+03  0.00000000000E+00 0. -1.
        -13    1    4    4    0    0  0.42857797582E+02  0.51345930219E+02 -0.78907331178E+02  0.10343868849E+03  0.00000000000E+00 0.  1.
         13    1    4    4    0    0  0.34896284184E+02 -0.23719605858E+02  0.19636336510E+01  0.42240101906E+02  0.00000000000E+00 0. -1.
          1    1    1    2  501    0 -0.36154694207E+02  0.52985655052E+01 -0.14274743137E+03  0.14735014718E+03  0.00000000000E+00 0. -1.
<scales pt_clust_5="13000.00000" pt_clust_6="13000.00000" pt_clust_7="13000.00000" pt_clust_8="13000.00000" pt_clust_9="36.54089"></scales>
<clustering>
<clus scale="   36.541">  2  9  1 -1</clus>
<clus scale="   79.556">  5  6 -1 -1</clus>
<clus scale="   92.158">  7  8 -1 -1</clus>
<clus scale="   97.050">  1  5  2 -1</clus>
<clus scale="   36.541">  2  5  1 -1</clus>
</clustering>
</event>
<event>
 9    2  0.7820252E-005  0.1589010E+03  0.7546771E-02  0.1210088E+00
         21   -1    0    0  501  502  0.00000000000E+00  0.00000000000E+00  0.64579036645E+02  0.64579036645E+02  0.00000000000E+00 0.  1.
          2   -1    0    0  502    0 -0.00000000000E+00 -0.00000000000E+00 -0.70405626789E+03  0.70405626789E+03  0.00000000000E+00 0. -1.
         23    2    1    2    0    0  0.45364443877E+02 -0.22922958227E+02 -0.11031072801E+03  0.15064161128E+03  0.89112533080E+02 0.  0.
         24    2    1    2    0    0  0.12319292543E+03  0.41310192567E+01 -0.33371856797E+03  0.35921846431E+03  0.49762036724E+02 0.  0.
        -11    1    4    4    0    0  0.54681729617E+02 -0.17796075851E+02 -0.18985820509E+03  0.19837572914E+03  0.00000000000E+00 0.  1.
         12    1    4    4    0    0  0.68511195811E+02  0.21927095108E+02 -0.14386036288E+03  0.16084273518E+03  0.00000000000E+00 0. -1.
        -13    1    3    3    0    0  0.72672394933E+02 -0.17429496296E+02 -0.80177775316E+02  0.10960629535E+03  0.00000000000E+00 0.  1.
         13    1    3    3    0    0 -0.27307951057E+02 -0.54934619306E+01 -0.30132952695E+02  0.41035315924E+02  0.00000000000E+00 0. -1.
          1    1    1    2  501    0 -0.16855736930E+03  0.18791938970E+02 -0.19544793527E+03  0.25877522895E+03  0.00000000000E+00 0. -1.
<scales pt_clust_5="13000.00000" pt_clust_6="13000.00000" pt_clust_7="13000.00000" pt_clust_8="13000.00000" pt_clust_9="150.90818"></scales>
<clustering>
<clus scale="   49.762">  5  6 -1 -1</clus>
<clus scale="   89.113">  7  8 -1 -1</clus>
<clus scale="  102.589">  2  7  1 -1</clus>
<clus scale="  150.908">  1  9  2 -1</clus>
<clus scale="  150.908">  1  5  2 -1</clus>
</clustering>
</event>
<event>
 9    2  0.7820252E-005  0.2046208E+03  0.7546771E-02  0.1146617E+00
          2   -1    0    0  502    0 -0.00000000000E+00  0.00000000000E+00  0.51273193250E+03  0.51273193250E+03  0.00000000000E+00 0. -1.
         21   -1    0    0  501  502  0.00000000000E+00 -0.00000000000E+00 -0.96257558714E+02  0.96257558714E+02  0.00000000000E+00 0. -1.
         23    2    1    2    0    0 -0.19555480298E+03  0.28621355121E+02  0.22855035851E+03  0.31506197276E+03  0.89263191566E+02 0.  0.
         24    2    1    2    0    0  0.16522368803E+03 -0.35487309541E+02  0.12962453789E+03  0.22785220591E+03  0.80968454899E+02 0.  0.
        -13    1    4    4    0    0  0.13725945169E+03 -0.20507736636E+02  0.13728966610E+03  0.19521571852E+03  0.00000000000E+00 0.  1.
         14    1    4    4    0    0  0.27964236345E+02 -0.14979572905E+02 -0.76651282072E+01  0.32636487391E+02  0.00000000000E+00 0. -1.
        -13    1    3    3    0    0 -0.23010252740E+02  0.33069903394E+02  0.22051267411E+02  0.45927645662E+02  0.00000000000E+00 0.  1.
         13    1    3    3    0    0 -0.17254455024E+03 -0.44485482730E+01  0.20649909110E+03  0.26913432710E+03  0.00000000000E+00 0. -1.
          1    1    1    2  501    0  0.30331114945E+02  0.68659544199E+01  0.58299477386E+02  0.66075312541E+02  0.00000000000E+00 0. -1.
<scales pt_clust_5="13000.00000" pt_clust_6="13000.00000" pt_clust_7="13000.00000" pt_clust_8="13000.00000" pt_clust_9="31.09853"></scales>
<clustering>
<clus scale="   31.099">  2  9  1 -1</clus>
<clus scale="   80.968">  5  6 -1 -1</clus>
<clus scale="   89.263">  7  8 -1 -1</clus>
<clus scale="  201.141">  2  5  1 -1</clus>
<clus scale="   31.099">  2  5  1 -1</clus>
</clustering>
</event>
<event>
 9    2  0.7820252E-005  0.2912166E+03  0.7546771E-02  0.1110692E+00
         21   -1    0    0  501  502  0.00000000000E+00  0.00000000000E+00  0.39205542096E+03  0.39205542096E+03  0.00000000000E+00 0. -1.
          2   -1    0    0  502    0 -0.00000000000E+00 -0.00000000000E+00 -0.41775831964E+03  0.41775831964E+03  0.00000000000E+00 0. -1.
         23    2    1    2    0    0 -0.11812925727E+03  0.78924358397E+02  0.90254992772E+02  0.19159717238E+03  0.91541995686E+02 0.  0.
         24    2    1    2    0    0  0.29025358474E+03 -0.22942675698E+03 -0.79479319524E+02  0.38668159830E+03  0.79510477007E+02 0.  0.
        -13    1    4    4    0    0  0.24201856864E+02 -0.43827691989E+02  0.79991555411E+01  0.50700916660E+02  0.00000000000E+00 0.  1.
         14    1    4    4    0    0  0.26605172788E+03 -0.18559906499E+03 -0.87478475065E+02  0.33598068164E+03  0.00000000000E+00 0. -1.
        -13    1    3    3    0    0 -0.81432153674E+02  0.92276083947E+02  0.90135134564E+02  0.15254643163E+03  0.00000000000E+00 0. -1.
         13    1    3    3    0    0 -0.36697103593E+02 -0.13351725550E+02  0.11985820831E+00  0.39050740752E+02  0.00000000000E+00 0.  1.
          1    1    1    2  501    0 -0.17212432748E+03  0.15050239858E+03 -0.36478571930E+02  0.23153496993E+03  0.00000000000E+00 0. -1.
<scales pt_clust_5="13000.00000" pt_clust_6="13000.00000" pt_clust_7="13000.00000" pt_clust_8="13000.00000" pt_clust_9="280.15211"></scales>
<clustering>
<clus scale="   79.510">  5  6 -1 -1</clus>
<clus scale="   91.542">  7  8 -1 -1</clus>
<clus scale="  169.008">  2  7  1 -1</clus>
<clus scale="  280.152">  1  9  2 -1</clus>
<clus scale="  280.152">  1  5  2 -1</clus>
</clustering>
</event>
<event>
 9    2  0.7820252E-005  0.8756036E+02  0.7546771E-02  0.1312421E+00
         21   -1    0    0  501  502  0.00000000000E+00  0.00000000000E+00  0.28846317165E+02  0.28846317165E+02  0.00000000000E+00 0.  1.
          2   -1    0    0  502    0 -0.00000000000E+00 -0.00000000000E+00 -0.51201600634E+03  0.51201600634E+03  0.00000000000E+00 0. -1.
         24    2    1    2    0    0 -0.43110157292E+01  0.25706778918E+02 -0.23309277580E+03  0.24843151264E+03  0.81893534550E+02 0.  0.
         23    2    1    2    0    0 -0.84614422572E+01  0.30690835819E+02 -0.13957709070E+03  0.16771498412E+03  0.87367203464E+02 0.  0.
        -13    1    3    3    0    0 -0.24697892936E+02 -0.21647533292E+02 -0.68751434187E+02  0.76192921691E+02  0.00000000000E+00 0.  1.
         14    1    3    3    0    0  0.20386877207E+02  0.47354312210E+02 -0.16434134161E+03  0.17223859094E+03  0.00000000000E+00 0. -1.
        -13    1    4    4    0    0 -0.23152419582E+02 -0.91924611145E+01 -0.35008382752E+01  0.25155352163E+02  0.00000000000E+00 0. -1.
         13    1    4    4    0    0  0.14690977325E+02  0.39883296933E+02 -0.13607625243E+03  0.14255963196E+03  0.00000000000E+00 0.  1.
          1    1    1    2  501    0  0.12772457986E+02 -0.56397614737E+02 -0.11049982267E+03  0.12471582675E+03  0.00000000000E+00 0. -1.
<scales pt_clust_5="13000.00000" pt_clust_6="13000.00000" pt_clust_7="13000.00000" pt_clust_8="13000.00000" pt_clust_9="57.82583"></scales>
<clustering>
<clus scale="   57.826">  1  9  2 -1</clus>
<clus scale="   81.894">  5  6 -1 -1</clus>
<clus scale="   82.100">  2  5  1 -1</clus>
<clus scale="   87.367">  7  8 -1 -1</clus>
<clus scale="   57.826">  1  5  2 -1</clus>
</clustering>
</event>
<event>
 9    2  0.7820252E-005  0.2843850E+03  0.7546771E-02  0.1093384E+00
          2   -1    0    0  502    0 -0.00000000000E+00  0.00000000000E+00  0.13922026639E+04  0.13922026639E+04  0.00000000000E+00 0. -1.
         21   -1    0    0  501  502  0.00000000000E+00 -0.00000000000E+00 -0.82933641203E+02  0.82933641203E+02  0.00000000000E+00 0. -1.
         23    2    1    2    0    0  0.24964169138E+03 -0.18538683159E+03  0.67947456213E+03  0.75133442932E+03  0.78284690055E+02 0.  0.
         24    2    1    2    0    0 -0.19968127437E+03  0.11481692270E+03  0.32092626640E+03  0.40305942976E+03  0.80048100426E+02 0.  0.
        -13    1    4    4    0    0 -0.23384152602E+02  0.41019264139E+02  0.10231549051E+03  0.11268477369E+03  0.00000000000E+00 0.  1.
         14    1    4    4    0    0 -0.17629712177E+03  0.73797658560E+02  0.21861077589E+03  0.29037465607E+03  0.00000000000E+00 0. -1.
        -11    1    3    3    0    0  0.34065942991E+02 -0.10633407518E+02  0.36590278172E+02  0.51111703983E+02  0.00000000000E+00 0.  1.
         11    1    3    3    0    0  0.21557574839E+03 -0.17475342408E+03  0.64288428396E+03  0.70022272534E+03  0.00000000000E+00 0. -1.
          1    1    1    2  501    0 -0.49960417008E+02  0.70569908895E+02  0.30886819413E+03  0.32074244598E+03  0.00000000000E+00 0. -1.
<scales pt_clust_5="13000.00000" pt_clust_6="13000.00000" pt_clust_7="13000.00000" pt_clust_8="13000.00000" pt_clust_9="86.46481"></scales>
<clustering>
<clus scale="   78.285">  7  8 -1 -1</clus>
<clus scale="   80.048">  5  6 -1 -1</clus>
<clus scale="   86.465">  2  9  1 -1</clus>
<clus scale="  283.894">  1  7  2 -1</clus>
<clus scale="   86.465">  2  5  1 -1</clus>
</clustering>
</event>
<event>
 9    2  0.7820252E-005  0.9675298E+02  0.7546771E-02  0.1296904E+00
         -1   -1    0    0    0  501 -0.00000000000E+00  0.00000000000E+00  0.53161650671E+02  0.53161650671E+02  0.00000000000E+00 0.  1.
         21   -1    0    0  501  502  0.00000000000E+00 -0.00000000000E+00 -0.28526239887E+03  0.28526239887E+03  0.00000000000E+00 0.  1.
         24    2    1    2    0    0  0.10774255835E+02  0.26084776580E+02 -0.50779820914E+02  0.98414789140E+02  0.79437902486E+02 0.  0.
         23    2    1    2    0    0  0.31699563029E+02  0.53053106862E+01 -0.93448810751E+02  0.13748671785E+03  0.95587178722E+02 0.  0.
        -11    1    3    3    0    0 -0.30437208458E+02  0.29974390690E+02 -0.29080551866E+02  0.51677521736E+02  0.00000000000E+00 0.  1.
         12    1    3    3    0    0  0.41211464294E+02 -0.38896141096E+01 -0.21699269049E+02  0.46737267404E+02  0.00000000000E+00 0. -1.
        -11    1    4    4    0    0  0.57115440315E+02  0.18804988826E+02 -0.90365167815E+02  0.10854337696E+03  0.00000000000E+00 0.  1.
         11    1    4    4    0    0 -0.25415877286E+02 -0.13499678140E+02 -0.30836429355E+01  0.28943340890E+02  0.00000000000E+00 0. -1.
         -2    1    1    2    0  502 -0.42473818864E+02 -0.31390087267E+02 -0.87872116533E+02  0.10252254255E+03  0.00000000000E+00 0.  1.
<scales pt_clust_5="13000.00000" pt_clust_6="13000.00000" pt_clust_7="13000.00000" pt_clust_8="13000.00000" pt_clust_9="52.81442"></scales>
<clustering>
<clus scale="   52.814">  2  9  1 -1</clus>
<clus scale="   79.438">  5  6 -1 -1</clus>
<clus scale="   80.837">  1  5  2 -1</clus>
<clus scale="   95.587">  7  8 -1 -1</clus>
<clus scale="   52.814">  2  5  1 -1</clus>
</clustering>
</event>
<event>
 9    2  0.7820252E-005  0.1481265E+03  0.7546771E-02  0.1215258E+00
          2   -1    0    0  502    0 -0.00000000000E+00  0.00000000000E+00  0.71854496656E+03  0.71854496656E+03  0.00000000000E+00 0. -1.
         21   -1    0    0  501  502  0.00000000000E+00 -0.00000000000E+00 -0.86777798191E+02  0.86777798191E+02  0.00000000000E+00 0.  1.
         23    2    1    2    0    0 -0.53406056725E+02  0.41127781254E+02  0.42024880598E+01  0.11353975156E+03  0.91268357013E+02 0.  0.
         24    2    1    2    0    0 -0.18452446431E+02  0.81806298096E+02  0.44482278889E+03  0.46011292186E+03  0.82485296610E+02 0.  0.
        -11    1    4    4    0    0 -0.36932487706E+02  0.12372610304E+02  0.89654847027E+02  0.97750098360E+02  0.00000000000E+00 0.  1.
         12    1    4    4    0    0  0.18480041275E+02  0.69433687792E+02  0.35516794186E+03  0.36236282350E+03  0.00000000000E+00 0. -1.
        -11    1    3    3    0    0 -0.78168374885E+02  0.37197224849E+02 -0.52940227800E+01  0.86729205265E+02  0.00000000000E+00 0.  1.
         11    1    3    3    0    0  0.24762318161E+02  0.39305564055E+01  0.94965108398E+01  0.26810546292E+02  0.00000000000E+00 0. -1.
          1    1    1    2  501    0  0.71858503155E+02 -0.12293407935E+03  0.18274189142E+03  0.23167009134E+03  0.00000000000E+00 0. -1.
<scales pt_clust_5="13000.00000" pt_clust_6="13000.00000" pt_clust_7="13000.00000" pt_clust_8="13000.00000" pt_clust_9="123.03512"></scales>
<clustering>
<clus scale="   82.485">  5  6 -1 -1</clus>
<clus scale="   91.268">  7  8 -1 -1</clus>
<clus scale="  113.462">  1  7  2 -1</clus>
<clus scale="  123.035">  2  9  1 -1</clus>
<clus scale="  123.035">  2  5  1 -1</clus>
</clustering>
</event>
<event>
 9    2  0.7820252E-005  0.1115244E+03  0.7546771E-02  0.1266664E+00
          2   -1    0    0  502    0 -0.00000000000E+00  0.00000000000E+00  0.18491585730E+03  0.18491585730E+03  0.00000000000E+00 0. -1.
         21   -1    0    0  501  502  0.00000000000E+00 -0.00000000000E+00 -0.82695387121E+02  0.82695387121E+02  0.00000000000E+00 0. -1.
         24    2    1    2    0    0  0.33372410350E+02 -0.45255854654E+02  0.61164687904E+02  0.11499543369E+03  0.79504846212E+02 0.  0.
         23    2    1    2    0    0 -0.17602059962E+02  0.32156875468E+02 -0.35394286020E+00  0.10640918195E+03  0.99894402110E+02 0.  0.
        -11    1    3    3    0    0 -0.80598160000E+00  0.21352827005E+02  0.21328191721E+02  0.30190803062E+02  0.00000000000E+00 0.  1.
         12    1    3    3    0    0  0.34178391950E+02 -0.66608681659E+02  0.39836496183E+02  0.84804630633E+02  0.00000000000E+00 0. -1.
        -11    1    4    4    0    0 -0.55836754555E+02 -0.65045617028E+00 -0.33378655910E+01  0.55940214508E+02  0.00000000000E+00 0.  1.
         11    1    4    4    0    0  0.38234694592E+02  0.32807331638E+02  0.29839227308E+01  0.50468967442E+02  0.00000000000E+00 0. -1.
          1    1    1    2  501    0 -0.15770350388E+02  0.13098979186E+02  0.41409725132E+02  0.46206628773E+02  0.00000000000E+00 0. -1.
<scales pt_clust_5="13000.00000" pt_clust_6="13000.00000" pt_clust_7="13000.00000" pt_clust_8="13000.00000" pt_clust_9="20.50092"></scales>
<clustering>
<clus scale="   20.501">  2  9  1 -1</clus>
<clus scale="   79.505">  5  6 -1 -1</clus>
<clus scale="   93.701">  1  5  2 -1</clus>
<clus scale="   99.894">  7  8 -1 -1</clus>
<clus scale="   20.501">  2  5  1 -1</clus>
</clustering>
</event>
<event>
 9    2  0.7820252E-005  0.1212828E+03  0.7546771E-02  0.1258774E+00
         -1   -1    0    0    0  501 -0.00000000000E+00  0.00000000000E+00  0.14481434832E+03  0.14481434832E+03  0.00000000000E+00 0.  1.
         21   -1    0    0  501  502  0.00000000000E+00 -0.00000000000E+00 -0.74938983313E+03  0.74938983313E+03  0.00000000000E+00 0.  1.
         24    2    1    2    0    0 -0.27460115072E+02 -0.87049980553E+01  0.11572354318E+03  0.14359670150E+03  0.79988995010E+02 0.  0.
         23    2    1    2    0    0 -0.31132036345E+02 -0.60077973626E+02 -0.28382794595E+03  0.30488206801E+03  0.88409308841E+02 0.  0.
        -11    1    3    3    0    0 -0.45605812011E+02 -0.12468306084E+02  0.11578362761E+03  0.12506477189E+03  0.00000000000E+00 0.  1.
         12    1    3    3    0    0  0.18145696938E+02  0.37633080289E+01 -0.60084427172E-01  0.18531929604E+02  0.00000000000E+00 0. -1.
        -13    1    4    4    0    0  0.16213962862E+02 -0.42683671904E+02 -0.21354931997E+03  0.21837605294E+03  0.00000000000E+00 0. -1.
         13    1    4    4    0    0 -0.47345999207E+02 -0.17394301722E+02 -0.70278625983E+02  0.86506015071E+02  0.00000000000E+00 0.  1.
         -2    1    1    2    0  502  0.58592151417E+02  0.68782971681E+02 -0.43647108204E+03  0.44572541195E+03  0.00000000000E+00 0.  1.
<scales pt_clust_5="13000.00000" pt_clust_6="13000.00000" pt_clust_7="13000.00000" pt_clust_8="13000.00000" pt_clust_9="83.02597"></scales>
<clustering>
<clus scale="   79.989">  5  6 -1 -1</clus>
<clus scale="   85.018">  1  5  2 -1</clus>
<clus scale="   83.026">  2  9  1 -1</clus>
<clus scale="   88.409">  7  8 -1 -1</clus>
<clus scale="   83.026">  2  5  1 -1</clus>
</clustering>
</event>
<event>
 9    2  0.7820252E-005  0.1142107E+03  0.7546771E-02  0.1257830E+00
         21   -1    0    0  501  502  0.00000000000E+00  0.00000000000E+00  0.24028945691E+03  0.24028945691E+03  0.00000000000E+00 0.  1.
         -3   -1    0    0    0  501 -0.00000000000E+00 -0.00000000000E+00 -0.18205253923E+03  0.18205253923E+03  0.00000000000E+00 0.  1.
         24    2    1    2    0    0  0.51613890169E+02  0.28842282623E+02 -0.89387063480E+02  0.13515004449E+03  0.82338426520E+02 0.  0.
         23    2    1    2    0    0 -0.54408251733E+02 -0.49074876340E+02 -0.16969948177E+02  0.12133560454E+03  0.95214223950E+02 0.  0.
        -11    1    3    3    0    0  0.52477024541E+02  0.38955065922E+02 -0.10063820724E+03  0.11999743340E+03  0.00000000000E+00 0.  1.
         12    1    3    3    0    0 -0.86313437195E+00 -0.10112783298E+02  0.11251143758E+02  0.15152611090E+02  0.00000000000E+00 0. -1.
        -13    1    4    4    0    0 -0.30466831016E+02 -0.70467374168E+02  0.12466498256E+02  0.77777195842E+02  0.00000000000E+00 0. -1.
         13    1    4    4    0    0 -0.23941420717E+02  0.21392497828E+02 -0.29436446433E+02  0.43558408694E+02  0.00000000000E+00 0.  1.
         -4    1    1    2    0  502  0.27943615643E+01  0.20232593716E+02  0.16459392933E+03  0.16585634711E+03  0.00000000000E+00 0.  1.
<scales pt_clust_5="13000.00000" pt_clust_6="13000.00000" pt_clust_7="13000.00000" pt_clust_8="13000.00000" pt_clust_9="20.42465"></scales>
<clustering>
<clus scale="   20.425">  1  9  2 -1</clus>
<clus scale="   82.338">  5  6 -1 -1</clus>
<clus scale="   95.214">  7  8 -1 -1</clus>
<clus scale="  103.721">  2  5  1 -1</clus>
<clus scale="   20.425">  1  5  2 -1</clus>
</clustering>
</event>
<event>
 9    2  0.7820252E-005  0.1105375E+03  0.7546771E-02  0.1263176E+00
          2   -1    0    0  502    0 -0.00000000000E+00  0.00000000000E+00  0.87342568840E+02  0.87342568840E+02  0.00000000000E+00 0. -1.
         21   -1    0    0  501  502  0.00000000000E+00 -0.00000000000E+00 -0.23866591152E+03  0.23866591152E+03  0.00000000000E+00 0.  1.
         24    2    1    2    0    0  0.97368700701E+01 -0.57695634837E+02 -0.38601388046E-01  0.99845017068E+02  0.80903850498E+02 0.  0.
         23    2    1    2    0    0  0.22661053904E+02  0.77304370326E+02 -0.78864442545E+02  0.14443936858E+03  0.90297518587E+02 0.  0.
        -11    1    3    3    0    0 -0.16786365601E+02  0.14671509198E+02 -0.40801846043E+01  0.22664579384E+02  0.00000000000E+00 0.  1.
         12    1    3    3    0    0  0.26523235671E+02 -0.72367144035E+02  0.40415832163E+01  0.77180437684E+02  0.00000000000E+00 0. -1.
        -13    1    4    4    0    0  0.49493175554E+02  0.79936805373E+02 -0.59952863541E+02  0.11150700931E+03  0.00000000000E+00 0.  1.
         13    1    4    4    0    0 -0.26832121650E+02 -0.26324350462E+01 -0.18911579004E+02  0.32932359268E+02  0.00000000000E+00 0. -1.
          1    1    1    2  501    0 -0.32397923974E+02 -0.19608735490E+02 -0.72420298748E+02  0.81724094710E+02  0.00000000000E+00 0. -1.
<scales pt_clust_5="13000.00000" pt_clust_6="13000.00000" pt_clust_7="13000.00000" pt_clust_8="13000.00000" pt_clust_9="37.86988"></scales>
<clustering>
<clus scale="   37.870">  2  9  1 -1</clus>
<clus scale="   80.904">  5  6 -1 -1</clus>
<clus scale="   90.298">  7  8 -1 -1</clus>
<clus scale="  103.006">  1  5  2 -1</clus>
<clus scale="   37.870">  2  5  1 -1</clus>
</clustering>
</event>
<event>
 9    2  0.7820252E-005  0.1923857E+03  0.7546771E-02  0.1186739E+00
         21   -1    0    0  501  502  0.00000000000E+00  0.00000000000E+00  0.59299505990E+02  0.59299505990E+02  0.00000000000E+00 0. -1.
          2   -1    0    0  502    0 -0.00000000000E+00 -0.00000000000E+00 -0.93150055985E+03  0.93150055985E+03  0.00000000000E+00 0. -1.
         24    2    1    2    0    0 -0.22395792651E+02  0.47323258475E+02 -0.13067061270E+03  0.16221598254E+03  0.80611126070E+02 0.  0.
         23    2    1    2    0    0  0.89377934382E+02 -0.17370135651E+03 -0.33626886508E+03  0.39882254940E+03  0.88442636104E+02 0.  0.
        -11    1    3    3    0    0  0.30345397091E+02  0.22404347846E+02 -0.54339962018E+02  0.66148540416E+02  0.00000000000E+00 0.  1.
         12    1    3    3    0    0 -0.52741189742E+02  0.24918910629E+02 -0.76330650684E+02  0.96067442124E+02  0.00000000000E+00 0. -1.
        -11    1    4    4    0    0 -0.17901176168E+02 -0.18309085685E+02 -0.39502506557E+02  0.47075712965E+02  0.00000000000E+00 0.  1.
         11    1    4    4    0    0  0.10727911055E+03 -0.15539227082E+03 -0.29676635852E+03  0.35174683644E+03  0.00000000000E+00 0. -1.
          1    1    1    2  501    0 -0.66982141732E+02  0.12637809803E+03 -0.40526157608E+03  0.42976153390E+03  0.00000000000E+00 0. -1.
<scales pt_clust_5="13000.00000" pt_clust_6="13000.00000" pt_clust_7="13000.00000" pt_clust_8="13000.00000" pt_clust_9="170.85138"></scales>
<clustering>
<clus scale="   80.611">  5  6 -1 -1</clus>
<clus scale="   88.443">  7  8 -1 -1</clus>
<clus scale="   96.121">  2  5  1 -1</clus>
<clus scale="  170.851">  1  9  2 -1</clus>
<clus scale="  170.851">  1  5  2 -1</clus>
</clustering>
</event>
<event>
 9    2  0.7820252E-005  0.9805219E+02  0.7546771E-02  0.1284588E+00
          4   -1    0    0  502    0 -0.00000000000E+00  0.00000000000E+00  0.60461258863E+02  0.60461258863E+02  0.00000000000E+00 0. -1.
         21   -1    0    0  501  502  0.00000000000E+00 -0.00000000000E+00 -0.25087118740E+03  0.25087118740E+03  0.00000000000E+00 0. -1.
         24    2    1    2    0    0 -0.14746487547E+02 -0.16195894241E+01 -0.44299908320E+02  0.10512489570E+03  0.94173668582E+02 0.  0.
         23    2    1    2    0    0  0.51219561315E+02  0.15482489521E+01 -0.12308945964E+03  0.16307709254E+03  0.93900386059E+02 0.  0.
        -11    1    3    3    0    0 -0.23062342004E+02  0.24763274961E+02  0.17002262788E+02  0.37870415174E+02  0.00000000000E+00 0.  1.
         12    1    3    3    0    0  0.83158544576E+01 -0.26382864385E+02 -0.61302171108E+02  0.67254480528E+02  0.00000000000E+00 0. -1.
        -11    1    4    4    0    0  0.78229857488E+02 -0.19463945685E+01 -0.78598130307E+02  0.11091151943E+03  0.00000000000E+00 0. -1.
         11    1    4    4    0    0 -0.27010296172E+02  0.34946435206E+01 -0.44491329328E+02  0.52165573111E+02  0.00000000000E+00 0.  1.
          3    1    1    2  501    0 -0.36473073769E+02  0.71340472041E-01 -0.23020560583E+02  0.43130458022E+02  0.00000000000E+00 0. -1.
<scales pt_clust_5="13000.00000" pt_clust_6="13000.00000" pt_clust_7="13000.00000" pt_clust_8="13000.00000" pt_clust_9="36.47316"></scales>
<clustering>
<clus scale="   36.473">  2  9  1 -1</clus>
<clus scale="   93.900">  7  8 -1 -1</clus>
<clus scale="   94.174">  5  6 -1 -1</clus>
<clus scale="   97.790">  2  7  1 -1</clus>
<clus scale="   36.473">  2  5  1 -1</clus>
</clustering>
</event>
<event>
 9    2  0.7820252E-005  0.1611063E+03  0.7546771E-02  0.1189650E+00
          2   -1    0    0  502    0 -0.00000000000E+00  0.00000000000E+00  0.32047327936E+03  0.32047327936E+03  0.00000000000E+00 0. -1.
         21   -1    0    0  501  502  0.00000000000E+00 -0.00000000000E+00 -0.17235620993E+03  0.17235620993E+03  0.00000000000E+00 0.  1.
         23    2    1    2    0    0 -0.19663676716E+02 -0.13422369646E+03  0.24494340768E+03  0.29419423111E+03  0.90279077194E+02 0.  0.
         24    2    1    2    0    0 -0.49226018181E+01  0.12446909328E+03 -0.73117164223E+02  0.16311396444E+03  0.75784289285E+02 0.  0.
        -11    1    4    4    0    0 -0.31420592259E+01  0.11217943726E+03 -0.27097873288E+02  0.11544866139E+03  0.00000000000E+00 0.  1.
         12    1    4    4    0    0 -0.17805425922E+01  0.12289656016E+02 -0.46019290934E+02  0.47665303052E+02  0.00000000000E+00 0. -1.
        -11    1    3    3    0    0 -0.10960755570E+02 -0.10457601860E+03  0.96994393202E+02  0.14305311650E+03  0.00000000000E+00 0. -1.
         11    1    3    3    0    0 -0.87029211462E+01 -0.29647677858E+02  0.14794901448E+03  0.15114111461E+03  0.00000000000E+00 0.  1.
          1    1    1    2  501    0  0.24586278534E+02  0.97546031841E+01 -0.23709174036E+02  0.35521293739E+02  0.00000000000E+00 0. -1.
<scales pt_clust_5="13000.00000" pt_clust_6="13000.00000" pt_clust_7="13000.00000" pt_clust_8="13000.00000" pt_clust_9="26.45066"></scales>
<clustering>
<clus scale="   26.451">  2  9  1 -1</clus>
<clus scale="   75.784">  5  6 -1 -1</clus>
<clus scale="   90.279">  7  8 -1 -1</clus>
<clus scale="  153.454">  2  5  1 -1</clus>
<clus scale="   26.451">  2  5  1 -1</clus>
</clustering>
</event>
<event>
 9    2  0.7820252E-005  0.1474057E+03  0.7546771E-02  0.1224670E+00
          2   -1    0    0  502    0 -0.00000000000E+00  0.00000000000E+00  0.64367334263E+03  0.64367334263E+03  0.00000000000E+00 0. -1.
         21   -1    0    0  501  502  0.00000000000E+00 -0.00000000000E+00 -0.76280044476E+02  0.76280044476E+02  0.00000000000E+00 0. -1.
         24    2    1    2    0    0 -0.36060367013E+02  0.27410339707E+02  0.35174076457E+03  0.36421101766E+03  0.82924201118E+02 0.  0.
         23    2    1    2    0    0  0.53634704288E+02  0.96065804455E+02  0.17527954444E+03  0.22465005938E+03  0.87403719542E+02 0.  0.
        -11    1    3    3    0    0  0.16131901206E+02  0.33204658502E+02  0.90408815273E+02  0.97655217279E+02  0.00000000000E+00 0.  1.
         12    1    3    3    0    0 -0.52192268219E+02 -0.57943187948E+01  0.26133194930E+03  0.26655580038E+03  0.00000000000E+00 0. -1.
        -13    1    4    4    0    0 -0.10149864861E+01  0.28807345815E+02  0.11630799102E+03  0.11982671716E+03  0.00000000000E+00 0.  1.
         13    1    4    4    0    0  0.54649690774E+02  0.67258458640E+02  0.58971553413E+02  0.10482334221E+03  0.00000000000E+00 0. -1.
          1    1    1    2  501    0 -0.17574337275E+02 -0.12347614416E+03  0.40372989149E+02  0.13109231007E+03  0.00000000000E+00 0. -1.
<scales pt_clust_5="13000.00000" pt_clust_6="13000.00000" pt_clust_7="13000.00000" pt_clust_8="13000.00000" pt_clust_9="118.69728"></scales>
<clustering>
<clus scale="   82.924">  5  6 -1 -1</clus>
<clus scale="   87.404">  7  8 -1 -1</clus>
<clus scale="   94.489">  1  5  2 -1</clus>
<clus scale="  118.697">  2  9  1 -1</clus>
<clus scale="  118.697">  2  5  1 -1</clus>
</clustering>
</event>
<event>
 9    2  0.7820252E-005  0.9048299E+02  0.7546771E-02  0.1308794E+00
          2   -1    0    0  502    0 -0.00000000000E+00  0.00000000000E+00  0.10814396656E+04  0.10814396656E+04  0.00000000000E+00 0. -1.
         21   -1    0    0  501  502  0.00000000000E+00 -0.00000000000E+00 -0.30255644139E+02  0.30255644139E+02  0.00000000000E+00 0.  1.
         24    2    1    2    0    0 -0.12691165666E+02  0.90283658655E+01  0.88458625125E+03  0.88814621886E+03  0.77899249668E+02 0.  0.
         23    2    1    2    0    0  0.32319600194E+02  0.27452595197E+02  0.14858608134E+03  0.17837656716E+03  0.89118879061E+02 0.  0.
        -11    1    3    3    0    0  0.18155905873E+02 -0.12352198148E+02  0.88782295128E+02  0.91457693199E+02  0.00000000000E+00 0.  1.
         12    1    3    3    0    0 -0.30847071539E+02  0.21380564013E+02  0.79580395613E+03  0.79668852566E+03  0.00000000000E+00 0. -1.
        -11    1    4    4    0    0  0.34465392019E+02 -0.69899802638E+01  0.11478820143E+02  0.36993058578E+02  0.00000000000E+00 0.  1.
         11    1    4    4    0    0 -0.21457918241E+01  0.34442575461E+02  0.13710726120E+03  0.14138350858E+03  0.00000000000E+00 0. -1.
          1    1    1    2  501    0 -0.19628434528E+02 -0.36480961063E+02  0.18011688857E+02  0.45172523701E+02  0.00000000000E+00 0. -1.
<scales pt_clust_5="13000.00000" pt_clust_6="13000.00000" pt_clust_7="13000.00000" pt_clust_8="13000.00000" pt_clust_9="41.42627"></scales>
<clustering>
<clus scale="   41.426">  2  9  1 -1</clus>
<clus scale="   77.899">  5  6 -1 -1</clus>
<clus scale="   79.456">  1  5  2 -1</clus>
<clus scale="   89.119">  7  8 -1 -1</clus>
<clus scale="   41.426">  2  5  1 -1</clus>
</clustering>
</event>
<event>
 9    2  0.7820252E-005  0.1464911E+03  0.7546771E-02  0.1206791E+00
          2   -1    0    0  502    0 -0.00000000000E+00  0.00000000000E+00  0.18170856642E+04  0.18170856642E+04  0.00000000000E+00 0. -1.
         21   -1    0    0  501  502  0.00000000000E+00 -0.00000000000E+00 -0.26363751038E+02  0.26363751038E+02  0.00000000000E+00 0. -1.
         23    2    1    2    0    0  0.92208350911E+02 -0.16334801971E+02  0.64662309048E+03  0.65976478402E+03  0.91645749316E+02 0.  0.
         24    2    1    2    0    0 -0.11667177700E+03  0.12659947400E+03  0.71034956586E+03  0.73547131714E+03  0.81742414036E+02 0.  0.
        -11    1    4    4    0    0 -0.15112582869E+02  0.55817167466E+02  0.13346102380E+03  0.14545030498E+03  0.00000000000E+00 0.  1.
         12    1    4    4    0    0 -0.10155919413E+03  0.70782306537E+02  0.57688854206E+03  0.59002101216E+03  0.00000000000E+00 0. -1.
        -11    1    3    3    0    0  0.35850376440E+02 -0.52758825743E+02  0.33019503811E+03  0.33629972699E+03  0.00000000000E+00 0.  1.
         11    1    3    3    0    0  0.56357974471E+02  0.36424023771E+02  0.31642805237E+03  0.32346505703E+03  0.00000000000E+00 0. -1.
          1    1    1    2  501    0  0.24463426092E+02 -0.11026467203E+03  0.43374925678E+03  0.44821331403E+03  0.00000000000E+00 0. -1.
<scales pt_clust_5="13000.00000" pt_clust_6="13000.00000" pt_clust_7="13000.00000" pt_clust_8="13000.00000" pt_clust_9="112.94581"></scales>
<clustering>
<clus scale="   81.742">  5  6 -1 -1</clus>
<clus scale="   91.646">  7  8 -1 -1</clus>
<clus scale="  112.946">  2  9  1 -1</clus>
<clus scale="  140.508">  2  5  1 -1</clus>
<clus scale="  112.946">  2  5  1 -1</clus>
</clustering>
</event>
<event>
 9    2  0.7820252E-005  0.9541735E+02  0.7546771E-02  0.1293800E+00
         21   -1    0    0  501  502  0.00000000000E+00  0.00000000000E+00  0.13819006750E+03  0.13819006750E+03  0.00000000000E+00 0. -1.
          2   -1    0    0  502    0 -0.00000000000E+00 -0.00000000000E+00 -0.15054648224E+03  0.15054648224E+03  0.00000000000E+00 0. -1.
         24    2    1    2    0    0 -0.16943135087E+02  0.35517355395E+01 -0.30885070749E+02  0.88289682800E+02  0.80879514352E+02 0.  0.
         23    2    1    2    0    0  0.64846260581E+02  0.43692507986E+02 -0.25336085050E+02  0.12012972377E+03  0.87607993704E+02 0.  0.
        -11    1    3    3    0    0  0.26532859510E+02 -0.17288322082E+02 -0.12411368605E+01  0.31692572235E+02  0.00000000000E+00 0.  1.
         12    1    3    3    0    0 -0.43475994597E+02  0.20840057622E+02 -0.29643933889E+02  0.56597110565E+02  0.00000000000E+00 0. -1.
        -13    1    4    4    0    0  0.10962085173E+02  0.50092260456E+02  0.13946332902E+02  0.53140399607E+02  0.00000000000E+00 0.  1.
         13    1    4    4    0    0  0.53884175408E+02 -0.63997524698E+01 -0.39282417952E+02  0.66989324159E+02  0.00000000000E+00 0. -1.
          1    1    1    2  501    0 -0.47903125494E+02 -0.47244243526E+02  0.43864741060E+02  0.80317143168E+02  0.00000000000E+00 0. -1.
<scales pt_clust_5="13000.00000" pt_clust_6="13000.00000" pt_clust_7="13000.00000" pt_clust_8="13000.00000" pt_clust_9="67.28096"></scales>
<clustering>
<clus scale="   67.281">  1  9  2 -1</clus>
<clus scale="   80.880">  5  6 -1 -1</clus>
<clus scale="   87.608">  7  8 -1 -1</clus>
<clus scale="   89.279">  2  5  1 -1</clus>
<clus scale="   67.281">  1  5  2 -1</clus>
</clustering>
</event>
<event>
 9    2  0.7820252E-005  0.1767933E+03  0.7546771E-02  0.1201102E+00
          2   -1    0    0  502    0 -0.00000000000E+00  0.00000000000E+00  0.92156109450E+03  0.92156109450E+03  0.00000000000E+00 0. -1.
         21   -1    0    0  501  502  0.00000000000E+00 -0.00000000000E+00 -0.12610480491E+03  0.12610480491E+03  0.00000000000E+00 0. -1.
         24    2    1    2    0    0  0.34294873484E+02 -0.23969287494E+02  0.64674120871E+03  0.65302501733E+03  0.80105038107E+02 0.  0.
         23    2    1    2    0    0  0.76385455114E+02 -0.94916758656E+02  0.17333889222E+03  0.23035345348E+03  0.90401400129E+02 0.  0.
        -13    1    3    3    0    0  0.25947603040E+02 -0.12314320424E+02  0.64481338022E+02  0.70588692750E+02  0.00000000000E+00 0.  1.
         14    1    3    3    0    0  0.83472704436E+01 -0.11654967070E+02  0.58225987069E+03  0.58243632458E+03  0.00000000000E+00 0. -1.
        -11    1    4    4    0    0 -0.19230690039E+02 -0.26831713695E+02  0.26290863240E+02  0.42201537758E+02  0.00000000000E+00 0.  1.
         11    1    4    4    0    0  0.95616145153E+02 -0.68085044962E+02  0.14704802898E+03  0.18815191572E+03  0.00000000000E+00 0. -1.
          1    1    1    2  501    0 -0.11068032860E+03  0.11888604615E+03 -0.24623811345E+02  0.16428742859E+03  0.00000000000E+00 0. -1.
<scales pt_clust_5="13000.00000" pt_clust_6="13000.00000" pt_clust_7="13000.00000" pt_clust_8="13000.00000" pt_clust_9="151.93238"></scales>
<clustering>
<clus scale="   80.105">  5  6 -1 -1</clus>
<clus scale="   90.374">  1  5  2 -1</clus>
<clus scale="   90.401">  7  8 -1 -1</clus>
<clus scale="  151.932">  2  9  1 -1</clus>
<clus scale="  151.932">  2  5  1 -1</clus>
</clustering>
</event>
<event>
 9    2  0.1282426E-004  0.1002557E+03  0.7546771E-02  0.1286043E+00
          4   -1    0    0  502    0 -0.00000000000E+00  0.00000000000E+00  0.28096307628E+03  0.28096307628E+03  0.00000000000E+00 0. -1.
         21   -1    0    0  501  502  0.00000000000E+00 -0.00000000000E+00 -0.19829981991E+03  0.19829981991E+03  0.00000000000E+00 0. -1.
         23    2    1    2    0    0  0.44527466006E+02 -0.46966660500E+01  0.24904498410E+03  0.26880936196E+03  0.90721083923E+02 0.  0.
         24    2    1    2    0    0 -0.78118911068E+01  0.21119121840E+02 -0.14141272758E+03  0.16311241613E+03  0.78109268488E+02 0.  0.
        -13    1    4    4    0    0 -0.37491609119E+01  0.48355035782E+02 -0.11562765539E+03  0.12538748097E+03  0.00000000000E+00 0.  1.
         14    1    4    4    0    0 -0.40627301950E+01 -0.27235913942E+02 -0.25785072191E+02  0.37724935159E+02  0.00000000000E+00 0. -1.
        -13    1    3    3    0    0  0.45233786137E+02  0.34332063567E+02  0.18766255416E+03  0.19606636691E+03  0.00000000000E+00 0. -1.
         13    1    3    3    0    0 -0.70632013082E+00 -0.39028729617E+02  0.61382429940E+02  0.72742995051E+02  0.00000000000E+00 0.  1.
          3    1    1    2  501    0 -0.36715574899E+02 -0.16422455790E+02 -0.24969000157E+02  0.47341118102E+02  0.00000000000E+00 0. -1.
<scales pt_clust_5="13000.00000" pt_clust_6="13000.00000" pt_clust_7="13000.00000" pt_clust_8="13000.00000" pt_clust_9="40.22102"></scales>
<clustering>
<clus scale="   40.221">  2  9  1 -1</clus>
<clus scale="   78.109">  5  6 -1 -1</clus>
<clus scale="   89.005">  2  5  1 -1</clus>
<clus scale="   90.721">  7  8 -1 -1</clus>
<clus scale="   40.221">  2  5  1 -1</clus>
</clustering>
</event>
<event>
 9    2  0.7820252E-005  0.2904702E+03  0.7546771E-02  0.1123023E+00
          2   -1    0    0  502    0 -0.00000000000E+00  0.00000000000E+00  0.28757716991E+03  0.28757716991E+03  0.00000000000E+00 0. -1.
         21   -1    0    0  501  502  0.00000000000E+00 -0.00000000000E+00 -0.10537438725E+04  0.10537438725E+04  0.00000000000E+00 0. -1.
         24    2    1    2    0    0 -0.68004334526E+02  0.67600960210E+02  0.18835248207E+03  0.22599924793E+03  0.80028265174E+02 0.  0.
         23    2    1    2    0    0  0.24611425754E+03  0.14423367074E+03 -0.45742804952E+03  0.54637834194E+03  0.88956688971E+02 0.  0.
        -13    1    3    3    0    0 -0.40681460576E+02  0.30246916785E+02  0.25593073354E+02  0.56787873822E+02  0.00000000000E+00 0.  1.
         14    1    3    3    0    0 -0.27322873950E+02  0.37354043425E+02  0.16275940872E+03  0.16921137411E+03  0.00000000000E+00 0. -1.
        -13    1    4    4    0    0  0.82589985467E+00  0.21011185603E+02 -0.58230390699E+02  0.61910664929E+02  0.00000000000E+00 0.  1.
         13    1    4    4    0    0  0.24528835768E+03  0.12322248514E+03 -0.39919765882E+03  0.48446767701E+03  0.00000000000E+00 0. -1.
          1    1    1    2  501    0 -0.17810992301E+03 -0.21183463095E+03 -0.49709113512E+03  0.56894345252E+03  0.00000000000E+00 0. -1.
<scales pt_clust_5="13000.00000" pt_clust_6="13000.00000" pt_clust_7="13000.00000" pt_clust_8="13000.00000" pt_clust_9="276.51336"></scales>
<clustering>
<clus scale="   80.028">  5  6 -1 -1</clus>
<clus scale="   88.957">  7  8 -1 -1</clus>
<clus scale="  124.896">  1  5  2 -1</clus>
<clus scale="  276.513">  2  9  1 -1</clus>
<clus scale="  276.513">  2  5  1 -1</clus>
</clustering>
</event>
<event>
 9    2  0.7820252E-005  0.1156527E+03  0.7546771E-02  0.1252823E+00
         -3   -1    0    0    0  501 -0.00000000000E+00  0.00000000000E+00  0.31544331733E+02  0.31544331733E+02  0.00000000000E+00 0.  1.
         21   -1    0    0  501  502  0.00000000000E+00 -0.00000000000E+00 -0.74396306982E+03  0.74396306982E+03  0.00000000000E+00 0. -1.
         23    2    1    2    0    0  0.66430642414E+02  0.86100649900E+01 -0.16780117231E+03  0.20205914672E+03  0.90462709855E+02 0.  0.
         24    2    1    2    0    0 -0.67203425533E+02 -0.60483808796E+02 -0.31849091943E+03  0.34144665424E+03  0.83515030990E+02 0.  0.
        -13    1    4    4    0    0 -0.50898297336E+02 -0.51671147853E+02 -0.10771773911E+03  0.12986013827E+03  0.00000000000E+00 0.  1.
         14    1    4    4    0    0 -0.16305128197E+02 -0.88126609434E+01 -0.21077318031E+03  0.21158651596E+03  0.00000000000E+00 0. -1.
        -13    1    3    3    0    0 -0.94426888991E+01  0.31785672679E+02 -0.52789218513E+02  0.62339353161E+02  0.00000000000E+00 0.  1.
         13    1    3    3    0    0  0.75873331313E+02 -0.23175607689E+02 -0.11501195380E+03  0.13971979356E+03  0.00000000000E+00 0. -1.
         -4    1    1    2    0  502  0.77278311895E+00  0.51873743806E+02 -0.22612664635E+03  0.23200160060E+03  0.00000000000E+00 0.  1.
<scales pt_clust_5="13000.00000" pt_clust_6="13000.00000" pt_clust_7="13000.00000" pt_clust_8="13000.00000" pt_clust_9="51.87950"></scales>
<clustering>
<clus scale="   51.879">  2  9  1 -1</clus>
<clus scale="   83.515">  5  6 -1 -1</clus>
<clus scale="   90.463">  7  8 -1 -1</clus>
<clus scale="  110.303">  2  5  1 -1</clus>
<clus scale="   51.879">  2  5  1 -1</clus>
</clustering>
</event>
<event>
 9    2  0.7820252E-005  0.1339107E+03  0.7546771E-02  0.1225375E+00
         21   -1    0    0  501  502  0.00000000000E+00  0.00000000000E+00  0.53305030078E+02  0.53305030078E+02  0.00000000000E+00 0. -1.
          4   -1    0    0  502    0 -0.00000000000E+00 -0.00000000000E+00 -0.80383026577E+03  0.80383026577E+03  0.00000000000E+00 0. -1.
         23    2    1    2    0    0 -0.39199945129E+02  0.90834443242E+02 -0.37739044129E+03  0.40064961880E+03  0.91153936210E+02 0.  0.
         24    2    1    2    0    0 -0.68921046974E+02 -0.11287114527E+03 -0.21806047885E+03  0.26616014405E+03  0.76163269981E+02 0.  0.
        -13    1    4    4    0    0 -0.31099744236E+02 -0.10741399367E+03 -0.18205702671E+03  0.21365795352E+03  0.00000000000E+00 0.  1.
         14    1    4    4    0    0 -0.37821302738E+02 -0.54571515949E+01 -0.36003452140E+02  0.52502190529E+02  0.00000000000E+00 0. -1.
        -13    1    3    3    0    0  0.10337890446E+02  0.24336443269E+02 -0.18416067995E+02  0.32222445752E+02  0.00000000000E+00 0.  1.
         13    1    3    3    0    0 -0.49537835575E+02  0.66497999973E+02 -0.35897437330E+03  0.36842717305E+03  0.00000000000E+00 0. -1.
          3    1    1    2  501    0  0.10812099210E+03  0.22036702024E+02 -0.15507431556E+03  0.19032553301E+03  0.00000000000E+00 0. -1.
<scales pt_clust_5="13000.00000" pt_clust_6="13000.00000" pt_clust_7="13000.00000" pt_clust_8="13000.00000" pt_clust_9="110.34385"></scales>
<clustering>
<clus scale="   76.163">  5  6 -1 -1</clus>
<clus scale="   91.154">  7  8 -1 -1</clus>
<clus scale="  110.344">  1  9  2 -1</clus>
<clus scale="  124.193">  1  5  2 -1</clus>
<clus scale="  110.344">  1  5  2 -1</clus>
</clustering>
</event>
<event>
 9    2  0.7820252E-005  0.9656694E+02  0.7546771E-02  0.1293271E+00
          2   -1    0    0  502    0 -0.00000000000E+00  0.00000000000E+00  0.31719382052E+03  0.31719382052E+03  0.00000000000E+00 0. -1.
         21   -1    0    0  501  502  0.00000000000E+00 -0.00000000000E+00 -0.44506007950E+02  0.44506007950E+02  0.00000000000E+00 0. -1.
         24    2    1    2    0    0  0.44871091832E+02 -0.97279847510E+00  0.14532836206E+03  0.17282337912E+03  0.82056238834E+02 0.  0.
         23    2    1    2    0    0 -0.14637353058E+01 -0.90581445996E+01  0.69169691106E+02  0.11559025339E+03  0.92154587547E+02 0.  0.
        -13    1    3    3    0    0  0.20131422238E+02 -0.20572602582E+02  0.52820408995E+01  0.29264416864E+02  0.00000000000E+00 0.  1.
         14    1    3    3    0    0  0.24739669594E+02  0.19599804107E+02  0.14004632116E+03  0.14355896226E+03  0.00000000000E+00 0. -1.
        -11    1    4    4    0    0  0.24383670544E+02 -0.14659276041E+01  0.82136955706E+02  0.85692425719E+02  0.00000000000E+00 0.  1.
         11    1    4    4    0    0 -0.25847405850E+02 -0.75922169955E+01 -0.12967264600E+02  0.29897827669E+02  0.00000000000E+00 0. -1.
          1    1    1    2  501    0 -0.43407356526E+02  0.10030943075E+02  0.58189759406E+02  0.73286195967E+02  0.00000000000E+00 0. -1.
<scales pt_clust_5="13000.00000" pt_clust_6="13000.00000" pt_clust_7="13000.00000" pt_clust_8="13000.00000" pt_clust_9="44.55132"></scales>
<clustering>
<clus scale="   44.551">  2  9  1 -1</clus>
<clus scale="   82.056">  5  6 -1 -1</clus>
<clus scale="   86.982">  1  5  2 -1</clus>
<clus scale="   92.155">  7  8 -1 -1</clus>
<clus scale="   44.551">  2  5  1 -1</clus>
</clustering>
</event>
<event>
 9    2  0.7820252E-005  0.1113077E+03  0.7546771E-02  0.1263893E+00
         -1   -1    0    0    0  501 -0.00000000000E+00  0.00000000000E+00  0.81290821466E+03  0.81290821466E+03  0.00000000000E+00 0.  1.
         21   -1    0    0  501  502  0.00000000000E+00 -0.00000000000E+00 -0.19410850014E+02  0.19410850014E+02  0.00000000000E+00 0.  1.
         24    2    1    2    0    0  0.31884985580E+02 -0.49325401635E+02  0.50326132445E+03  0.51318051364E+03  0.81440968437E+02 0.  0.
         23    2    1    2    0    0 -0.11251528881E+02  0.54672250242E+02  0.22966541534E+03  0.25492695612E+03  0.95529566664E+02 0.  0.
        -11    1    3    3    0    0  0.52753648420E+02 -0.34821656973E+02  0.22347869715E+03  0.23224604044E+03  0.00000000000E+00 0.  1.
         12    1    3    3    0    0 -0.20868662841E+02 -0.14503744663E+02  0.27978262730E+03  0.28093447321E+03  0.00000000000E+00 0. -1.
        -13    1    4    4    0    0 -0.19582899817E+02 -0.24304546862E+02  0.66656261843E+02  0.73602025830E+02  0.00000000000E+00 0. -1.
         13    1    4    4    0    0  0.83313709364E+01  0.78976797104E+02  0.16300915349E+03  0.18132493029E+03  0.00000000000E+00 0.  1.
         -2    1    1    2    0  502 -0.20633456699E+02 -0.53468486064E+01  0.60570624863E+02  0.64211594916E+02  0.00000000000E+00 0.  1.
<scales pt_clust_5="13000.00000" pt_clust_6="13000.00000" pt_clust_7="13000.00000" pt_clust_8="13000.00000" pt_clust_9="21.31498"></scales>
<clustering>
<clus scale="   21.315">  2  9  1 -1</clus>
<clus scale="   81.441">  5  6 -1 -1</clus>
<clus scale="   95.530">  7  8 -1 -1</clus>
<clus scale="   99.479">  1  5  2 -1</clus>
<clus scale="   21.315">  2  5  1 -1</clus>
</clustering>
</event>
<event>
 9    2  0.7820252E-005  0.2618681E+03  0.7546771E-02  0.1121575E+00
          2   -1    0    0  502    0 -0.00000000000E+00  0.00000000000E+00  0.40647532359E+03  0.40647532359E+03  0.00000000000E+00 0. -1.
         21   -1    0    0  501  502  0.00000000000E+00 -0.00000000000E+00 -0.51785634153E+03  0.51785634153E+03  0.00000000000E+00 0. -1.
         24    2    1    2    0    0 -0.15780597461E+03  0.50962530879E+01  0.17236892890E+03  0.24685585830E+03  0.79360378697E+02 0.  0.
         23    2    1    2    0    0 -0.19780624907E+03 -0.64844109369E+02 -0.21055454284E+03  0.30952550158E+03  0.90226104463E+02 0.  0.
        -13    1    3    3    0    0 -0.19837116249E+02  0.30430796437E+02  0.39036631191E+02  0.53323570094E+02  0.00000000000E+00 0.  1.
         14    1    3    3    0    0 -0.13796885836E+03 -0.25334543349E+02  0.13333229771E+03  0.19353228820E+03  0.00000000000E+00 0. -1.
        -11    1    4    4    0    0 -0.40115225398E+02 -0.11477626682E+02 -0.10351156619E+03  0.11160471118E+03  0.00000000000E+00 0.  1.
         11    1    4    4    0    0 -0.15769102368E+03 -0.53366482687E+02 -0.10704297665E+03  0.19792079040E+03  0.00000000000E+00 0. -1.
          1    1    1    2  501    0  0.35561222369E+03  0.59747856281E+02 -0.73195403997E+02  0.36795030525E+03  0.00000000000E+00 0. -1.
<scales pt_clust_5="13000.00000" pt_clust_6="13000.00000" pt_clust_7="13000.00000" pt_clust_8="13000.00000" pt_clust_9="245.83371"></scales>
<clustering>
<clus scale="   79.360">  5  6 -1 -1</clus>
<clus scale="   90.226">  7  8 -1 -1</clus>
<clus scale="  176.711">  1  5  2 -1</clus>
<clus scale="  245.834">  2  9  1 -1</clus>
<clus scale="  245.834">  2  5  1 -1</clus>
</clustering>
</event>
<event>
 9    2  0.7820252E-005  0.1134291E+03  0.7546771E-02  0.1265382E+00
          2   -1    0    0  502    0 -0.00000000000E+00  0.00000000000E+00  0.10287753219E+04  0.10287753219E+04  0.00000000000E+00 0. -1.
         21   -1    0    0  501  502  0.00000000000E+00 -0.00000000000E+00 -0.36346089593E+02  0.36346089593E+02  0.00000000000E+00 0. -1.
         24    2    1    2    0    0  0.50968798467E+02  0.21968283353E+02  0.61692616442E+03  0.62454576068E+03  0.79869211568E+02 0.  0.
         23    2    1    2    0    0 -0.22127867262E+02  0.62790216087E+02  0.29589551731E+03  0.32077095704E+03  0.10443943687E+03 0.  0.
        -13    1    3    3    0    0 -0.20188247043E+02 -0.51034767351E+01  0.11330577157E+03  0.11520333617E+03  0.00000000000E+00 0.  1.
         14    1    3    3    0    0  0.71157045510E+02  0.27071760088E+02  0.50362039284E+03  0.50934242451E+03  0.00000000000E+00 0. -1.
        -13    1    4    4    0    0 -0.83706460635E+01  0.80018441552E+02  0.28507695504E+03  0.29621257401E+03  0.00000000000E+00 0. -1.
         13    1    4    4    0    0 -0.13757221199E+02 -0.17228225466E+02  0.10818562265E+02  0.24558383035E+02  0.00000000000E+00 0.  1.
          1    1    1    2  501    0 -0.28840931204E+02 -0.84758499440E+02  0.79607550604E+02  0.11980469379E+03  0.00000000000E+00 0. -1.
<scales pt_clust_5="13000.00000" pt_clust_6="13000.00000" pt_clust_7="13000.00000" pt_clust_8="13000.00000" pt_clust_9="89.53101"></scales>
<clustering>
<clus scale="   79.869">  5  6 -1 -1</clus>
<clus scale="   89.531">  2  9  1 -1</clus>
<clus scale="   91.311">  1  5  2 -1</clus>
<clus scale="  104.439">  7  8 -1 -1</clus>
<clus scale="   89.531">  2  5  1 -1</clus>
</clustering>
</event>
<event>
 9    2  0.7820252E-005  0.1053321E+03  0.7546771E-02  0.1275344E+00
         21   -1    0    0  501  502  0.00000000000E+00  0.00000000000E+00  0.61065988539E+02  0.61065988539E+02  0.00000000000E+00 0.  1.
         -1   -1    0    0    0  501 -0.00000000000E+00 -0.00000000000E+00 -0.46427231930E+03  0.46427231930E+03  0.00000000000E+00 0.  1.
         23    2    1    2    0    0 -0.53824829205E+02 -0.11210704570E+00 -0.34043307813E+03  0.35658773755E+03  0.91449489221E+02 0.  0.
         24    2    1    2    0    0  0.40969880048E+02  0.51203647819E+02 -0.53601170355E+02  0.11527419841E+03  0.78196615875E+02 0.  0.
        -11    1    4    4    0    0 -0.38514029502E+00  0.59811441085E+02 -0.31510891381E+02  0.67605422070E+02  0.00000000000E+00 0.  1.
         12    1    4    4    0    0  0.41355020343E+02 -0.86077932661E+01 -0.22090278974E+02  0.47668776339E+02  0.00000000000E+00 0. -1.
        -11    1    3    3    0    0  0.20265562887E+02 -0.12865879995E+02 -0.37971796516E+02  0.44923059088E+02  0.00000000000E+00 0. -1.
         11    1    3    3    0    0 -0.74090392093E+02  0.12753772949E+02 -0.30246128161E+03  0.31166467846E+03  0.00000000000E+00 0.  1.
         -2    1    1    2    0  502  0.12854949157E+02 -0.51091540773E+02 -0.91720822790E+01  0.53476371883E+02  0.00000000000E+00 0.  1.
<scales pt_clust_5="13000.00000" pt_clust_6="13000.00000" pt_clust_7="13000.00000" pt_clust_8="13000.00000" pt_clust_9="52.68392"></scales>
<clustering>
<clus scale="   52.684">  1  9  2 -1</clus>
<clus scale="   78.197">  5  6 -1 -1</clus>
<clus scale="   91.449">  7  8 -1 -1</clus>
<clus scale="   94.056">  1  5  2 -1</clus>
<clus scale="   52.684">  1  5  2 -1</clus>
</clustering>
</event>
<event>
 9    2  0.7820252E-005  0.1305680E+03  0.7546771E-02  0.1229623E+00
         -3   -1    0    0    0  501 -0.00000000000E+00  0.00000000000E+00  0.20958579183E+03  0.20958579183E+03  0.00000000000E+00 0.  1.
         21   -1    0    0  501  502  0.00000000000E+00 -0.00000000000E+00 -0.38043278290E+03  0.38043278290E+03  0.00000000000E+00 0.  1.
         23    2    1    2    0    0 -0.84369286361E+01 -0.99248545165E+02  0.16953412277E+03  0.21687121954E+03  0.91486893043E+02 0.  0.
         24    2    1    2    0    0 -0.11800615697E+02  0.42026927576E+02 -0.18052140848E+03  0.20215321168E+03  0.79827469586E+02 0.  0.
        -11    1    4    4    0    0  0.16482965043E+02 -0.18071996972E+02 -0.52916443180E+02  0.58296099097E+02  0.00000000000E+00 0.  1.
         12    1    4    4    0    0 -0.28283580740E+02  0.60098924548E+02 -0.12760496530E+03  0.14385711258E+03  0.00000000000E+00 0. -1.
        -11    1    3    3    0    0  0.29550760765E+02 -0.76484031003E+02  0.69552133606E+02  0.10752001558E+03  0.00000000000E+00 0. -1.
         11    1    3    3    0    0 -0.37987689401E+02 -0.22764514162E+02  0.99981989163E+02  0.10935120396E+03  0.00000000000E+00 0.  1.
         -4    1    1    2    0  502  0.20237544333E+02  0.57221617589E+02 -0.15985970536E+03  0.17099414351E+03  0.00000000000E+00 0.  1.
<scales pt_clust_5="13000.00000" pt_clust_6="13000.00000" pt_clust_7="13000.00000" pt_clust_8="13000.00000" pt_clust_9="60.69491"></scales>
<clustering>
<clus scale="   60.695">  2  9  1 -1</clus>
<clus scale="   79.827">  5  6 -1 -1</clus>
<clus scale="   91.487">  7  8 -1 -1</clus>
<clus scale="  122.681">  2  5  1 -1</clus>
<clus scale="   60.695">  2  5  1 -1</clus>
</clustering>
</event>
<event>
 9    2  0.7820252E-005  0.2051267E+03  0.7546771E-02  0.1175175E+00
         21   -1    0    0  501  502  0.00000000000E+00  0.00000000000E+00  0.41541155626E+02  0.41541155626E+02  0.00000000000E+00 0.  1.
          2   -1    0    0  502    0 -0.00000000000E+00 -0.00000000000E+00 -0.19743537474E+04  0.19743537474E+04  0.00000000000E+00 0. -1.
         24    2    1    2    0    0 -0.58408805220E+02 -0.27034488016E+02 -0.92036681749E+03  0.92608990540E+03  0.80155985897E+02 0.  0.
         23    2    1    2    0    0  0.14944055259E+03  0.16225483150E+03 -0.64570748613E+03  0.68847185381E+03  0.91630926819E+02 0.  0.
        -11    1    3    3    0    0  0.18690921243E+02 -0.11591292275E+02 -0.13295855534E+03  0.13476529981E+03  0.00000000000E+00 0.  1.
         12    1    3    3    0    0 -0.77099726463E+02 -0.15443195741E+02 -0.78740826215E+03  0.79132460559E+03  0.00000000000E+00 0. -1.
        -13    1    4    4    0    0  0.10424726389E+03  0.13193280373E+03 -0.57596514002E+03  0.60000799931E+03  0.00000000000E+00 0. -1.
         13    1    4    4    0    0  0.45193288699E+02  0.30322027774E+02 -0.69742346111E+02  0.88463854499E+02  0.00000000000E+00 0.  1.
          1    1    1    2  501    0 -0.91031747368E+02 -0.13522034349E+03 -0.36673828814E+03  0.40133314380E+03  0.00000000000E+00 0. -1.
<scales pt_clust_5="13000.00000" pt_clust_6="13000.00000" pt_clust_7="13000.00000" pt_clust_8="13000.00000" pt_clust_9="183.52310"></scales>
<clustering>
<clus scale="   80.156">  5  6 -1 -1</clus>
<clus scale="   91.631">  7  8 -1 -1</clus>
<clus scale="  102.798">  2  5  1 -1</clus>
<clus scale="  183.523">  1  9  2 -1</clus>
<clus scale="  183.523">  1  5  2 -1</clus>
</clustering>
</event>
<event>
 9    2  0.7820252E-005  0.1735558E+03  0.7546771E-02  0.1202346E+00
          2   -1    0    0  502    0 -0.00000000000E+00  0.00000000000E+00  0.86371943642E+02  0.86371943642E+02  0.00000000000E+00 0. -1.
         21   -1    0    0  501  502  0.00000000000E+00 -0.00000000000E+00 -0.66210995819E+03  0.66210995819E+03  0.00000000000E+00 0.  1.
         24    2    1    2    0    0  0.45297803102E+02  0.14764246706E+02 -0.34369324370E+02  0.99135285216E+02  0.79854119309E+02 0.  0.
         23    2    1    2    0    0 -0.14299797565E+03 -0.77952017583E+02 -0.48589286737E+03  0.52044516192E+03  0.90809415386E+02 0.  0.
        -13    1    3    3    0    0  0.21665756725E+02 -0.28223104426E+02 -0.35232554577E+02  0.50072762455E+02  0.00000000000E+00 0.  1.
         14    1    3    3    0    0  0.23632046377E+02  0.42987351132E+02  0.86323020725E+00  0.49062522761E+02  0.00000000000E+00 0. -1.
        -11    1    4    4    0    0 -0.11202728192E+03 -0.76069508275E+02 -0.46156047746E+03  0.48101429951E+03  0.00000000000E+00 0.  1.
         11    1    4    4    0    0 -0.30970693734E+02 -0.18825093082E+01 -0.24332389908E+02  0.39430862408E+02  0.00000000000E+00 0. -1.
          1    1    1    2  501    0  0.97700172553E+02  0.63187770878E+02 -0.55475822809E+02  0.12890145469E+03  0.00000000000E+00 0. -1.
<scales pt_clust_5="13000.00000" pt_clust_6="13000.00000" pt_clust_7="13000.00000" pt_clust_8="13000.00000" pt_clust_9="147.90302"></scales>
<clustering>
<clus scale="   79.854">  5  6 -1 -1</clus>
<clus scale="   90.809">  7  8 -1 -1</clus>
<clus scale="   92.987">  1  5  2 -1</clus>
<clus scale="  147.903">  2  9  1 -1</clus>
<clus scale="  147.903">  2  5  1 -1</clus>
</clustering>
</event>
<event>
 9    2  0.7820252E-005  0.1610586E+03  0.7546771E-02  0.1189585E+00
          2   -1    0    0  502    0 -0.00000000000E+00  0.00000000000E+00  0.16759959829E+03  0.16759959829E+03  0.00000000000E+00 0. -1.
         21   -1    0    0  501  502  0.00000000000E+00 -0.00000000000E+00 -0.28626290925E+03  0.28626290925E+03  0.00000000000E+00 0.  1.
         24    2    1    2    0    0  0.56147045009E+02 -0.11515266005E+03  0.62096732191E+02  0.16174485763E+03  0.76764373514E+02 0.  0.
         23    2    1    2    0    0 -0.70519347475E+02  0.12970239048E+03 -0.82537149215E+02  0.19178821940E+03  0.90413780135E+02 0.  0.
        -13    1    3    3    0    0  0.19424730719E+02 -0.97358200420E+02  0.16645155196E+02  0.10066280616E+03  0.00000000000E+00 0.  1.
         14    1    3    3    0    0  0.36722314289E+02 -0.17794459630E+02  0.45451576996E+02  0.61082051469E+02  0.00000000000E+00 0. -1.
        -13    1    4    4    0    0 -0.18974522856E+02 -0.10903450655E+02 -0.26143322354E+01  0.22039793258E+02  0.00000000000E+00 0. -1.
         13    1    4    4    0    0 -0.51544824619E+02  0.14060584113E+03 -0.79922816979E+02  0.16974842615E+03  0.00000000000E+00 0.  1.
          1    1    1    2  501    0  0.14372302467E+02 -0.14549730426E+02 -0.98222893934E+02  0.10032943051E+03  0.00000000000E+00 0. -1.
<scales pt_clust_5="13000.00000" pt_clust_6="13000.00000" pt_clust_7="13000.00000" pt_clust_8="13000.00000" pt_clust_9="20.45135"></scales>
<clustering>
<clus scale="   20.451">  2  9  1 -1</clus>
<clus scale="   76.764">  5  6 -1 -1</clus>
<clus scale="   90.414">  7  8 -1 -1</clus>
<clus scale="  153.812">  1  5  2 -1</clus>
<clus scale="   20.451">  2  5  1 -1</clus>
</clustering>
</event>
<event>
 9    2  0.7820252E-005  0.1847782E+03  0.7546771E-02  0.1176230E+00
          2   -1    0    0  502    0 -0.00000000000E+00  0.00000000000E+00  0.25097639107E+03  0.25097639107E+03  0.00000000000E+00 0. -1.
         21   -1    0    0  501  502  0.00000000000E+00 -0.00000000000E+00 -0.44336474505E+03  0.44336474505E+03  0.00000000000E+00 0.  1.
         24    2    1    2    0    0 -0.88667911341E+02 -0.67809015569E+02 -0.19122271858E+03  0.23541846178E+03  0.79972888842E+02 0.  0.
         23    2    1    2    0    0  0.12400233128E+02  0.20542022386E+03  0.12499833364E+03  0.25725227377E+03  0.90569944219E+02 0.  0.
        -11    1    3    3    0    0 -0.58753053923E+02 -0.39365159586E+02 -0.17885037814E+03  0.19232523208E+03  0.00000000000E+00 0.  1.
         12    1    3    3    0    0 -0.29914857418E+02 -0.28443855983E+02 -0.12372340441E+02  0.43093229695E+02  0.00000000000E+00 0. -1.
        -11    1    4    4    0    0  0.24007293736E+02  0.16080826536E+02 -0.20090782519E+01  0.28965143363E+02  0.00000000000E+00 0.  1.
         11    1    4    4    0    0 -0.11607060608E+02  0.18933939732E+03  0.12700741189E+03  0.22828713041E+03  0.00000000000E+00 0. -1.
          1    1    1    2  501    0  0.76267678213E+02 -0.13761120829E+03 -0.12616396903E+03  0.20167040057E+03  0.00000000000E+00 0. -1.
<scales pt_clust_5="13000.00000" pt_clust_6="13000.00000" pt_clust_7="13000.00000" pt_clust_8="13000.00000" pt_clust_9="161.05916"></scales>
<clustering>
<clus scale="   79.973">  5  6 -1 -1</clus>
<clus scale="   90.570">  7  8 -1 -1</clus>
<clus scale="  137.316">  1  5  2 -1</clus>
<clus scale="  161.059">  2  9  1 -1</clus>
<clus scale="  161.059">  2  5  1 -1</clus>
</clustering>
</event>
<event>
 9    2  0.7820252E-005  0.1731392E+03  0.7546771E-02  0.1176037E+00
          2   -1    0    0  502    0 -0.00000000000E+00  0.00000000000E+00  0.44281404671E+03  0.44281404671E+03  0.00000000000E+00 0. -1.
         21   -1    0    0  501  502  0.00000000000E+00 -0.00000000000E+00 -0.97471207657E+02  0.97471207657E+02  0.00000000000E+00 0.  1.
         24    2    1    2    0    0 -0.41017176423E+02  0.13464042597E+03  0.22374383205E+03  0.27631398817E+03  0.80483940062E+02 0.  0.
         23    2    1    2    0    0  0.30696790422E+02 -0.16113070263E+03  0.61660176807E+02  0.19763192275E+03  0.91383823596E+02 0.  0.
        -13    1    3    3    0    0  0.15674745730E+02  0.73169435283E+02  0.76700662570E+02  0.10715622031E+03  0.00000000000E+00 0.  1.
         14    1    3    3    0    0 -0.56691922153E+02  0.61470990688E+02  0.14704316948E+03  0.16915776785E+03  0.00000000000E+00 0. -1.
        -13    1    4    4    0    0  0.62930591262E+02 -0.11975100753E+03  0.42727429734E+02  0.14186682619E+03  0.00000000000E+00 0.  1.
         13    1    4    4    0    0 -0.32233800840E+02 -0.41379695094E+02  0.18932747073E+02  0.55765096560E+02  0.00000000000E+00 0. -1.
          1    1    1    2  501    0  0.10320386000E+02  0.26490276655E+02  0.59938830199E+02  0.66339343456E+02  0.00000000000E+00 0. -1.
<scales pt_clust_5="13000.00000" pt_clust_6="13000.00000" pt_clust_7="13000.00000" pt_clust_8="13000.00000" pt_clust_9="28.42967"></scales>
<clustering>
<clus scale="   28.430">  2  9  1 -1</clus>
<clus scale="   80.484">  5  6 -1 -1</clus>
<clus scale="   91.384">  7  8 -1 -1</clus>
<clus scale="  167.642">  1  5  2 -1</clus>
<clus scale="   28.430">  2  5  1 -1</clus>
</clustering>
</event>
<event>
 9    2  0.7820252E-005  0.1483634E+03  0.7546771E-02  0.1204162E+00
          4   -1    0    0  502    0 -0.00000000000E+00  0.00000000000E+00  0.77580186011E+03  0.77580186011E+03  0.00000000000E+00 0. -1.
         21   -1    0    0  501  502  0.00000000000E+00 -0.00000000000E+00 -0.67052368493E+02  0.67052368493E+02  0.00000000000E+00 0.  1.
         24    2    1    2    0    0  0.12335423590E+02  0.12940960139E+03  0.38675426730E+03  0.41601968000E+03  0.81206546957E+02 0.  0.
         23    2    1    2    0    0  0.28865879297E+02 -0.79142888348E+02  0.29008440985E+02  0.12672532681E+03  0.90116497058E+02 0.  0.
        -11    1    3    3    0    0 -0.32732818909E+02  0.43643266509E+02  0.10976631827E+03  0.12257575932E+03  0.00000000000E+00 0.  1.
         12    1    3    3    0    0  0.45068242499E+02  0.85766334876E+02  0.27698794903E+03  0.29344392068E+03  0.00000000000E+00 0. -1.
        -13    1    4    4    0    0  0.54102416480E+02 -0.52881013100E+02 -0.64058205841E+01  0.75924354148E+02  0.00000000000E+00 0.  1.
         13    1    4    4    0    0 -0.25236537183E+02 -0.26261875249E+02  0.35414261569E+02  0.50800972658E+02  0.00000000000E+00 0. -1.
          3    1    1    2  501    0 -0.41201302887E+02 -0.50266713037E+02  0.29298678333E+03  0.30010922179E+03  0.00000000000E+00 0. -1.
<scales pt_clust_5="13000.00000" pt_clust_6="13000.00000" pt_clust_7="13000.00000" pt_clust_8="13000.00000" pt_clust_9="64.99457"></scales>
<clustering>
<clus scale="   64.995">  2  9  1 -1</clus>
<clus scale="   81.207">  5  6 -1 -1</clus>
<clus scale="   90.116">  7  8 -1 -1</clus>
<clus scale="  143.127">  1  5  2 -1</clus>
<clus scale="   64.995">  2  5  1 -1</clus>
</clustering>
</event>
<event>
 9    2  0.7820252E-005  0.9483883E+02  0.7546771E-02  0.1297177E+00
         21   -1    0    0  501  502  0.00000000000E+00  0.00000000000E+00  0.12415516307E+03  0.12415516307E+03  0.00000000000E+00 0. -1.
          2   -1    0    0  502    0 -0.00000000000E+00 -0.00000000000E+00 -0.13908833317E+03  0.13908833317E+03  0.00000000000E+00 0. -1.
         24    2    1    2    0    0 -0.10276863280E+02  0.39966700832E+02 -0.76103878506E+02  0.11688895725E+03  0.78538378579E+02 0.  0.
         23    2    1    2    0    0  0.85972339474E+01 -0.11858517397E+02  0.13406784194E+02  0.90908316517E+02  0.88713264415E+02 0.  0.
        -13    1    3    3    0    0  0.32718255765E+02  0.29088769973E+02 -0.44541366496E+02  0.62454576519E+02  0.00000000000E+00 0.  1.
         14    1    3    3    0    0 -0.42995119045E+02  0.10877930859E+02 -0.31562512010E+02  0.54434380734E+02  0.00000000000E+00 0. -1.
        -13    1    4    4    0    0 -0.38048662058E+02  0.75816496936E+01  0.71093707876E+00  0.38803189663E+02  0.00000000000E+00 0. -1.
         13    1    4    4    0    0  0.46645896005E+02 -0.19440167090E+02  0.12695847115E+02  0.52105126855E+02  0.00000000000E+00 0.  1.
          1    1    1    2  501    0  0.16796293327E+01 -0.28108183435E+02  0.47763924210E+02  0.55446222474E+02  0.00000000000E+00 0. -1.
<scales pt_clust_5="13000.00000" pt_clust_6="13000.00000" pt_clust_7="13000.00000" pt_clust_8="13000.00000" pt_clust_9="28.15832"></scales>
<clustering>
<clus scale="   28.158">  1  9  2 -1</clus>
<clus scale="   78.538">  5  6 -1 -1</clus>
<clus scale="   85.397">  2  5  1 -1</clus>
<clus scale="   88.713">  7  8 -1 -1</clus>
<clus scale="   28.158">  1  5  2 -1</clus>
</clustering>
</event>
<event>
 9    2  0.7820252E-005  0.9360362E+02  0.7546771E-02  0.1297932E+00
          2   -1    0    0  502    0 -0.00000000000E+00  0.00000000000E+00  0.28260284978E+03  0.28260284978E+03  0.00000000000E+00 0. -1.
         21   -1    0    0  501  502  0.00000000000E+00 -0.00000000000E+00 -0.16313559380E+03  0.16313559380E+03  0.00000000000E+00 0.  1.
         24    2    1    2    0    0  0.25194335987E+01  0.24602785710E+02  0.23446329660E+03  0.25011040210E+03  0.83489706992E+02 0.  0.
         23    2    1    2    0    0  0.95512487200E+01 -0.58624850950E+02 -0.11760554427E+03  0.15943395627E+03  0.89777630113E+02 0.  0.
        -11    1    3    3    0    0  0.32653031372E+02  0.23016231606E+02  0.20149628826E+03  0.20541840609E+03  0.00000000000E+00 0.  1.
         12    1    3    3    0    0 -0.30133597774E+02  0.15865541044E+01  0.32967008340E+02  0.44691996013E+02  0.00000000000E+00 0. -1.
        -13    1    4    4    0    0  0.45072438950E+02 -0.53466598299E+02 -0.90944398194E+02  0.11472177409E+03  0.00000000000E+00 0.  1.
         13    1    4    4    0    0 -0.35521190230E+02 -0.51582526515E+01 -0.26661146071E+02  0.44712182183E+02  0.00000000000E+00 0. -1.
          1    1    1    2  501    0 -0.12070682319E+02  0.34022065240E+02  0.26095036377E+01  0.36194085208E+02  0.00000000000E+00 0. -1.
<scales pt_clust_5="13000.00000" pt_clust_6="13000.00000" pt_clust_7="13000.00000" pt_clust_8="13000.00000" pt_clust_9="36.09989"></scales>
<clustering>
<clus scale="   36.100">  2  9  1 -1</clus>
<clus scale="   83.490">  5  6 -1 -1</clus>
<clus scale="   87.591">  1  5  2 -1</clus>
<clus scale="   89.778">  7  8 -1 -1</clus>
<clus scale="   36.100">  2  5  1 -1</clus>
</clustering>
</event>
<event>
 9    2  0.7820252E-005  0.1731700E+03  0.7546771E-02  0.1202847E+00
          2   -1    0    0  502    0 -0.00000000000E+00  0.00000000000E+00  0.20884127983E+04  0.20884127983E+04  0.00000000000E+00 0. -1.
         21   -1    0    0  501  502  0.00000000000E+00 -0.00000000000E+00 -0.11534972439E+03  0.11534972439E+03  0.00000000000E+00 0. -1.
         24    2    1    2    0    0  0.38884572553E+02 -0.13224227976E+02  0.18116257971E+04  0.18139908848E+04  0.82994044371E+02 0.  0.
         23    2    1    2    0    0  0.18882038054E+02 -0.12857000411E+03  0.17415637915E+03  0.23613452931E+03  0.92424532551E+02 0.  0.
        -11    1    3    3    0    0  0.22612100935E+02  0.86330879338E+01  0.13557692988E+03  0.13772051855E+03  0.00000000000E+00 0.  1.
         12    1    3    3    0    0  0.16272471618E+02 -0.21857315909E+02  0.16760488672E+04  0.16762703663E+04  0.00000000000E+00 0. -1.
        -11    1    4    4    0    0  0.43674300113E+02 -0.34779624761E+02  0.32995023538E+02  0.64851664336E+02  0.00000000000E+00 0. -1.
         11    1    4    4    0    0 -0.24792262059E+02 -0.93790379353E+02  0.14116135561E+03  0.17128286498E+03  0.00000000000E+00 0.  1.
          1    1    1    2  501    0 -0.57766610607E+02  0.14179423209E+03 -0.12719102335E+02  0.15363710854E+03  0.00000000000E+00 0. -1.
<scales pt_clust_5="13000.00000" pt_clust_6="13000.00000" pt_clust_7="13000.00000" pt_clust_8="13000.00000" pt_clust_9="146.44306"></scales>
<clustering>
<clus scale="   82.994">  5  6 -1 -1</clus>
<clus scale="   92.425">  7  8 -1 -1</clus>
<clus scale="   92.601">  1  5  2 -1</clus>
<clus scale="  146.443">  2  9  1 -1</clus>
<clus scale="  146.443">  2  5  1 -1</clus>
</clustering>
</event>
<event>
 9    2  0.7820252E-005  0.9122038E+02  0.7546771E-02  0.1306680E+00
         21   -1    0    0  501  502  0.00000000000E+00  0.00000000000E+00  0.98792013985E+02  0.98792013985E+02  0.00000000000E+00 0. -1.
         -3   -1    0    0    0  501 -0.00000000000E+00 -0.00000000000E+00 -0.29562653954E+03  0.29562653954E+03  0.00000000000E+00 0.  1.
         24    2    1    2    0    0 -0.66234834216E+01 -0.11727190677E+02 -0.77137093432E+02  0.11189502425E+03  0.79931018598E+02 0.  0.
         23    2    1    2    0    0 -0.11296753600E+02  0.14239090887E+00  0.54937412754E+02  0.10658981584E+03  0.90640126892E+02 0.  0.
        -11    1    3    3    0    0  0.16616161344E+02  0.28067593082E+02 -0.19140301009E+02  0.37818483867E+02  0.00000000000E+00 0.  1.
         12    1    3    3    0    0 -0.23239644765E+02 -0.39794783759E+02 -0.57996792423E+02  0.74076540380E+02  0.00000000000E+00 0. -1.
        -11    1    4    4    0    0 -0.13238331740E+02 -0.24974035287E+02 -0.15180229354E+02  0.32084189705E+02  0.00000000000E+00 0.  1.
         11    1    4    4    0    0  0.19415781403E+01  0.25116426196E+02  0.70117642108E+02  0.74505626132E+02  0.00000000000E+00 0. -1.
         -4    1    1    2    0  502  0.17920237022E+02  0.11584799768E+02 -0.17463484487E+03  0.17593371344E+03  0.00000000000E+00 0.  1.
<scales pt_clust_5="13000.00000" pt_clust_6="13000.00000" pt_clust_7="13000.00000" pt_clust_8="13000.00000" pt_clust_9="21.33877"></scales>
<clustering>
<clus scale="   21.339">  1  9  2 -1</clus>
<clus scale="   79.931">  5  6 -1 -1</clus>
<clus scale="   80.588">  2  5  1 -1</clus>
<clus scale="   90.640">  7  8 -1 -1</clus>
<clus scale="   21.339">  1  5  2 -1</clus>
</clustering>
</event>
<event>
 9    2  0.7820252E-005  0.9811057E+02  0.7546771E-02  0.1294130E+00
          2   -1    0    0  502    0 -0.00000000000E+00  0.00000000000E+00  0.99588955515E+03  0.99588955515E+03  0.00000000000E+00 0. -1.
         21   -1    0    0  501  502  0.00000000000E+00 -0.00000000000E+00 -0.35544322289E+02  0.35544322289E+02  0.00000000000E+00 0. -1.
         24    2    1    2    0    0 -0.24766383686E+02  0.23408497123E+00  0.73159737494E+03  0.73606768733E+03  0.77119989367E+02 0.  0.
         23    2    1    2    0    0  0.32744564735E+02  0.40804993449E+02  0.22943673629E+03  0.25355313134E+03  0.94396612457E+02 0.  0.
        -11    1    3    3    0    0  0.26192680111E+02 -0.21805024539E+01  0.15449445912E+03  0.15671422712E+03  0.00000000000E+00 0.  1.
         12    1    3    3    0    0 -0.50959063796E+02  0.24145874251E+01  0.57710291581E+03  0.57935346021E+03  0.00000000000E+00 0. -1.
        -13    1    4    4    0    0 -0.22807925415E+02  0.61252467556E+01  0.12042970208E+02  0.26509493413E+02  0.00000000000E+00 0.  1.
         13    1    4    4    0    0  0.55552490150E+02  0.34679746694E+02  0.21739376608E+03  0.22704363793E+03  0.00000000000E+00 0. -1.
          1    1    1    2  501    0 -0.79781810491E+01 -0.41039078421E+02 -0.68887836241E+00  0.41813058772E+02  0.00000000000E+00 0. -1.
<scales pt_clust_5="13000.00000" pt_clust_6="13000.00000" pt_clust_7="13000.00000" pt_clust_8="13000.00000" pt_clust_9="41.80738"></scales>
<clustering>
<clus scale="   41.807">  2  9  1 -1</clus>
<clus scale="   77.120">  5  6 -1 -1</clus>
<clus scale="   81.624">  1  5  2 -1</clus>
<clus scale="   94.397">  7  8 -1 -1</clus>
<clus scale="   41.807">  2  5  1 -1</clus>
</clustering>
</event>
<event>
 9    2  0.7820252E-005  0.1039555E+03  0.7546771E-02  0.1275444E+00
         21   -1    0    0  501  502  0.00000000000E+00  0.00000000000E+00  0.18357937117E+03  0.18357937117E+03  0.00000000000E+00 0. -1.
          2   -1    0    0  502    0 -0.00000000000E+00 -0.00000000000E+00 -0.10162306254E+03  0.10162306254E+03  0.00000000000E+00 0. -1.
         23    2    1    2    0    0  0.37988837058E+02 -0.33471069896E+02 -0.12757151113E+02  0.10319548028E+03  0.89011785650E+02 0.  0.
         24    2    1    2    0    0 -0.27257768455E+02  0.60713490880E+02  0.10713664917E+03  0.15020064949E+03  0.81565063586E+02 0.  0.
        -13    1    4    4    0    0 -0.27677063543E+02 -0.11535318484E+02  0.16281422255E+02  0.34119908111E+02  0.00000000000E+00 0.  1.
         14    1    4    4    0    0  0.41929508758E+00  0.72248809363E+02  0.90855226912E+02  0.11608074138E+03  0.00000000000E+00 0. -1.
        -13    1    3    3    0    0 -0.19921741923E+02 -0.36956622431E+02 -0.16381845623E+02  0.45066979140E+02  0.00000000000E+00 0.  1.
         13    1    3    3    0    0  0.57910578981E+02  0.34855525350E+01  0.36246945103E+01  0.58128501139E+02  0.00000000000E+00 0. -1.
          1    1    1    2  501    0 -0.10731068603E+02 -0.27242420984E+02 -0.12423189421E+02  0.31806303932E+02  0.00000000000E+00 0. -1.
<scales pt_clust_5="13000.00000" pt_clust_6="13000.00000" pt_clust_7="13000.00000" pt_clust_8="13000.00000" pt_clust_9="29.27979"></scales>
<clustering>
<clus scale="   29.280">  1  9  2 -1</clus>
<clus scale="   81.565">  5  6 -1 -1</clus>
<clus scale="   89.012">  7  8 -1 -1</clus>
<clus scale="   97.655">  1  5  2 -1</clus>
<clus scale="   29.280">  1  5  2 -1</clus>
</clustering>
</event>
<event>
 9    2  0.7820252E-005  0.8844627E+02  0.7546771E-02  0.1311458E+00
          2   -1    0    0  502    0 -0.00000000000E+00  0.00000000000E+00  0.75885335861E+03  0.75885335861E+03  0.00000000000E+00 0. -1.
         21   -1    0    0  501  502  0.00000000000E+00 -0.00000000000E+00 -0.26518618883E+02  0.26518618883E+02  0.00000000000E+00 0. -1.
         24    2    1    2    0    0  0.89657690787E+00  0.35883811852E+01  0.41475482616E+03  0.42226155001E+03  0.79180619236E+02 0.  0.
         23    2    1    2    0    0 -0.59472661910E+02 -0.95184884153E+01  0.26059010839E+03  0.28117043847E+03  0.86729532121E+02 0.  0.
        -13    1    3    3    0    0  0.12144394349E+02 -0.36053793897E+02  0.20331127322E+03  0.20684012229E+03  0.00000000000E+00 0.  1.
         14    1    3    3    0    0 -0.11247817441E+02  0.39642175082E+02  0.21144355294E+03  0.21542142772E+03  0.00000000000E+00 0. -1.
        -13    1    4    4    0    0 -0.41696441231E+01 -0.31644659756E+02  0.16849400301E+03  0.17149052299E+03  0.00000000000E+00 0.  1.
         13    1    4    4    0    0 -0.55303017787E+02  0.22126171340E+02  0.92096105377E+02  0.10967991548E+03  0.00000000000E+00 0. -1.
          1    1    1    2  501    0  0.58576085002E+02  0.59301072301E+01  0.56989805181E+02  0.81939989019E+02  0.00000000000E+00 0. -1.
<scales pt_clust_5="13000.00000" pt_clust_6="13000.00000" pt_clust_7="13000.00000" pt_clust_8="13000.00000" pt_clust_9="58.87549"></scales>
<clustering>
<clus scale="   58.875">  2  9  1 -1</clus>
<clus scale="   79.181">  5  6 -1 -1</clus>
<clus scale="   81.057">  1  5  2 -1</clus>
<clus scale="   86.730">  7  8 -1 -1</clus>
<clus scale="   58.875">  2  5  1 -1</clus>
</clustering>
</event>
<event>
 9    2  0.7820252E-005  0.1407303E+03  0.7546771E-02  0.1239056E+00
         21   -1    0    0  501  502  0.00000000000E+00  0.00000000000E+00  0.24258580267E+03  0.24258580267E+03  0.00000000000E+00 0.  1.
          2   -1    0    0  502    0 -0.00000000000E+00 -0.00000000000E+00 -0.30772296391E+03  0.30772296391E+03  0.00000000000E+00 0. -1.
         24    2    1    2    0    0 -0.25832983930E+00  0.19831108949E+02 -0.23315768435E+03  0.24674474929E+03  0.78275959982E+02 0.  0.
         23    2    1    2    0    0  0.10680383896E+03 -0.30632734350E+00  0.67082414230E+02  0.15550435217E+03  0.90963725693E+02 0.  0.
        -13    1    3    3    0    0 -0.39196766812E+02  0.83341759343E+01 -0.12117457561E+03  0.12762884780E+03  0.00000000000E+00 0.  1.
         14    1    3    3    0    0  0.38938436973E+02  0.11496933015E+02 -0.11198310875E+03  0.11911590149E+03  0.00000000000E+00 0. -1.
        -11    1    4    4    0    0  0.11572983533E+03  0.20583011829E+02  0.55053391261E+02  0.12979958032E+03  0.00000000000E+00 0.  1.
         11    1    4    4    0    0 -0.89259963722E+01 -0.20889339172E+02  0.12029022969E+02  0.25704771850E+02  0.00000000000E+00 0. -1.
          1    1    1    2  501    0 -0.10654550912E+03 -0.19524781606E+02  0.10093810888E+03  0.14805966512E+03  0.00000000000E+00 0. -1.
<scales pt_clust_5="13000.00000" pt_clust_6="13000.00000" pt_clust_7="13000.00000" pt_clust_8="13000.00000" pt_clust_9="107.38073"></scales>
<clustering>
<clus scale="   78.276">  5  6 -1 -1</clus>
<clus scale="   80.749">  2  5  1 -1</clus>
<clus scale="   90.964">  7  8 -1 -1</clus>
<clus scale="  107.381">  1  9  2 -1</clus>
<clus scale="  107.381">  1  5  2 -1</clus>
</clustering>
</event>
<event>
 9    2  0.7820252E-005  0.1081808E+03  0.7546771E-02  0.1266423E+00
         21   -1    0    0  501  502  0.00000000000E+00  0.00000000000E+00  0.13277442643E+04  0.13277442643E+04  0.00000000000E+00 0. -1.
          2   -1    0    0  502    0 -0.00000000000E+00 -0.00000000000E+00 -0.15657061580E+02  0.15657061580E+02  0.00000000000E+00 0. -1.
         23    2    1    2    0    0 -0.24610611070E+02 -0.71523042066E+02  0.38472956591E+03  0.40223174541E+03  0.89734666687E+02 0.  0.
         24    2    1    2    0    0  0.42309249496E+02  0.16526177865E+02  0.70665173724E+03  0.71302710091E+03  0.83592952732E+02 0.  0.
        -13    1    4    4    0    0  0.60922459350E+02 -0.66480660620E+01  0.36744594411E+03  0.37252149559E+03  0.00000000000E+00 0.  1.
         14    1    4    4    0    0 -0.18613209854E+02  0.23174243927E+02  0.33920579313E+03  0.34050560532E+03  0.00000000000E+00 0. -1.
        -13    1    3    3    0    0  0.91720762366E+01 -0.80129104854E+02  0.29895969051E+03  0.30964769816E+03  0.00000000000E+00 0. -1.
         13    1    3    3    0    0 -0.33782687307E+02  0.86060627884E+01  0.85769875400E+02  0.92584047246E+02  0.00000000000E+00 0.  1.
          1    1    1    2  501    0 -0.17698638426E+02  0.54996864201E+02  0.22070589961E+03  0.22814247960E+03  0.00000000000E+00 0. -1.
<scales pt_clust_5="13000.00000" pt_clust_6="13000.00000" pt_clust_7="13000.00000" pt_clust_8="13000.00000" pt_clust_9="57.77456"></scales>
<clustering>
<clus scale="   57.775">  1  9  2 -1</clus>
<clus scale="   83.593">  5  6 -1 -1</clus>
<clus scale="   89.735">  7  8 -1 -1</clus>
<clus scale="  103.143">  1  5  2 -1</clus>
<clus scale="   57.775">  1  5  2 -1</clus>
</clustering>
</event>
<event>
 9    2  0.7820252E-005  0.9416309E+02  0.7546771E-02  0.1295639E+00
         21   -1    0    0  501  502  0.00000000000E+00  0.00000000000E+00  0.15547078533E+03  0.15547078533E+03  0.00000000000E+00 0. -1.
          2   -1    0    0  502    0 -0.00000000000E+00 -0.00000000000E+00 -0.22944070589E+03  0.22944070589E+03  0.00000000000E+00 0. -1.
         24    2    1    2    0    0  0.40255103459E+02  0.54855851476E+01 -0.15295303432E+03  0.17846907563E+03  0.82498577257E+02 0.  0.
         23    2    1    2    0    0 -0.22734084110E+02  0.54574240335E+01 -0.30256555273E+02  0.95266694965E+02  0.87256300489E+02 0.  0.
        -11    1    3    3    0    0  0.28858864724E+00  0.29330987784E+02 -0.15138546472E+02  0.33008570358E+02  0.00000000000E+00 0.  1.
         12    1    3    3    0    0  0.39966514812E+02 -0.23845402637E+02 -0.13781448784E+03  0.14546050527E+03  0.00000000000E+00 0. -1.
        -13    1    4    4    0    0 -0.33225338106E+02 -0.15933638391E+02  0.18327942527E+02  0.41154798042E+02  0.00000000000E+00 0.  1.
         13    1    4    4    0    0  0.10491253995E+02  0.21391062425E+02 -0.48584497800E+02  0.54111896922E+02  0.00000000000E+00 0. -1.
          1    1    1    2  501    0 -0.17521019349E+02 -0.10943009181E+02  0.10923966902E+03  0.11117572063E+03  0.00000000000E+00 0. -1.
<scales pt_clust_5="13000.00000" pt_clust_6="13000.00000" pt_clust_7="13000.00000" pt_clust_8="13000.00000" pt_clust_9="20.65758"></scales>
<clustering>
<clus scale="   20.658">  1  9  2 -1</clus>
<clus scale="   82.499">  5  6 -1 -1</clus>
<clus scale="   87.256">  7  8 -1 -1</clus>
<clus scale="   89.772">  2  5  1 -1</clus>
<clus scale="   20.658">  1  5  2 -1</clus>
</clustering>
</event>
<event>
 9    2  0.7820252E-005  0.1195564E+03  0.7546771E-02  0.1248227E+00
         -1   -1    0    0    0  501 -0.00000000000E+00  0.00000000000E+00  0.25881087323E+02  0.25881087323E+02  0.00000000000E+00 0.  1.
         21   -1    0    0  501  502  0.00000000000E+00 -0.00000000000E+00 -0.65707433586E+03  0.65707433586E+03  0.00000000000E+00 0.  1.
         24    2    1    2    0    0 -0.37730965177E+02 -0.56457908417E+02 -0.23009418819E+03  0.25223729974E+03  0.77905062629E+02 0.  0.
         23    2    1    2    0    0  0.52155097219E+02  0.74610979352E+02 -0.37030157161E+03  0.39216848166E+03  0.91574623472E+02 0.  0.
        -13    1    3    3    0    0  0.17976837582E+02 -0.41687677023E+02 -0.91707416446E+02  0.10232926921E+03  0.00000000000E+00 0.  1.
         14    1    3    3    0    0 -0.55707802759E+02 -0.14770231394E+02 -0.13838677174E+03  0.14990803053E+03  0.00000000000E+00 0. -1.
        -11    1    4    4    0    0  0.36607514898E+02  0.95170333538E+02 -0.27016062178E+03  0.28876333578E+03  0.00000000000E+00 0.  1.
         11    1    4    4    0    0  0.15547582321E+02 -0.20559354185E+02 -0.10014094983E+03  0.10340514587E+03  0.00000000000E+00 0. -1.
         -2    1    1    2    0  502 -0.14424132042E+02 -0.18153070935E+02 -0.30797488738E+02  0.38549641790E+02  0.00000000000E+00 0.  1.
<scales pt_clust_5="13000.00000" pt_clust_6="13000.00000" pt_clust_7="13000.00000" pt_clust_8="13000.00000" pt_clust_9="23.18599"></scales>
<clustering>
<clus scale="   23.186">  2  9  1 -1</clus>
<clus scale="   77.905">  5  6 -1 -1</clus>
<clus scale="   91.575">  7  8 -1 -1</clus>
<clus scale="  109.440">  1  5  2 -1</clus>
<clus scale="   23.186">  2  5  1 -1</clus>
</clustering>
</event>
<event>
 9    2  0.7820252E-005  0.4065696E+03  0.7546771E-02  0.1097285E+00
         21   -1    0    0  501  502  0.00000000000E+00  0.00000000000E+00  0.20047533938E+03  0.20047533938E+03  0.00000000000E+00 0. -1.
          2   -1    0    0  502    0 -0.00000000000E+00 -0.00000000000E+00 -0.11095551444E+04  0.11095551444E+04  0.00000000000E+00 0. -1.
         24    2    1    2    0    0 -0.26174753442E+02  0.27630102895E+02 -0.96152436165E+02  0.13015722261E+03  0.79038416692E+02 0.  0.
         23    2    1    2    0    0 -0.34587922486E+03  0.16761762215E+03 -0.21673514571E+03  0.45049612701E+03  0.90799403182E+02 0.  0.
        -13    1    3    3    0    0 -0.23111744386E+02 -0.22332897761E+02 -0.61134459538E+02  0.69067598727E+02  0.00000000000E+00 0.  1.
         14    1    3    3    0    0 -0.30630090564E+01  0.49963000656E+02 -0.35017976628E+02  0.61089623883E+02  0.00000000000E+00 0. -1.
        -11    1    4    4    0    0 -0.14933688528E+03  0.47028789869E+02 -0.44757930748E+02  0.16283883059E+03  0.00000000000E+00 0. -1.
         11    1    4    4    0    0 -0.19654233957E+03  0.12058883228E+03 -0.17197721496E+03  0.28765729642E+03  0.00000000000E+00 0.  1.
          1    1    1    2  501    0  0.37205397830E+03 -0.19524772505E+03 -0.59619222314E+03  0.72937713416E+03  0.00000000000E+00 0. -1.
<scales pt_clust_5="13000.00000" pt_clust_6="13000.00000" pt_clust_7="13000.00000" pt_clust_8="13000.00000" pt_clust_9="396.30093"></scales>
<clustering>
<clus scale="   79.038">  5  6 -1 -1</clus>
<clus scale="   87.725">  2  5  1 -1</clus>
<clus scale="   90.799">  7  8 -1 -1</clus>
<clus scale="  396.301">  1  9  2 -1</clus>
<clus scale="  396.301">  1  5  2 -1</clus>
</clustering>
</event>
<event>
 9    2  0.7820252E-005  0.1398578E+03  0.7546771E-02  0.1240093E+00
         21   -1    0    0  501  502  0.00000000000E+00  0.00000000000E+00  0.65459953485E+02  0.65459953485E+02  0.00000000000E+00 0. -1.
          2   -1    0    0  502    0 -0.00000000000E+00 -0.00000000000E+00 -0.72095875221E+03  0.72095875221E+03  0.00000000000E+00 0. -1.
         24    2    1    2    0    0 -0.77491992687E+01  0.15055164260E+01 -0.91392187531E+02  0.12182599480E+03  0.80166853491E+02 0.  0.
         23    2    1    2    0    0 -0.60351642459E+02  0.85047249252E+02 -0.65089552581E+02  0.15356714336E+03  0.92037287609E+02 0.  0.
        -13    1    3    3    0    0  0.12769655283E+02  0.33170630301E+02 -0.69860655470E+02  0.78382816952E+02  0.00000000000E+00 0.  1.
         14    1    3    3    0    0 -0.20518854551E+02 -0.31665113875E+02 -0.21531532061E+02  0.43443177850E+02  0.00000000000E+00 0. -1.
        -11    1    4    4    0    0 -0.66028136559E+02  0.30431394036E+02 -0.66656048603E+02  0.98634747304E+02  0.00000000000E+00 0.  1.
         11    1    4    4    0    0  0.56764940993E+01  0.54615855216E+02  0.15664960218E+01  0.54932396052E+02  0.00000000000E+00 0. -1.
          1    1    1    2  501    0  0.68100841728E+02 -0.86552765678E+02 -0.49901705861E+03  0.51102556754E+03  0.00000000000E+00 0. -1.
<scales pt_clust_5="13000.00000" pt_clust_6="13000.00000" pt_clust_7="13000.00000" pt_clust_8="13000.00000" pt_clust_9="105.30605"></scales>
<clustering>
<clus scale="   80.167">  5  6 -1 -1</clus>
<clus scale="   80.555">  2  5  1 -1</clus>
<clus scale="   92.037">  7  8 -1 -1</clus>
<clus scale="  105.306">  1  9  2 -1</clus>
<clus scale="  105.306">  1  5  2 -1</clus>
</clustering>
</event>
<event>
 9    2  0.7820252E-005  0.1130095E+03  0.7546771E-02  0.1257837E+00
         21   -1    0    0  501  502  0.00000000000E+00  0.00000000000E+00  0.20688576187E+03  0.20688576187E+03  0.00000000000E+00 0.  1.
          2   -1    0    0  502    0 -0.00000000000E+00 -0.00000000000E+00 -0.19575771926E+03  0.19575771926E+03  0.00000000000E+00 0. -1.
         23    2    1    2    0    0  0.16393876266E+02 -0.67176542667E+02 -0.14810594939E+03  0.18623250489E+03  0.89250919140E+02 0.  0.
         24    2    1    2    0    0  0.80947081149E+01  0.73730616495E+02  0.88843353442E+02  0.14159461007E+03  0.81573059540E+02 0.  0.
        -11    1    4    4    0    0 -0.14151865005E+02  0.84240584564E+02  0.65074456745E+02  0.10738452538E+03  0.00000000000E+00 0.  1.
         12    1    4    4    0    0  0.22246573120E+02 -0.10509968069E+02  0.23768896697E+02  0.34210084692E+02  0.00000000000E+00 0. -1.
        -11    1    3    3    0    0  0.31116955647E+02  0.56863164088E+01 -0.18018388769E+02  0.36404140656E+02  0.00000000000E+00 0.  1.
         11    1    3    3    0    0 -0.14723079382E+02 -0.72862859076E+02 -0.13008756062E+03  0.14982836423E+03  0.00000000000E+00 0. -1.
          1    1    1    2  501    0 -0.24488584381E+02 -0.65540738283E+01  0.70390638568E+02  0.74816366169E+02  0.00000000000E+00 0. -1.
<scales pt_clust_5="13000.00000" pt_clust_6="13000.00000" pt_clust_7="13000.00000" pt_clust_8="13000.00000" pt_clust_9="25.35048"></scales>
<clustering>
<clus scale="   25.350">  1  9  2 -1</clus>
<clus scale="   81.573">  5  6 -1 -1</clus>
<clus scale="   89.251">  7  8 -1 -1</clus>
<clus scale="  107.049">  1  5  2 -1</clus>
<clus scale="   25.350">  1  5  2 -1</clus>
</clustering>
</event>
<event>
 9    2  0.7820252E-005  0.1130662E+03  0.7546771E-02  0.1258148E+00
          2   -1    0    0  502    0 -0.00000000000E+00  0.00000000000E+00  0.10589630216E+04  0.10589630216E+04  0.00000000000E+00 0. -1.
         21   -1    0    0  501  502  0.00000000000E+00 -0.00000000000E+00 -0.38777245141E+03  0.38777245141E+03  0.00000000000E+00 0. -1.
         24    2    1    2    0    0 -0.25282338908E+02  0.58256667503E+02  0.91320127739E+03  0.91911346778E+03  0.82461855732E+02 0.  0.
         23    2    1    2    0    0  0.12984539277E+02 -0.11757122294E+03  0.10038572537E+03  0.17990837396E+03  0.91094118580E+02 0.  0.
        -13    1    3    3    0    0 -0.90465112040E+01  0.19936890473E+02  0.46316023827E+02  0.51229806069E+02  0.00000000000E+00 0.  1.
         14    1    3    3    0    0 -0.16235827704E+02  0.38319777029E+02  0.86688525357E+03  0.86788366171E+03  0.00000000000E+00 0. -1.
        -11    1    4    4    0    0 -0.13366478339E+02 -0.11965922533E+03  0.93902207664E+02  0.15269124911E+03  0.00000000000E+00 0.  1.
         11    1    4    4    0    0  0.26351017616E+02  0.20880023939E+01  0.64835177093E+01  0.27217124854E+02  0.00000000000E+00 0. -1.
          1    1    1    2  501    0  0.12297799631E+02  0.59314555438E+02 -0.34239643255E+03  0.34771363129E+03  0.00000000000E+00 0. -1.
<scales pt_clust_5="13000.00000" pt_clust_6="13000.00000" pt_clust_7="13000.00000" pt_clust_8="13000.00000" pt_clust_9="60.57600"></scales>
<clustering>
<clus scale="   60.576">  2  9  1 -1</clus>
<clus scale="   82.462">  5  6 -1 -1</clus>
<clus scale="   91.094">  7  8 -1 -1</clus>
<clus scale="  106.235">  1  5  2 -1</clus>
<clus scale="   60.576">  2  5  1 -1</clus>
</clustering>
</event>
<event>
 9    2  0.7820252E-005  0.2372012E+03  0.7546771E-02  0.1121671E+00
         21   -1    0    0  501  502  0.00000000000E+00  0.00000000000E+00  0.51653609141E+03  0.51653609141E+03  0.00000000000E+00 0.  1.
          2   -1    0    0  502    0 -0.00000000000E+00 -0.00000000000E+00 -0.10631876143E+03  0.10631876143E+03  0.00000000000E+00 0. -1.
         24    2    1    2    0    0  0.35486340939E+02  0.73639615015E+02  0.16055706974E+03  0.19771751973E+03  0.81434462437E+02 0.  0.
         23    2    1    2    0    0  0.14692304589E+02  0.73390106933E+02  0.24208123363E+03  0.26959609341E+03  0.92069312475E+02 0.  0.
        -11    1    3    3    0    0  0.55497765530E+02  0.72680877640E+02  0.10825573535E+03  0.14171032493E+03  0.00000000000E+00 0.  1.
         12    1    3    3    0    0 -0.20011424591E+02  0.95873737537E+00  0.52301334382E+02  0.56007194803E+02  0.00000000000E+00 0. -1.
        -13    1    4    4    0    0 -0.24160301202E+02  0.72770414987E+02  0.18771266830E+03  0.20276907874E+03  0.00000000000E+00 0.  1.
         13    1    4    4    0    0  0.38852605790E+02  0.61969194574E+00  0.54368565326E+02  0.66827014675E+02  0.00000000000E+00 0. -1.
          1    1    1    2  501    0 -0.50178645528E+02 -0.14702972195E+03  0.75790266142E+01  0.15554123970E+03  0.00000000000E+00 0. -1.
<scales pt_clust_5="13000.00000" pt_clust_6="13000.00000" pt_clust_7="13000.00000" pt_clust_8="13000.00000" pt_clust_9="155.35656"></scales>
<clustering>
<clus scale="   81.434">  5  6 -1 -1</clus>
<clus scale="   92.069">  7  8 -1 -1</clus>
<clus scale="  101.448">  5  7 -1 -1</clus>
<clus scale="  155.357">  1  9  2 -1</clus>
<clus scale="  155.357">  1  5  2 -1</clus>
</clustering>
</event>
<event>
 9    2  0.7820252E-005  0.1073105E+03  0.7546771E-02  0.1269331E+00
          2   -1    0    0  502    0 -0.00000000000E+00  0.00000000000E+00  0.80437954656E+03  0.80437954656E+03  0.00000000000E+00 0. -1.
         21   -1    0    0  501  502  0.00000000000E+00 -0.00000000000E+00 -0.19509420728E+02  0.19509420728E+02  0.00000000000E+00 0. -1.
         23    2    1    2    0    0 -0.64147733006E+02  0.14523577977E+02  0.48405828991E+03  0.49681466426E+03  0.90479371284E+02 0.  0.
         24    2    1    2    0    0  0.40343136316E+02 -0.13426379846E+02  0.16235840135E+03  0.18658509984E+03  0.81522467270E+02 0.  0.
        -11    1    4    4    0    0  0.14990143379E+02 -0.23785965375E+02  0.15594121451E+03  0.15845547933E+03  0.00000000000E+00 0.  1.
         12    1    4    4    0    0  0.25352992936E+02  0.10359585529E+02  0.64171868434E+01  0.28129620512E+02  0.00000000000E+00 0. -1.
        -13    1    3    3    0    0 -0.77156680022E+02 -0.15818725958E+02  0.33217096805E+03  0.34138092708E+03  0.00000000000E+00 0. -1.
         13    1    3    3    0    0  0.13008947016E+02  0.30342303935E+02  0.15188732186E+03  0.15543373718E+03  0.00000000000E+00 0.  1.
          1    1    1    2  501    0  0.23804596690E+02 -0.10971981304E+01  0.13845343457E+03  0.14048920319E+03  0.00000000000E+00 0. -1.
<scales pt_clust_5="13000.00000" pt_clust_6="13000.00000" pt_clust_7="13000.00000" pt_clust_8="13000.00000" pt_clust_9="23.82988"></scales>
<clustering>
<clus scale="   23.830">  2  9  1 -1</clus>
<clus scale="   81.522">  5  6 -1 -1</clus>
<clus scale="   90.479">  7  8 -1 -1</clus>
<clus scale="   99.875">  2  5  1 -1</clus>
<clus scale="   23.830">  2  5  1 -1</clus>
</clustering>
</event>
<event>
 9    2  0.7820252E-005  0.9556228E+02  0.7546771E-02  0.1307714E+00
         21   -1    0    0  501  502  0.00000000000E+00  0.00000000000E+00  0.23313860329E+03  0.23313860329E+03  0.00000000000E+00 0. -1.
          2   -1    0    0  502    0 -0.00000000000E+00 -0.00000000000E+00 -0.87243853334E+02  0.87243853334E+02  0.00000000000E+00 0. -1.
         23    2    1    2    0    0 -0.11172499374E+02  0.37198080846E+01 -0.34705493526E+02  0.10223878032E+03  0.95444408986E+02 0.  0.
         24    2    1    2    0    0 -0.86277424016E+01  0.30805368511E+01  0.48825511330E+02  0.84716264202E+02  0.68622060720E+02 0.  0.
        -13    1    4    4    0    0  0.30018273633E+02  0.52622269544E+01  0.23066686369E+02  0.38221195749E+02  0.00000000000E+00 0.  1.
         14    1    4    4    0    0 -0.38646016035E+02 -0.21816901034E+01  0.25758824961E+02  0.46495068453E+02  0.00000000000E+00 0. -1.
        -11    1    3    3    0    0  0.20578908575E+02 -0.38229055400E+02 -0.18456319458E+02  0.47176136795E+02  0.00000000000E+00 0.  1.
         11    1    3    3    0    0 -0.31751407950E+02  0.41948863485E+02 -0.16249174068E+02  0.55062643528E+02  0.00000000000E+00 0. -1.
          1    1    1    2  501    0  0.19800241776E+02 -0.68003449357E+01  0.13177473215E+03  0.13342741210E+03  0.00000000000E+00 0. -1.
<scales pt_clust_5="13000.00000" pt_clust_6="13000.00000" pt_clust_7="13000.00000" pt_clust_8="13000.00000" pt_clust_9="20.93548"></scales>
<clustering>
<clus scale="   20.935">  1  9  2 -1</clus>
<clus scale="   68.622">  5  6 -1 -1</clus>
<clus scale="   68.786">  1  5  2 -1</clus>
<clus scale="   95.444">  7  8 -1 -1</clus>
<clus scale="   20.935">  1  5  2 -1</clus>
</clustering>
</event>
<event>
 9    2  0.7820252E-005  0.9529306E+02  0.7546771E-02  0.1298147E+00
         21   -1    0    0  501  502  0.00000000000E+00  0.00000000000E+00  0.54276564217E+02  0.54276564217E+02  0.00000000000E+00 0. -1.
          2   -1    0    0  502    0 -0.00000000000E+00 -0.00000000000E+00 -0.45775722928E+03  0.45775722928E+03  0.00000000000E+00 0. -1.
         24    2    1    2    0    0 -0.28079506599E+02 -0.11812918781E+02 -0.35778612708E+03  0.36733107341E+03  0.77415767282E+02 0.  0.
         23    2    1    2    0    0  0.18487476596E+02 -0.60697938314E+01  0.20293711398E+01  0.92843584418E+02  0.90758931419E+02 0.  0.
        -13    1    3    3    0    0  0.13823669507E+02 -0.32801481201E+02 -0.17896923684E+03  0.18247470713E+03  0.00000000000E+00 0.  1.
         14    1    3    3    0    0 -0.41903176106E+02  0.20988562420E+02 -0.17881689023E+03  0.18485636628E+03  0.00000000000E+00 0. -1.
        -13    1    4    4    0    0  0.53058378063E+01  0.39487892596E+02  0.16698374134E+02  0.43200477720E+02  0.00000000000E+00 0.  1.
         13    1    4    4    0    0  0.13181638790E+02 -0.45557686427E+02 -0.14669002995E+02  0.49643106698E+02  0.00000000000E+00 0. -1.
          1    1    1    2  501    0  0.95920300029E+01  0.17882712612E+02 -0.47723909126E+02  0.51859135667E+02  0.00000000000E+00 0. -1.
<scales pt_clust_5="13000.00000" pt_clust_6="13000.00000" pt_clust_7="13000.00000" pt_clust_8="13000.00000" pt_clust_9="20.29283"></scales>
<clustering>
<clus scale="   20.293">  1  9  2 -1</clus>
<clus scale="   77.416">  5  6 -1 -1</clus>
<clus scale="   82.685">  2  5  1 -1</clus>
<clus scale="   90.759">  7  8 -1 -1</clus>
<clus scale="   20.293">  1  5  2 -1</clus>
</clustering>
</event>
<event>
 9    2  0.7820252E-005  0.1718134E+03  0.7546771E-02  0.1177750E+00
          2   -1    0    0  502    0 -0.00000000000E+00  0.00000000000E+00  0.11333235880E+04  0.11333235880E+04  0.00000000000E+00 0. -1.
         21   -1    0    0  501  502  0.00000000000E+00 -0.00000000000E+00 -0.50135100804E+02  0.50135100804E+02  0.00000000000E+00 0.  1.
         24    2    1    2    0    0  0.64510149557E+02  0.74926631146E+02  0.23109798231E+03  0.26305685395E+03  0.77569784943E+02 0.  0.
         23    2    1    2    0    0 -0.13268856685E+03 -0.16786416280E+03  0.55713961283E+03  0.60372895931E+03  0.91101455561E+02 0.  0.
        -11    1    3    3    0    0  0.76403330673E+02  0.37809823931E+02  0.17610250427E+03  0.19565056538E+03  0.00000000000E+00 0.  1.
         12    1    3    3    0    0 -0.11893181116E+02  0.37116807216E+02  0.54995478037E+02  0.67406288575E+02  0.00000000000E+00 0. -1.
        -13    1    4    4    0    0 -0.12115633386E+03 -0.13132705725E+03  0.52202852744E+03  0.55176030726E+03  0.00000000000E+00 0.  1.
         13    1    4    4    0    0 -0.11532232986E+02 -0.36537105546E+02  0.35111085384E+02  0.51968652053E+02  0.00000000000E+00 0. -1.
          1    1    1    2  501    0  0.68178417291E+02  0.92937531651E+02  0.29495089209E+03  0.31667287557E+03  0.00000000000E+00 0. -1.
<scales pt_clust_5="13000.00000" pt_clust_6="13000.00000" pt_clust_7="13000.00000" pt_clust_8="13000.00000" pt_clust_9="115.26359"></scales>
<clustering>
<clus scale="   77.570">  5  6 -1 -1</clus>
<clus scale="   91.101">  7  8 -1 -1</clus>
<clus scale="  115.264">  2  9  1 -1</clus>
<clus scale="  165.038">  1  5  2 -1</clus>
<clus scale="  115.264">  2  5  1 -1</clus>
</clustering>
</event>
<event>
 9    2  0.7820252E-005  0.9370633E+02  0.7546771E-02  0.1299845E+00
         21   -1    0    0  501  502  0.00000000000E+00  0.00000000000E+00  0.63592929710E+02  0.63592929710E+02  0.00000000000E+00 0.  1.
          2   -1    0    0  502    0 -0.00000000000E+00 -0.00000000000E+00 -0.39169483459E+03  0.39169483459E+03  0.00000000000E+00 0. -1.
         23    2    1    2    0    0 -0.18400869703E+02 -0.15483764182E+02 -0.17052816673E+03  0.19439421533E+03  0.90171593911E+02 0.  0.
         24    2    1    2    0    0  0.48985120600E+02 -0.27508309096E+02 -0.35512904655E+01  0.98084982979E+02  0.80323116924E+02 0.  0.
        -11    1    4    4    0    0 -0.18423641708E+01 -0.40911105110E+02  0.13015689276E+02  0.42971164685E+02  0.00000000000E+00 0.  1.
         12    1    4    4    0    0  0.50827484771E+02  0.13402796014E+02 -0.16566979741E+02  0.55113818294E+02  0.00000000000E+00 0. -1.
        -11    1    3    3    0    0 -0.35880567942E+02  0.17734934627E+02 -0.14118690428E+03  0.14675041738E+03  0.00000000000E+00 0. -1.
         11    1    3    3    0    0  0.17479698239E+02 -0.33218698809E+02 -0.29341262449E+02  0.47643797951E+02  0.00000000000E+00 0.  1.
          1    1    1    2  501    0 -0.30584250897E+02  0.42992073278E+02 -0.15402244769E+03  0.16280856599E+03  0.00000000000E+00 0. -1.
<scales pt_clust_5="13000.00000" pt_clust_6="13000.00000" pt_clust_7="13000.00000" pt_clust_8="13000.00000" pt_clust_9="52.76095"></scales>
<clustering>
<clus scale="   52.761">  1  9  2 -1</clus>
<clus scale="   80.323">  5  6 -1 -1</clus>
<clus scale="   84.272">  1  5  2 -1</clus>
<clus scale="   90.172">  7  8 -1 -1</clus>
<clus scale="   52.761">  1  5  2 -1</clus>
</clustering>
</event>
<event>
 9    2  0.7820252E-005  0.1006139E+03  0.7546771E-02  0.1294691E+00
          2   -1    0    0  502    0 -0.00000000000E+00  0.00000000000E+00  0.87608193084E+03  0.87608193084E+03  0.00000000000E+00 0. -1.
         21   -1    0    0  501  502  0.00000000000E+00 -0.00000000000E+00 -0.49892783018E+02  0.49892783018E+02  0.00000000000E+00 0. -1.
         24    2    1    2    0    0 -0.82042979603E+00  0.15035797118E+02  0.79125609451E+03  0.79481336767E+03  0.73588953181E+02 0.  0.
         23    2    1    2    0    0 -0.25857554054E+01  0.10744390285E+02  0.25009357219E+02  0.10332791478E+03  0.99644678582E+02 0.  0.
        -11    1    3    3    0    0  0.11506165847E+02 -0.23629017664E+02  0.15081831712E+03  0.15309110721E+03  0.00000000000E+00 0.  1.
         12    1    3    3    0    0 -0.12326595643E+02  0.38664814781E+02  0.64043777739E+03  0.64172226046E+03  0.00000000000E+00 0. -1.
        -11    1    4    4    0    0  0.25542921144E+02 -0.13766634027E+02 -0.26788747479E+02  0.39491746284E+02  0.00000000000E+00 0.  1.
         11    1    4    4    0    0 -0.28128676550E+02  0.24511024312E+02  0.51798104699E+02  0.63836168491E+02  0.00000000000E+00 0. -1.
          1    1    1    2  501    0  0.34061852014E+01 -0.25780187403E+02  0.99236960978E+01  0.27833431416E+02  0.00000000000E+00 0. -1.
<scales pt_clust_5="13000.00000" pt_clust_6="13000.00000" pt_clust_7="13000.00000" pt_clust_8="13000.00000" pt_clust_9="26.00423"></scales>
<clustering>
<clus scale="   26.004">  2  9  1 -1</clus>
<clus scale="   73.589">  5  6 -1 -1</clus>
<clus scale="   74.896">  1  5  2 -1</clus>
<clus scale="   99.645">  7  8 -1 -1</clus>
<clus scale="   26.004">  2  5  1 -1</clus>
</clustering>
</event>
<event>
 9    2  0.7820252E-005  0.2126770E+03  0.7546771E-02  0.1158138E+00
         21   -1    0    0  501  502  0.00000000000E+00  0.00000000000E+00  0.75585881838E+02  0.75585881838E+02  0.00000000000E+00 0. -1.
          2   -1    0    0  502    0 -0.00000000000E+00 -0.00000000000E+00 -0.12854096605E+04  0.12854096605E+04  0.00000000000E+00 0. -1.
         24    2    1    2    0    0  0.78584205599E+02 -0.77173728758E+02 -0.10209964760E+03  0.17046080776E+03  0.80630559719E+02 0.  0.
         23    2    1    2    0    0 -0.12453715749E+03 -0.13271072712E+03 -0.72240272214E+03  0.74935931961E+03  0.80944772748E+02 0.  0.
        -13    1    3    3    0    0  0.44485529429E+02  0.48542074936E+01 -0.51506521934E+02  0.68230839513E+02  0.00000000000E+00 0.  1.
         14    1    3    3    0    0  0.34098676170E+02 -0.82027936251E+02 -0.50593125667E+02  0.10222996824E+03  0.00000000000E+00 0. -1.
        -11    1    4    4    0    0 -0.12619865946E+03 -0.87982837990E+02 -0.58239770770E+03  0.60237378044E+03  0.00000000000E+00 0. -1.
         11    1    4    4    0    0  0.16615019694E+01 -0.44727889126E+02 -0.14000501445E+03  0.14698553917E+03  0.00000000000E+00 0.  1.
          1    1    1    2  501    0  0.45952951887E+02  0.20988445587E+03 -0.38532140889E+03  0.44117541495E+03  0.00000000000E+00 0. -1.
<scales pt_clust_5="13000.00000" pt_clust_6="13000.00000" pt_clust_7="13000.00000" pt_clust_8="13000.00000" pt_clust_9="196.67089"></scales>
<clustering>
<clus scale="   80.631">  5  6 -1 -1</clus>
<clus scale="   80.945">  7  8 -1 -1</clus>
<clus scale="  136.501">  2  5  1 -1</clus>
<clus scale="  196.671">  1  9  2 -1</clus>
<clus scale="  196.671">  1  5  2 -1</clus>
</clustering>
</event>
<event>
 9    2  0.7820252E-005  0.9722884E+02  0.7546771E-02  0.1292004E+00
         21   -1    0    0  501  502  0.00000000000E+00  0.00000000000E+00  0.71493627655E+02  0.71493627655E+02  0.00000000000E+00 0.  1.
         -1   -1    0    0    0  501 -0.00000000000E+00 -0.00000000000E+00 -0.22497685273E+03  0.22497685273E+03  0.00000000000E+00 0.  1.
         24    2    1    2    0    0  0.27927494090E+02  0.77069054608E+01 -0.13906955524E+03  0.16331765248E+03  0.80578986704E+02 0.  0.
         23    2    1    2    0    0 -0.45618245141E+02 -0.27198272679E+02 -0.71827728514E+01  0.10585517343E+03  0.91285021712E+02 0.  0.
        -13    1    3    3    0    0  0.45311347583E+02  0.22375541168E+02 -0.48889658905E+02  0.70313453977E+02  0.00000000000E+00 0.  1.
         14    1    3    3    0    0 -0.17383853493E+02 -0.14668635707E+02 -0.90179896335E+02  0.93004198501E+02  0.00000000000E+00 0. -1.
        -13    1    4    4    0    0  0.15366883011E+02 -0.40355011919E+02 -0.14847016997E+01  0.43207319051E+02  0.00000000000E+00 0.  1.
         13    1    4    4    0    0 -0.60985128152E+02  0.13156739240E+02 -0.56980711517E+01  0.62647854376E+02  0.00000000000E+00 0. -1.
         -2    1    1    2    0  502  0.17690751051E+02  0.19491367218E+02 -0.72308969805E+01  0.27297654477E+02  0.00000000000E+00 0.  1.
<scales pt_clust_5="13000.00000" pt_clust_6="13000.00000" pt_clust_7="13000.00000" pt_clust_8="13000.00000" pt_clust_9="26.32254"></scales>
<clustering>
<clus scale="   26.323">  1  9  2 -1</clus>
<clus scale="   80.579">  5  6 -1 -1</clus>
<clus scale="   87.255">  2  5  1 -1</clus>
<clus scale="   91.285">  7  8 -1 -1</clus>
<clus scale="   26.323">  1  5  2 -1</clus>
</clustering>
</event>
<event>
 9    2  0.7820252E-005  0.9955248E+02  0.7546771E-02  0.1288062E+00
          2   -1    0    0  502    0 -0.00000000000E+00  0.00000000000E+00  0.41417092770E+03  0.41417092770E+03  0.00000000000E+00 0. -1.
         21   -1    0    0  501  502  0.00000000000E+00 -0.00000000000E+00 -0.10004163912E+03  0.10004163912E+03  0.00000000000E+00 0. -1.
         24    2    1    2    0    0 -0.34699504052E+02  0.13167145460E+02  0.34387475580E+03  0.35514080270E+03  0.80608391417E+02 0.  0.
         23    2    1    2    0    0 -0.84674223456E+01 -0.36787329928E+02  0.13230410032E+01  0.10087770211E+03  0.93539058484E+02 0.  0.
        -11    1    3    3    0    0  0.14722190337E+02  0.14877079860E+02  0.25692764144E+02  0.33138927606E+02  0.00000000000E+00 0.  1.
         12    1    3    3    0    0 -0.49421694389E+02 -0.17099344001E+01  0.31818199166E+03  0.32200187510E+03  0.00000000000E+00 0. -1.
        -11    1    4    4    0    0  0.28837366052E+02 -0.34617785899E+02  0.29693753516E+02  0.53960205515E+02  0.00000000000E+00 0.  1.
         11    1    4    4    0    0 -0.37304788398E+02 -0.21695440288E+01 -0.28370712513E+02  0.46917496600E+02  0.00000000000E+00 0. -1.
          1    1    1    2  501    0  0.43166926398E+02  0.23620184468E+02 -0.31068508230E+02  0.58194062004E+02  0.00000000000E+00 0. -1.
<scales pt_clust_5="13000.00000" pt_clust_6="13000.00000" pt_clust_7="13000.00000" pt_clust_8="13000.00000" pt_clust_9="49.20667"></scales>
<clustering>
<clus scale="   49.207">  2  9  1 -1</clus>
<clus scale="   80.608">  5  6 -1 -1</clus>
<clus scale="   87.515">  1  5  2 -1</clus>
<clus scale="   93.539">  7  8 -1 -1</clus>
<clus scale="   49.207">  2  5  1 -1</clus>
</clustering>
</event>
<event>
 9    2  0.7820252E-005  0.2275163E+03  0.7546771E-02  0.1136653E+00
         21   -1    0    0  501  502  0.00000000000E+00  0.00000000000E+00  0.15540452921E+03  0.15540452921E+03  0.00000000000E+00 0.  1.
          2   -1    0    0  502    0 -0.00000000000E+00 -0.00000000000E+00 -0.12445198890E+04  0.12445198890E+04  0.00000000000E+00 0. -1.
         24    2    1    2    0    0  0.11873983619E+03  0.11831623043E+03 -0.37115076090E+03  0.41512613424E+03  0.80491868714E+02 0.  0.
         23    2    1    2    0    0  0.18461564378E+03 -0.69499232765E+02 -0.15892743303E+02  0.21843509534E+03  0.92456650931E+02 0.  0.
        -13    1    3    3    0    0  0.75773036022E+02  0.28612363776E+02 -0.11787193241E+03  0.14301752619E+03  0.00000000000E+00 0.  1.
         14    1    3    3    0    0  0.42966800166E+02  0.89703866659E+02 -0.25327882849E+03  0.27210860805E+03  0.00000000000E+00 0. -1.
        -13    1    4    4    0    0  0.96298406660E+02 -0.72457778060E+02 -0.39758020238E+02  0.12690237547E+03  0.00000000000E+00 0.  1.
         13    1    4    4    0    0  0.88317237120E+02  0.29585452955E+01  0.23865276935E+02  0.91532719865E+02  0.00000000000E+00 0. -1.
          1    1    1    2  501    0 -0.30335547997E+03 -0.48816997669E+02 -0.70207185554E+03  0.76636318859E+03  0.00000000000E+00 0. -1.
<scales pt_clust_5="13000.00000" pt_clust_6="13000.00000" pt_clust_7="13000.00000" pt_clust_8="13000.00000" pt_clust_9="207.88332"></scales>
<clustering>
<clus scale="   80.492">  5  6 -1 -1</clus>
<clus scale="   92.457">  7  8 -1 -1</clus>
<clus scale="  185.948">  2  5  1 -1</clus>
<clus scale="  207.883">  1  9  2 -1</clus>
<clus scale="  207.883">  1  5  2 -1</clus>
</clustering>
</event>
<event>
 9    2  0.7820252E-005  0.4007261E+03  0.7546771E-02  0.1102076E+00
         21   -1    0    0  501  502  0.00000000000E+00  0.00000000000E+00  0.64267359617E+03  0.64267359617E+03  0.00000000000E+00 0. -1.
          2   -1    0    0  502    0 -0.00000000000E+00 -0.00000000000E+00 -0.57532913298E+03  0.57532913298E+03  0.00000000000E+00 0. -1.
         24    2    1    2    0    0 -0.20925221532E+01  0.49741776896E+01  0.67647188531E+02  0.10545843825E+03  0.80723100719E+02 0.  0.
         23    2    1    2    0    0  0.37729995535E+03  0.10278073661E+03 -0.39097207783E+03  0.56026330946E+03  0.90092586620E+02 0.  0.
        -11    1    3    3    0    0 -0.18420095757E+02  0.37774250157E+02  0.48302402023E+02  0.64025900570E+02  0.00000000000E+00 0.  1.
         12    1    3    3    0    0  0.16327573604E+02 -0.32800072468E+02  0.19344786508E+02  0.41432537681E+02  0.00000000000E+00 0. -1.
        -11    1    4    4    0    0  0.20249237908E+03  0.99637480683E+01 -0.18208415279E+03  0.27250152029E+03  0.00000000000E+00 0.  1.
         11    1    4    4    0    0  0.17480757626E+03  0.92816988538E+02 -0.20888792504E+03  0.28776178917E+03  0.00000000000E+00 0. -1.
          1    1    1    2  501    0 -0.37520743319E+03 -0.10775491430E+03  0.39066935249E+03  0.55228098143E+03  0.00000000000E+00 0. -1.
<scales pt_clust_5="13000.00000" pt_clust_6="13000.00000" pt_clust_7="13000.00000" pt_clust_8="13000.00000" pt_clust_9="390.46730"></scales>
<clustering>
<clus scale="   80.723">  5  6 -1 -1</clus>
<clus scale="   80.903">  2  5  1 -1</clus>
<clus scale="   90.093">  7  8 -1 -1</clus>
<clus scale="  390.467">  1  9  2 -1</clus>
<clus scale="  390.467">  1  5  2 -1</clus>
</clustering>
</event>
<event>
 9    2  0.7820252E-005  0.1027610E+03  0.7546771E-02  0.1275987E+00
         21   -1    0    0  501  502  0.00000000000E+00  0.00000000000E+00  0.37630917270E+02  0.37630917270E+02  0.00000000000E+00 0.  1.
          2   -1    0    0  502    0 -0.00000000000E+00 -0.00000000000E+00 -0.12577888679E+04  0.12577888679E+04  0.00000000000E+00 0. -1.
         24    2    1    2    0    0 -0.55039024357E+02 -0.10655380594E+02 -0.97366318225E+03  0.97901900061E+03  0.85529993350E+02 0.  0.
         23    2    1    2    0    0  0.22321547255E+02 -0.63154585177E+02 -0.10183528195E+03  0.15073633040E+03  0.88680683084E+02 0.  0.
        -13    1    3    3    0    0 -0.52038787099E+02  0.16632015030E+02 -0.30922407045E+03  0.31401303322E+03  0.00000000000E+00 0.  1.
         14    1    3    3    0    0 -0.30002372572E+01 -0.27287395624E+02 -0.66443911179E+03  0.66500596739E+03  0.00000000000E+00 0. -1.
        -13    1    4    4    0    0  0.31090431749E+02 -0.10504325172E+02  0.31438280129E+01  0.32967248114E+02  0.00000000000E+00 0.  1.
         13    1    4    4    0    0 -0.87688844938E+01 -0.52650260005E+02 -0.10497910997E+03  0.11776908229E+03  0.00000000000E+00 0. -1.
          1    1    1    2  501    0  0.32717477102E+02  0.73809965771E+02 -0.14465948642E+03  0.16566445414E+03  0.00000000000E+00 0. -1.
<scales pt_clust_5="13000.00000" pt_clust_6="13000.00000" pt_clust_7="13000.00000" pt_clust_8="13000.00000" pt_clust_9="80.73626"></scales>
<clustering>
<clus scale="   80.736">  1  9  2 -1</clus>
<clus scale="   85.530">  5  6 -1 -1</clus>
<clus scale="   88.681">  7  8 -1 -1</clus>
<clus scale="  100.055">  2  5  1 -1</clus>
<clus scale="   80.736">  1  5  2 -1</clus>
</clustering>
</event>
<event>
 9    2  0.7820252E-005  0.9046984E+02  0.7546771E-02  0.1305860E+00
          2   -1    0    0  502    0 -0.00000000000E+00  0.00000000000E+00  0.43065234940E+03  0.43065234940E+03  0.00000000000E+00 0. -1.
         21   -1    0    0  501  502  0.00000000000E+00 -0.00000000000E+00 -0.37271211440E+02  0.37271211440E+02  0.00000000000E+00 0. -1.
         24    2    1    2    0    0  0.96524592179E+01  0.15558959044E+01  0.14133604503E+03  0.16451544496E+03  0.83629320378E+02 0.  0.
         23    2    1    2    0    0  0.28614680187E+02 -0.13150210650E+02  0.73895573202E+02  0.12082648078E+03  0.90259374898E+02 0.  0.
        -11    1    3    3    0    0 -0.32364068045E+02  0.10475807386E+02  0.96969701840E+02  0.10276331308E+03  0.00000000000E+00 0.  1.
         12    1    3    3    0    0  0.42016527263E+02 -0.89199114814E+01  0.44366343186E+02  0.61752131881E+02  0.00000000000E+00 0. -1.
        -13    1    4    4    0    0  0.55673204386E+02 -0.29890089633E+02  0.55317121228E+02  0.83981587541E+02  0.00000000000E+00 0.  1.
         13    1    4    4    0    0 -0.27058524200E+02  0.16739878983E+02  0.18578451973E+02  0.36844893241E+02  0.00000000000E+00 0. -1.
          1    1    1    2  501    0 -0.38267139405E+02  0.11594314746E+02  0.17814951973E+03  0.18258163509E+03  0.00000000000E+00 0. -1.
<scales pt_clust_5="13000.00000" pt_clust_6="13000.00000" pt_clust_7="13000.00000" pt_clust_8="13000.00000" pt_clust_9="39.98504"></scales>
<clustering>
<clus scale="   39.985">  2  9  1 -1</clus>
<clus scale="   83.629">  5  6 -1 -1</clus>
<clus scale="   83.856">  1  5  2 -1</clus>
<clus scale="   90.259">  7  8 -1 -1</clus>
<clus scale="   39.985">  2  5  1 -1</clus>
</clustering>
</event>
<event>
 9    2  0.7820252E-005  0.2541366E+03  0.7546771E-02  0.1131693E+00
         -1   -1    0    0    0  501 -0.00000000000E+00  0.00000000000E+00  0.24817890400E+03  0.24817890400E+03  0.00000000000E+00 0.  1.
         21   -1    0    0  501  502  0.00000000000E+00 -0.00000000000E+00 -0.90362398033E+03  0.90362398033E+03  0.00000000000E+00 0.  1.
         24    2    1    2    0    0  0.44726938495E+02 -0.11160568804E+03 -0.14398327523E+03  0.20833142727E+03  0.90633721156E+02 0.  0.
         23    2    1    2    0    0 -0.19478082029E+03 -0.13448005426E+03 -0.59306438160E+03  0.64391621816E+03  0.82935410660E+02 0.  0.
        -11    1    3    3    0    0 -0.19001735094E+02 -0.71753845765E+02 -0.58544457599E+02  0.94536415387E+02  0.00000000000E+00 0.  1.
         12    1    3    3    0    0  0.63728673589E+02 -0.39851842271E+02 -0.85438817633E+02  0.11379501188E+03  0.00000000000E+00 0. -1.
        -11    1    4    4    0    0 -0.84788942019E+02 -0.14072326040E+02 -0.16962704834E+03  0.19015922428E+03  0.00000000000E+00 0. -1.
         11    1    4    4    0    0 -0.10999187827E+03 -0.12040772822E+03 -0.42343733326E+03  0.45375699388E+03  0.00000000000E+00 0.  1.
         -2    1    1    2    0  502  0.15005388180E+03  0.24608574230E+03  0.81602580504E+02  0.29955523890E+03  0.00000000000E+00 0.  1.
<scales pt_clust_5="13000.00000" pt_clust_6="13000.00000" pt_clust_7="13000.00000" pt_clust_8="13000.00000" pt_clust_9="240.22323"></scales>
<clustering>
<clus scale="   82.935">  7  8 -1 -1</clus>
<clus scale="   90.634">  5  6 -1 -1</clus>
<clus scale="  150.568">  1  5  2 -1</clus>
<clus scale="  240.223">  2  9  1 -1</clus>
<clus scale="  240.223">  2  5  1 -1</clus>
</clustering>
</event>
<event>
 9    2  0.7820252E-005  0.1452375E+03  0.7546771E-02  0.1220441E+00
          2   -1    0    0  502    0 -0.00000000000E+00  0.00000000000E+00  0.82810619668E+03  0.82810619668E+03  0.00000000000E+00 0. -1.
         21   -1    0    0  501  502  0.00000000000E+00 -0.00000000000E+00 -0.68675218185E+02  0.68675218185E+02  0.00000000000E+00 0. -1.
         24    2    1    2    0    0  0.33875870415E+02 -0.66432203164E+02  0.53065006481E+03  0.54151171380E+03  0.78004055574E+02 0.  0.
         23    2    1    2    0    0  0.94237673507E+02  0.11332485155E+02  0.10791557143E+03  0.17072298606E+03  0.92148809460E+02 0.  0.
        -11    1    3    3    0    0  0.34944937216E+02  0.98559904847E+00  0.10799824499E+03  0.11351537765E+03  0.00000000000E+00 0.  1.
         12    1    3    3    0    0 -0.10690668006E+01 -0.67417802213E+02  0.42265181982E+03  0.42799633615E+03  0.00000000000E+00 0. -1.
        -13    1    4    4    0    0  0.44315202202E+02  0.32607830889E+02  0.61102556458E+01  0.55357411478E+02  0.00000000000E+00 0. -1.
         13    1    4    4    0    0  0.49922471305E+02 -0.21275345734E+02  0.10180531578E+03  0.11536557458E+03  0.00000000000E+00 0.  1.
          1    1    1    2  501    0 -0.12811354392E+03  0.55099718009E+02  0.12086534226E+03  0.18454671501E+03  0.00000000000E+00 0. -1.
<scales pt_clust_5="13000.00000" pt_clust_6="13000.00000" pt_clust_7="13000.00000" pt_clust_8="13000.00000" pt_clust_9="112.26110"></scales>
<clustering>
<clus scale="   78.004">  5  6 -1 -1</clus>
<clus scale="   92.149">  7  8 -1 -1</clus>
<clus scale="  107.914">  1  5  2 -1</clus>
<clus scale="  112.261">  2  9  1 -1</clus>
<clus scale="  112.261">  2  5  1 -1</clus>
</clustering>
</event>
<event>
 9    2  0.7820252E-005  0.1735738E+03  0.7546771E-02  0.1207832E+00
         21   -1    0    0  501  502  0.00000000000E+00  0.00000000000E+00  0.47284424242E+03  0.47284424242E+03  0.00000000000E+00 0.  1.
          2   -1    0    0  502    0 -0.00000000000E+00 -0.00000000000E+00 -0.97578477780E+02  0.97578477780E+02  0.00000000000E+00 0. -1.
         24    2    1    2    0    0 -0.95671512865E+01  0.14830345594E+01  0.15800435562E+03  0.17829253993E+03  0.82031235652E+02 0.  0.
         23    2    1    2    0    0 -0.13058526520E+02  0.14637355344E+03  0.14763122140E+03  0.22713971104E+03  0.90563395137E+02 0.  0.
        -13    1    3    3    0    0  0.58298972532E+01 -0.30417194920E+02  0.12853926574E+03  0.13221776086E+03  0.00000000000E+00 0.  1.
         14    1    3    3    0    0 -0.15397048540E+02  0.31900229479E+02  0.29465089879E+02  0.46074779068E+02  0.00000000000E+00 0. -1.
        -11    1    4    4    0    0  0.20886974437E+02  0.13522603672E+03  0.11459060108E+03  0.17847507547E+03  0.00000000000E+00 0.  1.
         11    1    4    4    0    0 -0.33945500957E+02  0.11147516719E+02  0.33040620314E+02  0.48664635568E+02  0.00000000000E+00 0. -1.
          1    1    1    2  501    0  0.22625677807E+02 -0.14785658800E+03  0.69630187619E+02  0.16499046923E+03  0.00000000000E+00 0. -1.
<scales pt_clust_5="13000.00000" pt_clust_6="13000.00000" pt_clust_7="13000.00000" pt_clust_8="13000.00000" pt_clust_9="148.07480"></scales>
<clustering>
<clus scale="   82.031">  5  6 -1 -1</clus>
<clus scale="   82.601">  2  5  1 -1</clus>
<clus scale="   90.563">  7  8 -1 -1</clus>
<clus scale="  148.075">  1  9  2 -1</clus>
<clus scale="  148.075">  1  5  2 -1</clus>
</clustering>
</event>
<event>
 9    2  0.7820252E-005  0.9929546E+02  0.7546771E-02  0.1288163E+00
          2   -1    0    0  502    0 -0.00000000000E+00  0.00000000000E+00  0.42497545616E+03  0.42497545616E+03  0.00000000000E+00 0. -1.
         21   -1    0    0  501  502  0.00000000000E+00 -0.00000000000E+00 -0.31689733477E+02  0.31689733477E+02  0.00000000000E+00 0. -1.
         23    2    1    2    0    0  0.15597087755E+02  0.50895530274E+02  0.25606744859E+03  0.27676496064E+03  0.90524477699E+02 0.  0.
         24    2    1    2    0    0 -0.11451102953E+02 -0.17858508505E+02  0.80184267565E+02  0.11385848539E+03  0.78001178494E+02 0.  0.
        -13    1    4    4    0    0 -0.27172189511E+02 -0.41231344088E+02  0.65690468844E+02  0.82180224598E+02  0.00000000000E+00 0.  1.
         14    1    4    4    0    0  0.15721086558E+02  0.23372835582E+02  0.14493798721E+02  0.31678260796E+02  0.00000000000E+00 0. -1.
        -13    1    3    3    0    0 -0.11055710979E+02  0.66539557915E+02  0.12430382898E+03  0.14142554017E+03  0.00000000000E+00 0.  1.
         13    1    3    3    0    0  0.26652798733E+02 -0.15644027641E+02  0.13176361961E+03  0.13533942047E+03  0.00000000000E+00 0. -1.
          1    1    1    2  501    0 -0.41459848011E+01 -0.33037021769E+02  0.57034006522E+02  0.66041743597E+02  0.00000000000E+00 0. -1.
<scales pt_clust_5="13000.00000" pt_clust_6="13000.00000" pt_clust_7="13000.00000" pt_clust_8="13000.00000" pt_clust_9="33.29617"></scales>
<clustering>
<clus scale="   33.296">  2  9  1 -1</clus>
<clus scale="   78.001">  5  6 -1 -1</clus>
<clus scale="   88.029">  2  5  1 -1</clus>
<clus scale="   90.524">  7  8 -1 -1</clus>
<clus scale="   33.296">  2  5  1 -1</clus>
</clustering>
</event>
<event>
 9    2  0.7820252E-005  0.1175546E+03  0.7546771E-02  0.1260407E+00
         21   -1    0    0  501  502  0.00000000000E+00  0.00000000000E+00  0.97319171692E+02  0.97319171692E+02  0.00000000000E+00 0.  1.
         -3   -1    0    0    0  501 -0.00000000000E+00 -0.00000000000E+00 -0.19768903441E+03  0.19768903441E+03  0.00000000000E+00 0.  1.
         24    2    1    2    0    0  0.25313886150E+02 -0.35048628487E+02 -0.93129098452E+02  0.13050216092E+03  0.80551758739E+02 0.  0.
         23    2    1    2    0    0  0.12121229580E+02  0.45439858629E+02  0.13396019455E+02  0.12051465516E+03  0.11014819024E+03 0.  0.
        -11    1    3    3    0    0  0.44436183074E+02 -0.13498124980E+02 -0.17599539562E+02  0.49664046723E+02  0.00000000000E+00 0.  1.
         12    1    3    3    0    0 -0.19122296924E+02 -0.21550503507E+02 -0.75529558890E+02  0.80838114199E+02  0.00000000000E+00 0. -1.
        -13    1    4    4    0    0  0.37015963572E+02  0.55251271928E+02 -0.27233837394E+02  0.71864918479E+02  0.00000000000E+00 0.  1.
         13    1    4    4    0    0 -0.24894733992E+02 -0.98114132986E+01  0.40629856849E+02  0.48649736680E+02  0.00000000000E+00 0. -1.
         -4    1    1    2    0  502 -0.37435115730E+02 -0.10391230142E+02 -0.20636783721E+02  0.43991390020E+02  0.00000000000E+00 0.  1.
<scales pt_clust_5="13000.00000" pt_clust_6="13000.00000" pt_clust_7="13000.00000" pt_clust_8="13000.00000" pt_clust_9="38.85057"></scales>
<clustering>
<clus scale="   38.851">  1  9  2 -1</clus>
<clus scale="   80.552">  5  6 -1 -1</clus>
<clus scale="   90.416">  2  5  1 -1</clus>
<clus scale="  110.148">  7  8 -1 -1</clus>
<clus scale="   38.851">  1  5  2 -1</clus>
</clustering>
</event>
<event>
 9    2  0.7820252E-005  0.9554550E+02  0.7546771E-02  0.1292228E+00
         21   -1    0    0  501  502  0.00000000000E+00  0.00000000000E+00  0.13908785755E+03  0.13908785755E+03  0.00000000000E+00 0.  1.
          2   -1    0    0  502    0 -0.00000000000E+00 -0.00000000000E+00 -0.15429118759E+03  0.15429118759E+03  0.00000000000E+00 0. -1.
         23    2    1    2    0    0 -0.16858801645E+02  0.67953773670E+02 -0.60294875851E+02  0.12682008798E+03  0.86867301744E+02 0.  0.
         24    2    1    2    0    0 -0.24333595966E+01 -0.61839968860E+01 -0.76329346257E+01  0.83087023868E+02  0.82468350219E+02 0.  0.
        -11    1    4    4    0    0 -0.12678781759E+02 -0.32793870323E+02  0.22388408920E+02  0.41682493827E+02  0.00000000000E+00 0.  1.
         12    1    4    4    0    0  0.10245422162E+02  0.26609873437E+02 -0.30021343546E+02  0.41404530041E+02  0.00000000000E+00 0. -1.
        -11    1    3    3    0    0  0.29516955635E+02  0.54235784487E+02 -0.43868672514E+02  0.75744514105E+02  0.00000000000E+00 0.  1.
         11    1    3    3    0    0 -0.46375757280E+02  0.13717989183E+02 -0.16426203337E+02  0.51075573874E+02  0.00000000000E+00 0. -1.
          1    1    1    2  501    0  0.19292161241E+02 -0.61769776784E+02  0.52724480446E+02  0.83471933292E+02  0.00000000000E+00 0. -1.
<scales pt_clust_5="13000.00000" pt_clust_6="13000.00000" pt_clust_7="13000.00000" pt_clust_8="13000.00000" pt_clust_9="64.71239"></scales>
<clustering>
<clus scale="   64.712">  1  9  2 -1</clus>
<clus scale="   82.468">  5  6 -1 -1</clus>
<clus scale="   86.867">  7  8 -1 -1</clus>
<clus scale="   91.564">  1  5  2 -1</clus>
<clus scale="   64.712">  1  5  2 -1</clus>
</clustering>
</event>
<event>
 9    2  0.7820252E-005  0.9528358E+02  0.7546771E-02  0.1300826E+00
         21   -1    0    0  501  502  0.00000000000E+00  0.00000000000E+00  0.50889615540E+02  0.50889615540E+02  0.00000000000E+00 0.  1.
          2   -1    0    0  502    0 -0.00000000000E+00 -0.00000000000E+00 -0.39856534696E+03  0.39856534696E+03  0.00000000000E+00 0. -1.
         24    2    1    2    0    0  0.18870021353E+02  0.26717100590E+02 -0.25241980409E+03  0.26503473434E+03  0.73876733413E+02 0.  0.
         23    2    1    2    0    0  0.13884317417E+01 -0.16489852192E+02 -0.11943745227E+03  0.15125778434E+03  0.91322337637E+02 0.  0.
        -11    1    3    3    0    0 -0.21605052767E+02 -0.98717135689E+01 -0.49448445472E+02  0.54857796104E+02  0.00000000000E+00 0.  1.
         12    1    3    3    0    0  0.40475074120E+02  0.36588814159E+02 -0.20297135862E+03  0.21017693824E+03  0.00000000000E+00 0. -1.
        -13    1    4    4    0    0 -0.24014912277E+02  0.26201054308E+02 -0.80972793675E+02  0.88429658905E+02  0.00000000000E+00 0. -1.
         13    1    4    4    0    0  0.25403344019E+02 -0.42690906501E+02 -0.38464658595E+02  0.62828125438E+02  0.00000000000E+00 0.  1.
          1    1    1    2  501    0 -0.20258453094E+02 -0.10227248397E+02  0.24181524940E+02  0.33162443818E+02  0.00000000000E+00 0. -1.
<scales pt_clust_5="13000.00000" pt_clust_6="13000.00000" pt_clust_7="13000.00000" pt_clust_8="13000.00000" pt_clust_9="22.69365"></scales>
<clustering>
<clus scale="   22.694">  1  9  2 -1</clus>
<clus scale="   73.877">  5  6 -1 -1</clus>
<clus scale="   78.721">  2  5  1 -1</clus>
<clus scale="   91.322">  7  8 -1 -1</clus>
<clus scale="   22.694">  1  5  2 -1</clus>
</clustering>
</event>
<event>
 9    2  0.7820252E-005  0.2485964E+03  0.7546771E-02  0.1114765E+00
          2   -1    0    0  502    0 -0.00000000000E+00  0.00000000000E+00  0.60966890404E+03  0.60966890404E+03  0.00000000000E+00 0. -1.
         21   -1    0    0  501  502  0.00000000000E+00 -0.00000000000E+00 -0.15425837258E+03  0.15425837258E+03  0.00000000000E+00 0.  1.
         24    2    1    2    0    0 -0.29445246292E+01 -0.23195481329E+03  0.43242113770E+03  0.49763857878E+03  0.82730944201E+02 0.  0.
         23    2    1    2    0    0  0.22257495800E+02  0.22565532391E+03  0.21264603102E+02  0.24590121822E+03  0.92733513093E+02 0.  0.
        -13    1    3    3    0    0  0.25678115449E+02 -0.20521312844E+02  0.54322998822E+02  0.63493921716E+02  0.00000000000E+00 0.  1.
         14    1    3    3    0    0 -0.28622640078E+02 -0.21143350044E+03  0.37809813888E+03  0.43414465707E+03  0.00000000000E+00 0. -1.
        -11    1    4    4    0    0  0.12571745798E+02  0.96480886890E+02  0.55371628794E+02  0.11194921886E+03  0.00000000000E+00 0. -1.
         11    1    4    4    0    0  0.96857500020E+01  0.12917443702E+03 -0.34107025692E+02  0.13395199937E+03  0.00000000000E+00 0.  1.
          1    1    1    2  501    0 -0.19312971171E+02  0.62994893763E+01  0.17247906556E+01  0.20387479605E+02  0.00000000000E+00 0. -1.
<scales pt_clust_5="13000.00000" pt_clust_6="13000.00000" pt_clust_7="13000.00000" pt_clust_8="13000.00000" pt_clust_9="20.31439"></scales>
<clustering>
<clus scale="   20.314">  2  9  1 -1</clus>
<clus scale="   82.731">  5  6 -1 -1</clus>
<clus scale="   92.734">  7  8 -1 -1</clus>
<clus scale="  245.041">  1  5  2 -1</clus>
<clus scale="   20.314">  2  5  1 -1</clus>
</clustering>
</event>
<event>
 9    2  0.7820252E-005  0.9590233E+02  0.7546771E-02  0.1303292E+00
          4   -1    0    0  502    0 -0.00000000000E+00  0.00000000000E+00  0.35360236015E+03  0.35360236015E+03  0.00000000000E+00 0. -1.
         21   -1    0    0  501  502  0.00000000000E+00 -0.00000000000E+00 -0.38385390762E+02  0.38385390762E+02  0.00000000000E+00 0. -1.
         24    2    1    2    0    0 -0.24016073659E+02  0.80139345421E+01  0.14571917417E+03  0.16385335090E+03  0.70518422688E+02 0.  0.
         23    2    1    2    0    0  0.13191085119E+02  0.98268755917E+01  0.50761271979E+02  0.10757803629E+03  0.93411749523E+02 0.  0.
        -13    1    3    3    0    0  0.22816230823E+02 -0.39429582350E+01  0.72597580617E+02  0.76200630051E+02  0.00000000000E+00 0.  1.
         14    1    3    3    0    0 -0.46832304482E+02  0.11956892777E+02  0.73121593551E+02  0.87652720845E+02  0.00000000000E+00 0. -1.
        -13    1    4    4    0    0 -0.16807897577E+02 -0.35812414627E+02  0.27694226487E+02  0.48290833945E+02  0.00000000000E+00 0.  1.
         13    1    4    4    0    0  0.29998982696E+02  0.45639290218E+02  0.23067045492E+02  0.59287202347E+02  0.00000000000E+00 0. -1.
          3    1    1    2  501    0  0.10824988540E+02 -0.17840810134E+02  0.11873652324E+03  0.12055636372E+03  0.00000000000E+00 0. -1.
<scales pt_clust_5="13000.00000" pt_clust_6="13000.00000" pt_clust_7="13000.00000" pt_clust_8="13000.00000" pt_clust_9="20.86805"></scales>
<clustering>
<clus scale="   20.868">  2  9  1 -1</clus>
<clus scale="   70.518">  5  6 -1 -1</clus>
<clus scale="   73.786">  1  5  2 -1</clus>
<clus scale="   93.412">  7  8 -1 -1</clus>
<clus scale="   20.868">  2  5  1 -1</clus>
</clustering>
</event>
<event>
 9    2  0.7820252E-005  0.1192051E+03  0.7546771E-02  0.1256711E+00
          2   -1    0    0  502    0 -0.00000000000E+00  0.00000000000E+00  0.10871414083E+03  0.10871414083E+03  0.00000000000E+00 0. -1.
         21   -1    0    0  501  502  0.00000000000E+00 -0.00000000000E+00 -0.32053204370E+03  0.32053204370E+03  0.00000000000E+00 0.  1.
         23    2    1    2    0    0 -0.17500477937E+02 -0.66504809194E+01 -0.11760866955E+03  0.15009761786E+03  0.91361918260E+02 0.  0.
         24    2    1    2    0    0 -0.34041052034E+02 -0.72658379349E+02 -0.13283993548E+03  0.17697833726E+03  0.85069677830E+02 0.  0.
        -13    1    4    4    0    0  0.24259111311E+01 -0.79709647727E+02 -0.88182171856E+02  0.11889326482E+03  0.00000000000E+00 0.  1.
         14    1    4    4    0    0 -0.36466963165E+02  0.70512683786E+01 -0.44657763628E+02  0.58085072441E+02  0.00000000000E+00 0. -1.
        -11    1    3    3    0    0 -0.57410718350E+01 -0.35502948573E+02 -0.89511697719E+01  0.37061337044E+02  0.00000000000E+00 0. -1.
         11    1    3    3    0    0 -0.11759406102E+02  0.28852467654E+02 -0.10865749978E+03  0.11303628081E+03  0.00000000000E+00 0.  1.
          1    1    1    2  501    0  0.51541529971E+02  0.79308860268E+02  0.38630702173E+02  0.10217022942E+03  0.00000000000E+00 0. -1.
<scales pt_clust_5="13000.00000" pt_clust_6="13000.00000" pt_clust_7="13000.00000" pt_clust_8="13000.00000" pt_clust_9="83.50459"></scales>
<clustering>
<clus scale="   85.070">  5  6 -1 -1</clus>
<clus scale="   91.362">  7  8 -1 -1</clus>
<clus scale="   93.260">  1  7  2 -1</clus>
<clus scale="   83.505">  2  9  1 -1</clus>
<clus scale="   83.505">  2  5  1 -1</clus>
</clustering>
</event>
<event>
 9    2  0.7820252E-005  0.1227400E+03  0.7546771E-02  0.1247129E+00
         21   -1    0    0  501  502  0.00000000000E+00  0.00000000000E+00  0.15280996644E+02  0.15280996644E+02  0.00000000000E+00 0. -1.
          2   -1    0    0  502    0 -0.00000000000E+00 -0.00000000000E+00 -0.14915733800E+04  0.14915733800E+04  0.00000000000E+00 0. -1.
         24    2    1    2    0    0  0.23191040781E+02  0.62562309733E+02 -0.38531118743E+03  0.39596111575E+03  0.62198288232E+02 0.  0.
         23    2    1    2    0    0 -0.86534162631E+02 -0.70788027550E+02 -0.69162412205E+03  0.70646021825E+03  0.90791010737E+02 0.  0.
        -11    1    3    3    0    0 -0.21055845696E+02  0.26585537593E+02 -0.12910604308E+03  0.13348599105E+03  0.00000000000E+00 0.  1.
         12    1    3    3    0    0  0.44246886477E+02  0.35976772139E+02 -0.25620514435E+03  0.26247512470E+03  0.00000000000E+00 0. -1.
        -11    1    4    4    0    0 -0.41792686118E+02  0.12263905041E+02 -0.13366276128E+03  0.14058010433E+03  0.00000000000E+00 0. -1.
         11    1    4    4    0    0 -0.44741476513E+02 -0.83051932591E+02 -0.55796136077E+03  0.56588011392E+03  0.00000000000E+00 0.  1.
          1    1    1    2  501    0  0.63343121850E+02  0.82257178180E+01 -0.39935707388E+03  0.40443304264E+03  0.00000000000E+00 0. -1.
<scales pt_clust_5="13000.00000" pt_clust_6="13000.00000" pt_clust_7="13000.00000" pt_clust_8="13000.00000" pt_clust_9="63.87502"></scales>
<clustering>
<clus scale="   62.198">  5  6 -1 -1</clus>
<clus scale="   63.875">  1  9  2 -1</clus>
<clus scale="   90.791">  7  8 -1 -1</clus>
<clus scale="  103.396">  2  5  1 -1</clus>
<clus scale="   63.875">  1  5  2 -1</clus>
</clustering>
</event>
<event>
 9    2  0.7820252E-005  0.9822205E+02  0.7546771E-02  0.1290070E+00
          2   -1    0    0  502    0 -0.00000000000E+00  0.00000000000E+00  0.68728918198E+02  0.68728918198E+02  0.00000000000E+00 0. -1.
         21   -1    0    0  501  502  0.00000000000E+00 -0.00000000000E+00 -0.20926237748E+03  0.20926237748E+03  0.00000000000E+00 0. -1.
         23    2    1    2    0    0  0.24882242786E+02  0.36985692702E+02 -0.17665791694E+02  0.10308871445E+03  0.91258618114E+02 0.  0.
         24    2    1    2    0    0 -0.27492473367E+02 -0.25139186223E+01 -0.10833165448E+03  0.13740041877E+03  0.79880985457E+02 0.  0.
        -13    1    4    4    0    0 -0.33722911492E+02 -0.34846826424E+02 -0.45664776144E+02  0.66609367597E+02  0.00000000000E+00 0.  1.
         14    1    4    4    0    0  0.62304381248E+01  0.32332907802E+02 -0.62666878331E+02  0.70791051171E+02  0.00000000000E+00 0. -1.
        -11    1    3    3    0    0  0.21927324111E+02  0.99918137375E+01  0.35781370403E+02  0.43138733782E+02  0.00000000000E+00 0. -1.
         11    1    3    3    0    0  0.29549186744E+01  0.26993878964E+02 -0.53447162096E+02  0.59949980668E+02  0.00000000000E+00 0.  1.
          1    1    1    2  501    0  0.26102305812E+01 -0.34471774080E+02 -0.14536013111E+02  0.37502162458E+02  0.00000000000E+00 0. -1.
<scales pt_clust_5="13000.00000" pt_clust_6="13000.00000" pt_clust_7="13000.00000" pt_clust_8="13000.00000" pt_clust_9="34.57047"></scales>
<clustering>
<clus scale="   34.570">  2  9  1 -1</clus>
<clus scale="   79.881">  5  6 -1 -1</clus>
<clus scale="   87.752">  2  5  1 -1</clus>
<clus scale="   91.259">  7  8 -1 -1</clus>
<clus scale="   34.570">  2  5  1 -1</clus>
</clustering>
</event>
<event>
 9    2  0.7820252E-005  0.3014627E+03  0.7546771E-02  0.1084512E+00
          2   -1    0    0  502    0 -0.00000000000E+00  0.00000000000E+00  0.14194395933E+04  0.14194395933E+04  0.00000000000E+00 0. -1.
         21   -1    0    0  501  502  0.00000000000E+00 -0.00000000000E+00 -0.52545124704E+02  0.52545124704E+02  0.00000000000E+00 0. -1.
         24    2    1    2    0    0 -0.59678719789E+02 -0.85163411155E+02  0.47505682895E+03  0.49233604845E+03  0.76820815415E+02 0.  0.
         23    2    1    2    0    0 -0.12989155598E+03 -0.54231180091E+02  0.42496439671E+03  0.45683095132E+03  0.91032644729E+02 0.  0.
        -11    1    3    3    0    0  0.15622154996E+01 -0.43732188213E+02  0.87996542757E+02  0.98276835217E+02  0.00000000000E+00 0.  1.
         12    1    3    3    0    0 -0.61240935289E+02 -0.41431222941E+02  0.38706028619E+03  0.39405921323E+03  0.00000000000E+00 0. -1.
        -13    1    4    4    0    0 -0.10600118143E+03 -0.44352708036E+01  0.21539643173E+03  0.24010736119E+03  0.00000000000E+00 0. -1.
         13    1    4    4    0    0 -0.23890374551E+02 -0.49795909288E+02  0.20956796497E+03  0.21672359014E+03  0.00000000000E+00 0.  1.
          1    1    1    2  501    0  0.18957027577E+03  0.13939459125E+03  0.46687324297E+03  0.52281771826E+03  0.00000000000E+00 0. -1.
<scales pt_clust_5="13000.00000" pt_clust_6="13000.00000" pt_clust_7="13000.00000" pt_clust_8="13000.00000" pt_clust_9="235.30351"></scales>
<clustering>
<clus scale="   76.821">  5  6 -1 -1</clus>
<clus scale="   91.033">  7  8 -1 -1</clus>
<clus scale="  117.060">  5  7 -1 -1</clus>
<clus scale="  235.304">  2  9  1 -1</clus>
<clus scale="  235.304">  2  5  1 -1</clus>
</clustering>
</event>
<event>
 9    2  0.7820252E-005  0.1364461E+03  0.7546771E-02  0.1233889E+00
          2   -1    0    0  502    0 -0.00000000000E+00  0.00000000000E+00  0.51396620850E+03  0.51396620850E+03  0.00000000000E+00 0. -1.
         21   -1    0    0  501  502  0.00000000000E+00 -0.00000000000E+00 -0.58831133827E+02  0.58831133827E+02  0.00000000000E+00 0. -1.
         24    2    1    2    0    0 -0.34692715873E+02 -0.46176444540E+02  0.11991739856E+03  0.15515964287E+03  0.79740101166E+02 0.  0.
         23    2    1    2    0    0 -0.34483992452E+01 -0.69775864120E+02  0.13321559103E+03  0.18161963886E+03  0.10177788000E+03 0.  0.
        -13    1    3    3    0    0  0.25391224729E+02 -0.11225686152E+02  0.23961612908E+02  0.36672731232E+02  0.00000000000E+00 0.  1.
         14    1    3    3    0    0 -0.60083940602E+02 -0.34950758387E+02  0.95955785652E+02  0.11848691164E+03  0.00000000000E+00 0. -1.
        -11    1    4    4    0    0 -0.93046908072E+01 -0.95815618000E+02  0.97315241419E+02  0.13688486453E+03  0.00000000000E+00 0. -1.
         11    1    4    4    0    0  0.58562915620E+01  0.26039753880E+02  0.35900349608E+02  0.44734774337E+02  0.00000000000E+00 0.  1.
          1    1    1    2  501    0  0.38141115119E+02  0.11595230866E+03  0.20200208509E+03  0.23601806059E+03  0.00000000000E+00 0. -1.
<scales pt_clust_5="13000.00000" pt_clust_6="13000.00000" pt_clust_7="13000.00000" pt_clust_8="13000.00000" pt_clust_9="90.87802"></scales>
<clustering>
<clus scale="   79.740">  5  6 -1 -1</clus>
<clus scale="   98.460">  1  5  2 -1</clus>
<clus scale="   90.878">  2  9  1 -1</clus>
<clus scale="  101.778">  7  8 -1 -1</clus>
<clus scale="   90.878">  2  5  1 -1</clus>
</clustering>
</event>
<event>
 9    2  0.7820252E-005  0.2248068E+03  0.7546771E-02  0.1164894E+00
         21   -1    0    0  501  502  0.00000000000E+00  0.00000000000E+00  0.25883458801E+03  0.25883458801E+03  0.00000000000E+00 0. -1.
          2   -1    0    0  502    0 -0.00000000000E+00 -0.00000000000E+00 -0.45507556801E+03  0.45507556801E+03  0.00000000000E+00 0. -1.
         23    2    1    2    0    0  0.12973952446E+02  0.34850902154E+02 -0.22787007767E+03  0.24836567659E+03  0.91530476816E+02 0.  0.
         24    2    1    2    0    0 -0.15807006183E+03  0.12262286757E+03 -0.71506991546E+02  0.22787260055E+03  0.82402428037E+02 0.  0.
        -13    1    4    4    0    0 -0.45019170785E+02 -0.23719523038E+01 -0.30469955800E+02  0.54412958956E+02  0.00000000000E+00 0.  1.
         14    1    4    4    0    0 -0.11305089104E+03  0.12499481987E+03 -0.41037035746E+02  0.17345964160E+03  0.00000000000E+00 0. -1.
        -13    1    3    3    0    0 -0.34043049350E+02  0.66603503110E+01 -0.41438386852E+02  0.54040997217E+02  0.00000000000E+00 0.  1.
         13    1    3    3    0    0  0.47017001795E+02  0.28190551843E+02 -0.18643169082E+03  0.19432467937E+03  0.00000000000E+00 0. -1.
          1    1    1    2  501    0  0.14509610938E+03 -0.15747376972E+03  0.10313608922E+03  0.23767187888E+03  0.00000000000E+00 0. -1.
<scales pt_clust_5="13000.00000" pt_clust_6="13000.00000" pt_clust_7="13000.00000" pt_clust_8="13000.00000" pt_clust_9="209.16011"></scales>
<clustering>
<clus scale="   82.402">  5  6 -1 -1</clus>
<clus scale="   91.530">  7  8 -1 -1</clus>
<clus scale="   98.796">  2  7  1 -1</clus>
<clus scale="  209.160">  1  9  2 -1</clus>
<clus scale="  209.160">  1  5  2 -1</clus>
</clustering>
</event>
<event>
 9    2  0.7820252E-005  0.9258965E+02  0.7546771E-02  0.1300753E+00
          2   -1    0    0  502    0 -0.00000000000E+00  0.00000000000E+00  0.45697230699E+03  0.45697230699E+03  0.00000000000E+00 0. -1.
         21   -1    0    0  501  502  0.00000000000E+00 -0.00000000000E+00 -0.30015110484E+02  0.30015110484E+02  0.00000000000E+00 0.  1.
         23    2    1    2    0    0 -0.23463877577E+02  0.37233351365E+02  0.28769167846E+03  0.30363221713E+03  0.86539848729E+02 0.  0.
         24    2    1    2    0    0  0.20672113962E+02 -0.16550297607E+01  0.10995413350E+03  0.13717329722E+03  0.79350655811E+02 0.  0.
        -11    1    4    4    0    0 -0.51500535835E+01  0.31428816940E+02  0.78536113467E+02  0.84747948085E+02  0.00000000000E+00 0.  1.
         12    1    4    4    0    0  0.25822167545E+02 -0.33083846701E+02  0.31418020035E+02  0.52425349137E+02  0.00000000000E+00 0. -1.
        -13    1    3    3    0    0  0.21495485650E+02  0.61461451489E+01  0.18710214050E+02  0.29153097834E+02  0.00000000000E+00 0. -1.
         13    1    3    3    0    0 -0.44959363227E+02  0.31087206216E+02  0.26898146441E+03  0.27447911929E+03  0.00000000000E+00 0.  1.
          1    1    1    2  501    0  0.27917636152E+01 -0.35578321604E+02  0.29311384545E+02  0.46181903124E+02  0.00000000000E+00 0. -1.
<scales pt_clust_5="13000.00000" pt_clust_6="13000.00000" pt_clust_7="13000.00000" pt_clust_8="13000.00000" pt_clust_9="35.68769"></scales>
<clustering>
<clus scale="   35.688">  2  9  1 -1</clus>
<clus scale="   79.351">  5  6 -1 -1</clus>
<clus scale="   85.908">  2  5  1 -1</clus>
<clus scale="   86.540">  7  8 -1 -1</clus>
<clus scale="   35.688">  2  5  1 -1</clus>
</clustering>
</event>
<event>
 9    2  0.7820252E-005  0.9207962E+02  0.7546771E-02  0.1305629E+00
          2   -1    0    0  502    0 -0.00000000000E+00  0.00000000000E+00  0.16201644579E+03  0.16201644579E+03  0.00000000000E+00 0. -1.
         21   -1    0    0  501  502  0.00000000000E+00 -0.00000000000E+00 -0.62839478237E+02  0.62839478237E+02  0.00000000000E+00 0.  1.
         24    2    1    2    0    0  0.62639749930E+00  0.15872630861E+02  0.71237440273E+02  0.10783718139E+03  0.79383575186E+02 0.  0.
         23    2    1    2    0    0  0.27843026677E+01  0.54787242062E+01  0.20236083300E+02  0.94065392378E+02  0.91657134013E+02 0.  0.
        -11    1    3    3    0    0 -0.43662452078E+01  0.26414962495E+02  0.85394683825E+02  0.89493387277E+02  0.00000000000E+00 0.  1.
         12    1    3    3    0    0  0.49926427071E+01 -0.10542331634E+02 -0.14157243552E+02  0.18343794113E+02  0.00000000000E+00 0. -1.
        -11    1    4    4    0    0  0.42342366158E+02  0.61402897655E+01  0.31267337481E+02  0.52992693113E+02  0.00000000000E+00 0. -1.
         11    1    4    4    0    0 -0.39558063490E+02 -0.66156555925E+00 -0.11031254181E+02  0.41072699264E+02  0.00000000000E+00 0.  1.
          1    1    1    2  501    0 -0.34107001670E+01 -0.21351355068E+02  0.77034439755E+01  0.22953350255E+02  0.00000000000E+00 0. -1.
<scales pt_clust_5="13000.00000" pt_clust_6="13000.00000" pt_clust_7="13000.00000" pt_clust_8="13000.00000" pt_clust_9="21.62205"></scales>
<clustering>
<clus scale="   21.622">  2  9  1 -1</clus>
<clus scale="   79.384">  5  6 -1 -1</clus>
<clus scale="   79.871">  1  5  2 -1</clus>
<clus scale="   91.657">  7  8 -1 -1</clus>
<clus scale="   21.622">  2  5  1 -1</clus>
</clustering>
</event>
<event>
 9    2  0.7820252E-005  0.2777310E+03  0.7546771E-02  0.1097451E+00
         21   -1    0    0  501  502  0.00000000000E+00  0.00000000000E+00  0.87010427741E+02  0.87010427741E+02  0.00000000000E+00 0. -1.
          2   -1    0    0  502    0 -0.00000000000E+00 -0.00000000000E+00 -0.13108258429E+04  0.13108258429E+04  0.00000000000E+00 0. -1.
         24    2    1    2    0    0  0.27063559291E+03 -0.11505328778E+03 -0.84198094952E+03  0.89564122018E+03  0.82221607653E+02 0.  0.
         23    2    1    2    0    0 -0.19794301908E+03  0.87593679723E+02 -0.34029489476E+03  0.41408275666E+03  0.93860654349E+02 0.  0.
        -13    1    3    3    0    0  0.13915138557E+02 -0.15058179129E+02 -0.19702989607E+02  0.28435675466E+02  0.00000000000E+00 0.  1.
         14    1    3    3    0    0  0.25672045435E+03 -0.99995108656E+02 -0.82227795991E+03  0.86720554472E+03  0.00000000000E+00 0. -1.
        -11    1    4    4    0    0 -0.17411697049E+03  0.56870697554E+02 -0.32344561468E+03  0.37170964651E+03  0.00000000000E+00 0.  1.
         11    1    4    4    0    0 -0.23826048584E+02  0.30722982169E+02 -0.16849280081E+02  0.42373110150E+02  0.00000000000E+00 0. -1.
          1    1    1    2  501    0 -0.72692573830E+02  0.27459608062E+02 -0.41539570836E+02  0.88112293752E+02  0.00000000000E+00 0. -1.
<scales pt_clust_5="13000.00000" pt_clust_6="13000.00000" pt_clust_7="13000.00000" pt_clust_8="13000.00000" pt_clust_9="77.70612"></scales>
<clustering>
<clus scale="   77.706">  1  9  2 -1</clus>
<clus scale="   82.222">  5  6 -1 -1</clus>
<clus scale="   93.861">  7  8 -1 -1</clus>
<clus scale="  274.017">  2  5  1 -1</clus>
<clus scale="   77.706">  1  5  2 -1</clus>
</clustering>
</event>
<event>
 9    2  0.7820252E-005  0.1005768E+03  0.7546771E-02  0.1286501E+00
         21   -1    0    0  501  502  0.00000000000E+00  0.00000000000E+00  0.17163141330E+03  0.17163141330E+03  0.00000000000E+00 0.  1.
          2   -1    0    0  502    0 -0.00000000000E+00 -0.00000000000E+00 -0.19360594318E+03  0.19360594318E+03  0.00000000000E+00 0. -1.
         24    2    1    2    0    0 -0.21821147263E+02 -0.27417769009E+02 -0.15624249598E+03  0.17945092703E+03  0.81012475206E+02 0.  0.
         23    2    1    2    0    0  0.66894027075E+01  0.12716538833E+02  0.72251036294E+02  0.12027921271E+03  0.95081114297E+02 0.  0.
        -13    1    3    3    0    0  0.16891549140E+01  0.21052273964E+02 -0.95486106164E+01  0.23178167487E+02  0.00000000000E+00 0.  1.
         14    1    3    3    0    0 -0.23510302177E+02 -0.48470042973E+02 -0.14669388536E+03  0.15627275955E+03  0.00000000000E+00 0. -1.
        -11    1    4    4    0    0 -0.11854395890E+02 -0.22614785493E+02  0.76025808612E+02  0.80198995005E+02  0.00000000000E+00 0.  1.
         11    1    4    4    0    0  0.18543798598E+02  0.35331324326E+02 -0.37747723180E+01  0.40080217703E+02  0.00000000000E+00 0. -1.
          1    1    1    2  501    0  0.15131744555E+02  0.14701230176E+02  0.62016929809E+02  0.65507216739E+02  0.00000000000E+00 0. -1.
<scales pt_clust_5="13000.00000" pt_clust_6="13000.00000" pt_clust_7="13000.00000" pt_clust_8="13000.00000" pt_clust_9="21.09730"></scales>
<clustering>
<clus scale="   21.097">  1  9  2 -1</clus>
<clus scale="   81.012">  5  6 -1 -1</clus>
<clus scale="   87.397">  2  5  1 -1</clus>
<clus scale="   95.081">  7  8 -1 -1</clus>
<clus scale="   21.097">  1  5  2 -1</clus>
</clustering>
</event>
<event>
 9    2  0.7820252E-005  0.9308892E+02  0.7546771E-02  0.1300293E+00
         21   -1    0    0  501  502  0.00000000000E+00  0.00000000000E+00  0.29443829686E+02  0.29443829686E+02  0.00000000000E+00 0.  1.
          2   -1    0    0  502    0 -0.00000000000E+00 -0.00000000000E+00 -0.49610380994E+03  0.49610380994E+03  0.00000000000E+00 0. -1.
         23    2    1    2    0    0 -0.58079537088E+01 -0.10915912603E+02 -0.29605976253E+03  0.30983482933E+03  0.90517119940E+02 0.  0.
         24    2    1    2    0    0  0.23896907928E+02  0.40188956640E+02 -0.10372030286E+03  0.14049948445E+03  0.82437791470E+02 0.  0.
        -13    1    4    4    0    0  0.48827009927E+02  0.18077105080E+02 -0.31222695212E+02  0.60710092430E+02  0.00000000000E+00 0.  1.
         14    1    4    4    0    0 -0.24930102000E+02  0.22111851560E+02 -0.72497607646E+02  0.79789392024E+02  0.00000000000E+00 0. -1.
        -11    1    3    3    0    0 -0.46010635138E+02 -0.12641061239E+02 -0.20143684614E+03  0.20701105758E+03  0.00000000000E+00 0. -1.
         11    1    3    3    0    0  0.40202681429E+02  0.17251486359E+01 -0.94622916384E+02  0.10282377175E+03  0.00000000000E+00 0.  1.
          1    1    1    2  501    0 -0.18088954219E+02 -0.29273044037E+02 -0.66879914866E+02  0.75213325843E+02  0.00000000000E+00 0. -1.
<scales pt_clust_5="13000.00000" pt_clust_6="13000.00000" pt_clust_7="13000.00000" pt_clust_8="13000.00000" pt_clust_9="34.41108"></scales>
<clustering>
<clus scale="   34.411">  1  9  2 -1</clus>
<clus scale="   82.438">  5  6 -1 -1</clus>
<clus scale="   85.254">  1  5  2 -1</clus>
<clus scale="   90.517">  7  8 -1 -1</clus>
<clus scale="   34.411">  1  5  2 -1</clus>
</clustering>
</event>
<event>
 9    2  0.7820252E-005  0.2400284E+03  0.7546771E-02  0.1120478E+00
         21   -1    0    0  501  502  0.00000000000E+00  0.00000000000E+00  0.48697495238E+02  0.48697495238E+02  0.00000000000E+00 0. -1.
          2   -1    0    0  502    0 -0.00000000000E+00 -0.00000000000E+00 -0.17778927498E+04  0.17778927498E+04  0.00000000000E+00 0. -1.
         23    2    1    2    0    0  0.14399231424E+03 -0.17844743312E+03 -0.83896321990E+03  0.87476532404E+03  0.93689993369E+02 0.  0.
         24    2    1    2    0    0 -0.58520916246E+02  0.21237767101E+03 -0.52640666550E+03  0.57655765602E+03  0.82375848670E+02 0.  0.
        -13    1    4    4    0    0 -0.32285009088E+02  0.13480356702E+03 -0.22541350382E+03  0.26462345172E+03  0.00000000000E+00 0.  1.
         14    1    4    4    0    0 -0.26235907158E+02  0.77574103992E+02 -0.30099316168E+03  0.31193420430E+03  0.00000000000E+00 0. -1.
        -13    1    3    3    0    0  0.72099669706E+02 -0.13454587228E+03 -0.40741097421E+03  0.43506856474E+03  0.00000000000E+00 0.  1.
         13    1    3    3    0    0  0.71892644535E+02 -0.43901560846E+02 -0.43155224569E+03  0.43969675930E+03  0.00000000000E+00 0. -1.
          1    1    1    2  501    0 -0.85471397994E+02 -0.33930237889E+02 -0.36382536912E+03  0.37526726494E+03  0.00000000000E+00 0. -1.
<scales pt_clust_5="13000.00000" pt_clust_6="13000.00000" pt_clust_7="13000.00000" pt_clust_8="13000.00000" pt_clust_9="91.95993"></scales>
<clustering>
<clus scale="   82.376">  5  6 -1 -1</clus>
<clus scale="   91.960">  1  9  2 -1</clus>
<clus scale="   93.690">  7  8 -1 -1</clus>
<clus scale="  235.842">  1  5  2 -1</clus>
<clus scale="   91.960">  1  5  2 -1</clus>
</clustering>
</event>
<event>
 9    2  0.7820252E-005  0.9922770E+02  0.7546771E-02  0.1288364E+00
          2   -1    0    0  502    0 -0.00000000000E+00  0.00000000000E+00  0.38570179289E+03  0.38570179289E+03  0.00000000000E+00 0. -1.
         21   -1    0    0  501  502  0.00000000000E+00 -0.00000000000E+00 -0.89370190226E+02  0.89370190226E+02  0.00000000000E+00 0. -1.
         23    2    1    2    0    0 -0.72173856144E+01 -0.40190735195E+02  0.24391059073E+03  0.26267683855E+03  0.88540156948E+02 0.  0.
         24    2    1    2    0    0  0.58201982738E+02  0.34824154417E+02  0.99941030846E+02  0.14249248704E+03  0.75602292887E+02 0.  0.
        -11    1    4    4    0    0  0.44324574051E+02  0.56183715825E+02  0.90388987913E+02  0.11528853770E+03  0.00000000000E+00 0.  1.
         12    1    4    4    0    0  0.13877408687E+02 -0.21359561408E+02  0.95520429333E+01  0.27203949338E+02  0.00000000000E+00 0. -1.
        -11    1    3    3    0    0 -0.33671281390E+02 -0.75658512149E+01  0.33434231857E+02  0.48050443857E+02  0.00000000000E+00 0.  1.
         11    1    3    3    0    0  0.26453895775E+02 -0.32624883980E+02  0.21047635887E+03  0.21462639469E+03  0.00000000000E+00 0. -1.
          1    1    1    2  501    0 -0.50984597123E+02  0.53665807779E+01 -0.47520018906E+02  0.69902657531E+02  0.00000000000E+00 0. -1.
<scales pt_clust_5="13000.00000" pt_clust_6="13000.00000" pt_clust_7="13000.00000" pt_clust_8="13000.00000" pt_clust_9="51.26626"></scales>
<clustering>
<clus scale="   51.266">  2  9  1 -1</clus>
<clus scale="   75.602">  5  6 -1 -1</clus>
<clus scale="   87.878">  2  5  1 -1</clus>
<clus scale="   88.540">  7  8 -1 -1</clus>
<clus scale="   51.266">  2  5  1 -1</clus>
</clustering>
</event>
<event>
 9    2  0.7820252E-005  0.1515658E+03  0.7546771E-02  0.1200267E+00
          2   -1    0    0  502    0 -0.00000000000E+00  0.00000000000E+00  0.92909495548E+03  0.92909495548E+03  0.00000000000E+00 0. -1.
         21   -1    0    0  501  502  0.00000000000E+00 -0.00000000000E+00 -0.42447905329E+02  0.42447905329E+02  0.00000000000E+00 0. -1.
         23    2    1    2    0    0 -0.13017211387E+03  0.70113686240E+02  0.42777096814E+03  0.46142962999E+03  0.89825352877E+02 0.  0.
         24    2    1    2    0    0  0.85387451169E+02 -0.24949048368E+02  0.13676747713E+03  0.18178494409E+03  0.80168268456E+02 0.  0.
        -11    1    4    4    0    0  0.42499155139E+01 -0.30203636990E+02  0.11818963111E+02  0.32710997513E+02  0.00000000000E+00 0.  1.
         12    1    4    4    0    0  0.81137535655E+02  0.52545886215E+01  0.12494851402E+03  0.14907394658E+03  0.00000000000E+00 0. -1.
        -13    1    3    3    0    0 -0.39226880436E+02  0.33323180003E+02  0.27567385986E+03  0.28043762138E+03  0.00000000000E+00 0.  1.
         13    1    3    3    0    0 -0.90945233432E+02  0.36790506237E+02  0.15209710828E+03  0.18099200861E+03  0.00000000000E+00 0. -1.
          1    1    1    2  501    0  0.44784662699E+02 -0.45164637872E+02  0.32210860488E+03  0.32832828673E+03  0.00000000000E+00 0. -1.
<scales pt_clust_5="13000.00000" pt_clust_6="13000.00000" pt_clust_7="13000.00000" pt_clust_8="13000.00000" pt_clust_9="63.60436"></scales>
<clustering>
<clus scale="   63.604">  2  9  1 -1</clus>
<clus scale="   80.168">  5  6 -1 -1</clus>
<clus scale="   89.825">  7  8 -1 -1</clus>
<clus scale="  146.050">  2  5  1 -1</clus>
<clus scale="   63.604">  2  5  1 -1</clus>
</clustering>
</event>
<event>
 9    2  0.7820252E-005  0.1225006E+03  0.7546771E-02  0.1242772E+00
          2   -1    0    0  502    0 -0.00000000000E+00  0.00000000000E+00  0.15119705872E+04  0.15119705872E+04  0.00000000000E+00 0. -1.
         21   -1    0    0  501  502  0.00000000000E+00 -0.00000000000E+00 -0.56291311000E+02  0.56291311000E+02  0.00000000000E+00 0. -1.
         24    2    1    2    0    0 -0.83412810591E+02  0.16470388249E+02  0.84413325936E+03  0.85219751910E+03  0.80316133787E+02 0.  0.
         23    2    1    2    0    0  0.66652452153E+02 -0.36452705219E+02  0.65474497893E+03  0.66560297860E+03  0.92547223566E+02 0.  0.
        -11    1    3    3    0    0 -0.47698270609E+02  0.15026537593E+02  0.17221224778E+03  0.17932646245E+03  0.00000000000E+00 0.  1.
         12    1    3    3    0    0 -0.35714539982E+02  0.14438506562E+01  0.67192101158E+03  0.67287105665E+03  0.00000000000E+00 0. -1.
        -11    1    4    4    0    0  0.47013374685E+02 -0.67937274850E+02  0.44804271483E+03  0.45559631806E+03  0.00000000000E+00 0.  1.
         11    1    4    4    0    0  0.19639077469E+02  0.31484569630E+02  0.20670226410E+03  0.21000666054E+03  0.00000000000E+00 0. -1.
          1    1    1    2  501    0  0.16760358438E+02  0.19982316970E+02 -0.43198962133E+02  0.50461400455E+02  0.00000000000E+00 0. -1.
<scales pt_clust_5="13000.00000" pt_clust_6="13000.00000" pt_clust_7="13000.00000" pt_clust_8="13000.00000" pt_clust_9="26.08069"></scales>
<clustering>
<clus scale="   26.081">  2  9  1 -1</clus>
<clus scale="   80.316">  5  6 -1 -1</clus>
<clus scale="   92.547">  7  8 -1 -1</clus>
<clus scale="  113.543">  1  5  2 -1</clus>
<clus scale="   26.081">  2  5  1 -1</clus>
</clustering>
</event>
<event>
 9    2  0.7820252E-005  0.1453341E+03  0.7546771E-02  0.1226965E+00
          2   -1    0    0  502    0 -0.00000000000E+00  0.00000000000E+00  0.84965556508E+03  0.84965556508E+03  0.00000000000E+00 0. -1.
         21   -1    0    0  501  502  0.00000000000E+00 -0.00000000000E+00 -0.38283564723E+02  0.38283564723E+02  0.00000000000E+00 0. -1.
         23    2    1    2    0    0 -0.13659256904E+02  0.68779371040E+01  0.26026349003E+03  0.27671546194E+03  0.92738780009E+02 0.  0.
         24    2    1    2    0    0 -0.94242684440E+02  0.56932140932E+02  0.30708204112E+03  0.33688177774E+03  0.84065450387E+02 0.  0.
        -11    1    4    4    0    0 -0.32411749963E+00  0.42188909208E+02  0.74444286655E+02  0.85568457552E+02  0.00000000000E+00 0.  1.
         12    1    4    4    0    0 -0.93918566941E+02  0.14743231724E+02  0.23263775447E+03  0.25131332018E+03  0.00000000000E+00 0. -1.
        -13    1    3    3    0    0 -0.60488498467E+01 -0.39056948511E+02  0.65814977381E+02  0.76770079192E+02  0.00000000000E+00 0.  1.
         13    1    3    3    0    0 -0.76104070575E+01  0.45934885615E+02  0.19444851264E+03  0.19994538275E+03  0.00000000000E+00 0. -1.
          1    1    1    2  501    0  0.10790194134E+03 -0.63810078036E+02  0.24402646921E+03  0.27434189013E+03  0.00000000000E+00 0. -1.
<scales pt_clust_5="13000.00000" pt_clust_6="13000.00000" pt_clust_7="13000.00000" pt_clust_8="13000.00000" pt_clust_9="118.55383"></scales>
<clustering>
<clus scale="   84.065">  5  6 -1 -1</clus>
<clus scale="   92.739">  7  8 -1 -1</clus>
<clus scale="   93.991">  1  7  2 -1</clus>
<clus scale="  118.554">  2  9  1 -1</clus>
<clus scale="  118.554">  2  5  1 -1</clus>
</clustering>
</event>
<event>
 9    2  0.7820252E-005  0.9249263E+02  0.7546771E-02  0.1296957E+00
         21   -1    0    0  501  502  0.00000000000E+00  0.00000000000E+00  0.39881537857E+02  0.39881537857E+02  0.00000000000E+00 0. -1.
          2   -1    0    0  502    0 -0.00000000000E+00 -0.00000000000E+00 -0.97925929870E+03  0.97925929870E+03  0.00000000000E+00 0. -1.
         24    2    1    2    0    0 -0.25589617612E+02  0.27442186727E+02 -0.61876422528E+03  0.62655210286E+03  0.91052012421E+02 0.  0.
         23    2    1    2    0    0 -0.86834383279E+01  0.24128756297E+02 -0.31670399726E+03  0.33054448323E+03  0.91107818139E+02 0.  0.
        -11    1    3    3    0    0  0.10581399321E+02  0.17563567236E+02 -0.28562442897E+02  0.35160461457E+02  0.00000000000E+00 0.  1.
         12    1    3    3    0    0 -0.36171016934E+02  0.98786194908E+01 -0.59020178238E+03  0.59139164140E+03  0.00000000000E+00 0. -1.
        -11    1    4    4    0    0 -0.46043858513E+02  0.31596664184E+02 -0.16802484810E+03  0.17706138956E+03  0.00000000000E+00 0. -1.
         11    1    4    4    0    0  0.37360420185E+02 -0.74679078870E+01 -0.14867914916E+03  0.15348309366E+03  0.00000000000E+00 0.  1.
          1    1    1    2  501    0  0.34273055940E+02 -0.51570943024E+02 -0.39095383043E+01  0.62044250480E+02  0.00000000000E+00 0. -1.
<scales pt_clust_5="13000.00000" pt_clust_6="13000.00000" pt_clust_7="13000.00000" pt_clust_8="13000.00000" pt_clust_9="61.92095"></scales>
<clustering>
<clus scale="   61.921">  1  9  2 -1</clus>
<clus scale="   91.052">  5  6 -1 -1</clus>
<clus scale="   91.108">  7  8 -1 -1</clus>
<clus scale="   92.438">  2  5  1 -1</clus>
<clus scale="   61.921">  1  5  2 -1</clus>
</clustering>
</event>
<event>
 9    2  0.7820252E-005  0.9765800E+02  0.7546771E-02  0.1293702E+00
         -3   -1    0    0    0  501 -0.00000000000E+00  0.00000000000E+00  0.71804770056E+02  0.71804770056E+02  0.00000000000E+00 0.  1.
         21   -1    0    0  501  502  0.00000000000E+00 -0.00000000000E+00 -0.20236308592E+03  0.20236308592E+03  0.00000000000E+00 0.  1.
         24    2    1    2    0    0 -0.39373212243E+02 -0.19685428267E+02 -0.50612848521E+00  0.87899707813E+02  0.76081118151E+02 0.  0.
         23    2    1    2    0    0  0.98935500765E+01 -0.54307695164E+01 -0.10693012134E+03  0.14116267388E+03  0.91462965486E+02 0.  0.
        -13    1    3    3    0    0 -0.26953436164E+02 -0.47636014206E+02  0.98424506758E+01  0.55610713049E+02  0.00000000000E+00 0.  1.
         14    1    3    3    0    0 -0.12419776079E+02  0.27950585939E+02 -0.10348579161E+02  0.32288994764E+02  0.00000000000E+00 0. -1.
        -11    1    4    4    0    0  0.19370446077E+02  0.19018288323E+02  0.37634964918E+01  0.27405717976E+02  0.00000000000E+00 0. -1.
         11    1    4    4    0    0 -0.94768960001E+01 -0.24449057840E+02 -0.11069361783E+03  0.11375695590E+03  0.00000000000E+00 0.  1.
         -4    1    1    2    0  502  0.29479662166E+02  0.25116197783E+02 -0.23122066036E+02  0.45105474283E+02  0.00000000000E+00 0.  1.
<scales pt_clust_5="13000.00000" pt_clust_6="13000.00000" pt_clust_7="13000.00000" pt_clust_8="13000.00000" pt_clust_9="38.72821"></scales>
<clustering>
<clus scale="   38.728">  2  9  1 -1</clus>
<clus scale="   76.081">  5  6 -1 -1</clus>
<clus scale="   83.426">  1  5  2 -1</clus>
<clus scale="   91.463">  7  8 -1 -1</clus>
<clus scale="   38.728">  2  5  1 -1</clus>
</clustering>
</event>
<event>
 9    2  0.7820252E-005  0.9180823E+02  0.7546771E-02  0.1305887E+00
         21   -1    0    0  501  502  0.00000000000E+00  0.00000000000E+00  0.24371612534E+02  0.24371612534E+02  0.00000000000E+00 0.  1.
          2   -1    0    0  502    0 -0.00000000000E+00 -0.00000000000E+00 -0.75148209628E+03  0.75148209628E+03  0.00000000000E+00 0. -1.
         24    2    1    2    0    0  0.14872610835E+02  0.18700612029E+02 -0.19715579096E+03  0.21382227184E+03  0.79237936510E+02 0.  0.
         23    2    1    2    0    0  0.44463874458E+02  0.54630618776E+01 -0.18303616807E+03  0.20924656710E+03  0.90967059109E+02 0.  0.
        -11    1    3    3    0    0  0.10329972167E+02  0.48810636483E+02 -0.14600108531E+03  0.15429032202E+03  0.00000000000E+00 0.  1.
         12    1    3    3    0    0  0.45426386677E+01 -0.30110024454E+02 -0.51154705653E+02  0.59531949818E+02  0.00000000000E+00 0. -1.
        -13    1    4    4    0    0  0.31701061067E+02 -0.41658842767E+02 -0.10174918837E+03  0.11442601884E+03  0.00000000000E+00 0.  1.
         13    1    4    4    0    0  0.12762813391E+02  0.47121904645E+02 -0.81286979699E+02  0.94820548256E+02  0.00000000000E+00 0. -1.
          1    1    1    2  501    0 -0.59336485293E+02 -0.24163673906E+02 -0.34691852471E+03  0.35278486987E+03  0.00000000000E+00 0. -1.
<scales pt_clust_5="13000.00000" pt_clust_6="13000.00000" pt_clust_7="13000.00000" pt_clust_8="13000.00000" pt_clust_9="64.06798"></scales>
<clustering>
<clus scale="   64.068">  1  9  2 -1</clus>
<clus scale="   79.238">  5  6 -1 -1</clus>
<clus scale="   80.202">  2  5  1 -1</clus>
<clus scale="   90.967">  7  8 -1 -1</clus>
<clus scale="   64.068">  1  5  2 -1</clus>
</clustering>
</event>
<event>
 9    2  0.7820252E-005  0.9158656E+02  0.7546771E-02  0.1306242E+00
          2   -1    0    0  502    0 -0.00000000000E+00  0.00000000000E+00  0.41651936113E+03  0.41651936113E+03  0.00000000000E+00 0. -1.
         21   -1    0    0  501  502  0.00000000000E+00 -0.00000000000E+00 -0.27711266516E+02  0.27711266516E+02  0.00000000000E+00 0. -1.
         23    2    1    2    0    0 -0.18182645798E+02 -0.16106620789E-01  0.16348297502E+03  0.18801750062E+03  0.91067494492E+02 0.  0.
         24    2    1    2    0    0 -0.19509374641E+01  0.82676623622E+01  0.95874677140E+02  0.12494673224E+03  0.79671649803E+02 0.  0.
        -11    1    4    4    0    0 -0.12196671967E+02 -0.25194207134E+02  0.83108387937E+02  0.87695558757E+02  0.00000000000E+00 0.  1.
         12    1    4    4    0    0  0.10245734503E+02  0.33461869496E+02  0.12766289203E+02  0.37251173481E+02  0.00000000000E+00 0. -1.
        -13    1    3    3    0    0 -0.44674747875E+02  0.29221292545E+02  0.91727407154E+02  0.10613027023E+03  0.00000000000E+00 0. -1.
         13    1    3    3    0    0  0.26492102078E+02 -0.29237399165E+02  0.71755567863E+02  0.81887230395E+02  0.00000000000E+00 0.  1.
          1    1    1    2  501    0  0.20133583262E+02 -0.82515557414E+01  0.12945044246E+03  0.13126639479E+03  0.00000000000E+00 0. -1.
<scales pt_clust_5="13000.00000" pt_clust_6="13000.00000" pt_clust_7="13000.00000" pt_clust_8="13000.00000" pt_clust_9="21.75890"></scales>
<clustering>
<clus scale="   21.759">  2  9  1 -1</clus>
<clus scale="   79.672">  5  6 -1 -1</clus>
<clus scale="   80.264">  2  5  1 -1</clus>
<clus scale="   91.067">  7  8 -1 -1</clus>
<clus scale="   21.759">  2  5  1 -1</clus>
</clustering>
</event>
<event>
 9    2  0.7820252E-005  0.9171800E+02  0.7546771E-02  0.1305890E+00
         21   -1    0    0  501  502  0.00000000000E+00  0.00000000000E+00  0.49636802673E+02  0.49636802673E+02  0.00000000000E+00 0. -1.
          2   -1    0    0  502    0 -0.00000000000E+00 -0.00000000000E+00 -0.70434655040E+03  0.70434655040E+03  0.00000000000E+00 0. -1.
         24    2    1    2    0    0  0.61210871884E+00  0.68872281438E+01 -0.57022408253E+03  0.57584987143E+03  0.79998509643E+02 0.  0.
         23    2    1    2    0    0  0.22449409050E+02 -0.14971648063E+02 -0.10815637044E+03  0.14411152206E+03  0.91335667241E+02 0.  0.
        -13    1    3    3    0    0 -0.68885825639E+01 -0.23289806075E+02 -0.60710633260E+02  0.65388444144E+02  0.00000000000E+00 0.  1.
         14    1    3    3    0    0  0.75006912828E+01  0.30177034219E+02 -0.50951344927E+03  0.51046142729E+03  0.00000000000E+00 0. -1.
        -11    1    4    4    0    0  0.56074930202E+02  0.38636004969E+01 -0.56892347501E+02  0.79975398780E+02  0.00000000000E+00 0. -1.
         11    1    4    4    0    0 -0.33625521151E+02 -0.18835248560E+02 -0.51264022942E+02  0.64136123278E+02  0.00000000000E+00 0.  1.
          1    1    1    2  501    0 -0.23061517769E+02  0.80844199193E+01  0.23670705242E+02  0.34021959583E+02  0.00000000000E+00 0. -1.
<scales pt_clust_5="13000.00000" pt_clust_6="13000.00000" pt_clust_7="13000.00000" pt_clust_8="13000.00000" pt_clust_9="24.43750"></scales>
<clustering>
<clus scale="   24.438">  1  9  2 -1</clus>
<clus scale="   79.999">  5  6 -1 -1</clus>
<clus scale="   80.435">  2  5  1 -1</clus>
<clus scale="   91.336">  7  8 -1 -1</clus>
<clus scale="   24.438">  1  5  2 -1</clus>
</clustering>
</event>
<event>
 9    2  0.9189160E-005  0.1033477E+03  0.7546771E-02  0.1279147E+00
          2   -1    0    0  502    0 -0.00000000000E+00  0.00000000000E+00  0.16235323023E+03  0.16235323023E+03  0.00000000000E+00 0. -1.
         21   -1    0    0  501  502  0.00000000000E+00 -0.00000000000E+00 -0.27361257785E+03  0.27361257785E+03  0.00000000000E+00 0. -1.
         23    2    1    2    0    0 -0.14474220141E+02  0.82144546583E+01  0.12008126463E+03  0.15179078897E+03  0.91345241729E+02 0.  0.
         24    2    1    2    0    0 -0.51219504899E+01 -0.17284272921E+02 -0.79354549551E+02  0.13066269139E+03  0.10222824423E+03 0.  0.
        -11    1    4    4    0    0 -0.27012176341E+02  0.26376721708E+02 -0.71962926045E+02  0.81265317594E+02  0.00000000000E+00 0.  1.
         12    1    4    4    0    0  0.21890225851E+02 -0.43660994629E+02 -0.73916235065E+01  0.49397373795E+02  0.00000000000E+00 0. -1.
        -13    1    3    3    0    0  0.85239534645E+01 -0.39217383087E+02  0.51341872941E+02  0.65166316729E+02  0.00000000000E+00 0. -1.
         13    1    3    3    0    0 -0.22998173606E+02  0.47431837745E+02  0.68739391693E+02  0.86624472243E+02  0.00000000000E+00 0.  1.
          1    1    1    2  501    0  0.19596170631E+02  0.90698182629E+01 -0.15198606271E+03  0.15351232773E+03  0.00000000000E+00 0. -1.
<scales pt_clust_5="13000.00000" pt_clust_6="13000.00000" pt_clust_7="13000.00000" pt_clust_8="13000.00000" pt_clust_9="21.59332"></scales>
<clustering>
<clus scale="   21.593">  2  9  1 -1</clus>
<clus scale="   91.345">  7  8 -1 -1</clus>
<clus scale="   92.596">  1  7  2 -1</clus>
<clus scale="  102.228">  5  6 -1 -1</clus>
<clus scale="   21.593">  2  5  1 -1</clus>
</clustering>
</event>
<event>
 9    2  0.7820252E-005  0.1022007E+03  0.7546771E-02  0.1281084E+00
         21   -1    0    0  501  502  0.00000000000E+00  0.00000000000E+00  0.34974581168E+03  0.34974581168E+03  0.00000000000E+00 0. -1.
         -3   -1    0    0    0  501 -0.00000000000E+00 -0.00000000000E+00 -0.49970733505E+02  0.49970733505E+02  0.00000000000E+00 0.  1.
         24    2    1    2    0    0  0.39989051094E+02 -0.29232375873E+02  0.35912022147E+02  0.10136639704E+03  0.80819657924E+02 0.  0.
         23    2    1    2    0    0 -0.17087038144E+02  0.32084147574E+02  0.13452062352E+03  0.16696483829E+03  0.91978800143E+02 0.  0.
        -11    1    3    3    0    0 -0.24294723239E+02 -0.15790538366E+02  0.13573696554E+02  0.31997186084E+02  0.00000000000E+00 0.  1.
         12    1    3    3    0    0  0.64283774332E+02 -0.13441837508E+02  0.22338325593E+02  0.69369210953E+02  0.00000000000E+00 0. -1.
        -11    1    4    4    0    0  0.38142216562E+02  0.11571313324E+02  0.58464784730E+02  0.70759133897E+02  0.00000000000E+00 0. -1.
         11    1    4    4    0    0 -0.55229254705E+02  0.20512834250E+02  0.76055838792E+02  0.96205704397E+02  0.00000000000E+00 0.  1.
         -4    1    1    2    0  502 -0.22902012950E+02 -0.28517717006E+01  0.12934243250E+03  0.13138530985E+03  0.00000000000E+00 0.  1.
<scales pt_clust_5="13000.00000" pt_clust_6="13000.00000" pt_clust_7="13000.00000" pt_clust_8="13000.00000" pt_clust_9="23.07888"></scales>
<clustering>
<clus scale="   23.079">  1  9  2 -1</clus>
<clus scale="   80.820">  5  6 -1 -1</clus>
<clus scale="   91.979">  7  8 -1 -1</clus>
<clus scale="   92.286">  2  5  1 -1</clus>
<clus scale="   23.079">  1  5  2 -1</clus>
</clustering>
</event>
<event>
 9    2  0.7820252E-005  0.1174681E+03  0.7546771E-02  0.1248406E+00
         21   -1    0    0  501  502  0.00000000000E+00  0.00000000000E+00  0.95994288457E+02  0.95994288457E+02  0.00000000000E+00 0. -1.
          2   -1    0    0  502    0 -0.00000000000E+00 -0.00000000000E+00 -0.91685041298E+03  0.91685041298E+03  0.00000000000E+00 0. -1.
         23    2    1    2    0    0 -0.45903231098E+02  0.66994101378E+02 -0.83024047206E+02  0.14846195261E+03  0.92480499106E+02 0.  0.
         24    2    1    2    0    0  0.97206051259E+02  0.40088904986E+02 -0.25379915215E+02  0.14210383255E+03  0.92158680678E+02 0.  0.
        -13    1    4    4    0    0  0.41717680542E+02  0.54297819678E+02  0.17356257249E+02  0.70638925227E+02  0.00000000000E+00 0.  1.
         14    1    4    4    0    0  0.55488370717E+02 -0.14208914692E+02 -0.42736172464E+02  0.71464907321E+02  0.00000000000E+00 0. -1.
        -11    1    3    3    0    0 -0.23761111318E+02  0.73159770456E+02 -0.95247146224E+02  0.12242941349E+03  0.00000000000E+00 0.  1.
         11    1    3    3    0    0 -0.22142119780E+02 -0.61656690779E+01  0.12223099018E+02  0.26032539122E+02  0.00000000000E+00 0. -1.
          1    1    1    2  501    0 -0.51302820161E+02 -0.10708300636E+03 -0.71245216211E+03  0.72227891628E+03  0.00000000000E+00 0. -1.
<scales pt_clust_5="13000.00000" pt_clust_6="13000.00000" pt_clust_7="13000.00000" pt_clust_8="13000.00000" pt_clust_9="118.73822"></scales>
<clustering>
<clus scale="   92.159">  5  6 -1 -1</clus>
<clus scale="   92.480">  7  8 -1 -1</clus>
<clus scale="  118.738">  1  9  2 -1</clus>
<clus scale="  118.738">  1  5  2 -1</clus>
<clus scale="  117.468">  1  5  2 -1</clus>
</clustering>
</event>
<event>
 9    2  0.7820252E-005  0.1651730E+03  0.7546771E-02  0.1196101E+00
         21   -1    0    0  501  502  0.00000000000E+00  0.00000000000E+00  0.40390302589E+02  0.40390302589E+02  0.00000000000E+00 0. -1.
          2   -1    0    0  502    0 -0.00000000000E+00 -0.00000000000E+00 -0.18691648883E+04  0.18691648883E+04  0.00000000000E+00 0. -1.
         23    2    1    2    0    0 -0.29810468125E+02 -0.63328353503E+02 -0.14510440175E+03  0.19059048127E+03  0.10183466884E+03 0.  0.
         24    2    1    2    0    0  0.65051946386E+02 -0.91001744498E+02 -0.12447238929E+04  0.12523453922E+04  0.80736228575E+02 0.  0.
        -13    1    4    4    0    0  0.58456073984E+01 -0.61110323641E+02 -0.36514826739E+03  0.37027273726E+03  0.00000000000E+00 0.  1.
         14    1    4    4    0    0  0.59206338988E+02 -0.29891420857E+02 -0.87957562548E+03  0.88207265492E+03  0.00000000000E+00 0. -1.
        -11    1    3    3    0    0 -0.51694934355E+02 -0.16651247009E+02 -0.24798371717E+02  0.59704183310E+02  0.00000000000E+00 0.  1.
         11    1    3    3    0    0  0.21884466230E+02 -0.46677106494E+02 -0.12030603003E+03  0.13088629796E+03  0.00000000000E+00 0. -1.
          1    1    1    2  501    0 -0.35241478261E+02  0.15433009800E+03 -0.43894629110E+03  0.46661931744E+03  0.00000000000E+00 0. -1.
<scales pt_clust_5="13000.00000" pt_clust_6="13000.00000" pt_clust_7="13000.00000" pt_clust_8="13000.00000" pt_clust_9="144.09640"></scales>
<clustering>
<clus scale="   80.736">  5  6 -1 -1</clus>
<clus scale="  101.835">  7  8 -1 -1</clus>
<clus scale="  123.570">  2  7  1 -1</clus>
<clus scale="  144.096">  1  9  2 -1</clus>
<clus scale="  144.096">  1  5  2 -1</clus>
</clustering>
</event>
<event>
 9    2  0.7820252E-005  0.9383874E+02  0.7546771E-02  0.1299685E+00
         21   -1    0    0  501  502  0.00000000000E+00  0.00000000000E+00  0.11146521512E+03  0.11146521512E+03  0.00000000000E+00 0.  1.
          2   -1    0    0  502    0 -0.00000000000E+00 -0.00000000000E+00 -0.14592153481E+03  0.14592153481E+03  0.00000000000E+00 0. -1.
         23    2    1    2    0    0 -0.21129553829E+02 -0.14716630479E+02 -0.61160346571E+02  0.11242579748E+03  0.90752050606E+02 0.  0.
         24    2    1    2    0    0  0.29992994421E+02 -0.34215750659E+02  0.19965247967E+02  0.94777791488E+02  0.80708867701E+02 0.  0.
        -13    1    4    4    0    0  0.25951578444E+02 -0.18100666593E+02  0.50744550559E+02  0.59800735500E+02  0.00000000000E+00 0.  1.
         14    1    4    4    0    0  0.40414159770E+01 -0.16115084066E+02 -0.30779302592E+02  0.34977055988E+02  0.00000000000E+00 0. -1.
        -11    1    3    3    0    0 -0.10245151770E+02  0.28476188770E+02  0.69428358105E+01  0.31049306446E+02  0.00000000000E+00 0.  1.
         11    1    3    3    0    0 -0.10884402059E+02 -0.43192819249E+02 -0.68103182381E+02  0.81376491036E+02  0.00000000000E+00 0. -1.
          1    1    1    2  501    0 -0.88634405921E+01  0.48932381138E+02  0.67387789202E+01  0.50183160963E+02  0.00000000000E+00 0. -1.
<scales pt_clust_5="13000.00000" pt_clust_6="13000.00000" pt_clust_7="13000.00000" pt_clust_8="13000.00000" pt_clust_9="49.72865"></scales>
<clustering>
<clus scale="   49.729">  1  9  2 -1</clus>
<clus scale="   80.709">  5  6 -1 -1</clus>
<clus scale="   84.165">  1  5  2 -1</clus>
<clus scale="   90.752">  7  8 -1 -1</clus>
<clus scale="   49.729">  1  5  2 -1</clus>
</clustering>
</event>
<event>
 9    2  0.7820252E-005  0.9285402E+02  0.7546771E-02  0.1297314E+00
          2   -1    0    0  502    0 -0.00000000000E+00  0.00000000000E+00  0.23367312796E+03  0.23367312796E+03  0.00000000000E+00 0. -1.
         21   -1    0    0  501  502  0.00000000000E+00 -0.00000000000E+00 -0.83849083422E+02  0.83849083422E+02  0.00000000000E+00 0. -1.
         23    2    1    2    0    0 -0.23944165815E+02 -0.13734748140E+02  0.14328321277E+03  0.17059600109E+03  0.88379579898E+02 0.  0.
         24    2    1    2    0    0  0.55406328769E+01 -0.30899542222E+02 -0.89218408166E+01  0.96231002000E+02  0.90528040850E+02 0.  0.
        -13    1    4    4    0    0  0.39636392289E+02 -0.25260363639E+02 -0.29992145808E+02  0.55755343914E+02  0.00000000000E+00 0.  1.
         14    1    4    4    0    0 -0.34095759412E+02 -0.56391785831E+01  0.21070304991E+02  0.40475658085E+02  0.00000000000E+00 0. -1.
        -11    1    3    3    0    0  0.23203550211E+02 -0.96553171748E+00  0.47512569487E+01  0.23704671195E+02  0.00000000000E+00 0.  1.
         11    1    3    3    0    0 -0.47147716025E+02 -0.12769216423E+02  0.13853195582E+03  0.14689132989E+03  0.00000000000E+00 0. -1.
          1    1    1    2  501    0  0.18403532938E+02  0.44634290362E+02  0.15462672589E+02  0.50695208297E+02  0.00000000000E+00 0. -1.
<scales pt_clust_5="13000.00000" pt_clust_6="13000.00000" pt_clust_7="13000.00000" pt_clust_8="13000.00000" pt_clust_9="48.27950"></scales>
<clustering>
<clus scale="   48.279">  2  9  1 -1</clus>
<clus scale="   88.380">  7  8 -1 -1</clus>
<clus scale="   90.528">  5  6 -1 -1</clus>
<clus scale="   90.761">  1  7  2 -1</clus>
<clus scale="   48.279">  2  5  1 -1</clus>
</clustering>
</event>
<event>
 9    2  0.7820252E-005  0.9675267E+02  0.7546771E-02  0.1293632E+00
         21   -1    0    0  501  502  0.00000000000E+00  0.00000000000E+00  0.25239400030E+03  0.25239400030E+03  0.00000000000E+00 0. -1.
          4   -1    0    0  502    0 -0.00000000000E+00 -0.00000000000E+00 -0.10232867829E+03  0.10232867829E+03  0.00000000000E+00 0. -1.
         24    2    1    2    0    0 -0.10631634995E+02  0.84405232977E+01 -0.49316413731E+01  0.81064208952E+02  0.79767228798E+02 0.  0.
         23    2    1    2    0    0  0.39262873775E+02 -0.40736130408E+02 -0.53699096784E+01  0.10758532897E+03  0.91349666134E+02 0.  0.
        -11    1    3    3    0    0  0.25062511157E+02 -0.96880197590E+01 -0.24626586617E+02  0.36447989804E+02  0.00000000000E+00 0.  1.
         12    1    3    3    0    0 -0.35694146153E+02  0.18128543057E+02  0.19694945243E+02  0.44616219148E+02  0.00000000000E+00 0. -1.
        -13    1    4    4    0    0  0.61635486902E+02 -0.32826013173E+02  0.20206116748E+02  0.72696406655E+02  0.00000000000E+00 0.  1.
         13    1    4    4    0    0 -0.22372613128E+02 -0.79101172357E+01 -0.25576026426E+02  0.34888922319E+02  0.00000000000E+00 0. -1.
          3    1    1    2  501    0 -0.28631238779E+02  0.32295607111E+02  0.16036687306E+03  0.16607314066E+03  0.00000000000E+00 0. -1.
<scales pt_clust_5="13000.00000" pt_clust_6="13000.00000" pt_clust_7="13000.00000" pt_clust_8="13000.00000" pt_clust_9="43.15963"></scales>
<clustering>
<clus scale="   43.160">  1  9  2 -1</clus>
<clus scale="   79.767">  5  6 -1 -1</clus>
<clus scale="   85.902">  2  5  1 -1</clus>
<clus scale="   91.350">  7  8 -1 -1</clus>
<clus scale="   43.160">  1  5  2 -1</clus>
</clustering>
</event>
<event>
 9    2  0.7820252E-005  0.8986509E+02  0.7546771E-02  0.1305445E+00
         21   -1    0    0  501  502  0.00000000000E+00  0.00000000000E+00  0.15438315500E+02  0.15438315500E+02  0.00000000000E+00 0.  1.
         -1   -1    0    0    0  501 -0.00000000000E+00 -0.00000000000E+00 -0.66614483655E+03  0.66614483655E+03  0.00000000000E+00 0.  1.
         23    2    1    2    0    0  0.15894949651E+01  0.22165939788E+02 -0.34786249473E+03  0.35895949734E+03  0.85730683610E+02 0.  0.
         24    2    1    2    0    0  0.15894184253E+02 -0.32934465039E+02 -0.22776233270E+03  0.24478471271E+03  0.81893658466E+02 0.  0.
        -13    1    4    4    0    0  0.23456086914E+02 -0.46003261399E+02 -0.22307696079E+03  0.22897558496E+03  0.00000000000E+00 0.  1.
         14    1    4    4    0    0 -0.75619026605E+01  0.13068796360E+02 -0.46853719111E+01  0.15809127746E+02  0.00000000000E+00 0. -1.
        -11    1    3    3    0    0 -0.28471956326E+02  0.43159768195E+02 -0.21505784699E+03  0.22118611041E+03  0.00000000000E+00 0.  1.
         11    1    3    3    0    0  0.30061451291E+02 -0.20993828407E+02 -0.13280464774E+03  0.13777338693E+03  0.00000000000E+00 0. -1.
         -2    1    1    2    0  502 -0.17483679219E+02  0.10768525251E+02 -0.75081693614E+02  0.77838941996E+02  0.00000000000E+00 0.  1.
<scales pt_clust_5="13000.00000" pt_clust_6="13000.00000" pt_clust_7="13000.00000" pt_clust_8="13000.00000" pt_clust_9="20.53389"></scales>
<clustering>
<clus scale="   20.534">  1  9  2 -1</clus>
<clus scale="   81.894">  5  6 -1 -1</clus>
<clus scale="   85.731">  7  8 -1 -1</clus>
<clus scale="   86.212">  1  5  2 -1</clus>
<clus scale="   20.534">  1  5  2 -1</clus>
</clustering>
</event>
<event>
 9    2  0.7820252E-005  0.9275906E+02  0.7546771E-02  0.1302536E+00
         -1   -1    0    0    0  501 -0.00000000000E+00  0.00000000000E+00  0.46544254506E+02  0.46544254506E+02  0.00000000000E+00 0.  1.
         21   -1    0    0  501  502  0.00000000000E+00 -0.00000000000E+00 -0.34019190120E+03  0.34019190120E+03  0.00000000000E+00 0. -1.
         23    2    1    2    0    0 -0.21297027665E+00 -0.23025655770E+02 -0.32916374361E+02  0.99588926758E+02  0.91127605323E+02 0.  0.
         24    2    1    2    0    0  0.21351161846E+02 -0.44906262569E+01 -0.20567219281E+03  0.22206673143E+03  0.80848899043E+02 0.  0.
        -11    1    4    4    0    0 -0.27381234912E+02  0.90070912703E+01 -0.43415507982E+02  0.52113012308E+02  0.00000000000E+00 0.  1.
         12    1    4    4    0    0  0.48732396758E+02 -0.13497717527E+02 -0.16225668483E+03  0.16995371912E+03  0.00000000000E+00 0. -1.
        -13    1    3    3    0    0  0.36944271491E+02 -0.13254233973E+02  0.11462573615E+02  0.40889418045E+02  0.00000000000E+00 0. -1.
         13    1    3    3    0    0 -0.37157241767E+02 -0.97714217961E+01 -0.44378947976E+02  0.58699508713E+02  0.00000000000E+00 0.  1.
         -2    1    1    2    0  502 -0.21138191570E+02  0.27516282026E+02 -0.55059079529E+02  0.65080497524E+02  0.00000000000E+00 0.  1.
<scales pt_clust_5="13000.00000" pt_clust_6="13000.00000" pt_clust_7="13000.00000" pt_clust_8="13000.00000" pt_clust_9="34.69826"></scales>
<clustering>
<clus scale="   34.698">  2  9  1 -1</clus>
<clus scale="   80.849">  5  6 -1 -1</clus>
<clus scale="   82.683">  2  5  1 -1</clus>
<clus scale="   91.128">  7  8 -1 -1</clus>
<clus scale="   34.698">  2  5  1 -1</clus>
</clustering>
</event>
<event>
 9    2  0.7820252E-005  0.1030257E+03  0.7546771E-02  0.1275768E+00
          2   -1    0    0  502    0 -0.00000000000E+00  0.00000000000E+00  0.20621084894E+03  0.20621084894E+03  0.00000000000E+00 0. -1.
         21   -1    0    0  501  502  0.00000000000E+00 -0.00000000000E+00 -0.11681820944E+03  0.11681820944E+03  0.00000000000E+00 0. -1.
         23    2    1    2    0    0  0.17303251287E+02  0.66363083006E+02  0.11490769699E+03  0.15788042935E+03  0.83779411870E+02 0.  0.
         24    2    1    2    0    0 -0.55988148805E+02 -0.20598825717E+02  0.12284467316E+01  0.99527721089E+02  0.79657226642E+02 0.  0.
        -13    1    4    4    0    0 -0.17145158248E+02 -0.36231394865E+02 -0.27622768975E+02  0.48679439100E+02  0.00000000000E+00 0.  1.
         14    1    4    4    0    0 -0.38842990557E+02  0.15632569149E+02  0.28851215706E+02  0.50848281990E+02  0.00000000000E+00 0. -1.
        -11    1    3    3    0    0  0.42799384155E+02  0.59674336031E+02  0.52907718546E+02  0.90509890877E+02  0.00000000000E+00 0. -1.
         11    1    3    3    0    0 -0.25496132868E+02  0.66887469750E+01  0.61999978440E+02  0.67370538471E+02  0.00000000000E+00 0.  1.
          1    1    1    2  501    0  0.38684897518E+02 -0.45764257289E+02 -0.26743504217E+02  0.65620907941E+02  0.00000000000E+00 0. -1.
<scales pt_clust_5="13000.00000" pt_clust_6="13000.00000" pt_clust_7="13000.00000" pt_clust_8="13000.00000" pt_clust_9="59.92402"></scales>
<clustering>
<clus scale="   59.924">  2  9  1 -1</clus>
<clus scale="   79.657">  5  6 -1 -1</clus>
<clus scale="   83.779">  7  8 -1 -1</clus>
<clus scale="   99.702">  2  5  1 -1</clus>
<clus scale="   59.924">  2  5  1 -1</clus>
</clustering>
</event>
<event>
 9    2  0.7820252E-005  0.1088441E+03  0.7546771E-02  0.1267673E+00
          2   -1    0    0  502    0 -0.00000000000E+00  0.00000000000E+00  0.47384745000E+03  0.47384745000E+03  0.00000000000E+00 0. -1.
         21   -1    0    0  501  502  0.00000000000E+00 -0.00000000000E+00 -0.45688007615E+02  0.45688007615E+02  0.00000000000E+00 0. -1.
         24    2    1    2    0    0  0.30069890761E+02  0.67591711639E+02  0.25401757908E+03  0.27620565844E+03  0.79320851362E+02 0.  0.
         23    2    1    2    0    0 -0.48284514861E+02 -0.12401891891E+02  0.14434757705E+03  0.17801985944E+03  0.91485769688E+02 0.  0.
        -13    1    3    3    0    0  0.45589957339E+02  0.16822306380E+02  0.17010082703E+03  0.17690597944E+03  0.00000000000E+00 0.  1.
         14    1    3    3    0    0 -0.15520066578E+02  0.50769405259E+02  0.83916752048E+02  0.99299679009E+02  0.00000000000E+00 0. -1.
        -13    1    4    4    0    0 -0.24409925869E+02 -0.40374095685E+02  0.13042682378E+03  0.13869775934E+03  0.00000000000E+00 0.  1.
         13    1    4    4    0    0 -0.23874588992E+02  0.27972203794E+02  0.13920753270E+02  0.39322100100E+02  0.00000000000E+00 0. -1.
          1    1    1    2  501    0  0.18214624100E+02 -0.55189819748E+02  0.29794286251E+02  0.65309939735E+02  0.00000000000E+00 0. -1.
<scales pt_clust_5="13000.00000" pt_clust_6="13000.00000" pt_clust_7="13000.00000" pt_clust_8="13000.00000" pt_clust_9="58.11789"></scales>
<clustering>
<clus scale="   58.118">  2  9  1 -1</clus>
<clus scale="   79.321">  5  6 -1 -1</clus>
<clus scale="   91.486">  7  8 -1 -1</clus>
<clus scale="   98.839">  1  5  2 -1</clus>
<clus scale="   58.118">  2  5  1 -1</clus>
</clustering>
</event>
<event>
 9    2  0.7820252E-005  0.9189181E+02  0.7546771E-02  0.1307106E+00
         21   -1    0    0  501  502  0.00000000000E+00  0.00000000000E+00  0.31284566828E+03  0.31284566828E+03  0.00000000000E+00 0.  1.
          2   -1    0    0  502    0 -0.00000000000E+00 -0.00000000000E+00 -0.38430865775E+02  0.38430865775E+02  0.00000000000E+00 0. -1.
         24    2    1    2    0    0 -0.12514418176E+01 -0.11213471558E+02  0.37279335682E+02  0.87183579285E+02  0.77999484467E+02 0.  0.
         23    2    1    2    0    0  0.42715857492E+01 -0.12173571273E+02  0.18564455954E+03  0.20745914353E+03  0.91700335157E+02 0.  0.
        -11    1    3    3    0    0  0.26206619771E+02  0.75870004953E+01  0.45365573832E+02  0.52937555530E+02  0.00000000000E+00 0.  1.
         12    1    3    3    0    0 -0.27458061589E+02 -0.18800472054E+02 -0.80862381503E+01  0.34246023756E+02  0.00000000000E+00 0. -1.
        -11    1    4    4    0    0 -0.29963107437E+02  0.12452608008E+02  0.23879914380E+02  0.40287784305E+02  0.00000000000E+00 0. -1.
         11    1    4    4    0    0  0.34234693186E+02 -0.24626179281E+02  0.16176464516E+03  0.16717135923E+03  0.00000000000E+00 0.  1.
          1    1    1    2  501    0 -0.30201439316E+01  0.23387042831E+02  0.51490907283E+02  0.56633811231E+02  0.00000000000E+00 0. -1.
<scales pt_clust_5="13000.00000" pt_clust_6="13000.00000" pt_clust_7="13000.00000" pt_clust_8="13000.00000" pt_clust_9="23.58124"></scales>
<clustering>
<clus scale="   23.581">  1  9  2 -1</clus>
<clus scale="   77.999">  5  6 -1 -1</clus>
<clus scale="   78.225">  2  5  1 -1</clus>
<clus scale="   91.700">  7  8 -1 -1</clus>
<clus scale="   23.581">  1  5  2 -1</clus>
</clustering>
</event>
<event>
 9    2  0.7820252E-005  0.2497094E+03  0.7546771E-02  0.1114022E+00
         21   -1    0    0  501  502  0.00000000000E+00  0.00000000000E+00  0.13534977105E+03  0.13534977105E+03  0.00000000000E+00 0.  1.
         -1   -1    0    0    0  501 -0.00000000000E+00 -0.00000000000E+00 -0.80800000571E+03  0.80800000571E+03  0.00000000000E+00 0.  1.
         24    2    1    2    0    0  0.26627512273E+03 -0.80505170146E+02 -0.46426888336E+03  0.54742993052E+03  0.82160874894E+02 0.  0.
         23    2    1    2    0    0 -0.14750136253E+03  0.11236382702E+03 -0.16799045726E+03  0.26648413072E+03  0.91709959232E+02 0.  0.
        -11    1    3    3    0    0  0.13661992092E+03 -0.47319949553E+02 -0.16367846937E+03  0.21839144158E+03  0.00000000000E+00 0.  1.
         12    1    3    3    0    0  0.12965520181E+03 -0.33185220594E+02 -0.30059041399E+03  0.32903848894E+03  0.00000000000E+00 0. -1.
        -13    1    4    4    0    0 -0.52519859431E+02  0.35809937377E+02 -0.11921419398E+03  0.13510259545E+03  0.00000000000E+00 0. -1.
         13    1    4    4    0    0 -0.94981503096E+02  0.76553889645E+02 -0.48776263277E+02  0.13138153527E+03  0.00000000000E+00 0.  1.
         -2    1    1    2    0  502 -0.11877376021E+03 -0.31858656876E+02 -0.40390894038E+02  0.12943571552E+03  0.00000000000E+00 0.  1.
<scales pt_clust_5="13000.00000" pt_clust_6="13000.00000" pt_clust_7="13000.00000" pt_clust_8="13000.00000" pt_clust_9="122.97227"></scales>
<clustering>
<clus scale="   82.161">  5  6 -1 -1</clus>
<clus scale="   91.710">  7  8 -1 -1</clus>
<clus scale="  122.972">  1  9  2 -1</clus>
<clus scale="  246.362">  2  5  1 -1</clus>
<clus scale="  122.972">  1  5  2 -1</clus>
</clustering>
</event>
<event>
 9    2  0.7820252E-005  0.9528311E+02  0.7546771E-02  0.1295385E+00
          2   -1    0    0  502    0 -0.00000000000E+00  0.00000000000E+00  0.16001513244E+03  0.16001513244E+03  0.00000000000E+00 0. -1.
         21   -1    0    0  501  502  0.00000000000E+00 -0.00000000000E+00 -0.14863616374E+03  0.14863616374E+03  0.00000000000E+00 0. -1.
         24    2    1    2    0    0 -0.22194795199E+02 -0.43301801667E+01  0.81999087005E+02  0.11736019509E+03  0.80859172188E+02 0.  0.
         23    2    1    2    0    0  0.57932205446E+02  0.23103631998E+02  0.83516318868E+00  0.10922123915E+03  0.89658593261E+02 0.  0.
        -13    1    3    3    0    0 -0.23816956277E+02  0.35342829147E+02  0.53917059654E+02  0.68727085637E+02  0.00000000000E+00 0.  1.
         14    1    3    3    0    0  0.16221610784E+01 -0.39673009314E+02  0.28082027351E+02  0.48633109450E+02  0.00000000000E+00 0. -1.
        -13    1    4    4    0    0  0.38981177639E+02 -0.27221395716E+02 -0.19960760375E+02  0.51565187381E+02  0.00000000000E+00 0.  1.
         13    1    4    4    0    0  0.18951027807E+02  0.50325027713E+02  0.20795923564E+02  0.57656051774E+02  0.00000000000E+00 0. -1.
          1    1    1    2  501    0 -0.35737410247E+02 -0.18773451831E+02 -0.71455281500E+02  0.82069861941E+02  0.00000000000E+00 0. -1.
<scales pt_clust_5="13000.00000" pt_clust_6="13000.00000" pt_clust_7="13000.00000" pt_clust_8="13000.00000" pt_clust_9="40.36837"></scales>
<clustering>
<clus scale="   40.368">  2  9  1 -1</clus>
<clus scale="   80.859">  5  6 -1 -1</clus>
<clus scale="   87.054">  1  5  2 -1</clus>
<clus scale="   89.659">  7  8 -1 -1</clus>
<clus scale="   40.368">  2  5  1 -1</clus>
</clustering>
</event>
<event>
 9    2  0.7820252E-005  0.9998475E+02  0.7546771E-02  0.1284983E+00
          2   -1    0    0  502    0 -0.00000000000E+00  0.00000000000E+00  0.37742022930E+03  0.37742022930E+03  0.00000000000E+00 0. -1.
         21   -1    0    0  501  502  0.00000000000E+00 -0.00000000000E+00 -0.52379795998E+02  0.52379795998E+02  0.00000000000E+00 0. -1.
         24    2    1    2    0    0 -0.10978724639E+02 -0.48006346651E+02  0.26019122901E+03  0.27718212747E+03  0.81885984256E+02 0.  0.
         23    2    1    2    0    0  0.18108704944E+02  0.13336364839E+02  0.69568199313E+02  0.11690917100E+03  0.91226290544E+02 0.  0.
        -13    1    3    3    0    0  0.89166364041E+00 -0.53683480393E+02  0.79025631365E+02  0.95539319360E+02  0.00000000000E+00 0.  1.
         14    1    3    3    0    0 -0.11870388279E+02  0.56771337418E+01  0.18116559765E+03  0.18164280811E+03  0.00000000000E+00 0. -1.
        -11    1    4    4    0    0 -0.78416549320E+01  0.45647778975E+02  0.15617004731E+02  0.48878442224E+02  0.00000000000E+00 0.  1.
         11    1    4    4    0    0  0.25950359876E+02 -0.32311414136E+02  0.53951194582E+02  0.68030728777E+02  0.00000000000E+00 0. -1.
          1    1    1    2  501    0 -0.71299803051E+01  0.34669981811E+02 -0.47189950237E+01  0.35708726832E+02  0.00000000000E+00 0. -1.
<scales pt_clust_5="13000.00000" pt_clust_6="13000.00000" pt_clust_7="13000.00000" pt_clust_8="13000.00000" pt_clust_9="35.39554"></scales>
<clustering>
<clus scale="   35.396">  2  9  1 -1</clus>
<clus scale="   81.886">  5  6 -1 -1</clus>
<clus scale="   91.226">  7  8 -1 -1</clus>
<clus scale="   91.542">  1  5  2 -1</clus>
<clus scale="   35.396">  2  5  1 -1</clus>
</clustering>
</event>
<event>
 9    2  0.7820252E-005  0.9284771E+02  0.7546771E-02  0.1303840E+00
          2   -1    0    0  502    0 -0.00000000000E+00  0.00000000000E+00  0.26167648743E+03  0.26167648743E+03  0.00000000000E+00 0. -1.
         21   -1    0    0  501  502  0.00000000000E+00 -0.00000000000E+00 -0.51553328982E+02  0.51553328982E+02  0.00000000000E+00 0. -1.
         24    2    1    2    0    0  0.53109678903E+01 -0.12690578040E+02  0.13805897896E+03  0.16023952961E+03  0.80169620353E+02 0.  0.
         23    2    1    2    0    0  0.16956338064E+02 -0.10024444390E+02  0.28088747934E+02  0.98716501796E+02  0.92563292295E+02 0.  0.
        -13    1    3    3    0    0  0.20256498193E+02  0.29715154409E+02  0.69477265395E+02  0.78233027088E+02  0.00000000000E+00 0.  1.
         14    1    3    3    0    0 -0.14945530302E+02 -0.42405732449E+02  0.68581713567E+02  0.82006502524E+02  0.00000000000E+00 0. -1.
        -11    1    4    4    0    0  0.45694749824E+02 -0.27187517187E+02 -0.26959035362E+01  0.53239451051E+02  0.00000000000E+00 0. -1.
         11    1    4    4    0    0 -0.28738411760E+02  0.17163072797E+02  0.30784651470E+02  0.45477050745E+02  0.00000000000E+00 0.  1.
          1    1    1    2  501    0 -0.22267305954E+02  0.22715022430E+02  0.43975431549E+02  0.54273785001E+02  0.00000000000E+00 0. -1.
<scales pt_clust_5="13000.00000" pt_clust_6="13000.00000" pt_clust_7="13000.00000" pt_clust_8="13000.00000" pt_clust_9="31.80890"></scales>
<clustering>
<clus scale="   31.809">  2  9  1 -1</clus>
<clus scale="   80.170">  5  6 -1 -1</clus>
<clus scale="   80.498">  1  5  2 -1</clus>
<clus scale="   92.563">  7  8 -1 -1</clus>
<clus scale="   31.809">  2  5  1 -1</clus>
</clustering>
</event>
<event>
 9    2  0.7820252E-005  0.1118316E+03  0.7546771E-02  0.1261181E+00
         21   -1    0    0  501  502  0.00000000000E+00  0.00000000000E+00  0.55083955035E+02  0.55083955035E+02  0.00000000000E+00 0. -1.
          2   -1    0    0  502    0 -0.00000000000E+00 -0.00000000000E+00 -0.85446405746E+03  0.85446405746E+03  0.00000000000E+00 0. -1.
         24    2    1    2    0    0 -0.60588989182E+02  0.20891090616E+02 -0.61233721289E+03  0.62085883065E+03  0.80008512220E+02 0.  0.
         23    2    1    2    0    0  0.72973709734E+02 -0.21839962660E+01 -0.21996813037E+03  0.24884689068E+03  0.90602784005E+02 0.  0.
        -11    1    3    3    0    0  0.95457547592E+01 -0.19142933733E+02 -0.10815502189E+03  0.11025008892E+03  0.00000000000E+00 0.  1.
         12    1    3    3    0    0 -0.70134743941E+02  0.40034024348E+02 -0.50418219099E+03  0.51060874173E+03  0.00000000000E+00 0. -1.
        -11    1    4    4    0    0  0.54852394135E+02 -0.44217313989E+02 -0.12759090430E+03  0.14575114017E+03  0.00000000000E+00 0.  1.
         11    1    4    4    0    0  0.18121315599E+02  0.42033317723E+02 -0.92377226064E+02  0.10309575051E+03  0.00000000000E+00 0. -1.
          1    1    1    2  501    0 -0.12384720552E+02 -0.18707094350E+02  0.32925240830E+02  0.39842291172E+02  0.00000000000E+00 0. -1.
<scales pt_clust_5="13000.00000" pt_clust_6="13000.00000" pt_clust_7="13000.00000" pt_clust_8="13000.00000" pt_clust_9="22.43517"></scales>
<clustering>
<clus scale="   22.435">  1  9  2 -1</clus>
<clus scale="   80.009">  5  6 -1 -1</clus>
<clus scale="   90.603">  7  8 -1 -1</clus>
<clus scale="  103.435">  2  5  1 -1</clus>
<clus scale="   22.435">  1  5  2 -1</clus>
</clustering>
</event>
<event>
 9    2  0.7820252E-005  0.8915191E+02  0.7546771E-02  0.1310178E+00
          2   -1    0    0  502    0 -0.00000000000E+00  0.00000000000E+00  0.50415447416E+03  0.50415447416E+03  0.00000000000E+00 0. -1.
         21   -1    0    0  501  502  0.00000000000E+00 -0.00000000000E+00 -0.39391291098E+02  0.39391291098E+02  0.00000000000E+00 0.  1.
         24    2    1    2    0    0  0.75779632357E+00 -0.30272574973E+01  0.35722609154E+03  0.36628495472E+03  0.80897769015E+02 0.  0.
         23    2    1    2    0    0  0.21492966555E+02 -0.33696818029E+02  0.80451192933E+02  0.12649270959E+03  0.89053848756E+02 0.  0.
        -11    1    3    3    0    0  0.88810804149E+01 -0.39521941623E+02  0.23509527052E+03  0.23855951811E+03  0.00000000000E+00 0.  1.
         12    1    3    3    0    0 -0.81232840913E+01  0.36494684126E+02  0.12213082102E+03  0.12772543661E+03  0.00000000000E+00 0. -1.
        -13    1    4    4    0    0 -0.11191934990E+02 -0.54328665722E+02  0.63418618906E+02  0.84254285066E+02  0.00000000000E+00 0. -1.
         13    1    4    4    0    0  0.32684901545E+02  0.20631847693E+02  0.17032574027E+02  0.42238424524E+02  0.00000000000E+00 0.  1.
          1    1    1    2  501    0 -0.22250762879E+02  0.36724075526E+02  0.27085898591E+02  0.50768100953E+02  0.00000000000E+00 0. -1.
<scales pt_clust_5="13000.00000" pt_clust_6="13000.00000" pt_clust_7="13000.00000" pt_clust_8="13000.00000" pt_clust_9="42.93896"></scales>
<clustering>
<clus scale="   42.939">  2  9  1 -1</clus>
<clus scale="   80.898">  5  6 -1 -1</clus>
<clus scale="   81.006">  1  5  2 -1</clus>
<clus scale="   89.054">  7  8 -1 -1</clus>
<clus scale="   42.939">  2  5  1 -1</clus>
</clustering>
</event>
<event>
 9    2  0.7820252E-005  0.1602449E+03  0.7546771E-02  0.1192728E+00
         21   -1    0    0  501  502  0.00000000000E+00  0.00000000000E+00  0.24256514980E+03  0.24256514980E+03  0.00000000000E+00 0.  1.
         -1   -1    0    0    0  501 -0.00000000000E+00 -0.00000000000E+00 -0.25132368146E+03  0.25132368146E+03  0.00000000000E+00 0.  1.
         23    2    1    2    0    0  0.87274473110E+02 -0.12089707852E+03 -0.16524529802E+03  0.23975570289E+03  0.89128285626E+02 0.  0.
         24    2    1    2    0    0 -0.75947607126E+02  0.33224926507E+02  0.12280797286E+03  0.15953415763E+03  0.59138942191E+02 0.  0.
        -11    1    4    4    0    0 -0.43000917789E+02  0.34670646893E+02  0.11191340575E+03  0.12480281677E+03  0.00000000000E+00 0.  1.
         12    1    4    4    0    0 -0.32946689337E+02 -0.14457203861E+01  0.10894567113E+02  0.34731340865E+02  0.00000000000E+00 0. -1.
        -13    1    3    3    0    0  0.77340281900E+02 -0.34370684377E+02 -0.63391425222E+02  0.10574183628E+03  0.00000000000E+00 0. -1.
         13    1    3    3    0    0  0.99341912100E+01 -0.86526394147E+02 -0.10185387280E+03  0.13401386661E+03  0.00000000000E+00 0.  1.
         -2    1    1    2    0  502 -0.11326865983E+02  0.87672152017E+02  0.33678793492E+02  0.94598970732E+02  0.00000000000E+00 0.  1.
<scales pt_clust_5="13000.00000" pt_clust_6="13000.00000" pt_clust_7="13000.00000" pt_clust_8="13000.00000" pt_clust_9="88.40082"></scales>
<clustering>
<clus scale="   59.139">  5  6 -1 -1</clus>
<clus scale="   88.401">  1  9  2 -1</clus>
<clus scale="   89.128">  7  8 -1 -1</clus>
<clus scale="  145.712">  1  5  2 -1</clus>
<clus scale="   88.401">  1  5  2 -1</clus>
</clustering>
</event>
<event>
 9    2  0.7820252E-005  0.1170707E+03  0.7546771E-02  0.1263318E+00
         21   -1    0    0  501  502  0.00000000000E+00  0.00000000000E+00  0.12293363551E+03  0.12293363551E+03  0.00000000000E+00 0. -1.
          2   -1    0    0  502    0 -0.00000000000E+00 -0.00000000000E+00 -0.32476433251E+03  0.32476433251E+03  0.00000000000E+00 0. -1.
         24    2    1    2    0    0  0.26014127080E+02 -0.20573277396E+02 -0.22978719863E+03  0.24551649831E+03  0.79851109812E+02 0.  0.
         23    2    1    2    0    0  0.49524646564E+02 -0.23830289205E+02  0.34782682170E+02  0.11429301886E+03  0.93981306018E+02 0.  0.
        -13    1    3    3    0    0  0.85664193487E-01  0.21426240230E+02 -0.17789882041E+02  0.27849075600E+02  0.00000000000E+00 0.  1.
         14    1    3    3    0    0  0.25928462887E+02 -0.41999517626E+02 -0.21199731659E+03  0.21766742271E+03  0.00000000000E+00 0. -1.
        -11    1    4    4    0    0  0.20123358241E+02 -0.42018431963E+02  0.56679784302E+02  0.73369585797E+02  0.00000000000E+00 0. -1.
         11    1    4    4    0    0  0.29401288323E+02  0.18188142758E+02 -0.21897102132E+02  0.40923433065E+02  0.00000000000E+00 0.  1.
          1    1    1    2  501    0 -0.75538773644E+02  0.44403566601E+02 -0.68261805349E+01  0.87888450841E+02  0.00000000000E+00 0. -1.
<scales pt_clust_5="13000.00000" pt_clust_6="13000.00000" pt_clust_7="13000.00000" pt_clust_8="13000.00000" pt_clust_9="69.80735"></scales>
<clustering>
<clus scale="   79.851">  5  6 -1 -1</clus>
<clus scale="   86.465">  2  5  1 -1</clus>
<clus scale="   69.807">  1  9  2 -1</clus>
<clus scale="   93.981">  7  8 -1 -1</clus>
<clus scale="   69.807">  1  5  2 -1</clus>
</clustering>
</event>
<event>
 9    2  0.7820252E-005  0.1207547E+03  0.7546771E-02  0.1246466E+00
         21   -1    0    0  501  502  0.00000000000E+00  0.00000000000E+00  0.35990812929E+02  0.35990812929E+02  0.00000000000E+00 0. -1.
          2   -1    0    0  502    0 -0.00000000000E+00 -0.00000000000E+00 -0.13350219360E+04  0.13350219360E+04  0.00000000000E+00 0. -1.
         24    2    1    2    0    0 -0.74269348916E+02  0.47117493910E+01 -0.10503857239E+04  0.10561042849E+04  0.80671895904E+02 0.  0.
         23    2    1    2    0    0  0.77642603853E+02  0.22540576943E+02 -0.25750500984E+03  0.28605433370E+03  0.94772359874E+02 0.  0.
        -11    1    3    3    0    0 -0.37731959328E+02  0.26362180606E+01 -0.14107846203E+03  0.14606088747E+03  0.00000000000E+00 0.  1.
         12    1    3    3    0    0 -0.36537389588E+02  0.20755313304E+01 -0.90930726186E+03  0.91004339739E+03  0.00000000000E+00 0. -1.
        -13    1    4    4    0    0  0.98117833028E+02  0.85151833906E+01 -0.22052861646E+03  0.24152119614E+03  0.00000000000E+00 0.  1.
         13    1    4    4    0    0 -0.20475229175E+02  0.14025393552E+02 -0.36976393378E+02  0.44533137564E+02  0.00000000000E+00 0. -1.
          1    1    1    2  501    0 -0.33732549370E+01 -0.27252326334E+02  0.88596106366E+01  0.28854130382E+02  0.00000000000E+00 0. -1.
<scales pt_clust_5="13000.00000" pt_clust_6="13000.00000" pt_clust_7="13000.00000" pt_clust_8="13000.00000" pt_clust_9="27.46030"></scales>
<clustering>
<clus scale="   27.460">  1  9  2 -1</clus>
<clus scale="   80.672">  5  6 -1 -1</clus>
<clus scale="   94.772">  7  8 -1 -1</clus>
<clus scale="  110.036">  2  5  1 -1</clus>
<clus scale="   27.460">  1  5  2 -1</clus>
</clustering>
</event>
<event>
 9    2  0.7820252E-005  0.1290952E+03  0.7546771E-02  0.1232287E+00
          2   -1    0    0  502    0 -0.00000000000E+00  0.00000000000E+00  0.14923041360E+04  0.14923041360E+04  0.00000000000E+00 0. -1.
         21   -1    0    0  501  502  0.00000000000E+00 -0.00000000000E+00 -0.27290780505E+02  0.27290780505E+02  0.00000000000E+00 0. -1.
         24    2    1    2    0    0  0.98177286607E+01  0.98896669715E+02  0.11103650446E+04  0.11176909593E+04  0.80284550893E+02 0.  0.
         23    2    1    2    0    0 -0.54072620988E+02 -0.39973703878E+02  0.20149673081E+03  0.23194567447E+03  0.93145681774E+02 0.  0.
        -13    1    3    3    0    0  0.26448355161E+02  0.36604532105E+02  0.19952320763E+03  0.20457008004E+03  0.00000000000E+00 0.  1.
         14    1    3    3    0    0 -0.16630626500E+02  0.62292137609E+02  0.91084183694E+03  0.91312087922E+03  0.00000000000E+00 0. -1.
        -13    1    4    4    0    0  0.11363531045E+02 -0.34494912932E+02  0.12952122174E+03  0.13451682325E+03  0.00000000000E+00 0.  1.
         13    1    4    4    0    0 -0.65436152033E+02 -0.54787909458E+01  0.71975509071E+02  0.97428851215E+02  0.00000000000E+00 0. -1.
          1    1    1    2  501    0  0.44254892327E+02 -0.58922965836E+02  0.15315158012E+03  0.16995828280E+03  0.00000000000E+00 0. -1.
<scales pt_clust_5="13000.00000" pt_clust_6="13000.00000" pt_clust_7="13000.00000" pt_clust_8="13000.00000" pt_clust_9="73.69133"></scales>
<clustering>
<clus scale="   73.691">  2  9  1 -1</clus>
<clus scale="   80.285">  5  6 -1 -1</clus>
<clus scale="   93.146">  7  8 -1 -1</clus>
<clus scale="  120.146">  1  5  2 -1</clus>
<clus scale="   73.691">  2  5  1 -1</clus>
</clustering>
</event>
<event>
 9    2  0.7820252E-005  0.1119520E+03  0.7546771E-02  0.1262918E+00
         -1   -1    0    0    0  501 -0.00000000000E+00  0.00000000000E+00  0.19769745378E+03  0.19769745378E+03  0.00000000000E+00 0.  1.
         21   -1    0    0  501  502  0.00000000000E+00 -0.00000000000E+00 -0.18421192747E+03  0.18421192747E+03  0.00000000000E+00 0.  1.
         23    2    1    2    0    0  0.49317550930E+02  0.73233766899E+01  0.72617774471E+02  0.12968978646E+03  0.95185329051E+02 0.  0.
         24    2    1    2    0    0 -0.65239203744E+02 -0.21289354360E+02  0.66472484346E+02  0.12484182440E+03  0.80358569123E+02 0.  0.
        -11    1    4    4    0    0 -0.13803684646E+02  0.29379154882E+02  0.28844970850E+02  0.43424748643E+02  0.00000000000E+00 0.  1.
         12    1    4    4    0    0 -0.51435519097E+02 -0.50668509243E+02  0.37627513496E+02  0.81417075761E+02  0.00000000000E+00 0. -1.
        -11    1    3    3    0    0  0.99182473835E+01 -0.18517868499E+02  0.79359079020E+02  0.82092304803E+02  0.00000000000E+00 0.  1.
         11    1    3    3    0    0  0.39399303546E+02  0.25841245189E+02 -0.67413045493E+01  0.47597481655E+02  0.00000000000E+00 0. -1.
         -2    1    1    2    0  502  0.15921652814E+02  0.13965977671E+02 -0.12560473251E+03  0.12737777039E+03  0.00000000000E+00 0.  1.
<scales pt_clust_5="13000.00000" pt_clust_6="13000.00000" pt_clust_7="13000.00000" pt_clust_8="13000.00000" pt_clust_9="21.17894"></scales>
<clustering>
<clus scale="   21.179">  2  9  1 -1</clus>
<clus scale="   80.359">  5  6 -1 -1</clus>
<clus scale="   95.185">  7  8 -1 -1</clus>
<clus scale="   99.652">  2  5  1 -1</clus>
<clus scale="   21.179">  2  5  1 -1</clus>
</clustering>
</event>
<event>
 9    2  0.7820252E-005  0.1179180E+03  0.7546771E-02  0.1252042E+00
         -3   -1    0    0    0  501 -0.00000000000E+00  0.00000000000E+00  0.83469427903E+02  0.83469427903E+02  0.00000000000E+00 0.  1.
         21   -1    0    0  501  502  0.00000000000E+00 -0.00000000000E+00 -0.50727800533E+03  0.50727800533E+03  0.00000000000E+00 0.  1.
         24    2    1    2    0    0  0.32976180924E+02  0.61466927042E+02  0.17474837514E+02  0.10841104992E+03  0.81129366885E+02 0.  0.
         23    2    1    2    0    0 -0.79373569890E+02 -0.16528483188E+02 -0.24220121200E+03  0.27303778091E+03  0.96513462042E+02 0.  0.
        -11    1    3    3    0    0  0.30398758709E+01  0.46791285579E+02  0.45140667551E+02  0.65087211634E+02  0.00000000000E+00 0.  1.
         12    1    3    3    0    0  0.29936305053E+02  0.14675641464E+02 -0.27665830036E+02  0.43323838290E+02  0.00000000000E+00 0. -1.
        -13    1    4    4    0    0 -0.39726549055E+02 -0.16840826197E+02 -0.22620618273E+03  0.23028471341E+03  0.00000000000E+00 0. -1.
         13    1    4    4    0    0 -0.39647020835E+02  0.31234300866E+00 -0.15995029279E+02  0.42753067503E+02  0.00000000000E+00 0.  1.
         -4    1    1    2    0  502  0.46397388966E+02 -0.44938443854E+02 -0.19908220294E+03  0.20929860240E+03  0.00000000000E+00 0.  1.
<scales pt_clust_5="13000.00000" pt_clust_6="13000.00000" pt_clust_7="13000.00000" pt_clust_8="13000.00000" pt_clust_9="64.59243"></scales>
<clustering>
<clus scale="   64.592">  2  9  1 -1</clus>
<clus scale="   81.129">  5  6 -1 -1</clus>
<clus scale="   96.513">  7  8 -1 -1</clus>
<clus scale="  105.697">  1  5  2 -1</clus>
<clus scale="   64.592">  2  5  1 -1</clus>
</clustering>
</event>
<event>
 9    2  0.7820252E-005  0.1302381E+03  0.7546771E-02  0.1229907E+00
         21   -1    0    0  501  502  0.00000000000E+00  0.00000000000E+00  0.49306993042E+02  0.49306993042E+02  0.00000000000E+00 0. -1.
          2   -1    0    0  502    0 -0.00000000000E+00 -0.00000000000E+00 -0.11622232492E+04  0.11622232492E+04  0.00000000000E+00 0. -1.
         23    2    1    2    0    0 -0.40782893859E+02 -0.10141096955E+03 -0.77506433344E+03  0.78811917083E+03  0.91976503985E+02 0.  0.
         24    2    1    2    0    0  0.20970034404E+02  0.68480849867E+02 -0.36211288409E+03  0.37796289838E+03  0.81245569634E+02 0.  0.
        -13    1    4    4    0    0 -0.25200446573E+02  0.19557316631E+02 -0.55108444842E+02  0.63674891709E+02  0.00000000000E+00 0.  1.
         14    1    4    4    0    0  0.46170480977E+02  0.48923533236E+02 -0.30700443925E+03  0.31428800667E+03  0.00000000000E+00 0. -1.
        -13    1    3    3    0    0  0.28189679468E+02 -0.44603944955E+02 -0.25022946870E+03  0.25573219769E+03  0.00000000000E+00 0.  1.
         13    1    3    3    0    0 -0.68972573328E+02 -0.56807024590E+02 -0.52483486474E+03  0.53238697313E+03  0.00000000000E+00 0. -1.
          1    1    1    2  501    0  0.19812859456E+02  0.32930119678E+02  0.24260961397E+02  0.45448173007E+02  0.00000000000E+00 0. -1.
<scales pt_clust_5="13000.00000" pt_clust_6="13000.00000" pt_clust_7="13000.00000" pt_clust_8="13000.00000" pt_clust_9="38.43101"></scales>
<clustering>
<clus scale="   38.431">  1  9  2 -1</clus>
<clus scale="   81.246">  5  6 -1 -1</clus>
<clus scale="   91.977">  7  8 -1 -1</clus>
<clus scale="  122.895">  1  5  2 -1</clus>
<clus scale="   38.431">  1  5  2 -1</clus>
</clustering>
</event>
<event>
 9    2  0.7820252E-005  0.3055559E+03  0.7546771E-02  0.1083061E+00
          2   -1    0    0  502    0 -0.00000000000E+00  0.00000000000E+00  0.10788279129E+04  0.10788279129E+04  0.00000000000E+00 0. -1.
         21   -1    0    0  501  502  0.00000000000E+00 -0.00000000000E+00 -0.17090546749E+03  0.17090546749E+03  0.00000000000E+00 0.  1.
         23    2    1    2    0    0  0.10919233800E+03  0.27914039494E+03  0.85554277564E+03  0.91160323715E+03  0.96045271962E+02 0.  0.
         24    2    1    2    0    0 -0.91411681663E+02 -0.22684544452E+03 -0.63871211149E+01  0.25747997716E+03  0.80250807352E+02 0.  0.
        -11    1    4    4    0    0 -0.10188272920E+03 -0.19644294304E+03  0.97430366606E+01  0.22150586255E+03  0.00000000000E+00 0.  1.
         12    1    4    4    0    0  0.10471047534E+02 -0.30402501472E+02 -0.16130157776E+02  0.35974114611E+02  0.00000000000E+00 0. -1.
        -13    1    3    3    0    0  0.20682510209E+02  0.25519967084E+02  0.34071492381E+02  0.47327598096E+02  0.00000000000E+00 0.  1.
         13    1    3    3    0    0  0.88509827790E+02  0.25362042786E+03  0.82147128326E+03  0.86427563905E+03  0.00000000000E+00 0. -1.
          1    1    1    2  501    0 -0.17780656336E+02 -0.52294950424E+02  0.58766790906E+02  0.80650166106E+02  0.00000000000E+00 0. -1.
<scales pt_clust_5="13000.00000" pt_clust_6="13000.00000" pt_clust_7="13000.00000" pt_clust_8="13000.00000" pt_clust_9="55.23510"></scales>
<clustering>
<clus scale="   55.235">  2  9  1 -1</clus>
<clus scale="   80.251">  5  6 -1 -1</clus>
<clus scale="   96.045">  7  8 -1 -1</clus>
<clus scale="  300.965">  2  5  1 -1</clus>
<clus scale="   55.235">  2  5  1 -1</clus>
</clustering>
</event>
<event>
 9    2  0.7820252E-005  0.1206849E+03  0.7546771E-02  0.1267312E+00
          2   -1    0    0  502    0 -0.00000000000E+00  0.00000000000E+00  0.77199472686E+03  0.77199472686E+03  0.00000000000E+00 0. -1.
         21   -1    0    0  501  502  0.00000000000E+00 -0.00000000000E+00 -0.85809790287E+02  0.85809790287E+02  0.00000000000E+00 0. -1.
         24    2    1    2    0    0  0.11978303752E+02 -0.35802372402E+02  0.54361102692E+03  0.54849295497E+03  0.62500267429E+02 0.  0.
         23    2    1    2    0    0 -0.46761582739E+02 -0.41384681963E+02  0.18502458109E+03  0.21460265360E+03  0.88999246091E+02 0.  0.
        -13    1    3    3    0    0 -0.63015255942E+01 -0.39908778565E+02  0.18352187569E+03  0.18791673339E+03  0.00000000000E+00 0.  1.
         14    1    3    3    0    0  0.18279829346E+02  0.41064061635E+01  0.36008915124E+03  0.36057622158E+03  0.00000000000E+00 0. -1.
        -13    1    4    4    0    0 -0.40802548594E+02 -0.67745391728E+02  0.15626592865E+03  0.17513802137E+03  0.00000000000E+00 0. -1.
         13    1    4    4    0    0 -0.59590341444E+01  0.26360709765E+02  0.28758652442E+02  0.39464632236E+02  0.00000000000E+00 0.  1.
          1    1    1    2  501    0  0.34783278987E+02  0.77187054365E+02 -0.42450671435E+02  0.94708908577E+02  0.00000000000E+00 0. -1.
<scales pt_clust_5="13000.00000" pt_clust_6="13000.00000" pt_clust_7="13000.00000" pt_clust_8="13000.00000" pt_clust_9="81.51062"></scales>
<clustering>
<clus scale="   62.500">  5  6 -1 -1</clus>
<clus scale="   73.018">  1  5  2 -1</clus>
<clus scale="   81.511">  2  9  1 -1</clus>
<clus scale="   88.999">  7  8 -1 -1</clus>
<clus scale="   81.511">  2  5  1 -1</clus>
</clustering>
</event>
<event>
 9    2  0.7820252E-005  0.1031318E+03  0.7546771E-02  0.1277604E+00
         21   -1    0    0  501  502  0.00000000000E+00  0.00000000000E+00  0.79666368016E+02  0.79666368016E+02  0.00000000000E+00 0.  1.
          2   -1    0    0  502    0 -0.00000000000E+00 -0.00000000000E+00 -0.38809270704E+03  0.38809270704E+03  0.00000000000E+00 0. -1.
         24    2    1    2    0    0  0.41592730049E+02  0.61925909155E+00 -0.24790538807E+03  0.26438655790E+03  0.81931873485E+02 0.  0.
         23    2    1    2    0    0 -0.80410337537E+02 -0.16631775810E+02 -0.90399962953E+02  0.15183648411E+03  0.90220431483E+02 0.  0.
        -13    1    3    3    0    0 -0.19092790045E+02  0.16734492263E+02 -0.41575688763E+02  0.48714635985E+02  0.00000000000E+00 0.  1.
         14    1    3    3    0    0  0.60685520094E+02 -0.16115233172E+02 -0.20632969930E+03  0.21567192192E+03  0.00000000000E+00 0. -1.
        -13    1    4    4    0    0 -0.96410782903E+02 -0.37590056637E+01 -0.55403434751E+02  0.11125965021E+03  0.00000000000E+00 0.  1.
         13    1    4    4    0    0  0.16000445366E+02 -0.12872770147E+02 -0.34996528202E+02  0.40576833900E+02  0.00000000000E+00 0. -1.
          1    1    1    2  501    0  0.38817607488E+02  0.16012516719E+02  0.29879012000E+02  0.51536033033E+02  0.00000000000E+00 0. -1.
<scales pt_clust_5="13000.00000" pt_clust_6="13000.00000" pt_clust_7="13000.00000" pt_clust_8="13000.00000" pt_clust_9="41.99056"></scales>
<clustering>
<clus scale="   41.991">  1  9  2 -1</clus>
<clus scale="   81.932">  5  6 -1 -1</clus>
<clus scale="   90.220">  7  8 -1 -1</clus>
<clus scale="   95.965">  2  5  1 -1</clus>
<clus scale="   41.991">  1  5  2 -1</clus>
</clustering>
</event>
<event>
 9    2  0.7820252E-005  0.9620579E+02  0.7546771E-02  0.1293990E+00
         21   -1    0    0  501  502  0.00000000000E+00  0.00000000000E+00  0.28539097948E+03  0.28539097948E+03  0.00000000000E+00 0. -1.
          2   -1    0    0  502    0 -0.00000000000E+00 -0.00000000000E+00 -0.11182644284E+03  0.11182644284E+03  0.00000000000E+00 0. -1.
         24    2    1    2    0    0  0.16678305188E+02  0.25539640869E+02 -0.69507614358E+02  0.11047481117E+03  0.80267903483E+02 0.  0.
         23    2    1    2    0    0 -0.53970399212E+02 -0.34917312910E+02  0.20228655645E+03  0.23068812220E+03  0.90361142487E+02 0.  0.
        -11    1    3    3    0    0 -0.30015932898E+02  0.46562571361E+01 -0.43597442710E+02  0.53135430450E+02  0.00000000000E+00 0.  1.
         12    1    3    3    0    0  0.46694238086E+02  0.20883383733E+02 -0.25910171648E+02  0.57339380720E+02  0.00000000000E+00 0. -1.
        -13    1    4    4    0    0 -0.42758190430E+02 -0.75059077686E+01  0.19555662472E+03  0.20031723584E+03  0.00000000000E+00 0.  1.
         13    1    4    4    0    0 -0.11212208781E+02 -0.27411405141E+02  0.67299317318E+01  0.30370886366E+02  0.00000000000E+00 0. -1.
          1    1    1    2  501    0  0.37292094024E+02  0.93776720410E+01  0.40785594541E+02  0.56054488952E+02  0.00000000000E+00 0. -1.
<scales pt_clust_5="13000.00000" pt_clust_6="13000.00000" pt_clust_7="13000.00000" pt_clust_8="13000.00000" pt_clust_9="38.45310"></scales>
<clustering>
<clus scale="   38.453">  1  9  2 -1</clus>
<clus scale="   80.268">  5  6 -1 -1</clus>
<clus scale="   86.795">  2  5  1 -1</clus>
<clus scale="   90.361">  7  8 -1 -1</clus>
<clus scale="   38.453">  1  5  2 -1</clus>
</clustering>
</event>
<event>
 9    2  0.7820252E-005  0.1110618E+03  0.7546771E-02  0.1263940E+00
         21   -1    0    0  501  502  0.00000000000E+00  0.00000000000E+00  0.64921729898E+03  0.64921729898E+03  0.00000000000E+00 0.  1.
          4   -1    0    0  502    0 -0.00000000000E+00 -0.00000000000E+00 -0.78678658874E+02  0.78678658874E+02  0.00000000000E+00 0. -1.
         24    2    1    2    0    0  0.62221377071E+02 -0.16501290764E+02 -0.34166254038E+02  0.10753641927E+03  0.79075635897E+02 0.  0.
         23    2    1    2    0    0 -0.29963183011E+02  0.10503505192E+02  0.34612743572E+03  0.35970868683E+03  0.92617609916E+02 0.  0.
        -13    1    3    3    0    0  0.61497545157E+02 -0.41510502640E+02 -0.14237418599E+02  0.75549811238E+02  0.00000000000E+00 0.  1.
         14    1    3    3    0    0  0.72383191386E+00  0.25009211876E+02 -0.19928835439E+02  0.31986608030E+02  0.00000000000E+00 0. -1.
        -11    1    4    4    0    0 -0.34932743867E+02 -0.32253747895E+02  0.24857835343E+03  0.25308456816E+03  0.00000000000E+00 0.  1.
         11    1    4    4    0    0  0.49695608557E+01  0.42757253087E+02  0.97549082289E+02  0.10662411867E+03  0.00000000000E+00 0. -1.
          3    1    1    2  501    0 -0.32258194060E+02  0.59977855718E+01  0.25857745842E+03  0.26065085175E+03  0.00000000000E+00 0. -1.
<scales pt_clust_5="13000.00000" pt_clust_6="13000.00000" pt_clust_7="13000.00000" pt_clust_8="13000.00000" pt_clust_9="32.81104"></scales>
<clustering>
<clus scale="   32.811">  1  9  2 -1</clus>
<clus scale="   79.076">  5  6 -1 -1</clus>
<clus scale="   92.618">  7  8 -1 -1</clus>
<clus scale="  100.048">  2  5  1 -1</clus>
<clus scale="   32.811">  1  5  2 -1</clus>
</clustering>
</event>
<event>
 9    2  0.1379484E-004  0.1098272E+03  0.7546771E-02  0.1264763E+00
         21   -1    0    0  501  502  0.00000000000E+00  0.00000000000E+00  0.15344382240E+03  0.15344382240E+03  0.00000000000E+00 0. -1.
          2   -1    0    0  502    0 -0.00000000000E+00 -0.00000000000E+00 -0.27690745590E+03  0.27690745590E+03  0.00000000000E+00 0. -1.
         23    2    1    2    0    0 -0.66881005495E+02  0.16969304575E+02 -0.22830954542E+03  0.25540294738E+03  0.91347637097E+02 0.  0.
         24    2    1    2    0    0  0.10724021050E+02 -0.14655722491E+02  0.56909800885E+02  0.10107796944E+03  0.81536713445E+02 0.  0.
        -13    1    4    4    0    0  0.15757504589E+02  0.31209020558E+02  0.12758132426E+02  0.37216553549E+02  0.00000000000E+00 0.  1.
         14    1    4    4    0    0 -0.50334835391E+01 -0.45864743048E+02  0.44151668459E+02  0.63861415887E+02  0.00000000000E+00 0. -1.
        -11    1    3    3    0    0 -0.58775707738E+02 -0.13195709093E+02 -0.21154257730E+03  0.21995220519E+03  0.00000000000E+00 0. -1.
         11    1    3    3    0    0 -0.81052977572E+01  0.30165013669E+02 -0.16766968126E+02  0.35450742185E+02  0.00000000000E+00 0.  1.
          1    1    1    2  501    0  0.56156984445E+02 -0.23135820849E+01  0.47936111044E+02  0.73870361486E+02  0.00000000000E+00 0. -1.
<scales pt_clust_5="13000.00000" pt_clust_6="13000.00000" pt_clust_7="13000.00000" pt_clust_8="13000.00000" pt_clust_9="56.20462"></scales>
<clustering>
<clus scale="   56.205">  1  9  2 -1</clus>
<clus scale="   81.537">  5  6 -1 -1</clus>
<clus scale="   91.348">  7  8 -1 -1</clus>
<clus scale="  101.813">  1  5  2 -1</clus>
<clus scale="   56.205">  1  5  2 -1</clus>
</clustering>
</event>
<event>
 9    2  0.7820252E-005  0.1262441E+03  0.7546771E-02  0.1236083E+00
         21   -1    0    0  501  502  0.00000000000E+00  0.00000000000E+00  0.71332733272E+02  0.71332733272E+02  0.00000000000E+00 0. -1.
          2   -1    0    0  502    0 -0.00000000000E+00 -0.00000000000E+00 -0.52450287349E+03  0.52450287349E+03  0.00000000000E+00 0. -1.
         24    2    1    2    0    0  0.85396304538E+02 -0.31203244446E+02 -0.43170163072E+03  0.44879721639E+03  0.82380047244E+02 0.  0.
         23    2    1    2    0    0 -0.50379359800E+02  0.30596327072E+02 -0.21776527168E+02  0.11201483198E+03  0.92730201787E+02 0.  0.
        -13    1    3    3    0    0  0.56303443185E+02  0.77004334017E+01 -0.11374211259E+03  0.12714811271E+03  0.00000000000E+00 0.  1.
         14    1    3    3    0    0  0.29092861353E+02 -0.38903677847E+02 -0.31795951813E+03  0.32164910368E+03  0.00000000000E+00 0. -1.
        -11    1    4    4    0    0 -0.60570987929E+02  0.55704416850E+02 -0.20896569854E+02  0.84902846047E+02  0.00000000000E+00 0.  1.
         11    1    4    4    0    0  0.10191628129E+02 -0.25108089779E+02 -0.87995731372E+00  0.27111985931E+02  0.00000000000E+00 0. -1.
          1    1    1    2  501    0 -0.35016944738E+02  0.60691737406E+00  0.30801766921E+00  0.35023558391E+02  0.00000000000E+00 0. -1.
<scales pt_clust_5="13000.00000" pt_clust_6="13000.00000" pt_clust_7="13000.00000" pt_clust_8="13000.00000" pt_clust_9="35.02220"></scales>
<clustering>
<clus scale="   35.022">  1  9  2 -1</clus>
<clus scale="   82.380">  5  6 -1 -1</clus>
<clus scale="   92.730">  7  8 -1 -1</clus>
<clus scale="  118.849">  2  5  1 -1</clus>
<clus scale="   35.022">  1  5  2 -1</clus>
</clustering>
</event>
<event>
 9    2  0.7820252E-005  0.1064466E+03  0.7546771E-02  0.1271957E+00
         21   -1    0    0  501  502  0.00000000000E+00  0.00000000000E+00  0.44937718900E+03  0.44937718900E+03  0.00000000000E+00 0.  1.
          2   -1    0    0  502    0 -0.00000000000E+00 -0.00000000000E+00 -0.48998196798E+02  0.48998196798E+02  0.00000000000E+00 0. -1.
         23    2    1    2    0    0 -0.62174172753E+02  0.10826789281E+02  0.11433544758E+03  0.15977014727E+03  0.92038352117E+02 0.  0.
         24    2    1    2    0    0  0.32340168337E+02 -0.28290881407E+01  0.29397316996E+03  0.30671621219E+03  0.81244814831E+02 0.  0.
        -13    1    4    4    0    0  0.27851369074E+02 -0.32013452570E+02  0.25109130571E+03  0.25465153388E+03  0.00000000000E+00 0.  1.
         14    1    4    4    0    0  0.44887992635E+01  0.29184364429E+02  0.42881864245E+02  0.52064678306E+02  0.00000000000E+00 0. -1.
        -13    1    3    3    0    0  0.17231498457E+02 -0.17047104558E+02  0.11326160072E+02  0.26754629784E+02  0.00000000000E+00 0.  1.
         13    1    3    3    0    0 -0.79405671210E+02  0.27873893839E+02  0.10300928751E+03  0.13301551748E+03  0.00000000000E+00 0. -1.
          1    1    1    2  501    0  0.29834004416E+02 -0.79977011400E+01 -0.79296253376E+01  0.31889026341E+02  0.00000000000E+00 0. -1.
<scales pt_clust_5="13000.00000" pt_clust_6="13000.00000" pt_clust_7="13000.00000" pt_clust_8="13000.00000" pt_clust_9="30.88741"></scales>
<clustering>
<clus scale="   30.887">  1  9  2 -1</clus>
<clus scale="   81.245">  5  6 -1 -1</clus>
<clus scale="   92.038">  7  8 -1 -1</clus>
<clus scale="   97.265">  1  5  2 -1</clus>
<clus scale="   30.887">  1  5  2 -1</clus>
</clustering>
</event>
<event>
 9    2  0.7820252E-005  0.1151607E+03  0.7546771E-02  0.1256432E+00
          2   -1    0    0  502    0 -0.00000000000E+00  0.00000000000E+00  0.41304872654E+03  0.41304872654E+03  0.00000000000E+00 0. -1.
         21   -1    0    0  501  502  0.00000000000E+00 -0.00000000000E+00 -0.41445847954E+02  0.41445847954E+02  0.00000000000E+00 0. -1.
         23    2    1    2    0    0  0.52950515622E+02  0.13582087611E+01  0.18968942728E+03  0.21832327761E+03  0.94219811556E+02 0.  0.
         24    2    1    2    0    0 -0.84451074889E+02  0.82202959528E+01  0.15216147740E+03  0.19179548210E+03  0.80204952664E+02 0.  0.
        -11    1    4    4    0    0 -0.17467782686E+02  0.26905788119E+02  0.99562668634E+02  0.10460291512E+03  0.00000000000E+00 0.  1.
         12    1    4    4    0    0 -0.66983292203E+02 -0.18685492167E+02  0.52598808769E+02  0.87192566976E+02  0.00000000000E+00 0. -1.
        -13    1    3    3    0    0  0.78080237489E+02 -0.10698094072E+02  0.15443835487E+03  0.17338448073E+03  0.00000000000E+00 0.  1.
         13    1    3    3    0    0 -0.25129721867E+02  0.12056302833E+02  0.35251072412E+02  0.44938796883E+02  0.00000000000E+00 0. -1.
          1    1    1    2  501    0  0.31500559267E+02 -0.95785047139E+01  0.29751973896E+02  0.44375814780E+02  0.00000000000E+00 0. -1.
<scales pt_clust_5="13000.00000" pt_clust_6="13000.00000" pt_clust_7="13000.00000" pt_clust_8="13000.00000" pt_clust_9="32.92466"></scales>
<clustering>
<clus scale="   32.925">  2  9  1 -1</clus>
<clus scale="   80.205">  5  6 -1 -1</clus>
<clus scale="   94.220">  7  8 -1 -1</clus>
<clus scale="  104.007">  2  5  1 -1</clus>
<clus scale="   32.925">  2  5  1 -1</clus>
</clustering>
</event>
<event>
 9    2  0.7820252E-005  0.1190704E+03  0.7546771E-02  0.1248143E+00
         21   -1    0    0  501  502  0.00000000000E+00  0.00000000000E+00  0.28416477639E+02  0.28416477639E+02  0.00000000000E+00 0. -1.
          4   -1    0    0  502    0 -0.00000000000E+00 -0.00000000000E+00 -0.83592926251E+03  0.83592926251E+03  0.00000000000E+00 0. -1.
         24    2    1    2    0    0  0.85924389910E+02 -0.26539734626E+02 -0.40290194539E+03  0.42489789077E+03  0.10060259287E+03 0.  0.
         23    2    1    2    0    0 -0.20110857428E+02  0.40338617822E+02 -0.20327974429E+03  0.22718376827E+03  0.90874415835E+02 0.  0.
        -11    1    3    3    0    0  0.84165328579E-01 -0.46705224377E+02 -0.13376139078E+03  0.14168096107E+03  0.00000000000E+00 0.  1.
         12    1    3    3    0    0  0.85840224581E+02  0.20165489752E+02 -0.26914055461E+03  0.28321692970E+03  0.00000000000E+00 0. -1.
        -11    1    4    4    0    0 -0.40318322422E+02  0.69724411374E+00 -0.35895167477E+02  0.53986260478E+02  0.00000000000E+00 0. -1.
         11    1    4    4    0    0  0.20207464994E+02  0.39641373708E+02 -0.16738457681E+03  0.17319750779E+03  0.00000000000E+00 0.  1.
          3    1    1    2  501    0 -0.65813532482E+02 -0.13798883196E+02 -0.20133109519E+03  0.21226408110E+03  0.00000000000E+00 0. -1.
<scales pt_clust_5="13000.00000" pt_clust_6="13000.00000" pt_clust_7="13000.00000" pt_clust_8="13000.00000" pt_clust_9="67.24459"></scales>
<clustering>
<clus scale="   67.245">  1  9  2 -1</clus>
<clus scale="   90.874">  7  8 -1 -1</clus>
<clus scale="  100.603">  5  6 -1 -1</clus>
<clus scale="  110.973">  1  7  2 -1</clus>
<clus scale="   67.245">  1  5  2 -1</clus>
</clustering>
</event>
<event>
 9    2  0.7820252E-005  0.1087077E+03  0.7546771E-02  0.1267618E+00
         21   -1    0    0  501  502  0.00000000000E+00  0.00000000000E+00  0.49454315618E+02  0.49454315618E+02  0.00000000000E+00 0.  1.
          2   -1    0    0  502    0 -0.00000000000E+00 -0.00000000000E+00 -0.54239017566E+03  0.54239017566E+03  0.00000000000E+00 0. -1.
         24    2    1    2    0    0  0.71841225654E+01  0.79969789039E+02 -0.31769758031E+03  0.33762045974E+03  0.81296024025E+02 0.  0.
         23    2    1    2    0    0  0.27503338459E+02 -0.18074302090E+01 -0.73648514398E+02  0.12143451874E+03  0.92533984229E+02 0.  0.
        -13    1    3    3    0    0  0.36708942500E+02  0.40958223003E+02 -0.96470557620E+02  0.11104814712E+03  0.00000000000E+00 0.  1.
         14    1    3    3    0    0 -0.29524819935E+02  0.39011566035E+02 -0.22122702269E+03  0.22657231262E+03  0.00000000000E+00 0. -1.
        -11    1    4    4    0    0  0.40272778778E+00  0.42981963760E+02 -0.23729402740E+02  0.49098838609E+02  0.00000000000E+00 0.  1.
         11    1    4    4    0    0  0.27100610671E+02 -0.44789393969E+02 -0.49919111658E+02  0.72335680128E+02  0.00000000000E+00 0. -1.
          1    1    1    2  501    0 -0.34687461025E+02 -0.78162358830E+02 -0.10158976534E+03  0.13278951281E+03  0.00000000000E+00 0. -1.
<scales pt_clust_5="13000.00000" pt_clust_6="13000.00000" pt_clust_7="13000.00000" pt_clust_8="13000.00000" pt_clust_9="85.51359"></scales>
<clustering>
<clus scale="   81.296">  5  6 -1 -1</clus>
<clus scale="   85.514">  1  9  2 -1</clus>
<clus scale="   92.534">  7  8 -1 -1</clus>
<clus scale="   99.317">  2  5  1 -1</clus>
<clus scale="   85.514">  1  5  2 -1</clus>
</clustering>
</event>
<event>
 9    2  0.7820252E-005  0.2764497E+03  0.7546771E-02  0.1118354E+00
          2   -1    0    0  502    0 -0.00000000000E+00  0.00000000000E+00  0.51961001455E+03  0.51961001455E+03  0.00000000000E+00 0. -1.
         21   -1    0    0  501  502  0.00000000000E+00 -0.00000000000E+00 -0.41623834305E+03  0.41623834305E+03  0.00000000000E+00 0. -1.
         24    2    1    2    0    0 -0.34252343162E+02 -0.13735177440E+03 -0.12935645856E+03  0.20793402012E+03  0.80403547258E+02 0.  0.
         23    2    1    2    0    0 -0.22575839723E+03  0.13068449233E+03  0.34401329067E+03  0.44501077663E+03  0.10790809383E+03 0.  0.
        -13    1    3    3    0    0  0.20796174067E+02 -0.14200906143E+02 -0.35807829063E+02  0.43776103222E+02  0.00000000000E+00 0.  1.
         14    1    3    3    0    0 -0.55048517229E+02 -0.12315086825E+03 -0.93548629497E+02  0.16415791690E+03  0.00000000000E+00 0. -1.
        -11    1    4    4    0    0 -0.45847055373E+02  0.23000468997E+02  0.15301671873E+03  0.16138491340E+03  0.00000000000E+00 0. -1.
         11    1    4    4    0    0 -0.17991134185E+03  0.10768402333E+03  0.19099657193E+03  0.28362586324E+03  0.00000000000E+00 0.  1.
          1    1    1    2  501    0  0.26001074039E+03  0.66672820728E+01 -0.11128516060E+03  0.28290356084E+03  0.00000000000E+00 0. -1.
<scales pt_clust_5="13000.00000" pt_clust_6="13000.00000" pt_clust_7="13000.00000" pt_clust_8="13000.00000" pt_clust_9="254.51972"></scales>
<clustering>
<clus scale="   80.404">  5  6 -1 -1</clus>
<clus scale="  107.908">  7  8 -1 -1</clus>
<clus scale="  162.799">  1  5  2 -1</clus>
<clus scale="  254.520">  2  9  1 -1</clus>
<clus scale="  254.520">  2  5  1 -1</clus>
</clustering>
</event>
<event>
 9    2  0.7820252E-005  0.1890321E+03  0.7546771E-02  0.1193133E+00
         21   -1    0    0  501  502  0.00000000000E+00  0.00000000000E+00  0.53775361220E+03  0.53775361220E+03  0.00000000000E+00 0.  1.
         -3   -1    0    0    0  501 -0.00000000000E+00 -0.00000000000E+00 -0.14258766279E+03  0.14258766279E+03  0.00000000000E+00 0.  1.
         24    2    1    2    0    0 -0.61093627799E+01  0.33543518398E+02  0.19025075543E+02  0.90011431061E+02  0.81102480124E+02 0.  0.
         23    2    1    2    0    0  0.16526033736E+03  0.12957451278E+02  0.11523339199E+02  0.18978356761E+03  0.91685007176E+02 0.  0.
        -11    1    3    3    0    0 -0.68712162399E+01  0.50832083779E+02 -0.13612384954E+02  0.53069872603E+02  0.00000000000E+00 0.  1.
         12    1    3    3    0    0  0.76185346003E+00 -0.17288565381E+02  0.32637460498E+02  0.36941558459E+02  0.00000000000E+00 0. -1.
        -13    1    4    4    0    0  0.26016253501E+02 -0.33678079385E+02  0.40171683395E+01  0.42745714624E+02  0.00000000000E+00 0.  1.
         13    1    4    4    0    0  0.13924408386E+03  0.46635530663E+02  0.75061708590E+01  0.14703785299E+03  0.00000000000E+00 0. -1.
         -4    1    1    2    0  502 -0.15915097458E+03 -0.46500969676E+02  0.36461753466E+03  0.40054627632E+03  0.00000000000E+00 0.  1.
<scales pt_clust_5="13000.00000" pt_clust_6="13000.00000" pt_clust_7="13000.00000" pt_clust_8="13000.00000" pt_clust_9="165.30876"></scales>
<clustering>
<clus scale="   81.102">  5  6 -1 -1</clus>
<clus scale="   87.978">  2  5  1 -1</clus>
<clus scale="   91.685">  7  8 -1 -1</clus>
<clus scale="  165.309">  1  9  2 -1</clus>
<clus scale="  165.309">  1  5  2 -1</clus>
</clustering>
</event>
<event>
 9    2  0.7820252E-005  0.2759605E+03  0.7546771E-02  0.1116258E+00
         21   -1    0    0  501  502  0.00000000000E+00  0.00000000000E+00  0.24810387525E+03  0.24810387525E+03  0.00000000000E+00 0. -1.
          4   -1    0    0  502    0 -0.00000000000E+00 -0.00000000000E+00 -0.67733945808E+03  0.67733945808E+03  0.00000000000E+00 0. -1.
         23    2    1    2    0    0 -0.13296304216E+03  0.59636179434E+02  0.44677829587E+02  0.17821012094E+03  0.92342266970E+02 0.  0.
         24    2    1    2    0    0 -0.16186774238E+03  0.54930463541E+02 -0.36796889051E+03  0.41365421288E+03  0.80561663343E+02 0.  0.
        -11    1    4    4    0    0 -0.46521601842E+02 -0.56380865605E+01 -0.43230908244E+02  0.63757030087E+02  0.00000000000E+00 0.  1.
         12    1    4    4    0    0 -0.11534614054E+03  0.60568550102E+02 -0.32473798227E+03  0.34989718279E+03  0.00000000000E+00 0. -1.
        -11    1    3    3    0    0 -0.44990640610E+02 -0.21552283139E+02 -0.14807482947E+01  0.49908428812E+02  0.00000000000E+00 0.  1.
         11    1    3    3    0    0 -0.87972401552E+02  0.81188462574E+02  0.46158577882E+02  0.12830169212E+03  0.00000000000E+00 0. -1.
          3    1    1    2  501    0  0.29483078454E+03 -0.11456664298E+03 -0.10594452192E+03  0.33357899952E+03  0.00000000000E+00 0. -1.
<scales pt_clust_5="13000.00000" pt_clust_6="13000.00000" pt_clust_7="13000.00000" pt_clust_8="13000.00000" pt_clust_9="263.93946"></scales>
<clustering>
<clus scale="   80.562">  5  6 -1 -1</clus>
<clus scale="   92.342">  7  8 -1 -1</clus>
<clus scale="  172.519">  2  7  1 -1</clus>
<clus scale="  263.939">  1  9  2 -1</clus>
<clus scale="  263.939">  1  5  2 -1</clus>
</clustering>
</event>
<event>
 9    2  0.7820252E-005  0.1565893E+03  0.7546771E-02  0.1222390E+00
         21   -1    0    0  501  502  0.00000000000E+00  0.00000000000E+00  0.10244227183E+03  0.10244227183E+03  0.00000000000E+00 0.  1.
          2   -1    0    0  502    0 -0.00000000000E+00 -0.00000000000E+00 -0.71238330060E+03  0.71238330060E+03  0.00000000000E+00 0. -1.
         24    2    1    2    0    0 -0.14125863807E+02 -0.59227003950E+01 -0.49532580441E+03  0.50217576731E+03  0.81229491849E+02 0.  0.
         23    2    1    2    0    0  0.13663001194E+03  0.10041309705E+02 -0.90828833989E+02  0.18778979704E+03  0.90810476957E+02 0.  0.
        -13    1    3    3    0    0  0.23829838658E+02  0.12742520867E+02 -0.74862455423E+02  0.79590327807E+02  0.00000000000E+00 0.  1.
         14    1    3    3    0    0 -0.37955702465E+02 -0.18665221262E+02 -0.42046334899E+03  0.42258543950E+03  0.00000000000E+00 0. -1.
        -11    1    4    4    0    0  0.56237778349E+02 -0.38434020885E+02 -0.54090461509E+02  0.86980685795E+02  0.00000000000E+00 0.  1.
         11    1    4    4    0    0  0.80392233591E+02  0.48475330590E+02 -0.36738372480E+02  0.10080911124E+03  0.00000000000E+00 0. -1.
          1    1    1    2  501    0 -0.12250414813E+03 -0.41186093099E+01 -0.23786390370E+02  0.12486000809E+03  0.00000000000E+00 0. -1.
<scales pt_clust_5="13000.00000" pt_clust_6="13000.00000" pt_clust_7="13000.00000" pt_clust_8="13000.00000" pt_clust_9="127.56831"></scales>
<clustering>
<clus scale="   81.229">  5  6 -1 -1</clus>
<clus scale="   82.661">  2  5  1 -1</clus>
<clus scale="   90.810">  7  8 -1 -1</clus>
<clus scale="  127.568">  1  9  2 -1</clus>
<clus scale="  127.568">  1  5  2 -1</clus>
</clustering>
</event>
<event>
 9    2  0.7820252E-005  0.9321547E+02  0.7546771E-02  0.1299539E+00
         21   -1    0    0  501  502  0.00000000000E+00  0.00000000000E+00  0.13163727224E+03  0.13163727224E+03  0.00000000000E+00 0. -1.
          4   -1    0    0  502    0 -0.00000000000E+00 -0.00000000000E+00 -0.36453709765E+03  0.36453709765E+03  0.00000000000E+00 0. -1.
         24    2    1    2    0    0 -0.10154018290E+02 -0.61716317990E+01 -0.25617368081E+03  0.27007977236E+03  0.84716796300E+02 0.  0.
         23    2    1    2    0    0  0.35658956315E+02 -0.29503828856E+02 -0.69004828279E+02  0.12392515094E+03  0.91944220194E+02 0.  0.
        -13    1    3    3    0    0  0.62101563721E+01  0.29062701048E+02 -0.36843113023E+02  0.47335204780E+02  0.00000000000E+00 0.  1.
         14    1    3    3    0    0 -0.16364174662E+02 -0.35234332847E+02 -0.21933056778E+03  0.22274456758E+03  0.00000000000E+00 0. -1.
        -13    1    4    4    0    0  0.34476647192E+02  0.28090068978E+02 -0.38057264024E+02  0.58532439909E+02  0.00000000000E+00 0.  1.
         13    1    4    4    0    0  0.11823091234E+01 -0.57593897835E+02 -0.30947564256E+02  0.65392711031E+02  0.00000000000E+00 0. -1.
          3    1    1    2  501    0 -0.25504938025E+02  0.35675460656E+02  0.92278683674E+02  0.10216944659E+03  0.00000000000E+00 0. -1.
<scales pt_clust_5="13000.00000" pt_clust_6="13000.00000" pt_clust_7="13000.00000" pt_clust_8="13000.00000" pt_clust_9="43.85476"></scales>
<clustering>
<clus scale="   43.855">  1  9  2 -1</clus>
<clus scale="   84.717">  5  6 -1 -1</clus>
<clus scale="   86.095">  2  5  1 -1</clus>
<clus scale="   91.944">  7  8 -1 -1</clus>
<clus scale="   43.855">  1  5  2 -1</clus>
</clustering>
</event>
<event>
 9    2  0.7820252E-005  0.1210414E+03  0.7546771E-02  0.1244413E+00
          2   -1    0    0  502    0 -0.00000000000E+00  0.00000000000E+00  0.34434152877E+02  0.34434152877E+02  0.00000000000E+00 0. -1.
         21   -1    0    0  501  502  0.00000000000E+00 -0.00000000000E+00 -0.70288234076E+03  0.70288234076E+03  0.00000000000E+00 0. -1.
         23    2    1    2    0    0 -0.89072672208E+02  0.12743766270E+02 -0.17156827311E+03  0.21394839424E+03  0.90784902649E+02 0.  0.
         24    2    1    2    0    0  0.58028157931E+02  0.12507836461E+02 -0.45295162358E+03  0.46394503927E+03  0.80969828170E+02 0.  0.
        -11    1    4    4    0    0  0.43809481943E+01 -0.28348099946E+02 -0.80973716049E+02  0.85904308207E+02  0.00000000000E+00 0.  1.
         12    1    4    4    0    0  0.53647209737E+02  0.40855936406E+02 -0.37197790753E+03  0.37804073106E+03  0.00000000000E+00 0. -1.
        -11    1    3    3    0    0 -0.22449345238E+02 -0.33802240078E+02 -0.90380601350E+02  0.99071780222E+02  0.00000000000E+00 0. -1.
         11    1    3    3    0    0 -0.66623326969E+02  0.46546006348E+02 -0.81187671756E+02  0.11487661402E+03  0.00000000000E+00 0.  1.
          1    1    1    2  501    0  0.31044514277E+02 -0.25251602731E+02 -0.43928291193E+02  0.59423060122E+02  0.00000000000E+00 0. -1.
<scales pt_clust_5="13000.00000" pt_clust_6="13000.00000" pt_clust_7="13000.00000" pt_clust_8="13000.00000" pt_clust_9="40.01758"></scales>
<clustering>
<clus scale="   40.018">  2  9  1 -1</clus>
<clus scale="   80.970">  5  6 -1 -1</clus>
<clus scale="   90.785">  7  8 -1 -1</clus>
<clus scale="  113.865">  2  5  1 -1</clus>
<clus scale="   40.018">  2  5  1 -1</clus>
</clustering>
</event>
<event>
 9    2  0.7820252E-005  0.9174724E+02  0.7546771E-02  0.1302718E+00
          2   -1    0    0  502    0 -0.00000000000E+00  0.00000000000E+00  0.95561716288E+03  0.95561716288E+03  0.00000000000E+00 0. -1.
         21   -1    0    0  501  502  0.00000000000E+00 -0.00000000000E+00 -0.34211776021E+02  0.34211776021E+02  0.00000000000E+00 0. -1.
         24    2    1    2    0    0 -0.76025454488E+01 -0.34343510755E+01  0.75415829097E+03  0.75891768538E+03  0.84449581911E+02 0.  0.
         23    2    1    2    0    0  0.26471074527E+02 -0.43219054186E+01  0.18230871132E+03  0.20555315495E+03  0.91083679289E+02 0.  0.
        -13    1    3    3    0    0 -0.21487228229E+02  0.31308300833E+02  0.20505930027E+03  0.20854550416E+03  0.00000000000E+00 0.  1.
         14    1    3    3    0    0  0.13884682780E+02 -0.34742651909E+02  0.54909899070E+03  0.55037218122E+03  0.00000000000E+00 0. -1.
        -13    1    4    4    0    0  0.17916715583E+02  0.40188857093E+02  0.12480058058E+03  0.13233041164E+03  0.00000000000E+00 0.  1.
         13    1    4    4    0    0  0.85543589437E+01 -0.44510762512E+02  0.57508130739E+02  0.73222743307E+02  0.00000000000E+00 0. -1.
          1    1    1    2  501    0 -0.18868529078E+02  0.77562564940E+01 -0.15061615423E+02  0.25358098578E+02  0.00000000000E+00 0. -1.
<scales pt_clust_5="13000.00000" pt_clust_6="13000.00000" pt_clust_7="13000.00000" pt_clust_8="13000.00000" pt_clust_9="20.40051"></scales>
<clustering>
<clus scale="   20.401">  2  9  1 -1</clus>
<clus scale="   84.450">  5  6 -1 -1</clus>
<clus scale="   85.165">  1  5  2 -1</clus>
<clus scale="   91.084">  7  8 -1 -1</clus>
<clus scale="   20.401">  2  5  1 -1</clus>
</clustering>
</event>
<event>
 9    2  0.7820252E-005  0.1085798E+03  0.7546771E-02  0.1270674E+00
          2   -1    0    0  502    0 -0.00000000000E+00  0.00000000000E+00  0.12158157180E+03  0.12158157180E+03  0.00000000000E+00 0. -1.
         21   -1    0    0  501  502  0.00000000000E+00 -0.00000000000E+00 -0.30559074328E+03  0.30559074328E+03  0.00000000000E+00 0. -1.
         24    2    1    2    0    0  0.40662930565E+02 -0.33404840451E+02  0.34341446571E+02  0.95827376457E+02  0.72347728633E+02 0.  0.
         23    2    1    2    0    0 -0.82330315124E+01  0.10350736214E+03 -0.50779624495E+02  0.14682908624E+03  0.90546416142E+02 0.  0.
        -13    1    3    3    0    0 -0.14973819864E+02 -0.23410845582E+02  0.27138578404E+02  0.38843087029E+02  0.00000000000E+00 0.  1.
         14    1    3    3    0    0  0.55636750429E+02 -0.99939948693E+01  0.72028681677E+01  0.56984289428E+02  0.00000000000E+00 0. -1.
        -13    1    4    4    0    0  0.18330422108E+02  0.99730192577E+02 -0.15612731590E+02  0.10259567766E+03  0.00000000000E+00 0. -1.
         13    1    4    4    0    0 -0.26563453620E+02  0.37771695660E+01 -0.35166892906E+02  0.44233408582E+02  0.00000000000E+00 0.  1.
          1    1    1    2  501    0 -0.32429899053E+02 -0.70102521692E+02 -0.16757099356E+03  0.18451585239E+03  0.00000000000E+00 0. -1.
<scales pt_clust_5="13000.00000" pt_clust_6="13000.00000" pt_clust_7="13000.00000" pt_clust_8="13000.00000" pt_clust_9="77.24029"></scales>
<clustering>
<clus scale="   72.348">  5  6 -1 -1</clus>
<clus scale="   77.240">  2  9  1 -1</clus>
<clus scale="   90.546">  7  8 -1 -1</clus>
<clus scale="   93.942">  1  5  2 -1</clus>
<clus scale="   77.240">  2  5  1 -1</clus>
</clustering>
</event>
<event>
 9    2  0.7820252E-005  0.2141898E+03  0.7546771E-02  0.1138290E+00
          4   -1    0    0  502    0 -0.00000000000E+00  0.00000000000E+00  0.47122304583E+02  0.47122304583E+02  0.00000000000E+00 0. -1.
         21   -1    0    0  501  502  0.00000000000E+00 -0.00000000000E+00 -0.80921061950E+03  0.80921061950E+03  0.00000000000E+00 0. -1.
         24    2    1    2    0    0 -0.71544038173E+02  0.37087909081E+02 -0.10642009518E+03  0.15575866578E+03  0.80258724805E+02 0.  0.
         23    2    1    2    0    0 -0.17434787026E+02  0.31457770842E+02 -0.13092276586E+03  0.16394260351E+03  0.91884946971E+02 0.  0.
        -11    1    3    3    0    0 -0.36213643483E+02 -0.96775727436E+01 -0.39257443188E+01  0.37689452861E+02  0.00000000000E+00 0.  1.
         12    1    3    3    0    0 -0.35330394690E+02  0.46765481824E+02 -0.10249435086E+03  0.11806921291E+03  0.00000000000E+00 0. -1.
        -11    1    4    4    0    0  0.35206698600E+02 -0.36034403031E+01 -0.44928815710E+02  0.57193486425E+02  0.00000000000E+00 0.  1.
         11    1    4    4    0    0 -0.52641485626E+02  0.35061211145E+02 -0.85993950154E+02  0.10674911709E+03  0.00000000000E+00 0. -1.
          3    1    1    2  501    0  0.88978825200E+02 -0.68545679923E+02 -0.52474545387E+03  0.53663165479E+03  0.00000000000E+00 0. -1.
<scales pt_clust_5="13000.00000" pt_clust_6="13000.00000" pt_clust_7="13000.00000" pt_clust_8="13000.00000" pt_clust_9="112.31982"></scales>
<clustering>
<clus scale="   80.259">  5  6 -1 -1</clus>
<clus scale="   91.885">  7  8 -1 -1</clus>
<clus scale="   94.213">  5  7 -1 -1</clus>
<clus scale="  112.320">  2  9  1 -1</clus>
<clus scale="  112.320">  2  5  1 -1</clus>
</clustering>
</event>
<event>
 9    2  0.7820252E-005  0.1032227E+03  0.7546771E-02  0.1279760E+00
         21   -1    0    0  501  502  0.00000000000E+00  0.00000000000E+00  0.21456866801E+03  0.21456866801E+03  0.00000000000E+00 0.  1.
          2   -1    0    0  502    0 -0.00000000000E+00 -0.00000000000E+00 -0.22821343768E+03  0.22821343768E+03  0.00000000000E+00 0. -1.
         23    2    1    2    0    0  0.18167205412E+02  0.46770983978E+02 -0.14723478103E+03  0.18046381082E+03  0.91496087223E+02 0.  0.
         24    2    1    2    0    0  0.16688149176E+02 -0.27708407274E+02  0.18133505999E+03  0.20020656294E+03  0.78447522000E+02 0.  0.
        -13    1    4    4    0    0  0.40849295994E+01  0.22623306700E+02  0.10770755057E+03  0.11013363295E+03  0.00000000000E+00 0.  1.
         14    1    4    4    0    0  0.12603219577E+02 -0.50331713974E+02  0.73627509414E+02  0.90072929994E+02  0.00000000000E+00 0. -1.
        -13    1    3    3    0    0  0.42364625240E+02  0.70494975312E+01 -0.11788964901E+03  0.12546882573E+03  0.00000000000E+00 0. -1.
         13    1    3    3    0    0 -0.24197419828E+02  0.39721486447E+02 -0.29345132022E+02  0.54994985092E+02  0.00000000000E+00 0.  1.
          1    1    1    2  501    0 -0.34855354588E+02 -0.19062576704E+02 -0.47745048624E+02  0.62111731920E+02  0.00000000000E+00 0. -1.
<scales pt_clust_5="13000.00000" pt_clust_6="13000.00000" pt_clust_7="13000.00000" pt_clust_8="13000.00000" pt_clust_9="39.72756"></scales>
<clustering>
<clus scale="   39.728">  1  9  2 -1</clus>
<clus scale="   78.448">  5  6 -1 -1</clus>
<clus scale="   91.496">  7  8 -1 -1</clus>
<clus scale="   91.855">  1  5  2 -1</clus>
<clus scale="   39.728">  1  5  2 -1</clus>
</clustering>
</event>
<event>
 9    2  0.7820252E-005  0.1966815E+03  0.7546771E-02  0.1153505E+00
         21   -1    0    0  501  502  0.00000000000E+00  0.00000000000E+00  0.17407921015E+03  0.17407921015E+03  0.00000000000E+00 0. -1.
          2   -1    0    0  502    0 -0.00000000000E+00 -0.00000000000E+00 -0.84169582018E+03  0.84169582018E+03  0.00000000000E+00 0. -1.
         23    2    1    2    0    0  0.17299293637E+03  0.40512525735E+02 -0.60366000963E+03  0.63574213023E+03  0.90525290103E+02 0.  0.
         24    2    1    2    0    0 -0.15778445763E+03 -0.57619181577E+02 -0.18157069209E+03  0.26021215871E+03  0.80787042056E+02 0.  0.
        -11    1    4    4    0    0 -0.16347694196E+03 -0.41303781035E+02 -0.15874194129E+03  0.23158090769E+03  0.00000000000E+00 0.  1.
         12    1    4    4    0    0  0.56924843298E+01 -0.16315400542E+02 -0.22828750793E+02  0.28631251028E+02  0.00000000000E+00 0. -1.
        -11    1    3    3    0    0  0.45987253179E+02 -0.27571045244E+02 -0.12929650633E+03  0.13997348513E+03  0.00000000000E+00 0.  1.
         11    1    3    3    0    0  0.12700568319E+03  0.68083570979E+02 -0.47436350330E+03  0.49576864510E+03  0.00000000000E+00 0. -1.
          1    1    1    2  501    0 -0.15208478746E+02  0.17106655841E+02  0.11761409170E+03  0.11982074138E+03  0.00000000000E+00 0. -1.
<scales pt_clust_5="13000.00000" pt_clust_6="13000.00000" pt_clust_7="13000.00000" pt_clust_8="13000.00000" pt_clust_9="22.88964"></scales>
<clustering>
<clus scale="   22.890">  1  9  2 -1</clus>
<clus scale="   80.787">  5  6 -1 -1</clus>
<clus scale="   90.525">  7  8 -1 -1</clus>
<clus scale="  192.394">  1  5  2 -1</clus>
<clus scale="   22.890">  1  5  2 -1</clus>
</clustering>
</event>
<event>
 9    2  0.7820252E-005  0.1177332E+03  0.7546771E-02  0.1262463E+00
          2   -1    0    0  502    0 -0.00000000000E+00  0.00000000000E+00  0.29568909240E+03  0.29568909240E+03  0.00000000000E+00 0. -1.
         21   -1    0    0  501  502  0.00000000000E+00 -0.00000000000E+00 -0.69371449500E+02  0.69371449500E+02  0.00000000000E+00 0. -1.
         24    2    1    2    0    0  0.16255323180E+02 -0.26092185210E+02  0.68333551215E+02  0.11019428857E+03  0.80797706348E+02 0.  0.
         23    2    1    2    0    0  0.32074219411E+02 -0.50698481964E+02  0.75014693378E+02  0.13191718946E+03  0.90420401608E+02 0.  0.
        -11    1    3    3    0    0 -0.16559143573E+02 -0.31231880745E+02  0.68383041250E+02  0.76979711232E+02  0.00000000000E+00 0.  1.
         12    1    3    3    0    0  0.32814466754E+02  0.51396955347E+01 -0.49490034973E-01  0.33214577339E+02  0.00000000000E+00 0. -1.
        -13    1    4    4    0    0 -0.18949768565E+02  0.13601942298E+02  0.46157767646E+01  0.23778392673E+02  0.00000000000E+00 0.  1.
         13    1    4    4    0    0  0.51023987976E+02 -0.64300424262E+02  0.70398916613E+02  0.10813879678E+03  0.00000000000E+00 0. -1.
          1    1    1    2  501    0 -0.48329542591E+02  0.76790667174E+02  0.82969398306E+02  0.12294906387E+03  0.00000000000E+00 0. -1.
<scales pt_clust_5="13000.00000" pt_clust_6="13000.00000" pt_clust_7="13000.00000" pt_clust_8="13000.00000" pt_clust_9="75.40064"></scales>
<clustering>
<clus scale="   80.798">  5  6 -1 -1</clus>
<clus scale="   86.448">  1  5  2 -1</clus>
<clus scale="   75.401">  2  9  1 -1</clus>
<clus scale="   90.420">  7  8 -1 -1</clus>
<clus scale="   75.401">  2  5  1 -1</clus>
</clustering>
</event>
<event>
 9    2  0.7820252E-005  0.9639646E+02  0.7546771E-02  0.1292434E+00
         21   -1    0    0  501  502  0.00000000000E+00  0.00000000000E+00  0.56416378351E+02  0.56416378351E+02  0.00000000000E+00 0.  1.
          2   -1    0    0  502    0 -0.00000000000E+00 -0.00000000000E+00 -0.63590949811E+03  0.63590949811E+03  0.00000000000E+00 0. -1.
         24    2    1    2    0    0  0.40699917966E+02 -0.94626854352E+01 -0.53659085214E+03  0.54423346769E+03  0.80711207487E+02 0.  0.
         23    2    1    2    0    0  0.10141373416E+02  0.86513281596E+01 -0.19239712673E+02  0.92008438544E+02  0.88981421015E+02 0.  0.
        -11    1    3    3    0    0  0.28164692985E+01  0.27912499503E+02 -0.84821652108E+02  0.89340655886E+02  0.00000000000E+00 0.  1.
         12    1    3    3    0    0  0.37883448667E+02 -0.37375184938E+02 -0.45176920003E+03  0.45489281180E+03  0.00000000000E+00 0. -1.
        -11    1    4    4    0    0 -0.30722392745E+02  0.14195627782E+01  0.18520898466E+02  0.35901312712E+02  0.00000000000E+00 0.  1.
         11    1    4    4    0    0  0.40863766162E+02  0.72317653814E+01 -0.37760611139E+02  0.56107125831E+02  0.00000000000E+00 0. -1.
          1    1    1    2  501    0 -0.50841291382E+02  0.81135727569E+00 -0.23662554947E+02  0.56083970229E+02  0.00000000000E+00 0. -1.
<scales pt_clust_5="13000.00000" pt_clust_6="13000.00000" pt_clust_7="13000.00000" pt_clust_8="13000.00000" pt_clust_9="50.84777"></scales>
<clustering>
<clus scale="   50.848">  1  9  2 -1</clus>
<clus scale="   80.711">  5  6 -1 -1</clus>
<clus scale="   88.819">  2  5  1 -1</clus>
<clus scale="   88.981">  7  8 -1 -1</clus>
<clus scale="   50.848">  1  5  2 -1</clus>
</clustering>
</event>
