<event>
10    3  0.5078224E-005  0.1376848E+03  0.7546771E-02  0.1234494E+00
         -2   -1    0    0    0  501 -0.00000000000E+00  0.00000000000E+00  0.58981704261E+03  0.58981704261E+03  0.00000000000E+00 0.  1.
         21   -1    0    0  501  502  0.00000000000E+00 -0.00000000000E+00 -0.50517878652E+03  0.50517878652E+03  0.00000000000E+00 0. -1.
        -24    2    1    2    0    0 -0.11138863785E+02  0.42851534637E+02  0.24668941673E+03  0.26385454104E+03  0.82481647622E+02 0.  0.
         23    2    1    2    0    0  0.82611341780E+02 -0.14475127021E+02 -0.31576834259E+03  0.33911236853E+03  0.90848165694E+02 0.  0.
         11    1    3    3    0    0  0.24860234468E+02  0.46339424399E+02  0.10255323858E+03  0.11524990350E+03  0.00000000000E+00 0. -1.
        -12    1    3    3    0    0 -0.35999098253E+02 -0.34878897616E+01  0.14413617814E+03  0.14860463755E+03  0.00000000000E+00 0.  1.
        -11    1    4    4    0    0  0.39394921457E+02 -0.47757702229E+02 -0.10987627476E+03  0.12611722212E+03  0.00000000000E+00 0.  1.
         11    1    4    4    0    0  0.43216420324E+02  0.33282575208E+02 -0.20589206783E+03  0.21299514641E+03  0.00000000000E+00 0. -1.
         21    1    1    2  503  502 -0.79526661182E+01  0.88113214314E+02 -0.14234293052E+03  0.16759681770E+03  0.00000000000E+00 0. -1.
         -1    1    1    2    0  503 -0.63519811877E+02 -0.11648962193E+03  0.29606011248E+03  0.32443210186E+03  0.00000000000E+00 0.  1.
<scales pt_clust_5="13000.00000" pt_clust_6="13000.00000" pt_clust_7="13000.00000" pt_clust_8="13000.00000" pt_clust_9="88.47137" pt_clust_10="103.45875"></scales>
<clustering>
<clus scale="   82.482">  5  6 -1 -1</clus>
<clus scale="   88.471">  2  9  1 -1</clus>
<clus scale="   90.848">  7  8 -1 -1</clus>
<clus scale="   94.645">  1  5  2 -1</clus>
<clus scale="  103.459">  2 10  1 -1</clus>
<clus scale="   88.471">  2  5  1 -1</clus>
</clustering>
</event>
<event>
10    3  0.5078224E-005  0.1608405E+03  0.7546771E-02  0.1189245E+00
         -2   -1    0    0    0  501 -0.00000000000E+00  0.00000000000E+00  0.74068765161E+03  0.74068765161E+03  0.00000000000E+00 0.  1.
         21   -1    0    0  503  502  0.00000000000E+00 -0.00000000000E+00 -0.52171981676E+02  0.52171981676E+02  0.00000000000E+00 0.  1.
        -24    2    1    2    0    0 -0.12996889295E+03 -0.59714990385E+01  0.38784617458E+03  0.41678427426E+03  0.79730196251E+02 0.  0.
         23    2    1    2    0    0  0.13705519286E+03  0.42273391745E+02  0.22520068823E+03  0.28160198225E+03  0.89516260469E+02 0.  0.
         13    1    3    3    0    0 -0.35738763357E+02 -0.25266413633E+02  0.21081575224E+03  0.21531124508E+03  0.00000000000E+00 0. -1.
        -14    1    3    3    0    0 -0.94230129589E+02  0.19294914595E+02  0.17703042234E+03  0.20147302918E+03  0.00000000000E+00 0.  1.
        -13    1    4    4    0    0  0.47503803307E+02  0.34921491761E+02  0.28785854464E+02  0.65610573330E+02  0.00000000000E+00 0.  1.
         13    1    4    4    0    0  0.89551389554E+02  0.73518999837E+01  0.19641483376E+03  0.21599140892E+03  0.00000000000E+00 0. -1.
         21    1    1    2  503  501 -0.17155432783E+02 -0.15362251694E+02  0.10188832057E+02  0.25181738419E+02  0.00000000000E+00 0.  1.
         -1    1    1    2    0  502  0.10069132868E+02 -0.20939641012E+02  0.65279975064E+02  0.69291638362E+02  0.00000000000E+00 0.  1.
<scales pt_clust_5="13000.00000" pt_clust_6="13000.00000" pt_clust_7="13000.00000" pt_clust_8="13000.00000" pt_clust_9="23.02841" pt_clust_10="23.54357"></scales>
<clustering>
<clus scale="   23.028">  2  9  1 -1</clus>
<clus scale="   23.544">  2 10  1 -1</clus>
<clus scale="   79.730">  5  6 -1 -1</clus>
<clus scale="   89.516">  7  8 -1 -1</clus>
<clus scale="  155.607">  1  5  2 -1</clus>
<clus scale="   23.028">  2  5  1 -1</clus>
</clustering>
</event>
<event>
10    3  0.5078224E-005  0.1193679E+03  0.7546771E-02  0.1247694E+00
          1   -1    0    0  502    0 -0.00000000000E+00  0.00000000000E+00  0.26798392006E+03  0.26798392006E+03  0.00000000000E+00 0. -1.
         21   -1    0    0  503  502  0.00000000000E+00 -0.00000000000E+00 -0.36783141103E+03  0.36783141103E+03  0.00000000000E+00 0.  1.
         23    2    1    2    0    0  0.70178830762E+02 -0.36979040371E+02  0.14527425440E+03  0.18852360635E+03  0.90244243298E+02 0.  0.
        -24    2    1    2    0    0 -0.83131619723E+01  0.11001984190E+03 -0.26428762322E+03  0.29710138464E+03  0.79043093910E+02 0.  0.
         11    1    4    4    0    0  0.23669287749E+02  0.41120334025E+02 -0.46443667785E+02  0.66393759723E+02  0.00000000000E+00 0. -1.
        -12    1    4    4    0    0 -0.31982449721E+02  0.68899507871E+02 -0.21784395544E+03  0.23070762492E+03  0.00000000000E+00 0.  1.
        -13    1    3    3    0    0  0.40733284647E+01  0.27226800027E+02  0.40732377482E+02  0.49163169343E+02  0.00000000000E+00 0.  1.
         13    1    3    3    0    0  0.66105502298E+02 -0.64205840398E+02  0.10454187692E+03  0.13936043701E+03  0.00000000000E+00 0. -1.
         21    1    1    2  503  501  0.26624280671E+02 -0.30590868795E+02 -0.19128122796E+02  0.44839030504E+02  0.00000000000E+00 0.  1.
          2    1    1    2  501    0 -0.88489949461E+02 -0.42449932730E+02  0.38294000653E+02  0.10535130958E+03  0.00000000000E+00 0. -1.
<scales pt_clust_5="13000.00000" pt_clust_6="13000.00000" pt_clust_7="13000.00000" pt_clust_8="13000.00000" pt_clust_9="40.55433" pt_clust_10="97.14804"></scales>
<clustering>
<clus scale="   40.554">  2  9  1 -1</clus>
<clus scale="   79.043">  5  6 -1 -1</clus>
<clus scale="   90.244">  7  8 -1 -1</clus>
<clus scale="   97.148">  2 10  1 -1</clus>
<clus scale="  111.142">  2  5  1 -1</clus>
<clus scale="   40.554">  2  5  1 -1</clus>
</clustering>
</event>
<event>
10    3  0.5078224E-005  0.1404472E+03  0.7546771E-02  0.1230778E+00
         21   -1    0    0  503  502  0.00000000000E+00  0.00000000000E+00  0.12796335922E+03  0.12796335922E+03  0.00000000000E+00 0.  1.
         -2   -1    0    0    0  501 -0.00000000000E+00 -0.00000000000E+00 -0.10220982193E+04  0.10220982193E+04  0.00000000000E+00 0.  1.
        -24    2    1    2    0    0  0.51468513320E+02 -0.14264757673E+02 -0.15671139904E+03  0.18390843882E+03  0.80070969172E+02 0.  0.
         23    2    1    2    0    0 -0.57629081455E+02  0.11064834586E+03 -0.60124379961E+03  0.62087533199E+03  0.91803615565E+02 0.  0.
         11    1    3    3    0    0  0.55376024189E+02 -0.29100441646E+01 -0.44618901332E+02  0.71174565457E+02  0.00000000000E+00 0. -1.
        -12    1    3    3    0    0 -0.39075108685E+01 -0.11354713508E+02 -0.11209249771E+03  0.11273387336E+03  0.00000000000E+00 0.  1.
        -11    1    4    4    0    0 -0.68027574236E+02  0.85678489474E+02 -0.56585350538E+03  0.57633214726E+03  0.00000000000E+00 0.  1.
         11    1    4    4    0    0  0.10398492781E+02  0.24969856387E+02 -0.35390294235E+02  0.44543184733E+02  0.00000000000E+00 0. -1.
         21    1    1    2  503  501 -0.13344710364E+03 -0.43399853299E+02  0.41147493041E+01  0.14038734949E+03  0.00000000000E+00 0.  1.
         -1    1    1    2    0  502  0.13960767178E+03 -0.52983734889E+02 -0.14029441070E+03  0.20489045818E+03  0.00000000000E+00 0.  1.
<scales pt_clust_5="13000.00000" pt_clust_6="13000.00000" pt_clust_7="13000.00000" pt_clust_8="13000.00000" pt_clust_9="136.78505" pt_clust_10="106.28981"></scales>
<clustering>
<clus scale="   80.071">  5  6 -1 -1</clus>
<clus scale="   91.804">  7  8 -1 -1</clus>
<clus scale="   96.249">  2  5  1 -1</clus>
<clus scale="  136.785">  1  9  2 -1</clus>
<clus scale="  106.290">  1 10  2 -1</clus>
<clus scale="  136.785">  1  5  2 -1</clus>
</clustering>
</event>
<event>
10    3  0.5078224E-005  0.1034987E+03  0.7546771E-02  0.1277749E+00
         -4   -1    0    0    0  501 -0.00000000000E+00  0.00000000000E+00  0.47828352861E+03  0.47828352861E+03  0.00000000000E+00 0.  1.
         21   -1    0    0  503  502  0.00000000000E+00 -0.00000000000E+00 -0.12664239514E+03  0.12664239514E+03  0.00000000000E+00 0. -1.
        -24    2    1    2    0    0  0.18357981552E+02 -0.53841087172E+02  0.36128699491E+03  0.37458408064E+03  0.80926278915E+02 0.  0.
         23    2    1    2    0    0 -0.21309133098E+02  0.13440614360E+02  0.64535109994E+02  0.11443562313E+03  0.91082392103E+02 0.  0.
         11    1    3    3    0    0  0.21571723427E+02  0.17232005670E+02  0.11094149467E+03  0.11432539749E+03  0.00000000000E+00 0. -1.
        -12    1    3    3    0    0 -0.32137418747E+01 -0.71073092842E+02  0.25034550024E+03  0.26025868315E+03  0.00000000000E+00 0.  1.
        -11    1    4    4    0    0  0.16700443697E+01  0.29559060873E+02 -0.12732334144E+02  0.32227929822E+02  0.00000000000E+00 0. -1.
         11    1    4    4    0    0 -0.22979177468E+02 -0.16118446513E+02  0.77267444139E+02  0.82207693307E+02  0.00000000000E+00 0.  1.
         21    1    1    2  503  501  0.12643734497E+02 -0.16784863468E+02 -0.47744712838E+02  0.52164674519E+02  0.00000000000E+00 0. -1.
         -3    1    1    2    0  502 -0.96925829506E+01  0.57185336280E+02 -0.26436258599E+02  0.63741545466E+02  0.00000000000E+00 0.  1.
<scales pt_clust_5="13000.00000" pt_clust_6="13000.00000" pt_clust_7="13000.00000" pt_clust_8="13000.00000" pt_clust_9="21.01418" pt_clust_10="47.37047"></scales>
<clustering>
<clus scale="   21.014">  2  9  1 -1</clus>
<clus scale="   47.370">  2 10  1 -1</clus>
<clus scale="   80.926">  5  6 -1 -1</clus>
<clus scale="   91.082">  7  8 -1 -1</clus>
<clus scale="   94.684">  1  5  2 -1</clus>
<clus scale="   21.014">  2  5  1 -1</clus>
</clustering>
</event>
<event>
10    3  0.5078224E-005  0.1599092E+03  0.7546771E-02  0.1204652E+00
         21   -1    0    0  503  502  0.00000000000E+00  0.00000000000E+00  0.95598935750E+02  0.95598935750E+02  0.00000000000E+00 0. -1.
          1   -1    0    0  502    0 -0.00000000000E+00 -0.00000000000E+00 -0.66177085275E+03  0.66177085275E+03  0.00000000000E+00 0. -1.
        -24    2    1    2    0    0 -0.66379288657E+02  0.44645957393E+02 -0.21597399525E+03  0.24380022228E+03  0.79964431375E+02 0.  0.
         23    2    1    2    0    0  0.68460657368E+01  0.90002439487E+02 -0.31959763025E+03  0.34417604816E+03  0.90372557418E+02 0.  0.
         11    1    3    3    0    0 -0.53707581605E+02  0.52305628191E+02 -0.21636815974E+03  0.22898812985E+03  0.00000000000E+00 0. -1.
        -12    1    3    3    0    0 -0.12671707052E+02 -0.76596707984E+01  0.39416449606E+00  0.14812092425E+02  0.00000000000E+00 0.  1.
        -13    1    4    4    0    0  0.26527147778E+02  0.30083099408E+02 -0.23638397759E+03  0.23976252271E+03  0.00000000000E+00 0.  1.
         13    1    4    4    0    0 -0.19681082041E+02  0.59919340079E+02 -0.83213652667E+02  0.10441352545E+03  0.00000000000E+00 0. -1.
         21    1    1    2  503  501 -0.68206254482E+01 -0.73668079221E+02  0.72118423328E+00  0.73986667274E+02  0.00000000000E+00 0. -1.
          2    1    1    2  501    0  0.66353848369E+02 -0.60980317659E+02 -0.31321475731E+02  0.95406850787E+02  0.00000000000E+00 0. -1.
<scales pt_clust_5="13000.00000" pt_clust_6="13000.00000" pt_clust_7="13000.00000" pt_clust_8="13000.00000" pt_clust_9="70.66935" pt_clust_10="153.25511"></scales>
<clustering>
<clus scale="   70.669">  9 10 -1 -1</clus>
<clus scale="   79.964">  5  6 -1 -1</clus>
<clus scale="   90.373">  7  8 -1 -1</clus>
<clus scale="  113.110">  2  5  1 -1</clus>
<clus scale="  153.255">  1  9  2 -1</clus>
<clus scale="  153.255">  1  5  2 -1</clus>
</clustering>
</event>
<event>
10    3  0.5078224E-005  0.2856445E+03  0.7546771E-02  0.1125587E+00
          1   -1    0    0  503    0 -0.00000000000E+00  0.00000000000E+00  0.20541127830E+04  0.20541127830E+04  0.00000000000E+00 0. -1.
         21   -1    0    0  501  502  0.00000000000E+00 -0.00000000000E+00 -0.54451906174E+03  0.54451906174E+03  0.00000000000E+00 0. -1.
        -24    2    1    2    0    0 -0.85539816032E+02  0.42576787142E+02  0.32644995042E+03  0.34893666471E+03  0.77829190696E+02 0.  0.
         23    2    1    2    0    0  0.42866766617E+02  0.25771859709E+03  0.47302070569E+03  0.54812382711E+03  0.91840660213E+02 0.  0.
         11    1    3    3    0    0 -0.79318971410E+02  0.21883009451E+02  0.14928943619E+03  0.17046319569E+03  0.00000000000E+00 0. -1.
        -12    1    3    3    0    0 -0.62208446223E+01  0.20693777691E+02  0.17716051423E+03  0.17847346902E+03  0.00000000000E+00 0.  1.
        -11    1    4    4    0    0  0.16883444351E+02  0.97176260148E+02  0.96527539647E+02  0.13800667426E+03  0.00000000000E+00 0.  1.
         11    1    4    4    0    0  0.25983322267E+02  0.16054233694E+03  0.37649316604E+03  0.41011715285E+03  0.00000000000E+00 0. -1.
         21    1    1    2  503  502 -0.12758353350E+03 -0.25655478115E+03 -0.44712185473E+03  0.53105166108E+03  0.00000000000E+00 0. -1.
          2    1    1    2  501    0  0.17025658291E+03 -0.43740603080E+02  0.11572449199E+04  0.11705196918E+04  0.00000000000E+00 0. -1.
<scales pt_clust_5="13000.00000" pt_clust_6="13000.00000" pt_clust_7="13000.00000" pt_clust_8="13000.00000" pt_clust_9="270.47752" pt_clust_10="113.23377"></scales>
<clustering>
<clus scale="   77.829">  5  6 -1 -1</clus>
<clus scale="   91.841">  7  8 -1 -1</clus>
<clus scale="  123.236">  1  5  2 -1</clus>
<clus scale="  113.234">  2 10  1 -1</clus>
<clus scale="  270.478">  2  9  1 -1</clus>
<clus scale="  113.234">  2  5  1 -1</clus>
</clustering>
</event>
<event>
10    3  0.5078224E-005  0.2301597E+03  0.7546771E-02  0.1165727E+00
         -2   -1    0    0    0  501 -0.00000000000E+00  0.00000000000E+00  0.16567015568E+03  0.16567015568E+03  0.00000000000E+00 0.  1.
         21   -1    0    0  501  502  0.00000000000E+00 -0.00000000000E+00 -0.10527529866E+04  0.10527529866E+04  0.00000000000E+00 0.  1.
        -24    2    1    2    0    0 -0.18204643829E+02  0.19848031450E+02  0.23930067094E+02  0.93427422455E+02  0.86201402228E+02 0.  0.
         23    2    1    2    0    0 -0.14288914390E+03  0.34808384953E+02 -0.37147789640E+03  0.40954565253E+03  0.90016014579E+02 0.  0.
         13    1    3    3    0    0 -0.14382875733E+02 -0.27227629880E+02  0.33214978361E+02  0.45292888302E+02  0.00000000000E+00 0. -1.
        -14    1    3    3    0    0 -0.38217680967E+01  0.47075661329E+02 -0.92849112663E+01  0.48134534154E+02  0.00000000000E+00 0.  1.
        -11    1    4    4    0    0 -0.12506394200E+03  0.10872095208E+02 -0.35248026215E+03  0.37416777955E+03  0.00000000000E+00 0.  1.
         11    1    4    4    0    0 -0.17825201901E+02  0.23936289744E+02 -0.18997634246E+02  0.35377872979E+02  0.00000000000E+00 0. -1.
         21    1    1    2  503  502 -0.58052237325E+02  0.93700324410E+02 -0.40272649611E+03  0.41753855358E+03  0.00000000000E+00 0.  1.
         -1    1    1    2    0  503  0.21914602506E+03 -0.14835674081E+03 -0.13680850555E+03  0.29791151377E+03  0.00000000000E+00 0.  1.
<scales pt_clust_5="13000.00000" pt_clust_6="13000.00000" pt_clust_7="13000.00000" pt_clust_8="13000.00000" pt_clust_9="112.05831" pt_clust_10="211.82695"></scales>
<clustering>
<clus scale="   86.201">  5  6 -1 -1</clus>
<clus scale="   90.016">  7  8 -1 -1</clus>
<clus scale="   90.311">  1  5  2 -1</clus>
<clus scale="  112.058">  2  9  1 -1</clus>
<clus scale="  211.827">  2 10  1 -1</clus>
<clus scale="  112.058">  2  5  1 -1</clus>
</clustering>
</event>
<event>
10    3  0.5078224E-005  0.1055619E+03  0.7546771E-02  0.1273598E+00
         21   -1    0    0  501  502  0.00000000000E+00  0.00000000000E+00  0.50457800084E+02  0.50457800084E+02  0.00000000000E+00 0.  1.
          1   -1    0    0  503    0 -0.00000000000E+00 -0.00000000000E+00 -0.71849135316E+03  0.71849135316E+03  0.00000000000E+00 0. -1.
        -24    2    1    2    0    0  0.51281266327E+02  0.26458948794E+01 -0.25401200580E+03  0.27126452793E+03  0.80159690531E+02 0.  0.
         23    2    1    2    0    0 -0.60535492666E+02  0.12983789093E+02 -0.11865821363E+03  0.16169250297E+03  0.90727995687E+02 0.  0.
         11    1    3    3    0    0  0.10512024568E+01  0.29514229188E+02 -0.14799221166E+03  0.15091020331E+03  0.00000000000E+00 0. -1.
        -12    1    3    3    0    0  0.50230063870E+02 -0.26868334309E+02 -0.10601979415E+03  0.12035432463E+03  0.00000000000E+00 0.  1.
        -11    1    4    4    0    0 -0.42533253737E+02  0.20826505118E+01 -0.14490021578E+01  0.42608857223E+02  0.00000000000E+00 0.  1.
         11    1    4    4    0    0 -0.18002238930E+02  0.10901138581E+02 -0.11720921148E+03  0.11908364574E+03  0.00000000000E+00 0. -1.
         21    1    1    2  503  502 -0.30143965242E+02  0.22580873419E+02 -0.21917667581E+01  0.37727421412E+02  0.00000000000E+00 0.  1.
          2    1    1    2  501    0  0.39398191581E+02 -0.38210557391E+02 -0.29317156688E+03  0.29826470094E+03  0.00000000000E+00 0. -1.
<scales pt_clust_5="13000.00000" pt_clust_6="13000.00000" pt_clust_7="13000.00000" pt_clust_8="13000.00000" pt_clust_9="37.66370" pt_clust_10="51.97513"></scales>
<clustering>
<clus scale="   37.664">  1  9  2 -1</clus>
<clus scale="   51.975">  1 10  2 -1</clus>
<clus scale="   80.160">  5  6 -1 -1</clus>
<clus scale="   90.728">  7  8 -1 -1</clus>
<clus scale="   96.630">  2  5  1 -1</clus>
<clus scale="   37.664">  1  5  2 -1</clus>
</clustering>
</event>
<event>
10    3  0.5078224E-005  0.6216573E+03  0.7546771E-02  0.9861466E-01
          1   -1    0    0  503    0 -0.00000000000E+00  0.00000000000E+00  0.29647424884E+03  0.29647424884E+03  0.00000000000E+00 0. -1.
         21   -1    0    0  501  502  0.00000000000E+00 -0.00000000000E+00 -0.16710708858E+04  0.16710708858E+04  0.00000000000E+00 0. -1.
        -24    2    1    2    0    0  0.47597122395E+02  0.71762092602E+02 -0.73943952989E+02  0.13845399504E+03  0.79287556170E+02 0.  0.
         23    2    1    2    0    0  0.42589112364E+03  0.22430366194E+03 -0.17938021554E+03  0.52168227327E+03  0.90993134686E+02 0.  0.
         11    1    3    3    0    0  0.16764936287E+02  0.49245931001E+02  0.34706255233E+01  0.52137031469E+02  0.00000000000E+00 0. -1.
        -12    1    3    3    0    0  0.30832186109E+02  0.22516161600E+02 -0.77414578512E+02  0.86316963569E+02  0.00000000000E+00 0.  1.
        -13    1    4    4    0    0  0.83578814303E+02  0.85958494432E+02 -0.31543824529E+02  0.12397295605E+03  0.00000000000E+00 0.  1.
         13    1    4    4    0    0  0.34231230934E+03  0.13834516751E+03 -0.14783639102E+03  0.39770931722E+03  0.00000000000E+00 0. -1.
         21    1    1    2  503  502  0.63981948659E+02 -0.18426249225E+02 -0.92815417329E+02  0.11422748403E+03  0.00000000000E+00 0.  1.
          2    1    1    2  501    0 -0.53747019469E+03 -0.27763950532E+03 -0.10284570511E+04  0.11931813823E+04  0.00000000000E+00 0. -1.
<scales pt_clust_5="13000.00000" pt_clust_6="13000.00000" pt_clust_7="13000.00000" pt_clust_8="13000.00000" pt_clust_9="66.58240" pt_clust_10="571.57419"></scales>
<clustering>
<clus scale="   66.582">  2  9  1 -1</clus>
<clus scale="   79.288">  5  6 -1 -1</clus>
<clus scale="   90.993">  7  8 -1 -1</clus>
<clus scale="  100.876">  5  7 -1 -1</clus>
<clus scale="  571.574">  2 10  1 -1</clus>
<clus scale="   66.582">  2  5  1 -1</clus>
</clustering>
</event>
<event>
10    3  0.5078224E-005  0.1186338E+03  0.7546771E-02  0.1247151E+00
         21   -1    0    0  503  502  0.00000000000E+00  0.00000000000E+00  0.32879949250E+03  0.32879949250E+03  0.00000000000E+00 0. -1.
         -4   -1    0    0    0  501 -0.00000000000E+00 -0.00000000000E+00 -0.93010695002E+03  0.93010695002E+03  0.00000000000E+00 0.  1.
        -24    2    1    2    0    0 -0.38850422806E+02  0.43414064836E+01 -0.68629971395E+03  0.69581819769E+03  0.10783071782E+03 0.  0.
         23    2    1    2    0    0  0.10831293026E+03 -0.17764948434E+02 -0.17778432820E+03  0.23304218045E+03  0.10321873017E+03 0.  0.
         11    1    3    3    0    0  0.29073938656E+02 -0.10634654189E+02 -0.84138408062E+02  0.89653006029E+02  0.00000000000E+00 0. -1.
        -12    1    3    3    0    0 -0.67924361462E+02  0.14976060673E+02 -0.60216130588E+03  0.60616519166E+03  0.00000000000E+00 0.  1.
        -11    1    4    4    0    0  0.11176517116E+03  0.19264045766E+02 -0.13084504314E+03  0.17315594780E+03  0.00000000000E+00 0.  1.
         11    1    4    4    0    0 -0.34522409017E+01 -0.37028994200E+02 -0.46939285064E+02  0.59886232650E+02  0.00000000000E+00 0. -1.
         21    1    1    2  503  501 -0.89907169291E+02  0.70735474652E+02  0.23853030882E+03  0.26454397496E+03  0.00000000000E+00 0. -1.
         -3    1    1    2    0  502  0.20444661842E+02 -0.57311932701E+02  0.24246275815E+02  0.65502089422E+02  0.00000000000E+00 0.  1.
<scales pt_clust_5="13000.00000" pt_clust_6="13000.00000" pt_clust_7="13000.00000" pt_clust_8="13000.00000" pt_clust_9="74.51798" pt_clust_10="60.84934"></scales>
<clustering>
<clus scale="   60.849">  1 10  2 -1</clus>
<clus scale="   74.518">  1  9  2 -1</clus>
<clus scale="  103.219">  7  8 -1 -1</clus>
<clus scale="  107.831">  5  6 -1 -1</clus>
<clus scale="  114.458">  1  7  2 -1</clus>
<clus scale="   60.849">  1  5  2 -1</clus>
</clustering>
</event>
<event>
10    3  0.8222731E-005  0.4494758E+03  0.7546771E-02  0.1080359E+00
         21   -1    0    0  501  502  0.00000000000E+00  0.00000000000E+00  0.10296224628E+04  0.10296224628E+04  0.00000000000E+00 0.  1.
         -2   -1    0    0    0  501 -0.00000000000E+00 -0.00000000000E+00 -0.43687756662E+03  0.43687756662E+03  0.00000000000E+00 0.  1.
         23    2    1    2    0    0 -0.10191485427E+02  0.41100566355E+02 -0.38248615287E+02  0.10855142408E+03  0.92343555096E+02 0.  0.
        -24    2    1    2    0    0 -0.26322866223E+03 -0.39453920886E+03  0.62635447508E+03  0.78977259097E+03  0.80438181440E+02 0.  0.
         11    1    4    4    0    0 -0.25414286742E+02 -0.78308672223E+02  0.14422196645E+03  0.16606658220E+03  0.00000000000E+00 0. -1.
        -12    1    4    4    0    0 -0.23781437549E+03 -0.31623053664E+03  0.48213250864E+03  0.62370600877E+03  0.00000000000E+00 0.  1.
        -13    1    3    3    0    0  0.15271292621E+02  0.44869526569E+02  0.14744608730E+02  0.49637589380E+02  0.00000000000E+00 0.  1.
         13    1    3    3    0    0 -0.25462778049E+02 -0.37689602144E+01 -0.52993224016E+02  0.58913834697E+02  0.00000000000E+00 0. -1.
         21    1    1    2  503  502  0.38843029326E+02  0.13661817315E+02  0.13025194804E+03  0.13660525666E+03  0.00000000000E+00 0.  1.
         -1    1    1    2    0  503  0.23457711833E+03  0.33977682519E+03 -0.12561291163E+03  0.43157075776E+03  0.00000000000E+00 0.  1.
<scales pt_clust_5="13000.00000" pt_clust_6="13000.00000" pt_clust_7="13000.00000" pt_clust_8="13000.00000" pt_clust_9="41.17555" pt_clust_10="442.21981"></scales>
<clustering>
<clus scale="   41.176">  1  9  2 -1</clus>
<clus scale="   80.438">  5  6 -1 -1</clus>
<clus scale="   92.344">  7  8 -1 -1</clus>
<clus scale="  101.666">  2  7  1 -1</clus>
<clus scale="  442.220">  1 10  2 -1</clus>
<clus scale="   41.176">  1  5  2 -1</clus>
</clustering>
</event>
<event>
10    3  0.5078224E-005  0.1893872E+03  0.7546771E-02  0.1172910E+00
         21   -1    0    0  501  502  0.00000000000E+00  0.00000000000E+00  0.55149912611E+03  0.55149912611E+03  0.00000000000E+00 0.  1.
          1   -1    0    0  503    0 -0.00000000000E+00 -0.00000000000E+00 -0.12381436080E+04  0.12381436080E+04  0.00000000000E+00 0. -1.
         23    2    1    2    0    0 -0.92352485645E+01  0.89777817116E+02 -0.44843284484E+03  0.46756380864E+03  0.96842927218E+02 0.  0.
        -24    2    1    2    0    0  0.18514805613E+03 -0.65084855052E+02 -0.10552221562E+03  0.23698151408E+03  0.80681218275E+02 0.  0.
         13    1    4    4    0    0  0.35172968786E+02  0.15934796155E+02 -0.36314568129E+02  0.53007577950E+02  0.00000000000E+00 0. -1.
        -14    1    4    4    0    0  0.14997508734E+03 -0.81019651207E+02 -0.69207647496E+02  0.18397393613E+03  0.00000000000E+00 0.  1.
        -11    1    3    3    0    0  0.10597079028E+02  0.10613907530E+03 -0.36203107086E+03  0.37741793500E+03  0.00000000000E+00 0.  1.
         11    1    3    3    0    0 -0.19832327592E+02 -0.16361258184E+02 -0.86401773981E+02  0.90145873639E+02  0.00000000000E+00 0. -1.
         21    1    1    2  503  502 -0.15812814791E+02  0.67598142574E+02  0.45951520938E+03  0.46472979423E+03  0.00000000000E+00 0.  1.
          2    1    1    2  501    0 -0.16009999277E+03 -0.92291104638E+02 -0.59220463084E+03  0.62036761720E+03  0.00000000000E+00 0. -1.
<scales pt_clust_5="13000.00000" pt_clust_6="13000.00000" pt_clust_7="13000.00000" pt_clust_8="13000.00000" pt_clust_9="69.42301" pt_clust_10="171.34202"></scales>
<clustering>
<clus scale="   69.423">  1  9  2 -1</clus>
<clus scale="   80.681">  5  6 -1 -1</clus>
<clus scale="   96.843">  7  8 -1 -1</clus>
<clus scale="  137.511">  2  7  1 -1</clus>
<clus scale="  171.342">  1 10  2 -1</clus>
<clus scale="   69.423">  1  5  2 -1</clus>
</clustering>
</event>
<event>
10    3  0.5078224E-005  0.1688206E+03  0.7546771E-02  0.1181005E+00
          1   -1    0    0  503    0 -0.00000000000E+00  0.00000000000E+00  0.14707058269E+04  0.14707058269E+04  0.00000000000E+00 0. -1.
         21   -1    0    0  501  502  0.00000000000E+00 -0.00000000000E+00 -0.40770829405E+02  0.40770829405E+02  0.00000000000E+00 0. -1.
         23    2    1    2    0    0  0.69023790784E+02 -0.68413537873E+02  0.38258494652E+03  0.40543841369E+03  0.92543882204E+02 0.  0.
        -24    2    1    2    0    0 -0.16940127618E+03  0.10274275042E+03  0.78391520147E+03  0.81239280909E+03  0.78779236047E+02 0.  0.
         13    1    4    4    0    0 -0.15531397555E+03  0.65840582267E+02  0.55417615530E+03  0.57928285352E+03  0.00000000000E+00 0. -1.
        -14    1    4    4    0    0 -0.14087300630E+02  0.36902168152E+02  0.22973904617E+03  0.23310995558E+03  0.00000000000E+00 0.  1.
        -11    1    3    3    0    0  0.15381896246E+02 -0.76528795363E+02  0.25808323332E+03  0.26962977315E+03  0.00000000000E+00 0.  1.
         11    1    3    3    0    0  0.53641894538E+02  0.81152574897E+01  0.12450171320E+03  0.13580864053E+03  0.00000000000E+00 0. -1.
         21    1    1    2  503  502  0.20236919344E+02  0.89912623339E+01  0.99306209429E+01  0.24269176649E+02  0.00000000000E+00 0. -1.
          2    1    1    2  501    0  0.80140566047E+02 -0.43320474879E+02  0.25350422858E+03  0.26937625689E+03  0.00000000000E+00 0. -1.
<scales pt_clust_5="13000.00000" pt_clust_6="13000.00000" pt_clust_7="13000.00000" pt_clust_8="13000.00000" pt_clust_9="22.14443" pt_clust_10="94.38545"></scales>
<clustering>
<clus scale="   22.144">  2  9  1 -1</clus>
<clus scale="   78.779">  5  6 -1 -1</clus>
<clus scale="   92.544">  7  8 -1 -1</clus>
<clus scale="   94.385">  2 10  1 -1</clus>
<clus scale="  161.686">  2  5  1 -1</clus>
<clus scale="   22.144">  2  5  1 -1</clus>
</clustering>
</event>
<event>
10    3  0.5078224E-005  0.3076195E+03  0.7546771E-02  0.1081647E+00
         21   -1    0    0  501  502  0.00000000000E+00  0.00000000000E+00  0.52004325330E+03  0.52004325330E+03  0.00000000000E+00 0. -1.
          1   -1    0    0  503    0 -0.00000000000E+00 -0.00000000000E+00 -0.83983235886E+03  0.83983235886E+03  0.00000000000E+00 0. -1.
        -24    2    1    2    0    0 -0.98342233099E+02  0.19317622872E+03 -0.14156061921E+03  0.27325603662E+03  0.87413971912E+02 0.  0.
         23    2    1    2    0    0  0.62393378443E+02 -0.42054759503E+03 -0.34955917439E+03  0.55800384092E+03  0.91779391593E+02 0.  0.
         13    1    3    3    0    0 -0.52456456232E+02  0.16082515068E+03 -0.71958579666E+02  0.18383265781E+03  0.00000000000E+00 0. -1.
        -14    1    3    3    0    0 -0.45885776867E+02  0.32351078046E+02 -0.69602039542E+02  0.89423378810E+02  0.00000000000E+00 0.  1.
        -11    1    4    4    0    0  0.29319384996E+02 -0.27755710142E+02 -0.25867475441E+02  0.47949265560E+02  0.00000000000E+00 0.  1.
         11    1    4    4    0    0  0.33073993447E+02 -0.39279188489E+03 -0.32369169895E+03  0.51005457536E+03  0.00000000000E+00 0. -1.
         21    1    1    2  503  502  0.12094779743E+03  0.17428992344E+03  0.29881216008E+03  0.36646153158E+03  0.00000000000E+00 0. -1.
          2    1    1    2  501    0 -0.84998942776E+02  0.53081442868E+02 -0.12748147204E+03  0.16215420304E+03  0.00000000000E+00 0. -1.
<scales pt_clust_5="13000.00000" pt_clust_6="13000.00000" pt_clust_7="13000.00000" pt_clust_8="13000.00000" pt_clust_9="219.18188" pt_clust_10="100.21212"></scales>
<clustering>
<clus scale="   87.414">  5  6 -1 -1</clus>
<clus scale="   91.779">  7  8 -1 -1</clus>
<clus scale="  100.212">  1 10  2 -1</clus>
<clus scale="  219.182">  1  9  2 -1</clus>
<clus scale="  306.345">  2  5  1 -1</clus>
<clus scale="  100.212">  1  5  2 -1</clus>
</clustering>
</event>
<event>
10    3  0.5078224E-005  0.1348684E+03  0.7546771E-02  0.1222978E+00
         21   -1    0    0  503  502  0.00000000000E+00  0.00000000000E+00  0.14954615403E+03  0.14954615403E+03  0.00000000000E+00 0. -1.
         -2   -1    0    0    0  501 -0.00000000000E+00 -0.00000000000E+00 -0.22511094491E+03  0.22511094491E+03  0.00000000000E+00 0.  1.
         23    2    1    2    0    0 -0.29629460517E+01 -0.75347147787E+02 -0.36063848634E+02  0.12372172754E+03  0.91216736181E+02 0.  0.
        -24    2    1    2    0    0 -0.20783459318E+02  0.12278965277E+03 -0.79785654407E+02  0.16833883493E+03  0.80392547465E+02 0.  0.
         11    1    4    4    0    0 -0.11958467255E+01  0.78899875892E+02 -0.45222664662E+01  0.79038416983E+02  0.00000000000E+00 0. -1.
        -12    1    4    4    0    0 -0.19587612592E+02  0.43889776882E+02 -0.75263387941E+02  0.89300417951E+02  0.00000000000E+00 0.  1.
        -11    1    3    3    0    0  0.43502574415E+01 -0.24206232896E+02 -0.61429026998E+02  0.66169417473E+02  0.00000000000E+00 0.  1.
         11    1    3    3    0    0 -0.73132034932E+01 -0.51140914891E+02  0.25365178364E+02  0.57552310072E+02  0.00000000000E+00 0. -1.
         21    1    1    2  503  501  0.30394004625E+02 -0.13963573588E+02  0.55632259776E+01  0.33907615483E+02  0.00000000000E+00 0.  1.
         -1    1    1    2    0  502 -0.66475992552E+01 -0.33478931399E+02  0.34721486179E+02  0.48688920978E+02  0.00000000000E+00 0.  1.
<scales pt_clust_5="13000.00000" pt_clust_6="13000.00000" pt_clust_7="13000.00000" pt_clust_8="13000.00000" pt_clust_9="33.44812" pt_clust_10="38.09287"></scales>
<clustering>
<clus scale="   33.448">  1  9  2 -1</clus>
<clus scale="   38.093">  1 10  2 -1</clus>
<clus scale="   80.393">  5  6 -1 -1</clus>
<clus scale="   91.217">  7  8 -1 -1</clus>
<clus scale="  127.797">  1  5  2 -1</clus>
<clus scale="   33.448">  1  5  2 -1</clus>
</clustering>
</event>
<event>
10    3  0.5934131E-005  0.2860104E+03  0.7546771E-02  0.1115839E+00
         21   -1    0    0  501  502  0.00000000000E+00  0.00000000000E+00  0.35140849483E+03  0.35140849483E+03  0.00000000000E+00 0. -1.
          1   -1    0    0  503    0 -0.00000000000E+00 -0.00000000000E+00 -0.51767349106E+03  0.51767349106E+03  0.00000000000E+00 0. -1.
        -24    2    1    2    0    0  0.77226095236E+02  0.10032768155E+03  0.69761095508E+02  0.16976296573E+03  0.89013148560E+02 0.  0.
         23    2    1    2    0    0 -0.27514304365E+03  0.64140755948E+02 -0.24345768767E+03  0.38381607510E+03  0.90694006302E+02 0.  0.
         13    1    3    3    0    0  0.43044378375E+02  0.10776386347E+03  0.68514697894E+02  0.13475953624E+03  0.00000000000E+00 0. -1.
        -14    1    3    3    0    0  0.34181716861E+02 -0.74361819203E+01  0.12463976145E+01  0.35003429491E+02  0.00000000000E+00 0.  1.
        -11    1    4    4    0    0 -0.29323767211E+02 -0.21449126809E+02 -0.26677186979E+02  0.45073502964E+02  0.00000000000E+00 0.  1.
         11    1    4    4    0    0 -0.24581927644E+03  0.85589882757E+02 -0.21678050069E+03  0.33874257214E+03  0.00000000000E+00 0. -1.
         21    1    1    2  503  502 -0.19268029470E+02  0.21461874009E+02 -0.52711869667E+01  0.29319863705E+02  0.00000000000E+00 0.  1.
          2    1    1    2  501    0  0.21718497788E+03 -0.18593031151E+03  0.12702782903E+02  0.28618308135E+03  0.00000000000E+00 0. -1.
<scales pt_clust_5="13000.00000" pt_clust_6="13000.00000" pt_clust_7="13000.00000" pt_clust_8="13000.00000" pt_clust_9="28.84214" pt_clust_10="271.24997"></scales>
<clustering>
<clus scale="   28.842">  1  9  2 -1</clus>
<clus scale="   89.013">  5  6 -1 -1</clus>
<clus scale="   90.694">  7  8 -1 -1</clus>
<clus scale="  156.608">  2  5  1 -1</clus>
<clus scale="  271.250">  1 10  2 -1</clus>
<clus scale="   28.842">  1  5  2 -1</clus>
</clustering>
</event>
<event>
10    3  0.5078224E-005  0.1143208E+03  0.7546771E-02  0.1262082E+00
         21   -1    0    0  503  502  0.00000000000E+00  0.00000000000E+00  0.22187408615E+03  0.22187408615E+03  0.00000000000E+00 0. -1.
          1   -1    0    0  502    0 -0.00000000000E+00 -0.00000000000E+00 -0.55153071491E+03  0.55153071491E+03  0.00000000000E+00 0. -1.
         23    2    1    2    0    0  0.10839924736E+02  0.50308606421E+02 -0.43164769498E+03  0.44710962938E+03  0.10458885339E+03 0.  0.
        -24    2    1    2    0    0  0.56704657181E+02 -0.29655875280E+02 -0.62622174599E+02  0.12221130877E+03  0.83181597453E+02 0.  0.
         11    1    4    4    0    0  0.49462824979E+02 -0.52334140609E+02 -0.66585939015E+02  0.98077115591E+02  0.00000000000E+00 0. -1.
        -12    1    4    4    0    0  0.72418322017E+01  0.22678265330E+02  0.39637644154E+01  0.24134193178E+02  0.00000000000E+00 0.  1.
        -11    1    3    3    0    0 -0.25618516578E+02 -0.22234756749E+02 -0.97231599936E+02  0.10297901158E+03  0.00000000000E+00 0.  1.
         11    1    3    3    0    0  0.36458441314E+02  0.72543363171E+02 -0.33441609504E+03  0.34413061780E+03  0.00000000000E+00 0. -1.
         21    1    1    2  503  501 -0.11294196715E+02 -0.35366292159E+02  0.13262302557E+03  0.13772145951E+03  0.00000000000E+00 0. -1.
          2    1    1    2  501    0 -0.56250385201E+02  0.14713561017E+02  0.31990215251E+02  0.66362403399E+02  0.00000000000E+00 0. -1.
<scales pt_clust_5="13000.00000" pt_clust_6="13000.00000" pt_clust_7="13000.00000" pt_clust_8="13000.00000" pt_clust_9="37.12591" pt_clust_10="62.88396"></scales>
<clustering>
<clus scale="   37.126">  1  9  2 -1</clus>
<clus scale="   62.884">  1 10  2 -1</clus>
<clus scale="   83.182">  5  6 -1 -1</clus>
<clus scale="   95.129">  1  5  2 -1</clus>
<clus scale="  104.589">  7  8 -1 -1</clus>
<clus scale="   37.126">  1  5  2 -1</clus>
</clustering>
</event>
<event>
10    3  0.5078224E-005  0.4001441E+03  0.7546771E-02  0.1084764E+00
         21   -1    0    0  501  502  0.00000000000E+00  0.00000000000E+00  0.57331255437E+03  0.57331255437E+03  0.00000000000E+00 0.  1.
         -2   -1    0    0    0  501 -0.00000000000E+00 -0.00000000000E+00 -0.66250517124E+03  0.66250517124E+03  0.00000000000E+00 0.  1.
        -24    2    1    2    0    0  0.80333716849E+02 -0.50788089856E+02 -0.13938689333E+03  0.18751410903E+03  0.81852910269E+02 0.  0.
         23    2    1    2    0    0 -0.28117892299E+03  0.36858981713E+03 -0.17362282434E+03  0.50367816787E+03  0.92880415729E+02 0.  0.
         11    1    3    3    0    0  0.75106995916E+02 -0.68858479958E+01 -0.58947258747E+02  0.95724892541E+02  0.00000000000E+00 0. -1.
        -12    1    3    3    0    0  0.52267209323E+01 -0.43902241860E+02 -0.80439634579E+02  0.91789216487E+02  0.00000000000E+00 0.  1.
        -13    1    4    4    0    0 -0.71740529613E+02  0.96644546780E+02 -0.90281550479E+02  0.15045806847E+03  0.00000000000E+00 0. -1.
         13    1    4    4    0    0 -0.20943839338E+03  0.27194527035E+03 -0.83341273863E+02  0.35322009940E+03  0.00000000000E+00 0.  1.
         21    1    1    2  503  502  0.60574518316E+02 -0.44757956131E+01  0.19023376595E+03  0.19969524462E+03  0.00000000000E+00 0.  1.
         -1    1    1    2    0  503  0.14027068783E+03 -0.31332593167E+03  0.33583334852E+02  0.34493020409E+03  0.00000000000E+00 0.  1.
<scales pt_clust_5="13000.00000" pt_clust_6="13000.00000" pt_clust_7="13000.00000" pt_clust_8="13000.00000" pt_clust_9="60.73965" pt_clust_10="389.21527"></scales>
<clustering>
<clus scale="   60.740">  1  9  2 -1</clus>
<clus scale="   81.853">  5  6 -1 -1</clus>
<clus scale="   92.880">  7  8 -1 -1</clus>
<clus scale="  128.046">  2  5  1 -1</clus>
<clus scale="  389.215">  1 10  2 -1</clus>
<clus scale="   60.740">  1  5  2 -1</clus>
</clustering>
</event>
<event>
10    3  0.5078224E-005  0.2733717E+03  0.7546771E-02  0.1124049E+00
         -4   -1    0    0    0  501 -0.00000000000E+00  0.00000000000E+00  0.33829135587E+03  0.33829135587E+03  0.00000000000E+00 0.  1.
         21   -1    0    0  501  502  0.00000000000E+00 -0.00000000000E+00 -0.83364375664E+03  0.83364375664E+03  0.00000000000E+00 0.  1.
         23    2    1    2    0    0  0.50173451047E+02 -0.10683530047E+03  0.18925689662E+03  0.24013718677E+03  0.88974934315E+02 0.  0.
        -24    2    1    2    0    0 -0.11424706617E+03 -0.19557525511E+03 -0.11005363985E+03  0.26421633531E+03  0.79977469716E+02 0.  0.
         11    1    4    4    0    0 -0.13254531460E+02 -0.19638392140E+02 -0.45553485747E+02  0.51346558929E+02  0.00000000000E+00 0. -1.
        -12    1    4    4    0    0 -0.10099253471E+03 -0.17593686297E+03 -0.64500154101E+02  0.21286977638E+03  0.00000000000E+00 0.  1.
        -11    1    3    3    0    0  0.31544362529E+02 -0.12059007120E+03  0.16034187071E+03  0.20309241143E+03  0.00000000000E+00 0.  1.
         11    1    3    3    0    0  0.18629088518E+02  0.13754770725E+02  0.28915025912E+02  0.37044775343E+02  0.00000000000E+00 0. -1.
         21    1    1    2  503  502 -0.31993643830E+02  0.47663139508E+02 -0.17426398027E+03  0.18347561945E+03  0.00000000000E+00 0.  1.
         -3    1    1    2    0  503  0.96067258948E+02  0.25474741607E+03 -0.40029167728E+03  0.48410597098E+03  0.00000000000E+00 0.  1.
<scales pt_clust_5="13000.00000" pt_clust_6="13000.00000" pt_clust_7="13000.00000" pt_clust_8="13000.00000" pt_clust_9="57.40530" pt_clust_10="261.41099"></scales>
<clustering>
<clus scale="   57.405">  2  9  1 -1</clus>
<clus scale="   79.977">  5  6 -1 -1</clus>
<clus scale="   88.975">  7  8 -1 -1</clus>
<clus scale="  146.056">  1  7  2 -1</clus>
<clus scale="  261.411">  2 10  1 -1</clus>
<clus scale="   57.405">  2  5  1 -1</clus>
</clustering>
</event>
<event>
10    3  0.5078224E-005  0.3879025E+03  0.7546771E-02  0.1070235E+00
         21   -1    0    0  503  502  0.00000000000E+00  0.00000000000E+00  0.70450838440E+03  0.70450838440E+03  0.00000000000E+00 0. -1.
          1   -1    0    0  502    0 -0.00000000000E+00 -0.00000000000E+00 -0.73080465454E+03  0.73080465454E+03  0.00000000000E+00 0. -1.
        -24    2    1    2    0    0 -0.31475276079E+02 -0.19541432231E+03  0.66252448432E+01  0.21205664340E+03  0.75806831954E+02 0.  0.
         23    2    1    2    0    0  0.10337347817E+03 -0.20298637368E+03 -0.52246800801E+03  0.57714871316E+03  0.90764937181E+02 0.  0.
         13    1    3    3    0    0 -0.26196030931E+02 -0.12129679037E+03  0.40305131123E+02  0.13047469864E+03  0.00000000000E+00 0. -1.
        -14    1    3    3    0    0 -0.52792451486E+01 -0.74117531937E+02 -0.33679886279E+02  0.81581944753E+02  0.00000000000E+00 0.  1.
        -13    1    4    4    0    0 -0.12397454250E+02 -0.18877430189E+02 -0.22278434540E+02  0.31723538390E+02  0.00000000000E+00 0.  1.
         13    1    4    4    0    0  0.11577093242E+03 -0.18410894350E+03 -0.50018957347E+03  0.54542517477E+03  0.00000000000E+00 0. -1.
         21    1    1    2  503  501  0.16259136631E+02  0.20590161844E+02  0.69618596194E+02  0.74398005517E+02  0.00000000000E+00 0. -1.
          2    1    1    2  501    0 -0.88157338722E+02  0.37781053415E+03  0.41992789683E+03  0.57170967686E+03  0.00000000000E+00 0. -1.
<scales pt_clust_5="13000.00000" pt_clust_6="13000.00000" pt_clust_7="13000.00000" pt_clust_8="13000.00000" pt_clust_9="26.23574" pt_clust_10="377.13398"></scales>
<clustering>
<clus scale="   26.236">  1  9  2 -1</clus>
<clus scale="   75.807">  5  6 -1 -1</clus>
<clus scale="   90.765">  7  8 -1 -1</clus>
<clus scale="  208.271">  2  5  1 -1</clus>
<clus scale="  377.134">  1 10  2 -1</clus>
<clus scale="   26.236">  1  5  2 -1</clus>
</clustering>
</event>
<event>
10    3  0.5078224E-005  0.1053186E+03  0.7546771E-02  0.1272463E+00
         21   -1    0    0  501  502  0.00000000000E+00  0.00000000000E+00  0.58519723676E+02  0.58519723676E+02  0.00000000000E+00 0.  1.
          1   -1    0    0  503    0 -0.00000000000E+00 -0.00000000000E+00 -0.49750233449E+03  0.49750233449E+03  0.00000000000E+00 0. -1.
         23    2    1    2    0    0 -0.31786596114E+02  0.32198990859E+02 -0.11944977917E+03  0.15498395325E+03  0.87775926750E+02 0.  0.
        -24    2    1    2    0    0  0.89595324087E+02  0.46093370196E+02 -0.17452168153E+03  0.21705437963E+03  0.80640346721E+02 0.  0.
         11    1    4    4    0    0  0.25906803962E+01  0.38176947200E+02 -0.77910742393E+02  0.86800199899E+02  0.00000000000E+00 0. -1.
        -12    1    4    4    0    0  0.87004643691E+02  0.79164229957E+01 -0.96610939135E+02  0.13025417973E+03  0.00000000000E+00 0.  1.
        -13    1    3    3    0    0 -0.39867775085E+02  0.50939802211E+02 -0.47655446677E+02  0.80345158768E+02  0.00000000000E+00 0.  1.
         13    1    3    3    0    0  0.80811789709E+01 -0.18740811352E+02 -0.71794332496E+02  0.74638794486E+02  0.00000000000E+00 0. -1.
         21    1    1    2  503  502 -0.32199140737E+02 -0.77021272898E+01 -0.21627402824E+02  0.39545568423E+02  0.00000000000E+00 0.  1.
          2    1    1    2  501    0 -0.25609587237E+02 -0.70590233765E+02 -0.12338374728E+03  0.14443815685E+03  0.00000000000E+00 0. -1.
<scales pt_clust_5="13000.00000" pt_clust_6="13000.00000" pt_clust_7="13000.00000" pt_clust_8="13000.00000" pt_clust_9="33.10751" pt_clust_10="79.18066"></scales>
<clustering>
<clus scale="   33.108">  1  9  2 -1</clus>
<clus scale="   79.181">  1 10  2 -1</clus>
<clus scale="   80.640">  5  6 -1 -1</clus>
<clus scale="   87.776">  7  8 -1 -1</clus>
<clus scale="   99.450">  1  5  2 -1</clus>
<clus scale="   33.108">  1  5  2 -1</clus>
</clustering>
</event>
<event>
10    3  0.5078224E-005  0.1564975E+03  0.7546771E-02  0.1224056E+00
         21   -1    0    0  501  502  0.00000000000E+00  0.00000000000E+00  0.44359600297E+03  0.44359600297E+03  0.00000000000E+00 0. -1.
          1   -1    0    0  503    0 -0.00000000000E+00 -0.00000000000E+00 -0.39010895886E+03  0.39010895886E+03  0.00000000000E+00 0. -1.
        -24    2    1    2    0    0 -0.13926991904E+02 -0.18578844227E+02 -0.64904324556E+02  0.10363421100E+03  0.77384389812E+02 0.  0.
         23    2    1    2    0    0 -0.15124417552E+03 -0.73063046874E+02  0.36940601265E+02  0.19561984563E+03  0.93217522685E+02 0.  0.
         13    1    3    3    0    0 -0.23190365086E+02 -0.30935435541E+02 -0.75556225740E+02  0.84873655824E+02  0.00000000000E+00 0. -1.
        -14    1    3    3    0    0  0.92633731814E+01  0.12356591314E+02  0.10651901183E+02  0.18760555173E+02  0.00000000000E+00 0.  1.
        -13    1    4    4    0    0 -0.12393744483E+03 -0.95732332737E+02  0.30659554618E+02  0.15957812523E+03  0.00000000000E+00 0. -1.
         13    1    4    4    0    0 -0.27306730684E+02  0.22669285863E+02  0.62810466469E+01  0.36041720397E+02  0.00000000000E+00 0.  1.
         21    1    1    2  503  502  0.78677379082E+02 -0.94905621635E+01  0.28246931842E+03  0.29337538513E+03  0.00000000000E+00 0. -1.
          2    1    1    2  501    0  0.86493788340E+02  0.10113245326E+03 -0.20101855102E+03  0.24107552007E+03  0.00000000000E+00 0. -1.
<scales pt_clust_5="13000.00000" pt_clust_6="13000.00000" pt_clust_7="13000.00000" pt_clust_8="13000.00000" pt_clust_9="79.24772" pt_clust_10="125.70588"></scales>
<clustering>
<clus scale="   77.384">  5  6 -1 -1</clus>
<clus scale="   79.248">  1  9  2 -1</clus>
<clus scale="   79.974">  2  5  1 -1</clus>
<clus scale="   93.218">  7  8 -1 -1</clus>
<clus scale="  125.706">  1 10  2 -1</clus>
<clus scale="   79.248">  1  5  2 -1</clus>
</clustering>
</event>
<event>
10    3  0.5078224E-005  0.3591359E+03  0.7546771E-02  0.1115177E+00
         21   -1    0    0  503  502  0.00000000000E+00  0.00000000000E+00  0.46382517539E+03  0.46382517539E+03  0.00000000000E+00 0.  1.
          1   -1    0    0  502    0 -0.00000000000E+00 -0.00000000000E+00 -0.76074699919E+03  0.76074699919E+03  0.00000000000E+00 0. -1.
        -24    2    1    2    0    0 -0.19551828470E+02 -0.24351058716E+02 -0.42711856778E+02  0.91070855153E+02  0.74123882061E+02 0.  0.
         23    2    1    2    0    0  0.34138188466E+03 -0.16941204665E+03  0.18639717774E+03  0.43427536637E+03  0.92785522820E+02 0.  0.
         13    1    3    3    0    0 -0.11927037525E+02 -0.51145256526E+02 -0.29548549715E+02  0.60259507794E+02  0.00000000000E+00 0. -1.
        -14    1    3    3    0    0 -0.76247909452E+01  0.26794197811E+02 -0.13163307063E+02  0.30811347359E+02  0.00000000000E+00 0.  1.
        -11    1    4    4    0    0  0.30110472423E+02 -0.50675404741E+02  0.32270803725E+02  0.67201502723E+02  0.00000000000E+00 0. -1.
         11    1    4    4    0    0  0.31127141224E+03 -0.11873664191E+03  0.15412637401E+03  0.36707386365E+03  0.00000000000E+00 0.  1.
         21    1    1    2  503  501 -0.74337030048E+02 -0.42364415785E+02  0.51534500063E+02  0.99882643427E+02  0.00000000000E+00 0.  1.
          2    1    1    2  501    0 -0.24749302614E+03  0.23612752115E+03 -0.49214164482E+03  0.59934330963E+03  0.00000000000E+00 0. -1.
<scales pt_clust_5="13000.00000" pt_clust_6="13000.00000" pt_clust_7="13000.00000" pt_clust_8="13000.00000" pt_clust_9="86.57413" pt_clust_10="346.94314"></scales>
<clustering>
<clus scale="   74.124">  5  6 -1 -1</clus>
<clus scale="   80.434">  2  5  1 -1</clus>
<clus scale="   86.574">  1  9  2 -1</clus>
<clus scale="   92.786">  7  8 -1 -1</clus>
<clus scale="  346.943">  1 10  2 -1</clus>
<clus scale="   86.574">  1  5  2 -1</clus>
</clustering>
</event>
<event>
10    3  0.5078224E-005  0.1238536E+03  0.7546771E-02  0.1253619E+00
         21   -1    0    0  503  502  0.00000000000E+00  0.00000000000E+00  0.50488797314E+02  0.50488797314E+02  0.00000000000E+00 0. -1.
         -2   -1    0    0    0  501 -0.00000000000E+00 -0.00000000000E+00 -0.11056400872E+04  0.11056400872E+04  0.00000000000E+00 0.  1.
        -24    2    1    2    0    0 -0.25822616845E+02  0.20852944405E+02 -0.18198474000E+03  0.20161046064E+03  0.80166572920E+02 0.  0.
         23    2    1    2    0    0 -0.53627407968E+02 -0.10735006488E+02 -0.70013318482E+02  0.12675113220E+03  0.90403791400E+02 0.  0.
         11    1    3    3    0    0  0.15445149661E+02  0.36844602158E+02 -0.11087148257E+03  0.11784974758E+03  0.00000000000E+00 0. -1.
        -12    1    3    3    0    0 -0.41267766507E+02 -0.15991657753E+02 -0.71113257433E+02  0.83760713063E+02  0.00000000000E+00 0.  1.
        -13    1    4    4    0    0 -0.22669145870E+02  0.37809580511E+02 -0.47835622600E+02  0.65051528363E+02  0.00000000000E+00 0.  1.
         13    1    4    4    0    0 -0.30958262098E+02 -0.48544586998E+02 -0.22177695882E+02  0.61699603837E+02  0.00000000000E+00 0. -1.
         21    1    1    2  503  501 -0.33129487444E+02 -0.19629828276E+02 -0.37252650040E+02  0.53578475449E+02  0.00000000000E+00 0. -1.
         -1    1    1    2    0  502  0.11257951226E+03  0.95118903586E+01 -0.76590058132E+03  0.77418881618E+03  0.00000000000E+00 0.  1.
<scales pt_clust_5="13000.00000" pt_clust_6="13000.00000" pt_clust_7="13000.00000" pt_clust_8="13000.00000" pt_clust_9="38.50835" pt_clust_10="84.65736"></scales>
<clustering>
<clus scale="   38.508">  1  9  2 -1</clus>
<clus scale="   80.167">  5  6 -1 -1</clus>
<clus scale="   88.402">  2  5  1 -1</clus>
<clus scale="   84.657">  1 10  2 -1</clus>
<clus scale="   90.404">  7  8 -1 -1</clus>
<clus scale="   38.508">  1  5  2 -1</clus>
</clustering>
</event>
<event>
10    3  0.5078224E-005  0.1431578E+03  0.7546771E-02  0.1211422E+00
          1   -1    0    0  503    0 -0.00000000000E+00  0.00000000000E+00  0.76764482087E+02  0.76764482087E+02  0.00000000000E+00 0. -1.
         21   -1    0    0  501  502  0.00000000000E+00 -0.00000000000E+00 -0.86468101986E+03  0.86468101986E+03  0.00000000000E+00 0. -1.
         23    2    1    2    0    0  0.15690686856E+03 -0.19572021540E+02 -0.15177501575E+03  0.23740718815E+03  0.91234248784E+02 0.  0.
        -24    2    1    2    0    0 -0.48241505921E+02 -0.58197268927E+02 -0.23809747471E+03  0.26234982470E+03  0.80142735513E+02 0.  0.
         13    1    4    4    0    0 -0.13546937276E+02 -0.52429662104E+02 -0.21131356408E+03  0.21814172306E+03  0.00000000000E+00 0. -1.
        -14    1    4    4    0    0 -0.34694568645E+02 -0.57676068233E+01 -0.26783910629E+02  0.44208101639E+02  0.00000000000E+00 0.  1.
        -13    1    3    3    0    0  0.20109689528E+02  0.13632803450E+02 -0.71150459926E+02  0.75184046782E+02  0.00000000000E+00 0.  1.
         13    1    3    3    0    0  0.13679717903E+03 -0.33204824990E+02 -0.80624555827E+02  0.16222314137E+03  0.00000000000E+00 0. -1.
         21    1    1    2  503  502 -0.37055824898E+02 -0.35551928185E+01 -0.27592962667E+03  0.27842940295E+03  0.00000000000E+00 0. -1.
          2    1    1    2  501    0 -0.71609537743E+02  0.81324483285E+02 -0.12211442064E+03  0.16325908614E+03  0.00000000000E+00 0. -1.
<scales pt_clust_5="13000.00000" pt_clust_6="13000.00000" pt_clust_7="13000.00000" pt_clust_8="13000.00000" pt_clust_9="37.22598" pt_clust_10="113.89403"></scales>
<clustering>
<clus scale="   37.226">  2  9  1 -1</clus>
<clus scale="   80.143">  5  6 -1 -1</clus>
<clus scale="   91.234">  7  8 -1 -1</clus>
<clus scale="  113.894">  2 10  1 -1</clus>
<clus scale="  136.357">  2  5  1 -1</clus>
<clus scale="   37.226">  2  5  1 -1</clus>
</clustering>
</event>
<event>
10    3  0.5078224E-005  0.3040833E+03  0.7546771E-02  0.1121012E+00
          1   -1    0    0  502    0 -0.00000000000E+00  0.00000000000E+00  0.40252290218E+03  0.40252290218E+03  0.00000000000E+00 0. -1.
         21   -1    0    0  503  502  0.00000000000E+00 -0.00000000000E+00 -0.54703352458E+03  0.54703352458E+03  0.00000000000E+00 0. -1.
        -24    2    1    2    0    0 -0.77783923767E+02 -0.21259022066E+02  0.84134361876E+01  0.11476522667E+03  0.81227991042E+02 0.  0.
         23    2    1    2    0    0  0.11753740306E+03  0.33907628043E+03 -0.69523689905E+02  0.37604955929E+03  0.88272093672E+02 0.  0.
         11    1    3    3    0    0 -0.78395752668E+02  0.13506242548E+02  0.32857712511E+01  0.79618521192E+02  0.00000000000E+00 0. -1.
        -12    1    3    3    0    0  0.61182890127E+00 -0.34765264615E+02  0.51276649365E+01  0.35146705479E+02  0.00000000000E+00 0.  1.
        -11    1    4    4    0    0 -0.12040064244E+02  0.68601242489E+02 -0.12309239303E+02  0.70729138198E+02  0.00000000000E+00 0.  1.
         11    1    4    4    0    0  0.12957746731E+03  0.27047503794E+03 -0.57214450602E+02  0.30532042110E+03  0.00000000000E+00 0. -1.
         21    1    1    2  503  501 -0.13720310001E+03 -0.62733354054E+02 -0.10655057024E+03  0.18469755922E+03  0.00000000000E+00 0. -1.
          2    1    1    2  501    0  0.97449620711E+02 -0.25508390431E+03  0.23150201554E+02  0.27404408157E+03  0.00000000000E+00 0. -1.
<scales pt_clust_5="13000.00000" pt_clust_6="13000.00000" pt_clust_7="13000.00000" pt_clust_8="13000.00000" pt_clust_9="159.99215" pt_clust_10="290.98932"></scales>
<clustering>
<clus scale="   81.228">  5  6 -1 -1</clus>
<clus scale="   88.272">  7  8 -1 -1</clus>
<clus scale="  114.456">  1  5  2 -1</clus>
<clus scale="  159.992">  2  9  1 -1</clus>
<clus scale="  290.989">  2 10  1 -1</clus>
<clus scale="  159.992">  2  5  1 -1</clus>
</clustering>
</event>
<event>
10    3  0.5078224E-005  0.2495367E+03  0.7546771E-02  0.1139873E+00
          3   -1    0    0  503    0 -0.00000000000E+00  0.00000000000E+00  0.41213413542E+03  0.41213413542E+03  0.00000000000E+00 0. -1.
         21   -1    0    0  501  502  0.00000000000E+00 -0.00000000000E+00 -0.33490028638E+03  0.33490028638E+03  0.00000000000E+00 0. -1.
         23    2    1    2    0    0 -0.63284175997E+02  0.46982264417E+02  0.11075094559E+03  0.16239093133E+03  0.88841558560E+02 0.  0.
        -24    2    1    2    0    0  0.75278213076E+01  0.18731558759E+03 -0.13525753070E+02  0.20554913736E+03  0.83208800177E+02 0.  0.
         11    1    4    4    0    0  0.63383329349E+01  0.18547051077E+03  0.62187704133E+01  0.18568295004E+03  0.00000000000E+00 0. -1.
        -12    1    4    4    0    0  0.11894883727E+01  0.18450768152E+01 -0.19744523483E+02  0.19866187320E+02  0.00000000000E+00 0.  1.
        -11    1    3    3    0    0 -0.50399724306E+02  0.11344817277E+01  0.10630622659E+02  0.51521154850E+02  0.00000000000E+00 0. -1.
         11    1    3    3    0    0 -0.12884451691E+02  0.45847782689E+02  0.10012032293E+03  0.11086977648E+03  0.00000000000E+00 0.  1.
         21    1    1    2  503  502  0.26950250200E+01  0.68807336517E+02  0.11344644071E+02  0.69788349082E+02  0.00000000000E+00 0. -1.
          4    1    1    2  501    0  0.53061329670E+02 -0.30310518852E+03 -0.31335987540E+02  0.30930600403E+03  0.00000000000E+00 0. -1.
<scales pt_clust_5="13000.00000" pt_clust_6="13000.00000" pt_clust_7="13000.00000" pt_clust_8="13000.00000" pt_clust_9="68.86010" pt_clust_10="235.25499"></scales>
<clustering>
<clus scale="   68.860">  1  9  2 -1</clus>
<clus scale="   83.209">  5  6 -1 -1</clus>
<clus scale="   88.842">  7  8 -1 -1</clus>
<clus scale="  130.371">  1  7  2 -1</clus>
<clus scale="  235.255">  2 10  1 -1</clus>
<clus scale="  235.255">  2  5  1 -1</clus>
</clustering>
</event>
<event>
10    3  0.5078224E-005  0.1038294E+03  0.7546771E-02  0.1276540E+00
         -2   -1    0    0    0  501 -0.00000000000E+00  0.00000000000E+00  0.10540217143E+03  0.10540217143E+03  0.00000000000E+00 0.  1.
         21   -1    0    0  501  502  0.00000000000E+00 -0.00000000000E+00 -0.22359813955E+03  0.22359813955E+03  0.00000000000E+00 0. -1.
         23    2    1    2    0    0 -0.93692615122E+01  0.66614552589E+02  0.35074696411E+02  0.11809323168E+03  0.90501355587E+02 0.  0.
        -24    2    1    2    0    0 -0.41536416759E+01 -0.16506649270E+02 -0.69218818570E+02  0.10817732220E+03  0.81371776346E+02 0.  0.
         13    1    4    4    0    0 -0.38216187413E+02  0.10419557227E+02 -0.30349903571E+02  0.49901510999E+02  0.00000000000E+00 0. -1.
        -14    1    4    4    0    0  0.34062545737E+02 -0.26926206497E+02 -0.38868914998E+02  0.58275811205E+02  0.00000000000E+00 0.  1.
        -11    1    3    3    0    0 -0.25136822079E+02  0.79853502051E+02  0.45211328518E+02  0.95144657445E+02  0.00000000000E+00 0.  1.
         11    1    3    3    0    0  0.15767560567E+02 -0.13238949462E+02 -0.10136632107E+02  0.22948574238E+02  0.00000000000E+00 0. -1.
         21    1    1    2  503  502  0.10134341907E+01 -0.20669902341E+02 -0.57660801282E+02  0.61262059353E+02  0.00000000000E+00 0. -1.
         -1    1    1    2    0  503  0.12509468997E+02 -0.29438000978E+02 -0.26391044687E+02  0.41467697740E+02  0.00000000000E+00 0.  1.
<scales pt_clust_5="13000.00000" pt_clust_6="13000.00000" pt_clust_7="13000.00000" pt_clust_8="13000.00000" pt_clust_9="20.69473" pt_clust_10="36.03037"></scales>
<clustering>
<clus scale="   20.695">  2  9  1 -1</clus>
<clus scale="   36.030">  2 10  1 -1</clus>
<clus scale="   81.372">  5  6 -1 -1</clus>
<clus scale="   90.501">  7  8 -1 -1</clus>
<clus scale="   95.976">  2  5  1 -1</clus>
<clus scale="   20.695">  2  5  1 -1</clus>
</clustering>
</event>
<event>
10    3  0.5078224E-005  0.1158973E+03  0.7546771E-02  0.1251983E+00
         21   -1    0    0  501  502  0.00000000000E+00  0.00000000000E+00  0.21700631214E+03  0.21700631214E+03  0.00000000000E+00 0. -1.
          1   -1    0    0  503    0 -0.00000000000E+00 -0.00000000000E+00 -0.32729883322E+03  0.32729883322E+03  0.00000000000E+00 0. -1.
         23    2    1    2    0    0 -0.63138200142E+02  0.53434580631E+02 -0.21552102812E+03  0.24682419867E+03  0.87356652642E+02 0.  0.
        -24    2    1    2    0    0  0.20419386169E+02  0.13299043068E+02  0.15357157602E+03  0.17549659160E+03  0.81369581670E+02 0.  0.
         11    1    4    4    0    0 -0.28644000405E+02  0.89185716635E+01  0.91271576331E+02  0.96075596931E+02  0.00000000000E+00 0. -1.
        -12    1    4    4    0    0  0.49063386573E+02  0.43804714045E+01  0.62299999693E+02  0.79420994664E+02  0.00000000000E+00 0.  1.
        -11    1    3    3    0    0 -0.21705972698E+02 -0.63198210896E+01 -0.37482620358E+01  0.22915908397E+02  0.00000000000E+00 0.  1.
         11    1    3    3    0    0 -0.41432227444E+02  0.59754401721E+02 -0.21177276609E+03  0.22390829027E+03  0.00000000000E+00 0. -1.
         21    1    1    2  503  502 -0.45764393880E+01 -0.26124141767E+02  0.17136668305E+02  0.31576573296E+02  0.00000000000E+00 0. -1.
          2    1    1    2  501    0  0.47295253361E+02 -0.40609481932E+02 -0.65479737285E+02  0.90407781790E+02  0.00000000000E+00 0. -1.
<scales pt_clust_5="13000.00000" pt_clust_6="13000.00000" pt_clust_7="13000.00000" pt_clust_8="13000.00000" pt_clust_9="26.52196" pt_clust_10="63.23122"></scales>
<clustering>
<clus scale="   26.522">  1  9  2 -1</clus>
<clus scale="   63.231">  1 10  2 -1</clus>
<clus scale="   81.370">  5  6 -1 -1</clus>
<clus scale="   87.357">  7  8 -1 -1</clus>
<clus scale="  111.454">  1  5  2 -1</clus>
<clus scale="   26.522">  1  5  2 -1</clus>
</clustering>
</event>
<event>
10    3  0.5078224E-005  0.1792604E+03  0.7546771E-02  0.1184740E+00
          1   -1    0    0  503    0 -0.00000000000E+00  0.00000000000E+00  0.10070919406E+04  0.10070919406E+04  0.00000000000E+00 0. -1.
         21   -1    0    0  501  502  0.00000000000E+00 -0.00000000000E+00 -0.36238266671E+03  0.36238266671E+03  0.00000000000E+00 0. -1.
        -24    2    1    2    0    0 -0.27928306127E+02 -0.91926400299E+02  0.24235231119E+03  0.27233576804E+03  0.78750710875E+02 0.  0.
         23    2    1    2    0    0 -0.14562645743E+03  0.13247976789E+03 -0.37659747426E+00  0.21698403700E+03  0.91235828966E+02 0.  0.
         13    1    3    3    0    0 -0.12421972785E+02 -0.10036036191E+03  0.16949233882E+03  0.19736808396E+03  0.00000000000E+00 0. -1.
        -14    1    3    3    0    0 -0.15506333342E+02  0.84339616120E+01  0.72859972372E+02  0.74967684080E+02  0.00000000000E+00 0.  1.
        -11    1    4    4    0    0  0.54905172554E+00  0.48070299867E+02 -0.30033644389E+01  0.48167160857E+02  0.00000000000E+00 0. -1.
         11    1    4    4    0    0 -0.14617550915E+03  0.84409468018E+02  0.26267669646E+01  0.16881687615E+03  0.00000000000E+00 0.  1.
         21    1    1    2  503  502 -0.48590696523E+01 -0.14014881446E+03 -0.19969621869E+03  0.24401614805E+03  0.00000000000E+00 0. -1.
          2    1    1    2  501    0  0.17841383321E+03  0.99595446870E+02  0.60242977882E+03  0.63613865417E+03  0.00000000000E+00 0. -1.
<scales pt_clust_5="13000.00000" pt_clust_6="13000.00000" pt_clust_7="13000.00000" pt_clust_8="13000.00000" pt_clust_9="142.97889" pt_clust_10="154.30600"></scales>
<clustering>
<clus scale="   78.751">  5  6 -1 -1</clus>
<clus scale="   91.236">  7  8 -1 -1</clus>
<clus scale="  124.226">  1  5  2 -1</clus>
<clus scale="  142.979">  2  9  1 -1</clus>
<clus scale="  154.306">  2 10  1 -1</clus>
<clus scale="  142.979">  2  5  1 -1</clus>
</clustering>
</event>
<event>
10    3  0.5078224E-005  0.1076753E+03  0.7546771E-02  0.1268529E+00
          1   -1    0    0  503    0 -0.00000000000E+00  0.00000000000E+00  0.38317608380E+03  0.38317608380E+03  0.00000000000E+00 0. -1.
         21   -1    0    0  501  502  0.00000000000E+00 -0.00000000000E+00 -0.15174632751E+03  0.15174632751E+03  0.00000000000E+00 0.  1.
         23    2    1    2    0    0 -0.54632985064E+01  0.53940454472E+02  0.17044978606E+03  0.20026487381E+03  0.90074801431E+02 0.  0.
        -24    2    1    2    0    0  0.92272036151E+02 -0.56461792845E+02  0.16158072269E+02  0.13625352323E+03  0.81251932821E+02 0.  0.
         13    1    4    4    0    0  0.94780726952E+02 -0.17666025364E+02  0.11161879317E+02  0.97057004918E+02  0.00000000000E+00 0. -1.
        -14    1    4    4    0    0 -0.25086908014E+01 -0.38795767481E+02  0.49961929519E+01  0.39196518315E+02  0.00000000000E+00 0.  1.
        -13    1    3    3    0    0  0.28530777276E+02  0.79775774240E+01  0.12259437605E+02  0.32061515933E+02  0.00000000000E+00 0.  1.
         13    1    3    3    0    0 -0.33994075783E+02  0.45962877048E+02  0.15819034846E+03  0.16820335787E+03  0.00000000000E+00 0. -1.
         21    1    1    2  503  502 -0.37093583341E+01 -0.51704204180E+02 -0.41875177778E+02  0.66637936516E+02  0.00000000000E+00 0.  1.
          2    1    1    2  501    0 -0.83099379311E+02  0.54225542554E+02  0.86697075737E+02  0.13176607776E+03  0.00000000000E+00 0. -1.
<scales pt_clust_5="13000.00000" pt_clust_6="13000.00000" pt_clust_7="13000.00000" pt_clust_8="13000.00000" pt_clust_9="51.83709" pt_clust_10="93.99927"></scales>
<clustering>
<clus scale="   51.837">  2  9  1 -1</clus>
<clus scale="   81.252">  5  6 -1 -1</clus>
<clus scale="   90.075">  7  8 -1 -1</clus>
<clus scale="   93.999">  2 10  1 -1</clus>
<clus scale="  100.411">  2  5  1 -1</clus>
<clus scale="   51.837">  2  5  1 -1</clus>
</clustering>
</event>
<event>
10    3  0.5078224E-005  0.1015784E+03  0.7546771E-02  0.1285023E+00
          1   -1    0    0  502    0 -0.00000000000E+00  0.00000000000E+00  0.48428384361E+03  0.48428384361E+03  0.00000000000E+00 0. -1.
         21   -1    0    0  503  502  0.00000000000E+00 -0.00000000000E+00 -0.20752366102E+03  0.20752366102E+03  0.00000000000E+00 0. -1.
         23    2    1    2    0    0  0.32529408532E+02 -0.32848979529E+02  0.39942752542E+03  0.41285254863E+03  0.93635788951E+02 0.  0.
        -24    2    1    2    0    0  0.11465168909E+02  0.15809862540E+02  0.11667681298E+02  0.81098596960E+02  0.77842442089E+02 0.  0.
         13    1    4    4    0    0  0.34660988596E+02 -0.17487718425E+02  0.11597797504E+02  0.40518061813E+02  0.00000000000E+00 0. -1.
        -14    1    4    4    0    0 -0.23195819687E+02  0.33297580965E+02  0.69883794479E-01  0.40580535147E+02  0.00000000000E+00 0.  1.
        -13    1    3    3    0    0  0.55427181461E+02 -0.49864690611E+02  0.31622235110E+03  0.32489265173E+03  0.00000000000E+00 0. -1.
         13    1    3    3    0    0 -0.22897772930E+02  0.17015711083E+02  0.83205174319E+02  0.87959896898E+02  0.00000000000E+00 0.  1.
         21    1    1    2  503  501 -0.22442671536E+02 -0.38783247654E+02 -0.13040557644E+03  0.13788918801E+03  0.00000000000E+00 0. -1.
          2    1    1    2  501    0 -0.21551905905E+02  0.55822364642E+02 -0.39294476840E+01  0.59967171031E+02  0.00000000000E+00 0. -1.
<scales pt_clust_5="13000.00000" pt_clust_6="13000.00000" pt_clust_7="13000.00000" pt_clust_8="13000.00000" pt_clust_9="44.80864" pt_clust_10="49.97174"></scales>
<clustering>
<clus scale="   44.809">  2  9  1 -1</clus>
<clus scale="   49.972">  2 10  1 -1</clus>
<clus scale="   77.842">  5  6 -1 -1</clus>
<clus scale="   87.235">  2  5  1 -1</clus>
<clus scale="   93.636">  7  8 -1 -1</clus>
<clus scale="   44.809">  2  5  1 -1</clus>
</clustering>
</event>
<event>
10    3  0.5078224E-005  0.1239383E+03  0.7546771E-02  0.1239163E+00
         21   -1    0    0  503  502  0.00000000000E+00  0.00000000000E+00  0.97882677847E+02  0.97882677847E+02  0.00000000000E+00 0.  1.
         -2   -1    0    0    0  501 -0.00000000000E+00 -0.00000000000E+00 -0.31779647096E+03  0.31779647096E+03  0.00000000000E+00 0.  1.
        -24    2    1    2    0    0 -0.30421498419E+02  0.61301273962E+02 -0.43917932816E+02  0.11422459834E+03  0.80219450808E+02 0.  0.
         23    2    1    2    0    0  0.22835979380E+02 -0.10886349381E+03 -0.67132048938E+02  0.15735342520E+03  0.88773003716E+02 0.  0.
         11    1    3    3    0    0 -0.47888337183E+02  0.50851846497E+02 -0.56891171048E+02  0.90087782043E+02  0.00000000000E+00 0. -1.
        -12    1    3    3    0    0  0.17466838764E+02  0.10449427465E+02  0.12973238232E+02  0.24136816297E+02  0.00000000000E+00 0.  1.
        -11    1    4    4    0    0 -0.12980834613E+02 -0.68754099677E+02  0.17212147572E+01  0.69989934062E+02  0.00000000000E+00 0.  1.
         11    1    4    4    0    0  0.35816813993E+02 -0.40109394132E+02 -0.68853263696E+02  0.87363491138E+02  0.00000000000E+00 0. -1.
         21    1    1    2  503  501 -0.18789558371E+02 -0.78615962376E+01 -0.14907093471E+01  0.20422399798E+02  0.00000000000E+00 0.  1.
         -1    1    1    2    0  502  0.26375077410E+02  0.55423816085E+02 -0.10737310201E+03  0.12367872546E+03  0.00000000000E+00 0.  1.
<scales pt_clust_5="13000.00000" pt_clust_6="13000.00000" pt_clust_7="13000.00000" pt_clust_8="13000.00000" pt_clust_9="20.36792" pt_clust_10="59.99356"></scales>
<clustering>
<clus scale="   20.368">  1  9  2 -1</clus>
<clus scale="   59.994">  1 10  2 -1</clus>
<clus scale="   80.219">  5  6 -1 -1</clus>
<clus scale="   88.773">  7  8 -1 -1</clus>
<clus scale="  117.963">  2  5  1 -1</clus>
<clus scale="   20.368">  1  5  2 -1</clus>
</clustering>
</event>
<event>
10    3  0.5078224E-005  0.1740420E+03  0.7546771E-02  0.1175216E+00
         21   -1    0    0  503  502  0.00000000000E+00  0.00000000000E+00  0.13844321372E+03  0.13844321372E+03  0.00000000000E+00 0.  1.
          1   -1    0    0  502    0 -0.00000000000E+00 -0.00000000000E+00 -0.76359288378E+03  0.76359288378E+03  0.00000000000E+00 0. -1.
         23    2    1    2    0    0  0.70528664437E+02  0.79557769407E+02 -0.16649673976E+03  0.21788917515E+03  0.91928217190E+02 0.  0.
        -24    2    1    2    0    0 -0.58164909662E+02 -0.21127058291E+03 -0.31710976649E+03  0.39371241126E+03  0.80202511559E+02 0.  0.
         11    1    4    4    0    0  0.17211644595E+02 -0.30184819138E+02 -0.70599246260E+02  0.78686832371E+02  0.00000000000E+00 0. -1.
        -12    1    4    4    0    0 -0.75376554257E+02 -0.18108576377E+03 -0.24651052023E+03  0.31502557889E+03  0.00000000000E+00 0.  1.
        -11    1    3    3    0    0  0.36286896944E+02  0.87106839747E+02 -0.77078838211E+02  0.12184206056E+03  0.00000000000E+00 0.  1.
         11    1    3    3    0    0  0.34241767494E+02 -0.75490703398E+01 -0.89417901552E+02  0.96047114595E+02  0.00000000000E+00 0. -1.
         21    1    1    2  503  501  0.21222107067E+01  0.23841102023E+02  0.58218257853E+02  0.62946544554E+02  0.00000000000E+00 0.  1.
          2    1    1    2  501    0 -0.14485965482E+02  0.10787171148E+03 -0.19976142166E+03  0.22748796653E+03  0.00000000000E+00 0. -1.
<scales pt_clust_5="13000.00000" pt_clust_6="13000.00000" pt_clust_7="13000.00000" pt_clust_8="13000.00000" pt_clust_9="23.93537" pt_clust_10="113.00088"></scales>
<clustering>
<clus scale="   23.935">  1  9  2 -1</clus>
<clus scale="   80.203">  5  6 -1 -1</clus>
<clus scale="   91.928">  7  8 -1 -1</clus>
<clus scale="  113.001">  1 10  2 -1</clus>
<clus scale="  168.144">  1  5  2 -1</clus>
<clus scale="   23.935">  1  5  2 -1</clus>
</clustering>
</event>
<event>
10    3  0.5078224E-005  0.2158672E+03  0.7546771E-02  0.1168297E+00
         -2   -1    0    0    0  501 -0.00000000000E+00  0.00000000000E+00  0.49911976939E+03  0.49911976939E+03  0.00000000000E+00 0.  1.
         21   -1    0    0  501  502  0.00000000000E+00 -0.00000000000E+00 -0.26343081948E+03  0.26343081948E+03  0.00000000000E+00 0.  1.
        -24    2    1    2    0    0 -0.10112057597E+02  0.62053986357E+02  0.99985469792E+02  0.14224592178E+03  0.79270783783E+02 0.  0.
         23    2    1    2    0    0 -0.38964033456E+02 -0.25213085618E+03  0.25734449364E+03  0.37352444406E+03  0.90587843386E+02 0.  0.
         13    1    3    3    0    0  0.33100624259E+02  0.23313194010E+02  0.25609173082E+02  0.47906013059E+02  0.00000000000E+00 0. -1.
        -14    1    3    3    0    0 -0.43212681856E+02  0.38740792347E+02  0.74376296711E+02  0.94339908720E+02  0.00000000000E+00 0.  1.
        -11    1    4    4    0    0 -0.28498928114E+02 -0.89848960082E+02  0.15490424456E+03  0.18132939506E+03  0.00000000000E+00 0.  1.
         11    1    4    4    0    0 -0.10465105342E+02 -0.16228189609E+03  0.10244024908E+03  0.19219504900E+03  0.00000000000E+00 0. -1.
         21    1    1    2  503  502  0.79928356515E+01  0.30743495697E+02 -0.65717179550E+02  0.72991750475E+02  0.00000000000E+00 0.  1.
         -1    1    1    2    0  503  0.41083255401E+02  0.15933337412E+03 -0.55923833970E+02  0.17378847254E+03  0.00000000000E+00 0.  1.
<scales pt_clust_5="13000.00000" pt_clust_6="13000.00000" pt_clust_7="13000.00000" pt_clust_8="13000.00000" pt_clust_9="31.76552" pt_clust_10="195.93997"></scales>
<clustering>
<clus scale="   31.766">  2  9  1 -1</clus>
<clus scale="   79.271">  5  6 -1 -1</clus>
<clus scale="   90.588">  7  8 -1 -1</clus>
<clus scale="  103.182">  1  5  2 -1</clus>
<clus scale="  195.940">  2 10  1 -1</clus>
<clus scale="   31.766">  2  5  1 -1</clus>
</clustering>
</event>
<event>
10    3  0.5078224E-005  0.2424460E+03  0.7546771E-02  0.1146776E+00
         21   -1    0    0  503  502  0.00000000000E+00  0.00000000000E+00  0.33684759911E+03  0.33684759911E+03  0.00000000000E+00 0. -1.
          1   -1    0    0  502    0 -0.00000000000E+00 -0.00000000000E+00 -0.38571742606E+03  0.38571742606E+03  0.00000000000E+00 0. -1.
        -24    2    1    2    0    0  0.62050483145E+02  0.58975239868E+02  0.55569879904E+02  0.13007120741E+03  0.80636009747E+02 0.  0.
         23    2    1    2    0    0 -0.52671368999E+02 -0.22846676405E+03  0.99202542790E+02  0.27109012233E+03  0.93152426381E+02 0.  0.
         13    1    3    3    0    0 -0.19444860157E+02  0.12907022775E+02  0.58002762365E+01  0.24048638794E+02  0.00000000000E+00 0. -1.
        -14    1    3    3    0    0  0.81495343302E+02  0.46068217093E+02  0.49769603668E+02  0.10602256861E+03  0.00000000000E+00 0.  1.
        -11    1    4    4    0    0 -0.92054381529E+01 -0.19044046488E+03  0.95439083571E+02  0.21321568757E+03  0.00000000000E+00 0. -1.
         11    1    4    4    0    0 -0.43465930846E+02 -0.38026299173E+02  0.37634592197E+01  0.57874434757E+02  0.00000000000E+00 0.  1.
         21    1    1    2  503  501  0.32612735923E+02 -0.18166389806E+02  0.49950910572E+01  0.37663765048E+02  0.00000000000E+00 0. -1.
          2    1    1    2  501    0 -0.41991850069E+02  0.18765791399E+03 -0.20863734071E+03  0.28373993038E+03  0.00000000000E+00 0. -1.
<scales pt_clust_5="13000.00000" pt_clust_6="13000.00000" pt_clust_7="13000.00000" pt_clust_8="13000.00000" pt_clust_9="37.33106" pt_clust_10="223.83643"></scales>
<clustering>
<clus scale="   37.331">  1  9  2 -1</clus>
<clus scale="   80.636">  5  6 -1 -1</clus>
<clus scale="   93.152">  7  8 -1 -1</clus>
<clus scale="  120.463">  2  5  1 -1</clus>
<clus scale="  223.836">  1 10  2 -1</clus>
<clus scale="   37.331">  1  5  2 -1</clus>
</clustering>
</event>
<event>
10    3  0.5078224E-005  0.2387221E+03  0.7546771E-02  0.1154997E+00
         21   -1    0    0  501  502  0.00000000000E+00  0.00000000000E+00  0.28436486210E+03  0.28436486210E+03  0.00000000000E+00 0. -1.
          1   -1    0    0  503    0 -0.00000000000E+00 -0.00000000000E+00 -0.40301413670E+03  0.40301413670E+03  0.00000000000E+00 0. -1.
         23    2    1    2    0    0 -0.58706886522E+02  0.91201740163E+01 -0.17972979219E+00  0.10861872049E+03  0.90930292197E+02 0.  0.
        -24    2    1    2    0    0 -0.11883801777E+03 -0.20357168231E+03  0.20222144800E+02  0.24969908797E+03  0.79854837594E+02 0.  0.
         11    1    4    4    0    0 -0.31515346946E+02 -0.11967110174E+03  0.32593256757E+02  0.12797152055E+03  0.00000000000E+00 0. -1.
        -12    1    4    4    0    0 -0.87322670826E+02 -0.83900580567E+02 -0.12371111957E+02  0.12172756742E+03  0.00000000000E+00 0.  1.
        -11    1    3    3    0    0  0.20578924271E+02 -0.67531669602E+01  0.15001760083E+02  0.26346730229E+02  0.00000000000E+00 0.  1.
         11    1    3    3    0    0 -0.79285810793E+02  0.15873340977E+02 -0.15181489875E+02  0.82271990262E+02  0.00000000000E+00 0. -1.
         21    1    1    2  503  502  0.44280311814E+02  0.76743206937E+01  0.20908623769E+02  0.49566236092E+02  0.00000000000E+00 0.  1.
          2    1    1    2  501    0  0.13326459248E+03  0.18677718760E+03 -0.15960031338E+03  0.27949495424E+03  0.00000000000E+00 0. -1.
<scales pt_clust_5="13000.00000" pt_clust_6="13000.00000" pt_clust_7="13000.00000" pt_clust_8="13000.00000" pt_clust_9="44.94042" pt_clust_10="224.97003"></scales>
<clustering>
<clus scale="   44.940">  1  9  2 -1</clus>
<clus scale="   79.855">  5  6 -1 -1</clus>
<clus scale="   90.930">  7  8 -1 -1</clus>
<clus scale="  103.887">  2  7  1 -1</clus>
<clus scale="  224.970">  1 10  2 -1</clus>
<clus scale="   44.940">  1  5  2 -1</clus>
</clustering>
</event>
<event>
10    3  0.5078224E-005  0.2203106E+03  0.7546771E-02  0.1155434E+00
         21   -1    0    0  501  502  0.00000000000E+00  0.00000000000E+00  0.35100124483E+03  0.35100124483E+03  0.00000000000E+00 0.  1.
          1   -1    0    0  503    0 -0.00000000000E+00 -0.00000000000E+00 -0.13792857386E+04  0.13792857386E+04  0.00000000000E+00 0. -1.
        -24    2    1    2    0    0 -0.93319602976E+02 -0.44561638991E+02 -0.35271724354E+03  0.37619657567E+03  0.80125661842E+02 0.  0.
         23    2    1    2    0    0  0.19158284904E+03  0.10248508581E+03 -0.12493393947E+03  0.26676474448E+03  0.91366070315E+02 0.  0.
         11    1    3    3    0    0 -0.47214838179E+02  0.18743149076E+02 -0.16937315418E+03  0.17682706789E+03  0.00000000000E+00 0. -1.
        -12    1    3    3    0    0 -0.46104764798E+02 -0.63304788066E+02 -0.18334408937E+03  0.19936950779E+03  0.00000000000E+00 0.  1.
        -13    1    4    4    0    0  0.16071202469E+03  0.11372893507E+03 -0.83427658221E+02  0.21382890289E+03  0.00000000000E+00 0.  1.
         13    1    4    4    0    0  0.30870824352E+02 -0.11243849261E+02 -0.41506281244E+02  0.52935841592E+02  0.00000000000E+00 0. -1.
         21    1    1    2  503  502 -0.25466385227E+03  0.70724034169E+02  0.18611212998E+03  0.32325422130E+03  0.00000000000E+00 0.  1.
          2    1    1    2  501    0  0.15640060621E+03 -0.12864748099E+03 -0.73674544078E+03  0.76407144201E+03  0.00000000000E+00 0. -1.
<scales pt_clust_5="13000.00000" pt_clust_6="13000.00000" pt_clust_7="13000.00000" pt_clust_8="13000.00000" pt_clust_9="200.47190" pt_clust_10="183.71747"></scales>
<clustering>
<clus scale="   80.126">  5  6 -1 -1</clus>
<clus scale="   91.366">  7  8 -1 -1</clus>
<clus scale="  130.822">  2  5  1 -1</clus>
<clus scale="  183.717">  1 10  2 -1</clus>
<clus scale="  200.472">  1  9  2 -1</clus>
<clus scale="  183.717">  1  5  2 -1</clus>
</clustering>
</event>
<event>
10    3  0.5078224E-005  0.3541819E+03  0.7546771E-02  0.1099327E+00
         21   -1    0    0  501  502  0.00000000000E+00  0.00000000000E+00  0.15631833898E+03  0.15631833898E+03  0.00000000000E+00 0.  1.
         -4   -1    0    0    0  501 -0.00000000000E+00 -0.00000000000E+00 -0.25639935694E+04  0.25639935694E+04  0.00000000000E+00 0.  1.
         23    2    1    2    0    0  0.28724334906E+02 -0.80076224950E+02 -0.44518031458E+03  0.46262030638E+03  0.92707853837E+02 0.  0.
        -24    2    1    2    0    0  0.16671711067E+03  0.61927456243E+02 -0.66418724916E+03  0.69243961944E+03  0.81843263584E+02 0.  0.
         13    1    4    4    0    0  0.12473173937E+03  0.12349355587E+02 -0.50892912801E+03  0.52413678627E+03  0.00000000000E+00 0. -1.
        -14    1    4    4    0    0  0.41985371302E+02  0.49578100656E+02 -0.15525812116E+03  0.16830283317E+03  0.00000000000E+00 0.  1.
        -11    1    3    3    0    0 -0.26233565653E+02 -0.83746676685E+01 -0.48403627193E+02  0.55688833269E+02  0.00000000000E+00 0. -1.
         11    1    3    3    0    0  0.54957900559E+02 -0.71701557281E+02 -0.39677668739E+03  0.40693147311E+03  0.00000000000E+00 0.  1.
         21    1    1    2  503  502  0.15325305032E+03  0.29858824734E+03 -0.22959132000E+03  0.40663695491E+03  0.00000000000E+00 0.  1.
         -3    1    1    2    0  503 -0.34869449590E+03 -0.28043947863E+03 -0.10687163466E+04  0.11586150276E+04  0.00000000000E+00 0.  1.
<scales pt_clust_5="13000.00000" pt_clust_6="13000.00000" pt_clust_7="13000.00000" pt_clust_8="13000.00000" pt_clust_9="13000.00000" pt_clust_10="354.18189"></scales>
<clustering>
<clus scale="   81.843">  5  6 -1 -1</clus>
<clus scale="   92.708">  7  8 -1 -1</clus>
<clus scale="  125.825">  2  7  1 -1</clus>
<clus scale="  197.399">  2  5  1 -1</clus>
<clus scale="  354.182">  2 10  1 -1</clus>
<clus scale="  354.182">  1  5  2 -1</clus>
</clustering>
</event>
<event>
10    3  0.5078224E-005  0.9502852E+02  0.7546771E-02  0.1296858E+00
          1   -1    0    0  502    0 -0.00000000000E+00  0.00000000000E+00  0.33903134957E+03  0.33903134957E+03  0.00000000000E+00 0. -1.
         21   -1    0    0  503  502  0.00000000000E+00 -0.00000000000E+00 -0.72579856901E+02  0.72579856901E+02  0.00000000000E+00 0. -1.
        -24    2    1    2    0    0 -0.25085149487E+02 -0.39761029869E+02  0.81510707897E+02  0.12317040505E+03  0.79477977813E+02 0.  0.
         23    2    1    2    0    0 -0.36706010880E+02  0.19699724543E+02  0.59678624476E+02  0.11555387457E+03  0.89753826247E+02 0.  0.
         11    1    3    3    0    0 -0.19141302688E+02 -0.52528534910E+02  0.18930998625E+02  0.59025580533E+02  0.00000000000E+00 0. -1.
        -12    1    3    3    0    0 -0.59438467990E+01  0.12767505040E+02  0.62579709272E+02  0.64144824517E+02  0.00000000000E+00 0.  1.
        -11    1    4    4    0    0  0.24366092158E+02  0.76240813072E+01  0.44771433602E+02  0.51539444405E+02  0.00000000000E+00 0.  1.
         11    1    4    4    0    0 -0.61072103037E+02  0.12075643236E+02  0.14907190874E+02  0.64014430160E+02  0.00000000000E+00 0. -1.
         21    1    1    2  503  501 -0.11726067437E+02  0.22593480038E+02 -0.23788746159E+01  0.25566091649E+02  0.00000000000E+00 0. -1.
          2    1    1    2  501    0  0.73517227804E+02 -0.25321747115E+01  0.12764103491E+03  0.14732083521E+03  0.00000000000E+00 0. -1.
<scales pt_clust_5="13000.00000" pt_clust_6="13000.00000" pt_clust_7="13000.00000" pt_clust_8="13000.00000" pt_clust_9="25.45518" pt_clust_10="71.55963"></scales>
<clustering>
<clus scale="   25.455">  2  9  1 -1</clus>
<clus scale="   71.560">  2 10  1 -1</clus>
<clus scale="   79.478">  5  6 -1 -1</clus>
<clus scale="   85.390">  1  5  2 -1</clus>
<clus scale="   89.754">  7  8 -1 -1</clus>
<clus scale="   25.455">  2  5  1 -1</clus>
</clustering>
</event>
<event>
10    3  0.5078224E-005  0.2323337E+03  0.7546771E-02  0.1126238E+00
         21   -1    0    0  503  502  0.00000000000E+00  0.00000000000E+00  0.27931379975E+03  0.27931379975E+03  0.00000000000E+00 0. -1.
          1   -1    0    0  502    0 -0.00000000000E+00 -0.00000000000E+00 -0.45011588394E+03  0.45011588394E+03  0.00000000000E+00 0. -1.
        -24    2    1    2    0    0 -0.22188112897E+02  0.20621797076E+03 -0.10811232080E+03  0.24725183449E+03  0.80168771540E+02 0.  0.
         23    2    1    2    0    0 -0.64974963584E+02 -0.22009481584E+03  0.50500400037E+02  0.25461602781E+03  0.98058948418E+02 0.  0.
         13    1    3    3    0    0 -0.38007047049E+02  0.42077219411E+02 -0.36766297564E+02  0.67578019024E+02  0.00000000000E+00 0. -1.
        -14    1    3    3    0    0  0.15818934152E+02  0.16414075135E+03 -0.71346023233E+02  0.17967381546E+03  0.00000000000E+00 0.  1.
        -11    1    4    4    0    0 -0.90864400762E+02 -0.17372968796E+03  0.33806601663E+02  0.19895032073E+03  0.00000000000E+00 0. -1.
         11    1    4    4    0    0  0.25889437178E+02 -0.46365127880E+02  0.16693798374E+02  0.55665707081E+02  0.00000000000E+00 0.  1.
         21    1    1    2  503  501 -0.29308586664E+02  0.14137526752E+02  0.29118638022E+02  0.43666440148E+02  0.00000000000E+00 0.  1.
          2    1    1    2  501    0  0.11647166315E+03 -0.26068167907E+00 -0.14230880145E+03  0.18389538124E+03  0.00000000000E+00 0. -1.
<scales pt_clust_5="13000.00000" pt_clust_6="13000.00000" pt_clust_7="13000.00000" pt_clust_8="13000.00000" pt_clust_9="32.54017" pt_clust_10="113.96695"></scales>
<clustering>
<clus scale="   32.540">  1  9  2 -1</clus>
<clus scale="   80.169">  5  6 -1 -1</clus>
<clus scale="   98.059">  7  8 -1 -1</clus>
<clus scale="  113.967">  1 10  2 -1</clus>
<clus scale="  225.367">  2  5  1 -1</clus>
<clus scale="   32.540">  1  5  2 -1</clus>
</clustering>
</event>
<event>
10    3  0.5078224E-005  0.1567893E+03  0.7546771E-02  0.1192675E+00
         21   -1    0    0  501  502  0.00000000000E+00  0.00000000000E+00  0.37213433293E+03  0.37213433293E+03  0.00000000000E+00 0. -1.
          1   -1    0    0  503    0 -0.00000000000E+00 -0.00000000000E+00 -0.24099341704E+03  0.24099341704E+03  0.00000000000E+00 0. -1.
        -24    2    1    2    0    0  0.36944028189E+02  0.10647273831E+03  0.65229495551E+01  0.14226950468E+03  0.86583819898E+02 0.  0.
         23    2    1    2    0    0  0.53580775924E+02 -0.17143900253E+03  0.63577001031E+02  0.21006839977E+03  0.88456013859E+02 0.  0.
         13    1    3    3    0    0  0.44690976163E+02  0.35170399298E+02 -0.27170460353E+02  0.63027567405E+02  0.00000000000E+00 0. -1.
        -14    1    3    3    0    0 -0.77469479736E+01  0.71302339012E+02  0.33693409908E+02  0.79241937272E+02  0.00000000000E+00 0.  1.
        -11    1    4    4    0    0  0.77828888381E+02 -0.11757412155E+03  0.48439719137E+02  0.14908861900E+03  0.00000000000E+00 0. -1.
         11    1    4    4    0    0 -0.24248112457E+02 -0.53864880972E+02  0.15137281894E+02  0.60979780772E+02  0.00000000000E+00 0.  1.
         21    1    1    2  503  502 -0.57687077549E+02  0.10216643980E+03  0.13046117474E+03  0.17545910764E+03  0.00000000000E+00 0. -1.
          2    1    1    2  501    0 -0.32837726563E+02 -0.37200175586E+02 -0.69420209435E+02  0.85330737882E+02  0.00000000000E+00 0. -1.
<scales pt_clust_5="13000.00000" pt_clust_6="13000.00000" pt_clust_7="13000.00000" pt_clust_8="13000.00000" pt_clust_9="112.24435" pt_clust_10="49.62028"></scales>
<clustering>
<clus scale="   49.620">  1 10  2 -1</clus>
<clus scale="   86.584">  5  6 -1 -1</clus>
<clus scale="   88.456">  7  8 -1 -1</clus>
<clus scale="  112.244">  1  9  2 -1</clus>
<clus scale="  155.741">  2  5  1 -1</clus>
<clus scale="   49.620">  1  5  2 -1</clus>
</clustering>
</event>
<event>
10    3  0.5078224E-005  0.1073268E+03  0.7546771E-02  0.1273093E+00
         21   -1    0    0  501  502  0.00000000000E+00  0.00000000000E+00  0.53044958013E+02  0.53044958013E+02  0.00000000000E+00 0.  1.
          1   -1    0    0  503    0 -0.00000000000E+00 -0.00000000000E+00 -0.40325417234E+03  0.40325417234E+03  0.00000000000E+00 0. -1.
         23    2    1    2    0    0  0.13120407992E+02 -0.24761166642E+02 -0.24514944784E+03  0.26262892572E+03  0.89946875265E+02 0.  0.
        -24    2    1    2    0    0 -0.16505192001E+02 -0.12068935705E+01 -0.81572366503E+02  0.13386039446E+03  0.10483642626E+03 0.  0.
         13    1    4    4    0    0 -0.25064451693E+02  0.18690102933E+02 -0.10040359340E+03  0.10515906168E+03  0.00000000000E+00 0. -1.
        -14    1    4    4    0    0  0.85592596916E+01 -0.19896996503E+02  0.18831226899E+02  0.28701332771E+02  0.00000000000E+00 0.  1.
        -13    1    3    3    0    0  0.10957411269E+02 -0.56050336487E+02 -0.11063313557E+03  0.12450460140E+03  0.00000000000E+00 0. -1.
         13    1    3    3    0    0  0.21629967231E+01  0.31289169846E+02 -0.13451631226E+03  0.13812432432E+03  0.00000000000E+00 0.  1.
         21    1    1    2  503  502 -0.21821978773E+02  0.67978990914E+01 -0.59854198776E+01  0.23627006597E+02  0.00000000000E+00 0. -1.
          2    1    1    2  501    0  0.25206762782E+02  0.19170161121E+02 -0.17501980110E+02  0.36182803583E+02  0.00000000000E+00 0. -1.
<scales pt_clust_5="13000.00000" pt_clust_6="13000.00000" pt_clust_7="13000.00000" pt_clust_8="13000.00000" pt_clust_9="22.85629" pt_clust_10="29.13545"></scales>
<clustering>
<clus scale="   22.856">  1  9  2 -1</clus>
<clus scale="   29.135">  1 10  2 -1</clus>
<clus scale="   89.947">  7  8 -1 -1</clus>
<clus scale="   92.838">  2  7  1 -1</clus>
<clus scale="  104.836">  5  6 -1 -1</clus>
<clus scale="   22.856">  1  5  2 -1</clus>
</clustering>
</event>
<event>
10    3  0.5078224E-005  0.1389091E+03  0.7546771E-02  0.1235785E+00
          1   -1    0    0  503    0 -0.00000000000E+00  0.00000000000E+00  0.18644228332E+03  0.18644228332E+03  0.00000000000E+00 0. -1.
         21   -1    0    0  501  502  0.00000000000E+00 -0.00000000000E+00 -0.23571399710E+03  0.23571399710E+03  0.00000000000E+00 0.  1.
         23    2    1    2    0    0  0.11478906659E+02 -0.24417266554E+02  0.17339607466E+01  0.91489411231E+02  0.87403303962E+02 0.  0.
        -24    2    1    2    0    0 -0.11539401871E+03 -0.69119550385E+01 -0.11616742048E+03  0.18285736056E+03  0.81107274969E+02 0.  0.
         11    1    4    4    0    0 -0.68230880166E+02 -0.27558770668E+02 -0.24206545579E+02  0.77465448413E+02  0.00000000000E+00 0. -1.
        -12    1    4    4    0    0 -0.47163138545E+02  0.20646815630E+02 -0.91960874905E+02  0.10539191215E+03  0.00000000000E+00 0.  1.
        -13    1    3    3    0    0  0.10099205258E+02 -0.57477833432E+02  0.21403601053E+01  0.58397572075E+02  0.00000000000E+00 0.  1.
         13    1    3    3    0    0  0.13797014011E+01  0.33060566878E+02 -0.40639935867E+00  0.33091839155E+02  0.00000000000E+00 0. -1.
         21    1    1    2  503  502 -0.20120652032E+01  0.24078473066E+02  0.23642535219E+02  0.33805188110E+02  0.00000000000E+00 0. -1.
          2    1    1    2  501    0  0.10592717725E+03  0.72507485267E+01  0.41519210742E+02  0.11400432051E+03  0.00000000000E+00 0. -1.
<scales pt_clust_5="13000.00000" pt_clust_6="13000.00000" pt_clust_7="13000.00000" pt_clust_8="13000.00000" pt_clust_9="24.16239" pt_clust_10="112.77123"></scales>
<clustering>
<clus scale="   24.162">  1  9  2 -1</clus>
<clus scale="   81.107">  5  6 -1 -1</clus>
<clus scale="   87.403">  7  8 -1 -1</clus>
<clus scale="   89.762">  1  7  2 -1</clus>
<clus scale="  112.771">  2 10  1 -1</clus>
<clus scale="  112.771">  2  5  1 -1</clus>
</clustering>
</event>
<event>
10    3  0.5078224E-005  0.9995423E+02  0.7546771E-02  0.1286084E+00
         -2   -1    0    0    0  501 -0.00000000000E+00  0.00000000000E+00  0.34144259625E+03  0.34144259625E+03  0.00000000000E+00 0.  1.
         21   -1    0    0  503  502  0.00000000000E+00 -0.00000000000E+00 -0.24648494419E+03  0.24648494419E+03  0.00000000000E+00 0.  1.
         23    2    1    2    0    0 -0.32764882075E+02  0.33345543990E+02  0.21405376888E+03  0.23735630213E+03  0.91288199616E+02 0.  0.
        -24    2    1    2    0    0 -0.64508747841E+01 -0.39019457568E+02  0.50690059580E+02  0.10261671596E+03  0.79978599633E+02 0.  0.
         13    1    4    4    0    0  0.36377712329E+02 -0.15419650164E+02  0.15835253173E+02  0.42565934837E+02  0.00000000000E+00 0. -1.
        -14    1    4    4    0    0 -0.42828587113E+02 -0.23599807405E+02  0.34854806407E+02  0.60050781121E+02  0.00000000000E+00 0.  1.
        -13    1    3    3    0    0 -0.43711784731E+02  0.58047151790E+02  0.12832084303E+03  0.14746671052E+03  0.00000000000E+00 0.  1.
         13    1    3    3    0    0  0.10946902657E+02 -0.24701607800E+02  0.85732925851E+02  0.89889591615E+02  0.00000000000E+00 0. -1.
         21    1    1    2  503  501 -0.28191704495E+02 -0.47089024895E+02 -0.15051666548E+03  0.16021053353E+03  0.00000000000E+00 0.  1.
         -1    1    1    2    0  502  0.67407461354E+02  0.52762938473E+02 -0.19269510912E+02  0.87743988816E+02  0.00000000000E+00 0.  1.
<scales pt_clust_5="13000.00000" pt_clust_6="13000.00000" pt_clust_7="13000.00000" pt_clust_8="13000.00000" pt_clust_9="54.88304" pt_clust_10="56.71566"></scales>
<clustering>
<clus scale="   54.883">  2  9  1 -1</clus>
<clus scale="   56.716">  2 10  1 -1</clus>
<clus scale="   79.979">  5  6 -1 -1</clus>
<clus scale="   89.743">  2  5  1 -1</clus>
<clus scale="   91.288">  7  8 -1 -1</clus>
<clus scale="   54.883">  2  5  1 -1</clus>
</clustering>
</event>
<event>
10    3  0.5078224E-005  0.2847613E+03  0.7546771E-02  0.1139118E+00
          3   -1    0    0  502    0 -0.00000000000E+00  0.00000000000E+00  0.32496523193E+03  0.32496523193E+03  0.00000000000E+00 0. -1.
         21   -1    0    0  503  502  0.00000000000E+00 -0.00000000000E+00 -0.48180974768E+03  0.48180974768E+03  0.00000000000E+00 0. -1.
         23    2    1    2    0    0  0.97985207287E+00  0.73939397884E+01  0.98311208094E+02  0.13280412468E+03  0.88973093911E+02 0.  0.
        -24    2    1    2    0    0  0.23893068399E+03  0.12892165761E+03 -0.46793247386E+02  0.28695233534E+03  0.80270599881E+02 0.  0.
         11    1    4    4    0    0  0.20750404922E+03  0.78505698310E+02 -0.50125058625E+02  0.22745020689E+03  0.00000000000E+00 0. -1.
        -12    1    4    4    0    0  0.31426634769E+02  0.50415959296E+02  0.33318112389E+01  0.59502128456E+02  0.00000000000E+00 0.  1.
        -13    1    3    3    0    0 -0.28485940964E+02  0.78886149069E+01 -0.63258436869E+00  0.29564831147E+02  0.00000000000E+00 0.  1.
         13    1    3    3    0    0  0.29465793037E+02 -0.49467511859E+00  0.98943792463E+02  0.10323929354E+03  0.00000000000E+00 0. -1.
         21    1    1    2  503  501 -0.11579355962E+02  0.16403011083E+02 -0.82414188910E+02  0.84824753408E+02  0.00000000000E+00 0.  1.
          4    1    1    2  501    0 -0.22833118010E+03 -0.15271860848E+03 -0.12594828754E+03  0.30219376618E+03  0.00000000000E+00 0. -1.
<scales pt_clust_5="13000.00000" pt_clust_6="13000.00000" pt_clust_7="13000.00000" pt_clust_8="13000.00000" pt_clust_9="20.07835" pt_clust_10="273.21353"></scales>
<clustering>
<clus scale="   20.078">  2  9  1 -1</clus>
<clus scale="   80.271">  5  6 -1 -1</clus>
<clus scale="   88.973">  7  8 -1 -1</clus>
<clus scale="   89.343">  1  7  2 -1</clus>
<clus scale="  273.214">  2 10  1 -1</clus>
<clus scale="   20.078">  2  5  1 -1</clus>
</clustering>
</event>
<event>
10    3  0.5078224E-005  0.1524979E+03  0.7546771E-02  0.1226111E+00
         21   -1    0    0  503  502  0.00000000000E+00  0.00000000000E+00  0.36021934029E+03  0.36021934029E+03  0.00000000000E+00 0.  1.
         -2   -1    0    0    0  501 -0.00000000000E+00 -0.00000000000E+00 -0.56556045042E+03  0.56556045042E+03  0.00000000000E+00 0.  1.
        -24    2    1    2    0    0 -0.55418793979E+01 -0.19691443089E+02 -0.31213024391E+03  0.32294536729E+03  0.80311616401E+02 0.  0.
         23    2    1    2    0    0 -0.73401128195E+02  0.11285667992E+03 -0.80737112193E+02  0.18307290902E+03  0.94195822146E+02 0.  0.
         11    1    3    3    0    0 -0.40457734666E+02 -0.21730645415E+02 -0.14144720531E+03  0.14871570574E+03  0.00000000000E+00 0. -1.
        -12    1    3    3    0    0  0.34915855268E+02  0.20392023260E+01 -0.17068303861E+03  0.17422966155E+03  0.00000000000E+00 0.  1.
        -13    1    4    4    0    0 -0.31837593294E+02  0.50734752239E+02 -0.89630179198E+02  0.10780174606E+03  0.00000000000E+00 0.  1.
         13    1    4    4    0    0 -0.41563534900E+02  0.62121927683E+02  0.88930670047E+01  0.75271162959E+02  0.00000000000E+00 0. -1.
         21    1    1    2  503  501  0.44671994446E+00 -0.90264265435E+02  0.28246683885E+03  0.29653895566E+03  0.00000000000E+00 0.  1.
         -1    1    1    2    0  502  0.78496287648E+02 -0.29009713985E+01 -0.94940592866E+02  0.12322255874E+03  0.00000000000E+00 0.  1.
<scales pt_clust_5="13000.00000" pt_clust_6="13000.00000" pt_clust_7="13000.00000" pt_clust_8="13000.00000" pt_clust_9="119.92815" pt_clust_10="78.54991"></scales>
<clustering>
<clus scale="   78.550">  1 10  2 -1</clus>
<clus scale="   80.312">  5  6 -1 -1</clus>
<clus scale="   82.814">  2  5  1 -1</clus>
<clus scale="   94.196">  7  8 -1 -1</clus>
<clus scale="  119.928">  1  9  2 -1</clus>
<clus scale="   78.550">  1  5  2 -1</clus>
</clustering>
</event>
<event>
10    3  0.5078224E-005  0.2760850E+03  0.7546771E-02  0.1125886E+00
          1   -1    0    0  502    0 -0.00000000000E+00  0.00000000000E+00  0.96022180722E+03  0.96022180722E+03  0.00000000000E+00 0. -1.
         21   -1    0    0  503  502  0.00000000000E+00 -0.00000000000E+00 -0.22060996207E+03  0.22060996207E+03  0.00000000000E+00 0. -1.
        -24    2    1    2    0    0  0.10563015088E+03  0.14990802233E+02  0.11788817635E+03  0.17768357360E+03  0.79318202679E+02 0.  0.
         23    2    1    2    0    0 -0.63413742786E+02 -0.26014298344E+03  0.52854118590E+03  0.59958696021E+03  0.91940540867E+02 0.  0.
         13    1    3    3    0    0  0.85471831121E+01  0.22428582594E+02 -0.98725202035E+00  0.24022288044E+02  0.00000000000E+00 0. -1.
        -14    1    3    3    0    0  0.97082967770E+02 -0.74377803607E+01  0.11887542837E+03  0.15366128555E+03  0.00000000000E+00 0.  1.
        -13    1    4    4    0    0 -0.14398526926E+02 -0.27467446342E+02  0.16731247513E+02  0.35237945875E+02  0.00000000000E+00 0.  1.
         13    1    4    4    0    0 -0.49015215860E+02 -0.23267553710E+03  0.51180993839E+03  0.56434901434E+03  0.00000000000E+00 0. -1.
         21    1    1    2  503  501  0.18207036780E+02 -0.25816734384E+02 -0.73319635147E+02  0.79835887048E+02  0.00000000000E+00 0.  1.
          2    1    1    2  501    0 -0.60423444877E+02  0.27096891559E+03  0.16650211805E+03  0.32372534843E+03  0.00000000000E+00 0. -1.
<scales pt_clust_5="13000.00000" pt_clust_6="13000.00000" pt_clust_7="13000.00000" pt_clust_8="13000.00000" pt_clust_9="31.59114" pt_clust_10="260.32643"></scales>
<clustering>
<clus scale="   31.591">  2  9  1 -1</clus>
<clus scale="   79.318">  5  6 -1 -1</clus>
<clus scale="   91.941">  7  8 -1 -1</clus>
<clus scale="  135.479">  1  5  2 -1</clus>
<clus scale="  260.326">  2 10  1 -1</clus>
<clus scale="   31.591">  2  5  1 -1</clus>
</clustering>
</event>
<event>
10    3  0.7918391E-005  0.1903595E+03  0.7546771E-02  0.1187421E+00
         21   -1    0    0  503  502  0.00000000000E+00  0.00000000000E+00  0.66340793600E+03  0.66340793600E+03  0.00000000000E+00 0.  1.
         -4   -1    0    0    0  501 -0.00000000000E+00 -0.00000000000E+00 -0.71850699318E+03  0.71850699318E+03  0.00000000000E+00 0.  1.
         23    2    1    2    0    0 -0.29369528518E+02 -0.13859974639E+02 -0.29674744464E+03  0.31242685049E+03  0.92178212736E+02 0.  0.
        -24    2    1    2    0    0 -0.82255367192E+02 -0.12341554826E+03 -0.20870715445E+03  0.26867862878E+03  0.81438235854E+02 0.  0.
         13    1    4    4    0    0 -0.83692541395E+02 -0.63269062559E+02 -0.10285683034E+03  0.14692495809E+03  0.00000000000E+00 0. -1.
        -14    1    4    4    0    0  0.14371742026E+01 -0.60146485704E+02 -0.10585032410E+03  0.12175367068E+03  0.00000000000E+00 0.  1.
        -11    1    3    3    0    0 -0.37719351681E+02  0.32973145102E+02 -0.14671935232E+03  0.15503724112E+03  0.00000000000E+00 0. -1.
         11    1    3    3    0    0  0.83498231637E+01 -0.46833119741E+02 -0.15002809232E+03  0.15738960937E+03  0.00000000000E+00 0.  1.
         21    1    1    2  503  501  0.19422949200E+03  0.20800415040E+03  0.57124189696E+03  0.63820696250E+03  0.00000000000E+00 0.  1.
         -3    1    1    2    0  502 -0.82604596288E+02 -0.70728627495E+02 -0.12088635506E+03  0.16260248742E+03  0.00000000000E+00 0.  1.
<scales pt_clust_5="13000.00000" pt_clust_6="13000.00000" pt_clust_7="13000.00000" pt_clust_8="13000.00000" pt_clust_9="172.05973" pt_clust_10="119.51035"></scales>
<clustering>
<clus scale="   81.438">  5  6 -1 -1</clus>
<clus scale="   92.178">  7  8 -1 -1</clus>
<clus scale="   97.732">  2  7  1 -1</clus>
<clus scale="  119.510">  1 10  2 -1</clus>
<clus scale="  172.060">  1  9  2 -1</clus>
<clus scale="  119.510">  1  5  2 -1</clus>
</clustering>
</event>
<event>
10    3  0.5078224E-005  0.1123287E+03  0.7546771E-02  0.1260273E+00
          1   -1    0    0  503    0 -0.00000000000E+00  0.00000000000E+00  0.57867183946E+02  0.57867183946E+02  0.00000000000E+00 0. -1.
         21   -1    0    0  501  502  0.00000000000E+00 -0.00000000000E+00 -0.53110601096E+03  0.53110601096E+03  0.00000000000E+00 0. -1.
         23    2    1    2    0    0  0.27666878415E+02 -0.38229004766E+02 -0.11711155172E+03  0.15524251170E+03  0.90322804028E+02 0.  0.
        -24    2    1    2    0    0 -0.66509494484E+02  0.72270942660E+02 -0.19804458697E+03  0.23495726337E+03  0.79603110340E+02 0.  0.
         13    1    4    4    0    0 -0.53830820324E-01  0.55275758724E+02 -0.11216818367E+03  0.12504844592E+03  0.00000000000E+00 0. -1.
        -14    1    4    4    0    0 -0.66455663663E+02  0.16995183936E+02 -0.85876403298E+02  0.10990881745E+03  0.00000000000E+00 0.  1.
        -11    1    3    3    0    0  0.33474604603E+01 -0.52244517243E+02 -0.11586805307E+03  0.12714598223E+03  0.00000000000E+00 0.  1.
         11    1    3    3    0    0  0.24319417955E+02  0.14015512477E+02 -0.12434986431E+01  0.28096529475E+02  0.00000000000E+00 0. -1.
         21    1    1    2  503  502 -0.32413430597E+02 -0.19341613840E+02 -0.95912757117E+02  0.10307271941E+03  0.00000000000E+00 0.  1.
          2    1    1    2  501    0  0.71256046666E+02 -0.14700324054E+02 -0.62169931216E+02  0.95700700421E+02  0.00000000000E+00 0. -1.
<scales pt_clust_5="13000.00000" pt_clust_6="13000.00000" pt_clust_7="13000.00000" pt_clust_8="13000.00000" pt_clust_9="37.74558" pt_clust_10="67.82610"></scales>
<clustering>
<clus scale="   37.746">  2  9  1 -1</clus>
<clus scale="   67.826">  2 10  1 -1</clus>
<clus scale="   79.603">  5  6 -1 -1</clus>
<clus scale="   90.323">  7  8 -1 -1</clus>
<clus scale="  103.905">  2  5  1 -1</clus>
<clus scale="   37.746">  2  5  1 -1</clus>
</clustering>
</event>
<event>
10    3  0.5078224E-005  0.1622416E+03  0.7546771E-02  0.1201710E+00
          3   -1    0    0  502    0 -0.00000000000E+00  0.00000000000E+00  0.20317423130E+03  0.20317423130E+03  0.00000000000E+00 0. -1.
         21   -1    0    0  503  502  0.00000000000E+00 -0.00000000000E+00 -0.29360494744E+03  0.29360494744E+03  0.00000000000E+00 0.  1.
         23    2    1    2    0    0  0.69036964451E+02  0.11114387647E+02  0.64457810851E+02  0.13218807559E+03  0.91810924595E+02 0.  0.
        -24    2    1    2    0    0 -0.18773664910E+03  0.13477370828E+01 -0.75024218797E+02  0.21743833031E+03  0.80024547946E+02 0.  0.
         11    1    4    4    0    0 -0.32419168032E+02  0.11676981128E+02  0.15043161353E+02  0.37598551137E+02  0.00000000000E+00 0. -1.
        -12    1    4    4    0    0 -0.15531748107E+03 -0.10329244045E+02 -0.90067380150E+02  0.17983977918E+03  0.00000000000E+00 0.  1.
        -11    1    3    3    0    0  0.73200797249E+02  0.35777087768E+02  0.24557726369E+02  0.85096643010E+02  0.00000000000E+00 0. -1.
         11    1    3    3    0    0 -0.41638327985E+01 -0.24662700121E+02  0.39900084481E+02  0.47091432580E+02  0.00000000000E+00 0.  1.
         21    1    1    2  503  501  0.39459597098E+02  0.58163623445E+01 -0.13243905207E+02  0.42027263760E+02  0.00000000000E+00 0.  1.
          4    1    1    2  501    0  0.79240087550E+02 -0.18278487074E+02 -0.66620402986E+02  0.10512550908E+03  0.00000000000E+00 0. -1.
<scales pt_clust_5="13000.00000" pt_clust_6="13000.00000" pt_clust_7="13000.00000" pt_clust_8="13000.00000" pt_clust_9="22.48419" pt_clust_10="144.73812"></scales>
<clustering>
<clus scale="   22.484">  9 10 -1 -1</clus>
<clus scale="   80.025">  5  6 -1 -1</clus>
<clus scale="   91.811">  7  8 -1 -1</clus>
<clus scale="  115.407">  1  7  2 -1</clus>
<clus scale="  144.738">  2  9  1 -1</clus>
<clus scale="  144.738">  2  5  1 -1</clus>
</clustering>
</event>
<event>
10    3  0.5078224E-005  0.2106759E+03  0.7546771E-02  0.1181363E+00
          1   -1    0    0  503    0 -0.00000000000E+00  0.00000000000E+00  0.82038533411E+03  0.82038533411E+03  0.00000000000E+00 0. -1.
         21   -1    0    0  501  502  0.00000000000E+00 -0.00000000000E+00 -0.31099107743E+03  0.31099107743E+03  0.00000000000E+00 0. -1.
        -24    2    1    2    0    0  0.16519379567E+02 -0.87400233852E+01  0.91958685354E+02  0.12334242490E+03  0.80047960984E+02 0.  0.
         23    2    1    2    0    0 -0.19607274045E+03  0.64806699499E+02  0.44189038521E+03  0.49574321123E+03  0.88599046792E+02 0.  0.
         13    1    3    3    0    0  0.27902198770E+02  0.42910916777E+01  0.10025493432E+03  0.10415372302E+03  0.00000000000E+00 0. -1.
        -14    1    3    3    0    0 -0.11382819203E+02 -0.13031115063E+02 -0.82962489653E+01  0.19188701876E+02  0.00000000000E+00 0.  1.
        -11    1    4    4    0    0 -0.59864899127E+02  0.51229856609E+02  0.98914570086E+02  0.12646104748E+03  0.00000000000E+00 0.  1.
         11    1    4    4    0    0 -0.13620784133E+03  0.13576842890E+02  0.34297581512E+03  0.36928216375E+03  0.00000000000E+00 0. -1.
         21    1    1    2  503  502  0.16460055001E+03 -0.26428828005E+02 -0.24109676595E+03  0.29312023909E+03  0.00000000000E+00 0. -1.
          2    1    1    2  501    0  0.14952810882E+02 -0.29637848109E+02  0.21664195207E+03  0.21917053632E+03  0.00000000000E+00 0. -1.
<scales pt_clust_5="13000.00000" pt_clust_6="13000.00000" pt_clust_7="13000.00000" pt_clust_8="13000.00000" pt_clust_9="191.14010" pt_clust_10="33.19623"></scales>
<clustering>
<clus scale="   33.196">  2 10  1 -1</clus>
<clus scale="   80.048">  5  6 -1 -1</clus>
<clus scale="   82.529">  1  5  2 -1</clus>
<clus scale="   88.599">  7  8 -1 -1</clus>
<clus scale="  191.140">  2  9  1 -1</clus>
<clus scale="   33.196">  2  5  1 -1</clus>
</clustering>
</event>
<event>
10    3  0.5078224E-005  0.2240907E+03  0.7546771E-02  0.1131507E+00
         21   -1    0    0  503  502  0.00000000000E+00  0.00000000000E+00  0.15989621299E+03  0.15989621299E+03  0.00000000000E+00 0.  1.
         -2   -1    0    0    0  501 -0.00000000000E+00 -0.00000000000E+00 -0.61154067160E+03  0.61154067160E+03  0.00000000000E+00 0.  1.
        -24    2    1    2    0    0  0.15878584552E+03  0.28877542122E+02 -0.14760559737E+03  0.23354325136E+03  0.81903484053E+02 0.  0.
         23    2    1    2    0    0 -0.23710308555E+03 -0.11774416054E+03 -0.17812262408E+03  0.33175798808E+03  0.90852258789E+02 0.  0.
         11    1    3    3    0    0  0.16602875551E+03  0.31367438785E+02 -0.12644665373E+03  0.21104080201E+03  0.00000000000E+00 0. -1.
        -12    1    3    3    0    0 -0.72429099875E+01 -0.24898966631E+01 -0.21158943647E+02  0.22502449350E+02  0.00000000000E+00 0.  1.
        -11    1    4    4    0    0 -0.20410031621E+03 -0.99560089017E+02 -0.18566847478E+03  0.29332905231E+03  0.00000000000E+00 0.  1.
         11    1    4    4    0    0 -0.33002769339E+02 -0.18184071521E+02  0.75458507062E+01  0.38428935765E+02  0.00000000000E+00 0. -1.
         21    1    1    2  503  501  0.10675762871E+02  0.94711725089E+02 -0.74191632580E+02  0.12078361283E+03  0.00000000000E+00 0.  1.
         -1    1    1    2    0  502  0.67641477152E+02 -0.58451066730E+01 -0.51724604590E+02  0.85352032333E+02  0.00000000000E+00 0.  1.
<scales pt_clust_5="13000.00000" pt_clust_6="13000.00000" pt_clust_7="13000.00000" pt_clust_8="13000.00000" pt_clust_9="96.23592" pt_clust_10="67.89359"></scales>
<clustering>
<clus scale="   67.894">  1 10  2 -1</clus>
<clus scale="   81.903">  5  6 -1 -1</clus>
<clus scale="   90.852">  7  8 -1 -1</clus>
<clus scale="   96.236">  2  9  1 -1</clus>
<clus scale="  220.614">  2  5  1 -1</clus>
<clus scale="   67.894">  1  5  2 -1</clus>
</clustering>
</event>
<event>
10    3  0.5078224E-005  0.1117659E+03  0.7546771E-02  0.1262608E+00
         -2   -1    0    0    0  501 -0.00000000000E+00  0.00000000000E+00  0.44429509156E+03  0.44429509156E+03  0.00000000000E+00 0.  1.
         21   -1    0    0  501  502  0.00000000000E+00 -0.00000000000E+00 -0.62939617560E+02  0.62939617560E+02  0.00000000000E+00 0. -1.
         23    2    1    2    0    0 -0.36884360377E+02  0.37316800706E+02  0.13188339108E+03  0.17011575614E+03  0.93771754742E+02 0.  0.
        -24    2    1    2    0    0  0.46164038366E+02 -0.54422857116E+02  0.96663799612E+02  0.14453793461E+03  0.80339022717E+02 0.  0.
         11    1    4    4    0    0  0.59972006654E+02 -0.31886863208E+02  0.32812043122E+02  0.75432378998E+02  0.00000000000E+00 0. -1.
        -12    1    4    4    0    0 -0.13807968289E+02 -0.22535993907E+02  0.63851756490E+02  0.69105555613E+02  0.00000000000E+00 0.  1.
        -11    1    3    3    0    0 -0.29808454852E+02 -0.16407500217E+02  0.10348858451E+03  0.10893868536E+03  0.00000000000E+00 0. -1.
         11    1    3    3    0    0 -0.70759055248E+01  0.53724300923E+02  0.28394806575E+02  0.61177070779E+02  0.00000000000E+00 0.  1.
         21    1    1    2  503  502  0.41454704675E+02 -0.25841882507E+02  0.48102453706E+02  0.68557577873E+02  0.00000000000E+00 0. -1.
         -1    1    1    2    0  503 -0.50734382664E+02  0.42947938917E+02  0.10470582960E+03  0.12402344050E+03  0.00000000000E+00 0.  1.
<scales pt_clust_5="13000.00000" pt_clust_6="13000.00000" pt_clust_7="13000.00000" pt_clust_8="13000.00000" pt_clust_9="48.84972" pt_clust_10="57.62928"></scales>
<clustering>
<clus scale="   48.850">  2  9  1 -1</clus>
<clus scale="   57.629">  2 10  1 -1</clus>
<clus scale="   80.339">  5  6 -1 -1</clus>
<clus scale="   93.772">  7  8 -1 -1</clus>
<clus scale="  100.761">  2  5  1 -1</clus>
<clus scale="   48.850">  2  5  1 -1</clus>
</clustering>
</event>
<event>
10    3  0.5078224E-005  0.2154037E+03  0.7546771E-02  0.1164289E+00
         21   -1    0    0  503  502  0.00000000000E+00  0.00000000000E+00  0.10112464901E+04  0.10112464901E+04  0.00000000000E+00 0. -1.
         -4   -1    0    0    0  501 -0.00000000000E+00 -0.00000000000E+00 -0.10988810604E+03  0.10988810604E+03  0.00000000000E+00 0.  1.
        -24    2    1    2    0    0 -0.66825263258E+02 -0.32485364498E+02  0.30297250566E+03  0.32199686871E+03  0.79804320412E+02 0.  0.
         23    2    1    2    0    0 -0.10388075290E+03 -0.80892672663E+02  0.93594174846E+01  0.15897321436E+03  0.88600501553E+02 0.  0.
         11    1    3    3    0    0 -0.69452692782E+02 -0.30207904138E+02  0.30727135956E+03  0.31646782209E+03  0.00000000000E+00 0. -1.
        -12    1    3    3    0    0  0.26274295241E+01 -0.22774603600E+01 -0.42988539084E+01  0.55290466196E+01  0.00000000000E+00 0.  1.
        -11    1    4    4    0    0 -0.16652632576E+02 -0.49970658832E+02  0.34632015909E+02  0.63037714439E+02  0.00000000000E+00 0. -1.
         11    1    4    4    0    0 -0.87228120321E+02 -0.30922013831E+02 -0.25272598424E+02  0.95935499922E+02  0.00000000000E+00 0.  1.
         21    1    1    2  503  501 -0.15654598805E+02 -0.16656510590E+02  0.42039999826E+02  0.47852558909E+02  0.00000000000E+00 0.  1.
         -3    1    1    2    0  502  0.18636061496E+03  0.13003454775E+03  0.54698646109E+03  0.59231195416E+03  0.00000000000E+00 0.  1.
<scales pt_clust_5="13000.00000" pt_clust_6="13000.00000" pt_clust_7="13000.00000" pt_clust_8="13000.00000" pt_clust_9="22.85839" pt_clust_10="196.33821"></scales>
<clustering>
<clus scale="   22.858">  1  9  2 -1</clus>
<clus scale="   79.804">  5  6 -1 -1</clus>
<clus scale="   88.601">  7  8 -1 -1</clus>
<clus scale="  113.890">  2  5  1 -1</clus>
<clus scale="  196.338">  1 10  2 -1</clus>
<clus scale="   22.858">  1  5  2 -1</clus>
</clustering>
</event>
<event>
10    3  0.5078224E-005  0.2645848E+03  0.7546771E-02  0.1104933E+00
          1   -1    0    0  503    0 -0.00000000000E+00  0.00000000000E+00  0.11875437906E+04  0.11875437906E+04  0.00000000000E+00 0. -1.
         21   -1    0    0  501  502  0.00000000000E+00 -0.00000000000E+00 -0.12844144787E+03  0.12844144787E+03  0.00000000000E+00 0. -1.
        -24    2    1    2    0    0  0.17949021439E+03 -0.15684161255E+03  0.63707096439E+03  0.68496572804E+03  0.80638740345E+02 0.  0.
         23    2    1    2    0    0 -0.16872767610E+03  0.22514686919E+03  0.24977396846E+03  0.38713849726E+03  0.91263570777E+02 0.  0.
         11    1    3    3    0    0  0.35090794573E+02 -0.38670089739E+02  0.65845423285E+02  0.84037845473E+02  0.00000000000E+00 0. -1.
        -12    1    3    3    0    0  0.14439941982E+03 -0.11817152281E+03  0.57122554110E+03  0.60092788257E+03  0.00000000000E+00 0.  1.
        -11    1    4    4    0    0 -0.22807607759E+02  0.38337986558E+01  0.31404436064E+00  0.23129712659E+02  0.00000000000E+00 0.  1.
         11    1    4    4    0    0 -0.14592006835E+03  0.22131307053E+03  0.24945992410E+03  0.36400878460E+03  0.00000000000E+00 0. -1.
         21    1    1    2  503  502 -0.35349091331E+02 -0.34041044408E+02 -0.15485166615E+02  0.51460094708E+02  0.00000000000E+00 0. -1.
          2    1    1    2  501    0  0.24586553045E+02 -0.34264212231E+02  0.18774257650E+03  0.19242091846E+03  0.00000000000E+00 0. -1.
<scales pt_clust_5="13000.00000" pt_clust_6="13000.00000" pt_clust_7="13000.00000" pt_clust_8="13000.00000" pt_clust_9="51.87950" pt_clust_10="42.17270"></scales>
<clustering>
<clus scale="   42.173">  2 10  1 -1</clus>
<clus scale="   51.880">  2  9  1 -1</clus>
<clus scale="   80.639">  5  6 -1 -1</clus>
<clus scale="   91.264">  7  8 -1 -1</clus>
<clus scale="  261.110">  1  5  2 -1</clus>
<clus scale="   42.173">  2  5  1 -1</clus>
</clustering>
</event>
<event>
10    3  0.5078224E-005  0.9660710E+02  0.7546771E-02  0.1290998E+00
         21   -1    0    0  501  502  0.00000000000E+00  0.00000000000E+00  0.45768218996E+02  0.45768218996E+02  0.00000000000E+00 0. -1.
          1   -1    0    0  503    0 -0.00000000000E+00 -0.00000000000E+00 -0.87663452881E+03  0.87663452881E+03  0.00000000000E+00 0. -1.
        -24    2    1    2    0    0 -0.36442245201E+02  0.12493364953E+02 -0.30207787163E+03  0.31563483297E+03  0.83007143388E+02 0.  0.
         23    2    1    2    0    0  0.32707383397E+02  0.33403570378E+01 -0.10284080276E+03  0.14023174596E+03  0.89486205357E+02 0.  0.
         13    1    3    3    0    0  0.15762808625E+02  0.30671051635E+02 -0.87481283188E+02  0.94032730750E+02  0.00000000000E+00 0. -1.
        -14    1    3    3    0    0 -0.52205053826E+02 -0.18177686682E+02 -0.21459658844E+03  0.22160210222E+03  0.00000000000E+00 0.  1.
        -11    1    4    4    0    0  0.44809905930E+02  0.33668093575E+02 -0.38251388414E+02  0.67857474976E+02  0.00000000000E+00 0.  1.
         11    1    4    4    0    0 -0.12102522533E+02 -0.30327736538E+02 -0.64589414345E+02  0.72374270985E+02  0.00000000000E+00 0. -1.
         21    1    1    2  503  502 -0.71655381941E+02 -0.30017620610E+02 -0.77467113923E+02  0.10971191844E+03  0.00000000000E+00 0. -1.
          2    1    1    2  501    0  0.75390243744E+02  0.14183898619E+02 -0.34848052150E+03  0.35682425043E+03  0.00000000000E+00 0. -1.
<scales pt_clust_5="13000.00000" pt_clust_6="13000.00000" pt_clust_7="13000.00000" pt_clust_8="13000.00000" pt_clust_9="49.00960" pt_clust_10="76.71296"></scales>
<clustering>
<clus scale="   76.713">  1 10  2 -1</clus>
<clus scale="   49.010">  1  9  2 -1</clus>
<clus scale="   83.007">  5  6 -1 -1</clus>
<clus scale="   89.486">  7  8 -1 -1</clus>
<clus scale="   90.638">  2  5  1 -1</clus>
<clus scale="   76.713">  1  5  2 -1</clus>
</clustering>
</event>
<event>
10    3  0.5078224E-005  0.1058427E+03  0.7546771E-02  0.1274369E+00
         21   -1    0    0  503  502  0.00000000000E+00  0.00000000000E+00  0.46083643442E+02  0.46083643442E+02  0.00000000000E+00 0. -1.
          1   -1    0    0  502    0 -0.00000000000E+00 -0.00000000000E+00 -0.89081614534E+03  0.89081614534E+03  0.00000000000E+00 0. -1.
        -24    2    1    2    0    0 -0.66402246762E+01  0.58427504158E+02 -0.27040876020E+03  0.28796451513E+03  0.79654243811E+02 0.  0.
         23    2    1    2    0    0  0.61086104621E+02 -0.17515180400E+02 -0.22904644121E+03  0.25519978439E+03  0.92878221346E+02 0.  0.
         13    1    3    3    0    0  0.94943565707E+01  0.75081359005E+02 -0.20026381211E+03  0.21408630904E+03  0.00000000000E+00 0. -1.
        -14    1    3    3    0    0 -0.16134581247E+02 -0.16653854847E+02 -0.70144948095E+02  0.73878206099E+02  0.00000000000E+00 0.  1.
        -13    1    4    4    0    0  0.19797116274E+02 -0.44366067349E+02 -0.17698907905E+03  0.18353584894E+03  0.00000000000E+00 0.  1.
         13    1    4    4    0    0  0.41288988347E+02  0.26850886949E+02 -0.52057362158E+02  0.71663935445E+02  0.00000000000E+00 0. -1.
         21    1    1    2  503  501 -0.11485120617E+02 -0.23003123838E+02  0.15464535238E+02  0.30003392342E+02  0.00000000000E+00 0. -1.
          2    1    1    2  501    0 -0.42960759328E+02 -0.17909199920E+02 -0.36074183573E+03  0.36373209692E+03  0.00000000000E+00 0. -1.
<scales pt_clust_5="13000.00000" pt_clust_6="13000.00000" pt_clust_7="13000.00000" pt_clust_8="13000.00000" pt_clust_9="25.71093" pt_clust_10="47.80194"></scales>
<clustering>
<clus scale="   25.711">  1  9  2 -1</clus>
<clus scale="   47.802">  1 10  2 -1</clus>
<clus scale="   79.654">  5  6 -1 -1</clus>
<clus scale="   92.878">  7  8 -1 -1</clus>
<clus scale="   94.452">  2  5  1 -1</clus>
<clus scale="   25.711">  1  5  2 -1</clus>
</clustering>
</event>
<event>
10    3  0.5078224E-005  0.2133127E+03  0.7546771E-02  0.1161627E+00
          1   -1    0    0  503    0 -0.00000000000E+00  0.00000000000E+00  0.54149309511E+03  0.54149309511E+03  0.00000000000E+00 0. -1.
         21   -1    0    0  501  502  0.00000000000E+00 -0.00000000000E+00 -0.29447833790E+03  0.29447833790E+03  0.00000000000E+00 0. -1.
         23    2    1    2    0    0  0.54111808169E+02  0.11123702932E+03 -0.70443079256E+02  0.16928600037E+03  0.91617454830E+02 0.  0.
        -24    2    1    2    0    0 -0.20021992341E+03 -0.12346699456E+03  0.19160214171E+03  0.31426469703E+03  0.81968302506E+02 0.  0.
         11    1    4    4    0    0 -0.15997482976E+03 -0.12077104959E+03  0.18617364871E+03  0.27356575087E+03  0.00000000000E+00 0. -1.
        -12    1    4    4    0    0 -0.40245093656E+02 -0.26959449711E+01  0.54284930028E+01  0.40698946165E+02  0.00000000000E+00 0.  1.
        -13    1    3    3    0    0  0.14620421211E+02  0.38058817337E+02 -0.75683963919E+02  0.85966811549E+02  0.00000000000E+00 0. -1.
         13    1    3    3    0    0  0.39491386958E+02  0.73178211986E+02  0.52408846629E+01  0.83319188819E+02  0.00000000000E+00 0.  1.
         21    1    1    2  503  502  0.20667768041E+02 -0.10459200049E+03 -0.40030300624E+02  0.11388181668E+03  0.00000000000E+00 0. -1.
          2    1    1    2  501    0  0.12544034720E+03  0.11682196573E+03  0.16588599537E+03  0.23853891893E+03  0.00000000000E+00 0. -1.
<scales pt_clust_5="13000.00000" pt_clust_6="13000.00000" pt_clust_7="13000.00000" pt_clust_8="13000.00000" pt_clust_9="106.61446" pt_clust_10="196.93529"></scales>
<clustering>
<clus scale="   81.968">  5  6 -1 -1</clus>
<clus scale="   91.617">  7  8 -1 -1</clus>
<clus scale="  106.614">  2  9  1 -1</clus>
<clus scale="  124.729">  1  7  2 -1</clus>
<clus scale="  196.935">  2 10  1 -1</clus>
<clus scale="  106.614">  2  5  1 -1</clus>
</clustering>
</event>
<event>
10    3  0.5078224E-005  0.1537166E+03  0.7546771E-02  0.1225682E+00
          1   -1    0    0  503    0 -0.00000000000E+00  0.00000000000E+00  0.49162324317E+03  0.49162324317E+03  0.00000000000E+00 0. -1.
         21   -1    0    0  501  502  0.00000000000E+00 -0.00000000000E+00 -0.24995410571E+03  0.24995410571E+03  0.00000000000E+00 0. -1.
        -24    2    1    2    0    0  0.16948649983E+01 -0.80344991093E+01  0.38025493371E+02  0.90384956259E+02  0.81584780618E+02 0.  0.
         23    2    1    2    0    0 -0.83695850712E+02 -0.73472101377E+02  0.33027927007E+03  0.36505439294E+03  0.10852266335E+03 0.  0.
         13    1    3    3    0    0 -0.15757486627E+00 -0.42789310337E+02  0.62241227759E+01  0.43239907647E+02  0.00000000000E+00 0. -1.
        -14    1    3    3    0    0  0.18524398645E+01  0.34754811228E+02  0.31801370595E+02  0.47145048612E+02  0.00000000000E+00 0.  1.
        -11    1    4    4    0    0 -0.14764576896E+02  0.15530266644E+02  0.66994922740E+01  0.22451394381E+02  0.00000000000E+00 0.  1.
         11    1    4    4    0    0 -0.68931273816E+02 -0.89002368021E+02  0.32357977779E+03  0.34260299856E+03  0.00000000000E+00 0. -1.
         21    1    1    2  503  502  0.95945588430E+02  0.12385151303E+02 -0.17546555968E+03  0.20036743884E+03  0.00000000000E+00 0. -1.
          2    1    1    2  501    0 -0.13944602716E+02  0.69121449184E+02  0.48829933702E+02  0.85770560844E+02  0.00000000000E+00 0. -1.
<scales pt_clust_5="13000.00000" pt_clust_6="13000.00000" pt_clust_7="13000.00000" pt_clust_8="13000.00000" pt_clust_9="108.86510" pt_clust_10="70.51405"></scales>
<clustering>
<clus scale="   70.514">  2 10  1 -1</clus>
<clus scale="   81.585">  5  6 -1 -1</clus>
<clus scale="   81.585">  1  5  2 -1</clus>
<clus scale="  108.523">  7  8 -1 -1</clus>
<clus scale="  108.865">  2  9  1 -1</clus>
<clus scale="   70.514">  2  5  1 -1</clus>
</clustering>
</event>
<event>
10    3  0.5078224E-005  0.1562513E+03  0.7546771E-02  0.1197767E+00
          3   -1    0    0  503    0 -0.00000000000E+00  0.00000000000E+00  0.16663269226E+03  0.16663269226E+03  0.00000000000E+00 0. -1.
         21   -1    0    0  501  502  0.00000000000E+00 -0.00000000000E+00 -0.43610633136E+03  0.43610633136E+03  0.00000000000E+00 0. -1.
        -24    2    1    2    0    0 -0.71943366961E+01  0.12451690168E+03 -0.75301136431E+02  0.16568095788E+03  0.78890439055E+02 0.  0.
         23    2    1    2    0    0  0.98699504398E+02 -0.14807842017E+02  0.92642793272E+01  0.13576351314E+03  0.91569865535E+02 0.  0.
         13    1    3    3    0    0  0.97410495560E+00  0.10859592995E+03 -0.23824548172E+02  0.11118288527E+03  0.00000000000E+00 0. -1.
        -14    1    3    3    0    0 -0.81684416518E+01  0.15920971728E+02 -0.51476588258E+02  0.54498072613E+02  0.00000000000E+00 0.  1.
        -13    1    4    4    0    0  0.30744853621E+02 -0.48284982233E+02 -0.87253294061E+01  0.57903513768E+02  0.00000000000E+00 0.  1.
         13    1    4    4    0    0  0.67954650777E+02  0.33477140216E+02  0.17989608733E+02  0.77859999368E+02  0.00000000000E+00 0. -1.
         21    1    1    2  503  502  0.42667595780E+02 -0.22669439716E+02 -0.99347061467E+02  0.11047291907E+03  0.00000000000E+00 0. -1.
          4    1    1    2  501    0 -0.13417276348E+03 -0.87039619943E+02 -0.10408972053E+03  0.19082163352E+03  0.00000000000E+00 0. -1.
<scales pt_clust_5="13000.00000" pt_clust_6="13000.00000" pt_clust_7="13000.00000" pt_clust_8="13000.00000" pt_clust_9="48.31591" pt_clust_10="126.60743"></scales>
<clustering>
<clus scale="   48.316">  2  9  1 -1</clus>
<clus scale="   78.890">  5  6 -1 -1</clus>
<clus scale="   91.570">  7  8 -1 -1</clus>
<clus scale="  140.754">  1  5  2 -1</clus>
<clus scale="  126.607">  2 10  1 -1</clus>
<clus scale="   48.316">  2  5  1 -1</clus>
</clustering>
</event>
<event>
10    3  0.5078224E-005  0.2060069E+03  0.7546771E-02  0.1173564E+00
         21   -1    0    0  501  502  0.00000000000E+00  0.00000000000E+00  0.13366951746E+03  0.13366951746E+03  0.00000000000E+00 0. -1.
          1   -1    0    0  503    0 -0.00000000000E+00 -0.00000000000E+00 -0.11439926005E+04  0.11439926005E+04  0.00000000000E+00 0. -1.
        -24    2    1    2    0    0  0.44910569040E+02  0.49661432650E+02 -0.44017974392E+03  0.45259121407E+03  0.81224275837E+02 0.  0.
         23    2    1    2    0    0 -0.74466879562E+02  0.12881543984E+03 -0.17704129861E+03  0.24866756977E+03  0.91395870533E+02 0.  0.
         13    1    3    3    0    0  0.65833936620E+02  0.47527889920E+02 -0.29798917930E+03  0.30885361987E+03  0.00000000000E+00 0. -1.
        -14    1    3    3    0    0 -0.20923367580E+02  0.21335427300E+01 -0.14219056463E+03  0.14373759419E+03  0.00000000000E+00 0.  1.
        -13    1    4    4    0    0 -0.38304016768E+02  0.13224858652E+03 -0.14817813611E+03  0.20227121980E+03  0.00000000000E+00 0. -1.
         13    1    4    4    0    0 -0.36162862794E+02 -0.34331466805E+01 -0.28863162495E+02  0.46396349973E+02  0.00000000000E+00 0.  1.
         21    1    1    2  503  502  0.14483767871E+03 -0.20104283162E+03 -0.11234405238E+03  0.27206131556E+03  0.00000000000E+00 0. -1.
          2    1    1    2  501    0 -0.11528136819E+03  0.22565959130E+02 -0.28075798808E+03  0.30434201852E+03  0.00000000000E+00 0. -1.
<scales pt_clust_5="13000.00000" pt_clust_6="13000.00000" pt_clust_7="13000.00000" pt_clust_8="13000.00000" pt_clust_9="184.62293" pt_clust_10="105.75925"></scales>
<clustering>
<clus scale="   81.224">  5  6 -1 -1</clus>
<clus scale="   91.396">  7  8 -1 -1</clus>
<clus scale="  105.264">  2  5  1 -1</clus>
<clus scale="  105.759">  1 10  2 -1</clus>
<clus scale="  184.623">  1  9  2 -1</clus>
<clus scale="  105.759">  1  5  2 -1</clus>
</clustering>
</event>
<event>
10    3  0.5078224E-005  0.9188221E+02  0.7546771E-02  0.1300015E+00
          1   -1    0    0  502    0 -0.00000000000E+00  0.00000000000E+00  0.55285524347E+03  0.55285524347E+03  0.00000000000E+00 0. -1.
         21   -1    0    0  503  502  0.00000000000E+00 -0.00000000000E+00 -0.69251636537E+02  0.69251636537E+02  0.00000000000E+00 0. -1.
         23    2    1    2    0    0  0.58012864554E+02  0.22419238683E+01  0.19455664732E+03  0.21879665960E+03  0.81542446384E+02 0.  0.
        -24    2    1    2    0    0  0.41470858291E+02 -0.24550074517E+02  0.17527756319E+02  0.98895746225E+02  0.84561268519E+02 0.  0.
         11    1    4    4    0    0  0.20260710510E+02 -0.92807226476E+01 -0.34269783778E+02  0.40878432986E+02  0.00000000000E+00 0. -1.
        -12    1    4    4    0    0  0.21210147782E+02 -0.15269351870E+02  0.51797540096E+02  0.58017313239E+02  0.00000000000E+00 0.  1.
        -13    1    3    3    0    0  0.13990399285E+02  0.39627963547E+02  0.73436516006E+02  0.84611043311E+02  0.00000000000E+00 0.  1.
         13    1    3    3    0    0  0.44022465270E+02 -0.37386039679E+02  0.12112013131E+03  0.13418561629E+03  0.00000000000E+00 0. -1.
         21    1    1    2  503  501 -0.16818509184E+02  0.16683658928E+02  0.35826382523E+01  0.23959174094E+02  0.00000000000E+00 0.  1.
          2    1    1    2  501    0 -0.82665213662E+02  0.56244917212E+01  0.26793656505E+03  0.28045530009E+03  0.00000000000E+00 0. -1.
<scales pt_clust_5="13000.00000" pt_clust_6="13000.00000" pt_clust_7="13000.00000" pt_clust_8="13000.00000" pt_clust_9="23.68980" pt_clust_10="84.77059"></scales>
<clustering>
<clus scale="   23.690">  2  9  1 -1</clus>
<clus scale="   81.542">  7  8 -1 -1</clus>
<clus scale="   84.561">  5  6 -1 -1</clus>
<clus scale="   84.771">  2 10  1 -1</clus>
<clus scale="   89.112">  1  7  2 -1</clus>
<clus scale="   23.690">  2  5  1 -1</clus>
</clustering>
</event>
<event>
10    3  0.5078224E-005  0.1777002E+03  0.7546771E-02  0.1186221E+00
         21   -1    0    0  503  502  0.00000000000E+00  0.00000000000E+00  0.22743336416E+03  0.22743336416E+03  0.00000000000E+00 0. -1.
          1   -1    0    0  502    0 -0.00000000000E+00 -0.00000000000E+00 -0.66401413261E+03  0.66401413261E+03  0.00000000000E+00 0. -1.
        -24    2    1    2    0    0  0.68373429829E+02 -0.65721422213E+02 -0.49224167709E+03  0.50733430191E+03  0.78051226681E+02 0.  0.
         23    2    1    2    0    0  0.10383437120E+03  0.38427028308E+02 -0.26332256665E+02  0.14611519869E+03  0.91640877341E+02 0.  0.
         13    1    3    3    0    0  0.76168501611E+02 -0.61468380319E+02 -0.48757650913E+03  0.49730358401E+03  0.00000000000E+00 0. -1.
        -14    1    3    3    0    0 -0.77950717825E+01 -0.42530418931E+01 -0.46651679595E+01  0.10030717897E+02  0.00000000000E+00 0.  1.
        -13    1    4    4    0    0  0.79619076114E+02  0.62057382840E+02 -0.41362469153E+02  0.10909248325E+03  0.00000000000E+00 0. -1.
         13    1    4    4    0    0  0.24215295089E+02 -0.23630354533E+02  0.15030212487E+02  0.37022715446E+02  0.00000000000E+00 0.  1.
         21    1    1    2  503  501  0.23797734076E+02 -0.38150438480E+01  0.15679613211E+02  0.28753034225E+02  0.00000000000E+00 0. -1.
          2    1    1    2  501    0 -0.19600553511E+03  0.31109437753E+02  0.66313552088E+02  0.20924496195E+03  0.00000000000E+00 0. -1.
<scales pt_clust_5="13000.00000" pt_clust_6="13000.00000" pt_clust_7="13000.00000" pt_clust_8="13000.00000" pt_clust_9="24.10159" pt_clust_10="152.24759"></scales>
<clustering>
<clus scale="   24.102">  1  9  2 -1</clus>
<clus scale="   78.051">  5  6 -1 -1</clus>
<clus scale="   91.641">  7  8 -1 -1</clus>
<clus scale="  123.390">  2  5  1 -1</clus>
<clus scale="  152.248">  1 10  2 -1</clus>
<clus scale="   24.102">  1  5  2 -1</clus>
</clustering>
</event>
<event>
10    3  0.5078224E-005  0.1232302E+03  0.7546771E-02  0.1241616E+00
         21   -1    0    0  503  502  0.00000000000E+00  0.00000000000E+00  0.13736271694E+03  0.13736271694E+03  0.00000000000E+00 0.  1.
         -2   -1    0    0    0  501 -0.00000000000E+00 -0.00000000000E+00 -0.43394781156E+03  0.43394781156E+03  0.00000000000E+00 0.  1.
         23    2    1    2    0    0 -0.10606468069E+02 -0.85025467988E+02 -0.34827002844E+03  0.37010411210E+03  0.91341193940E+02 0.  0.
        -24    2    1    2    0    0  0.37843019884E+02  0.61204069688E+02  0.13766639194E+02  0.10752545699E+03  0.78703057407E+02 0.  0.
         11    1    4    4    0    0  0.38936238717E+02  0.78160217096E+02  0.29262431161E+01  0.87370550649E+02  0.00000000000E+00 0. -1.
        -12    1    4    4    0    0 -0.10932188335E+01 -0.16956147408E+02  0.10840396078E+02  0.20154906337E+02  0.00000000000E+00 0.  1.
        -13    1    3    3    0    0 -0.51274304236E+02 -0.46845821554E+02 -0.19125997544E+03  0.20347963898E+03  0.00000000000E+00 0.  1.
         13    1    3    3    0    0  0.40667836167E+02 -0.38179646433E+02 -0.15701005300E+03  0.16662447312E+03  0.00000000000E+00 0. -1.
         21    1    1    2  503  501 -0.20695012524E+02 -0.19578734709E+02  0.40725555925E+02  0.49700918518E+02  0.00000000000E+00 0. -1.
         -1    1    1    2    0  502 -0.65415392913E+01  0.43400133009E+02 -0.28072613003E+01  0.43980040899E+02  0.00000000000E+00 0.  1.
<scales pt_clust_5="13000.00000" pt_clust_6="13000.00000" pt_clust_7="13000.00000" pt_clust_8="13000.00000" pt_clust_9="28.48878" pt_clust_10="40.59185"></scales>
<clustering>
<clus scale="   28.489">  1  9  2 -1</clus>
<clus scale="   40.592">  1 10  2 -1</clus>
<clus scale="   78.703">  5  6 -1 -1</clus>
<clus scale="   91.341">  7  8 -1 -1</clus>
<clus scale="  114.178">  1  5  2 -1</clus>
<clus scale="   28.489">  1  5  2 -1</clus>
</clustering>
</event>
<event>
10    3  0.5078224E-005  0.1417537E+03  0.7546771E-02  0.1214175E+00
         21   -1    0    0  501  502  0.00000000000E+00  0.00000000000E+00  0.17512949304E+03  0.17512949304E+03  0.00000000000E+00 0. -1.
          1   -1    0    0  503    0 -0.00000000000E+00 -0.00000000000E+00 -0.16226024634E+03  0.16226024634E+03  0.00000000000E+00 0. -1.
         23    2    1    2    0    0 -0.11885188752E+03 -0.33289948048E+01 -0.20725840887E+02  0.15364057667E+03  0.95073723752E+02 0.  0.
        -24    2    1    2    0    0  0.86523136585E+02  0.28028705951E+02  0.33001664426E+02  0.12591288514E+03  0.80579670311E+02 0.  0.
         13    1    4    4    0    0  0.19268615773E+02  0.12161523498E+02  0.49829921939E+02  0.54792365600E+02  0.00000000000E+00 0. -1.
        -14    1    4    4    0    0  0.67254520811E+02  0.15867182453E+02 -0.16828257513E+02  0.71120519539E+02  0.00000000000E+00 0.  1.
        -11    1    3    3    0    0 -0.36306801562E+02  0.32142323536E+01  0.37592299383E+02  0.52361207990E+02  0.00000000000E+00 0.  1.
         11    1    3    3    0    0 -0.82545085954E+02 -0.65432271584E+01 -0.58318140270E+02  0.10127936868E+03  0.00000000000E+00 0. -1.
         21    1    1    2  503  502  0.10883349262E+02 -0.26949482391E+02  0.14191351759E+02  0.32343722066E+02  0.00000000000E+00 0. -1.
          2    1    1    2  501    0  0.21445401669E+02  0.22497712453E+01 -0.13597928600E+02  0.25492555494E+02  0.00000000000E+00 0. -1.
<scales pt_clust_5="13000.00000" pt_clust_6="13000.00000" pt_clust_7="13000.00000" pt_clust_8="13000.00000" pt_clust_9="30.01729" pt_clust_10="21.56310"></scales>
<clustering>
<clus scale="   21.563">  1 10  2 -1</clus>
<clus scale="   30.017">  1  9  2 -1</clus>
<clus scale="   80.580">  5  6 -1 -1</clus>
<clus scale="   95.074">  7  8 -1 -1</clus>
<clus scale="  132.470">  1  5  2 -1</clus>
<clus scale="   21.563">  1  5  2 -1</clus>
</clustering>
</event>
<event>
10    3  0.5078224E-005  0.1156550E+03  0.7546771E-02  0.1255278E+00
         21   -1    0    0  501  502  0.00000000000E+00  0.00000000000E+00  0.13166675515E+04  0.13166675515E+04  0.00000000000E+00 0.  1.
          1   -1    0    0  503    0 -0.00000000000E+00 -0.00000000000E+00 -0.60660967831E+02  0.60660967831E+02  0.00000000000E+00 0. -1.
        -24    2    1    2    0    0  0.29365847935E+02  0.54008823591E+02  0.93653751116E+02  0.13648338657E+03  0.77957576041E+02 0.  0.
         23    2    1    2    0    0 -0.13790937478E+03 -0.41424537719E+02  0.55721858969E+03  0.58279071307E+03  0.91746774186E+02 0.  0.
         13    1    3    3    0    0  0.43836661740E+02  0.51373312178E+01  0.24204119410E+02  0.50337704367E+02  0.00000000000E+00 0. -1.
        -14    1    3    3    0    0 -0.14470813805E+02  0.48871492373E+02  0.69449631705E+02  0.86145682207E+02  0.00000000000E+00 0.  1.
        -11    1    4    4    0    0 -0.10137192729E+03 -0.44761744309E+02  0.51531295958E+03  0.52709328179E+03  0.00000000000E+00 0.  1.
         11    1    4    4    0    0 -0.36537447490E+02  0.33372065900E+01  0.41905630106E+02  0.55697431283E+02  0.00000000000E+00 0. -1.
         21    1    1    2  503  502  0.64818589973E+02 -0.43312293254E+02  0.59923818371E+03  0.60428784960E+03  0.00000000000E+00 0.  1.
          2    1    1    2  501    0  0.43724936871E+02  0.30728007382E+02  0.58960591196E+01  0.53766570052E+02  0.00000000000E+00 0. -1.
<scales pt_clust_5="13000.00000" pt_clust_6="13000.00000" pt_clust_7="13000.00000" pt_clust_8="13000.00000" pt_clust_9="90.04405" pt_clust_10="53.44234"></scales>
<clustering>
<clus scale="   53.442">  1 10  2 -1</clus>
<clus scale="   77.958">  5  6 -1 -1</clus>
<clus scale="   90.044">  1  9  2 -1</clus>
<clus scale="   91.747">  7  8 -1 -1</clus>
<clus scale="  105.052">  2  5  1 -1</clus>
<clus scale="   53.442">  1  5  2 -1</clus>
</clustering>
</event>
<event>
10    3  0.5078224E-005  0.1267390E+03  0.7546771E-02  0.1235690E+00
         21   -1    0    0  501  502  0.00000000000E+00  0.00000000000E+00  0.22836307973E+03  0.22836307973E+03  0.00000000000E+00 0.  1.
         -2   -1    0    0    0  501 -0.00000000000E+00 -0.00000000000E+00 -0.14914206042E+03  0.14914206042E+03  0.00000000000E+00 0.  1.
         23    2    1    2    0    0 -0.12006756842E+02 -0.57303130198E+02  0.24077635881E+02  0.11118252596E+03  0.91400276743E+02 0.  0.
        -24    2    1    2    0    0 -0.26451024735E+02  0.12134987250E+03  0.33686031185E+01  0.14747577572E+03  0.79450038844E+02 0.  0.
         11    1    4    4    0    0 -0.23033101926E+02  0.77421126296E+02 -0.35957705922E+02  0.88416690712E+02  0.00000000000E+00 0. -1.
        -12    1    4    4    0    0 -0.34179228089E+01  0.43928746207E+02  0.39326309041E+02  0.59059085012E+02  0.00000000000E+00 0.  1.
        -11    1    3    3    0    0 -0.40179570038E+02  0.37125806295E+01  0.16336547137E+02  0.43532331384E+02  0.00000000000E+00 0.  1.
         11    1    3    3    0    0  0.28172813196E+02 -0.61015710828E+02  0.77410887437E+01  0.67650194576E+02  0.00000000000E+00 0. -1.
         21    1    1    2  503  502 -0.14772225515E+02 -0.15440460528E+02  0.40630525620E+02  0.45907146286E+02  0.00000000000E+00 0.  1.
         -1    1    1    2    0  503  0.53230007091E+02 -0.48606281776E+02  0.11144254684E+02  0.72939692182E+02  0.00000000000E+00 0.  1.
<scales pt_clust_5="13000.00000" pt_clust_6="13000.00000" pt_clust_7="13000.00000" pt_clust_8="13000.00000" pt_clust_9="21.36882" pt_clust_10="72.13383"></scales>
<clustering>
<clus scale="   21.369">  1  9  2 -1</clus>
<clus scale="   72.134">  1 10  2 -1</clus>
<clus scale="   79.450">  5  6 -1 -1</clus>
<clus scale="   91.400">  7  8 -1 -1</clus>
<clus scale="  118.411">  1  5  2 -1</clus>
<clus scale="   21.369">  1  5  2 -1</clus>
</clustering>
</event>
<event>
10    3  0.5078224E-005  0.9561680E+02  0.7546771E-02  0.1297507E+00
          1   -1    0    0  503    0 -0.00000000000E+00  0.00000000000E+00  0.32586122013E+03  0.32586122013E+03  0.00000000000E+00 0. -1.
         21   -1    0    0  501  502  0.00000000000E+00 -0.00000000000E+00 -0.85818490185E+02  0.85818490185E+02  0.00000000000E+00 0. -1.
        -24    2    1    2    0    0 -0.52052014809E+01  0.31778877223E+02  0.17080530210E+03  0.19145953664E+03  0.80282699167E+02 0.  0.
         23    2    1    2    0    0 -0.44140681730E+02  0.15681091206E+02  0.77520795953E+02  0.13012317736E+03  0.93425216486E+02 0.  0.
         13    1    3    3    0    0  0.19994064193E+02  0.50955785542E+02  0.11249995939E+03  0.12510993384E+03  0.00000000000E+00 0. -1.
        -14    1    3    3    0    0 -0.25199265673E+02 -0.19176908319E+02  0.58305342713E+02  0.66349602802E+02  0.00000000000E+00 0.  1.
        -13    1    4    4    0    0  0.29532541026E+02  0.49066079971E+01  0.25049881786E+02  0.39035142615E+02  0.00000000000E+00 0.  1.
         13    1    4    4    0    0 -0.73673222756E+02  0.10774483209E+02  0.52470914166E+02  0.91088034742E+02  0.00000000000E+00 0. -1.
         21    1    1    2  503  502  0.38098836708E+02  0.18615904411E+01 -0.10161124271E+02  0.39474489534E+02  0.00000000000E+00 0. -1.
          2    1    1    2  501    0  0.11247046503E+02 -0.49321558870E+02  0.18777561599E+01  0.50622506779E+02  0.00000000000E+00 0. -1.
<scales pt_clust_5="13000.00000" pt_clust_6="13000.00000" pt_clust_7="13000.00000" pt_clust_8="13000.00000" pt_clust_9="38.14429" pt_clust_10="55.32103"></scales>
<clustering>
<clus scale="   38.144">  2  9  1 -1</clus>
<clus scale="   55.321">  2 10  1 -1</clus>
<clus scale="   80.283">  5  6 -1 -1</clus>
<clus scale="   82.823">  1  5  2 -1</clus>
<clus scale="   93.425">  7  8 -1 -1</clus>
<clus scale="   38.144">  2  5  1 -1</clus>
</clustering>
</event>
<event>
10    3  0.5078224E-005  0.2120637E+03  0.7546771E-02  0.1157585E+00
          1   -1    0    0  502    0 -0.00000000000E+00  0.00000000000E+00  0.10378888011E+04  0.10378888011E+04  0.00000000000E+00 0. -1.
         21   -1    0    0  503  502  0.00000000000E+00 -0.00000000000E+00 -0.11330601565E+03  0.11330601565E+03  0.00000000000E+00 0. -1.
        -24    2    1    2    0    0  0.11647414124E+03 -0.65974472903E+01  0.54114962115E+03  0.55886294058E+03  0.76649344383E+02 0.  0.
         23    2    1    2    0    0  0.88260987796E+02  0.91238577722E+02  0.21623216395E+03  0.27515449542E+03  0.11331005072E+03 0.  0.
         13    1    3    3    0    0  0.82984287034E+02  0.27149139976E+02  0.27589770613E+03  0.28938384880E+03  0.00000000000E+00 0. -1.
        -14    1    3    3    0    0  0.33489854203E+02 -0.33746587267E+02  0.26525191502E+03  0.26947909178E+03  0.00000000000E+00 0.  1.
        -11    1    4    4    0    0  0.38833584916E+02 -0.19216000580E+02  0.92187181998E+02  0.10186156547E+03  0.00000000000E+00 0. -1.
         11    1    4    4    0    0  0.49427402880E+02  0.11045457830E+03  0.12404498195E+03  0.17329292995E+03  0.00000000000E+00 0.  1.
         21    1    1    2  503  501 -0.27387864914E+00  0.24990442348E+02 -0.82357277156E+01  0.26313958829E+02  0.00000000000E+00 0.  1.
          2    1    1    2  501    0 -0.20446125038E+03 -0.10963157278E+03  0.17543672810E+03  0.29086342194E+03  0.00000000000E+00 0. -1.
<scales pt_clust_5="13000.00000" pt_clust_6="13000.00000" pt_clust_7="13000.00000" pt_clust_8="13000.00000" pt_clust_9="24.99194" pt_clust_10="179.25356"></scales>
<clustering>
<clus scale="   24.992">  2  9  1 -1</clus>
<clus scale="   76.649">  5  6 -1 -1</clus>
<clus scale="  113.310">  7  8 -1 -1</clus>
<clus scale="  139.477">  1  5  2 -1</clus>
<clus scale="  179.254">  2 10  1 -1</clus>
<clus scale="   24.992">  2  5  1 -1</clus>
</clustering>
</event>
<event>
10    3  0.5078224E-005  0.1827349E+03  0.7546771E-02  0.1176230E+00
         -4   -1    0    0    0  501 -0.00000000000E+00  0.00000000000E+00  0.14641495072E+04  0.14641495072E+04  0.00000000000E+00 0.  1.
         21   -1    0    0  503  502  0.00000000000E+00 -0.00000000000E+00 -0.16492499871E+03  0.16492499871E+03  0.00000000000E+00 0. -1.
         23    2    1    2    0    0 -0.54428293681E+02  0.93801972524E+02  0.16904707362E+03  0.22103272547E+03  0.92289237878E+02 0.  0.
        -24    2    1    2    0    0  0.63320705321E+02  0.10408858774E+03  0.49928215542E+03  0.52031440105E+03  0.81243211360E+02 0.  0.
         11    1    4    4    0    0 -0.19267798670E+02  0.17679581156E+02  0.11166024336E+03  0.11468140914E+03  0.00000000000E+00 0. -1.
        -12    1    4    4    0    0  0.82588503991E+02  0.86409006579E+02  0.38762191206E+03  0.40563299190E+03  0.00000000000E+00 0.  1.
        -11    1    3    3    0    0  0.21528345087E+02  0.33713554097E+02  0.80111787199E+02  0.89543128269E+02  0.00000000000E+00 0. -1.
         11    1    3    3    0    0 -0.75956638768E+02  0.60088418426E+02  0.88935286418E+02  0.13148959720E+03  0.00000000000E+00 0.  1.
         21    1    1    2  503  501 -0.80658196188E+02 -0.23017990583E+03 -0.79706155520E+01  0.24403291657E+03  0.00000000000E+00 0. -1.
         -3    1    1    2    0  502  0.71765784549E+02  0.32289345570E+02  0.63886589502E+03  0.64369446283E+03  0.00000000000E+00 0.  1.
<scales pt_clust_5="13000.00000" pt_clust_6="13000.00000" pt_clust_7="13000.00000" pt_clust_8="13000.00000" pt_clust_9="163.68136" pt_clust_10="78.69521"></scales>
<clustering>
<clus scale="   78.695">  2 10  1 -1</clus>
<clus scale="   81.243">  5  6 -1 -1</clus>
<clus scale="   92.289">  7  8 -1 -1</clus>
<clus scale="  141.973">  1  7  2 -1</clus>
<clus scale="  163.681">  2  9  1 -1</clus>
<clus scale="   78.695">  2  5  1 -1</clus>
</clustering>
</event>
<event>
10    3  0.5078224E-005  0.1381236E+03  0.7546771E-02  0.1219565E+00
          3   -1    0    0  502    0 -0.00000000000E+00  0.00000000000E+00  0.46847374045E+03  0.46847374045E+03  0.00000000000E+00 0. -1.
         21   -1    0    0  503  502  0.00000000000E+00 -0.00000000000E+00 -0.71646741453E+02  0.71646741453E+02  0.00000000000E+00 0. -1.
        -24    2    1    2    0    0  0.10888814260E+03 -0.35117058326E+02  0.23417255517E+03  0.27271587531E+03  0.80295253081E+02 0.  0.
         23    2    1    2    0    0 -0.74970295353E+02 -0.14625233178E+02  0.57682324882E+02  0.13548631395E+03  0.95889770226E+02 0.  0.
         13    1    3    3    0    0  0.69744912043E+02 -0.60107440639E+02  0.13767825114E+03  0.16562776945E+03  0.00000000000E+00 0. -1.
        -14    1    3    3    0    0  0.39143230561E+02  0.24990382313E+02  0.96494304027E+02  0.10708810586E+03  0.00000000000E+00 0.  1.
        -13    1    4    4    0    0 -0.14000945196E+02 -0.26433769353E+02 -0.20036375082E+02  0.36003152015E+02  0.00000000000E+00 0. -1.
         13    1    4    4    0    0 -0.60969350156E+02  0.11808536175E+02  0.77718699964E+02  0.99483161938E+02  0.00000000000E+00 0.  1.
         21    1    1    2  503  501 -0.20904290137E+02  0.38996539152E+01  0.60381111573E+01  0.22105552088E+02  0.00000000000E+00 0. -1.
          4    1    1    2  501    0 -0.13013557115E+02  0.45842637589E+02  0.98934007788E+02  0.10981274055E+03  0.00000000000E+00 0. -1.
<scales pt_clust_5="13000.00000" pt_clust_6="13000.00000" pt_clust_7="13000.00000" pt_clust_8="13000.00000" pt_clust_9="21.26492" pt_clust_10="48.49024"></scales>
<clustering>
<clus scale="   21.265">  2  9  1 -1</clus>
<clus scale="   48.490">  2 10  1 -1</clus>
<clus scale="   80.295">  5  6 -1 -1</clus>
<clus scale="   95.890">  7  8 -1 -1</clus>
<clus scale="  127.791">  1  5  2 -1</clus>
<clus scale="   21.265">  2  5  1 -1</clus>
</clustering>
</event>
<event>
10    3  0.5078224E-005  0.1400306E+03  0.7546771E-02  0.1219969E+00
          1   -1    0    0  503    0 -0.00000000000E+00  0.00000000000E+00  0.39604052212E+03  0.39604052212E+03  0.00000000000E+00 0. -1.
         21   -1    0    0  501  502  0.00000000000E+00 -0.00000000000E+00 -0.23443015489E+03  0.23443015489E+03  0.00000000000E+00 0. -1.
         23    2    1    2    0    0  0.95368126750E+02 -0.90913186678E+02  0.93012084031E+02  0.19332696438E+03  0.10660103316E+03 0.  0.
        -24    2    1    2    0    0 -0.96357203841E+01  0.52880897267E+02 -0.11631781278E+02  0.97814434048E+02  0.80889608537E+02 0.  0.
         11    1    4    4    0    0  0.22216094620E+02  0.58325625831E+02 -0.17832733044E+02  0.64911014909E+02  0.00000000000E+00 0. -1.
        -12    1    4    4    0    0 -0.31851815004E+02 -0.54447285636E+01  0.62009517662E+01  0.32903419139E+02  0.00000000000E+00 0.  1.
        -11    1    3    3    0    0  0.13615435122E+02 -0.50183899689E+02 -0.12796111349E+02  0.53549456834E+02  0.00000000000E+00 0.  1.
         11    1    3    3    0    0  0.81752691628E+02 -0.40729286988E+02  0.10580819538E+03  0.13977750755E+03  0.00000000000E+00 0. -1.
         21    1    1    2  503  502 -0.13310867672E+02  0.27266885650E+02 -0.12123389009E+03  0.12497327057E+03  0.00000000000E+00 0. -1.
          2    1    1    2  501    0 -0.72421538693E+02  0.10765403761E+02  0.20146395456E+03  0.21435600801E+03  0.00000000000E+00 0. -1.
<scales pt_clust_5="13000.00000" pt_clust_6="13000.00000" pt_clust_7="13000.00000" pt_clust_8="13000.00000" pt_clust_9="30.34242" pt_clust_10="74.22596"></scales>
<clustering>
<clus scale="   30.342">  2  9  1 -1</clus>
<clus scale="   74.226">  2 10  1 -1</clus>
<clus scale="   80.890">  5  6 -1 -1</clus>
<clus scale="  106.601">  7  8 -1 -1</clus>
<clus scale="  121.606">  2  5  1 -1</clus>
<clus scale="   30.342">  2  5  1 -1</clus>
</clustering>
</event>
<event>
10    3  0.5078224E-005  0.2459887E+03  0.7546771E-02  0.1153063E+00
         21   -1    0    0  501  502  0.00000000000E+00  0.00000000000E+00  0.35222012064E+03  0.35222012064E+03  0.00000000000E+00 0. -1.
         -2   -1    0    0    0  501 -0.00000000000E+00 -0.00000000000E+00 -0.60410356186E+03  0.60410356186E+03  0.00000000000E+00 0.  1.
         23    2    1    2    0    0  0.35940102128E+02 -0.19443857630E+01 -0.23562038310E+03  0.25571739637E+03  0.92622623025E+02 0.  0.
        -24    2    1    2    0    0 -0.55942616883E+02 -0.70162290560E+02  0.29246222634E+02  0.13191318944E+03  0.92159777613E+02 0.  0.
         13    1    4    4    0    0 -0.78122319217E+02 -0.71897936053E+02  0.27011113337E+02  0.10955368644E+03  0.00000000000E+00 0. -1.
        -14    1    4    4    0    0  0.22179702334E+02  0.17356454937E+01  0.22351092962E+01  0.22359503002E+02  0.00000000000E+00 0.  1.
        -13    1    3    3    0    0  0.22713228995E+02 -0.41288805194E+02 -0.66028743019E+02  0.81119979724E+02  0.00000000000E+00 0. -1.
         13    1    3    3    0    0  0.13226873133E+02  0.39344419431E+02 -0.16959164008E+03  0.17459741665E+03  0.00000000000E+00 0.  1.
         21    1    1    2  503  502 -0.19213659694E+03  0.16553883939E+03  0.12324108248E+03  0.28197152984E+03  0.00000000000E+00 0. -1.
         -1    1    1    2    0  503  0.21213911170E+03 -0.93432163062E+02 -0.16875036323E+03  0.28672156685E+03  0.00000000000E+00 0.  1.
<scales pt_clust_5="13000.00000" pt_clust_6="13000.00000" pt_clust_7="13000.00000" pt_clust_8="13000.00000" pt_clust_9="245.98867" pt_clust_10="13000.00000"></scales>
<clustering>
<clus scale="   92.160">  5  6 -1 -1</clus>
<clus scale="   92.623">  7  8 -1 -1</clus>
<clus scale="   99.370">  2  7  1 -1</clus>
<clus scale="  126.631">  2  5  1 -1</clus>
<clus scale="  245.989">  1  9  2 -1</clus>
<clus scale="  245.989">  1  5  2 -1</clus>
</clustering>
</event>
<event>
10    3  0.5078224E-005  0.1486116E+03  0.7546771E-02  0.1204366E+00
         21   -1    0    0  501  502  0.00000000000E+00  0.00000000000E+00  0.15111637027E+03  0.15111637027E+03  0.00000000000E+00 0.  1.
          1   -1    0    0  503    0 -0.00000000000E+00 -0.00000000000E+00 -0.32213327239E+03  0.32213327239E+03  0.00000000000E+00 0. -1.
        -24    2    1    2    0    0  0.94293214131E+02 -0.41307087198E+02 -0.92925141977E+02  0.16058120967E+03  0.80955279039E+02 0.  0.
         23    2    1    2    0    0 -0.10607040425E+03  0.81305509273E+02 -0.13149775376E+03  0.20901796991E+03  0.92386882219E+02 0.  0.
         13    1    3    3    0    0  0.65371079475E+02 -0.51740501990E+02 -0.26656543279E+02  0.87527303611E+02  0.00000000000E+00 0. -1.
        -14    1    3    3    0    0  0.28922134656E+02  0.10433414792E+02 -0.66268598698E+02  0.73053906060E+02  0.00000000000E+00 0.  1.
        -11    1    4    4    0    0 -0.11626549121E+03  0.46033140603E+02 -0.93158879468E+02  0.15593361184E+03  0.00000000000E+00 0.  1.
         11    1    4    4    0    0  0.10195086954E+02  0.35272368670E+02 -0.38338874289E+02  0.53084358067E+02  0.00000000000E+00 0. -1.
         21    1    1    2  503  502  0.27156221379E+02 -0.10774085990E+02  0.62845157369E+02  0.69304077032E+02  0.00000000000E+00 0.  1.
          2    1    1    2  501    0 -0.15379031258E+02 -0.29224336086E+02 -0.94391637530E+01  0.34346386046E+02  0.00000000000E+00 0. -1.
<scales pt_clust_5="13000.00000" pt_clust_6="13000.00000" pt_clust_7="13000.00000" pt_clust_8="13000.00000" pt_clust_9="29.21543" pt_clust_10="32.84480"></scales>
<clustering>
<clus scale="   29.215">  1  9  2 -1</clus>
<clus scale="   32.845">  1 10  2 -1</clus>
<clus scale="   80.955">  5  6 -1 -1</clus>
<clus scale="   92.387">  7  8 -1 -1</clus>
<clus scale="  141.788">  2  5  1 -1</clus>
<clus scale="   29.215">  1  5  2 -1</clus>
</clustering>
</event>
<event>
10    3  0.5078224E-005  0.1102349E+03  0.7546771E-02  0.1263716E+00
         21   -1    0    0  501  502  0.00000000000E+00  0.00000000000E+00  0.72383615439E+02  0.72383615439E+02  0.00000000000E+00 0. -1.
          1   -1    0    0  503    0 -0.00000000000E+00 -0.00000000000E+00 -0.42213442959E+03  0.42213442959E+03  0.00000000000E+00 0. -1.
        -24    2    1    2    0    0 -0.48764977642E+02  0.47777047669E+02 -0.13165425998E+03  0.16858999009E+03  0.80181489511E+02 0.  0.
         23    2    1    2    0    0  0.29533216631E+02 -0.49822270073E+02 -0.43801675629E+02  0.11529564997E+03  0.89554623751E+02 0.  0.
         13    1    3    3    0    0 -0.35221758167E+02  0.34136367039E+02 -0.13946704043E+03  0.14784085758E+03  0.00000000000E+00 0. -1.
        -14    1    3    3    0    0 -0.13543219475E+02  0.13640680629E+02  0.78127804493E+01  0.20749132515E+02  0.00000000000E+00 0.  1.
        -11    1    4    4    0    0 -0.46072013010E+01 -0.38416123797E+02 -0.63427795883E+02  0.74297443846E+02  0.00000000000E+00 0.  1.
         11    1    4    4    0    0  0.34140417932E+02 -0.11406146276E+02  0.19626120255E+02  0.40998206128E+02  0.00000000000E+00 0. -1.
         21    1    1    2  503  502 -0.41945205077E+01 -0.29726666865E+02  0.18889581844E+01  0.30080506781E+02  0.00000000000E+00 0. -1.
          2    1    1    2  501    0  0.23426281519E+02  0.31771889270E+02 -0.17618383672E+03  0.18055189818E+03  0.00000000000E+00 0. -1.
<scales pt_clust_5="13000.00000" pt_clust_6="13000.00000" pt_clust_7="13000.00000" pt_clust_8="13000.00000" pt_clust_9="30.02114" pt_clust_10="38.45566"></scales>
<clustering>
<clus scale="   30.021">  1  9  2 -1</clus>
<clus scale="   38.456">  1 10  2 -1</clus>
<clus scale="   80.181">  5  6 -1 -1</clus>
<clus scale="   89.555">  7  8 -1 -1</clus>
<clus scale="  102.766">  2  5  1 -1</clus>
<clus scale="   30.021">  1  5  2 -1</clus>
</clustering>
</event>
<event>
10    3  0.5078224E-005  0.2008351E+03  0.7546771E-02  0.1174249E+00
         21   -1    0    0  503  502  0.00000000000E+00  0.00000000000E+00  0.18049409838E+03  0.18049409838E+03  0.00000000000E+00 0. -1.
          1   -1    0    0  502    0 -0.00000000000E+00 -0.00000000000E+00 -0.17403471974E+04  0.17403471974E+04  0.00000000000E+00 0. -1.
        -24    2    1    2    0    0 -0.12271627443E+01  0.51623776587E+02  0.34277620819E+02  0.10157697115E+03  0.80476117834E+02 0.  0.
         23    2    1    2    0    0 -0.10157623160E+02  0.13233289214E+03 -0.89914596342E+03  0.91355916427E+03  0.92258936898E+02 0.  0.
         11    1    3    3    0    0 -0.39438688301E+02  0.23705959149E+02  0.58860525076E+01  0.46389958484E+02  0.00000000000E+00 0. -1.
        -12    1    3    3    0    0  0.38211525557E+02  0.27917817438E+02  0.28391568311E+02  0.55187012666E+02  0.00000000000E+00 0.  1.
        -13    1    4    4    0    0  0.37846597036E+02  0.89939260614E+02 -0.54918851101E+03  0.55778979566E+03  0.00000000000E+00 0.  1.
         13    1    4    4    0    0 -0.48004220196E+02  0.42393631529E+02 -0.34995745240E+03  0.35576936861E+03  0.00000000000E+00 0. -1.
         21    1    1    2  503  501 -0.44123924906E+01  0.34417709411E+02  0.86991171211E+02  0.93656349477E+02  0.00000000000E+00 0. -1.
          2    1    1    2  501    0  0.15797178395E+02 -0.21837437814E+03 -0.78197592763E+03  0.81204881089E+03  0.00000000000E+00 0. -1.
<scales pt_clust_5="13000.00000" pt_clust_6="13000.00000" pt_clust_7="13000.00000" pt_clust_8="13000.00000" pt_clust_9="34.69939" pt_clust_10="178.39009"></scales>
<clustering>
<clus scale="   34.699">  1  9  2 -1</clus>
<clus scale="   80.476">  5  6 -1 -1</clus>
<clus scale="   92.259">  7  8 -1 -1</clus>
<clus scale="  111.854">  2  5  1 -1</clus>
<clus scale="  178.390">  1 10  2 -1</clus>
<clus scale="   34.699">  1  5  2 -1</clus>
</clustering>
</event>
<event>
10    3  0.5078224E-005  0.3356864E+03  0.7546771E-02  0.1068648E+00
         21   -1    0    0  501  502  0.00000000000E+00  0.00000000000E+00  0.64917253673E+03  0.64917253673E+03  0.00000000000E+00 0. -1.
          1   -1    0    0  503    0 -0.00000000000E+00 -0.00000000000E+00 -0.50793226104E+03  0.50793226104E+03  0.00000000000E+00 0. -1.
        -24    2    1    2    0    0  0.92845391691E+02 -0.13108925753E+03  0.39992274735E+03  0.43832356045E+03  0.79904190084E+02 0.  0.
         23    2    1    2    0    0  0.86031585563E+02 -0.72161467657E+02  0.15652245021E+03  0.21272946702E+03  0.90254294025E+02 0.  0.
         11    1    3    3    0    0  0.98389297226E+02 -0.99230337720E+02  0.26507880465E+03  0.29965628044E+03  0.00000000000E+00 0. -1.
        -12    1    3    3    0    0 -0.55439055354E+01 -0.31858919807E+02  0.13484394271E+03  0.13866728001E+03  0.00000000000E+00 0.  1.
        -11    1    4    4    0    0  0.68383363736E+02 -0.37317786796E+02  0.35593342092E+02  0.85649212772E+02  0.00000000000E+00 0. -1.
         11    1    4    4    0    0  0.17648221827E+02 -0.34843680861E+02  0.12092910812E+03  0.12708025425E+03  0.00000000000E+00 0.  1.
         21    1    1    2  503  502 -0.56770987118E+00  0.38180169419E+02 -0.22702544016E+02  0.44423565099E+02  0.00000000000E+00 0. -1.
          2    1    1    2  501    0 -0.17830926738E+03  0.16507055577E+03 -0.39250237786E+03  0.46162820520E+03  0.00000000000E+00 0. -1.
<scales pt_clust_5="13000.00000" pt_clust_6="13000.00000" pt_clust_7="13000.00000" pt_clust_8="13000.00000" pt_clust_9="38.18439" pt_clust_10="267.87025"></scales>
<clustering>
<clus scale="   38.184">  2  9  1 -1</clus>
<clus scale="   79.904">  5  6 -1 -1</clus>
<clus scale="   90.254">  7  8 -1 -1</clus>
<clus scale="  111.614">  5  7 -1 -1</clus>
<clus scale="  267.870">  1 10  2 -1</clus>
<clus scale="  267.870">  1  5  2 -1</clus>
</clustering>
</event>
<event>
10    3  0.5078224E-005  0.9134776E+02  0.7546771E-02  0.1306088E+00
          1   -1    0    0  502    0 -0.00000000000E+00  0.00000000000E+00  0.37280786500E+03  0.37280786500E+03  0.00000000000E+00 0. -1.
         21   -1    0    0  503  502  0.00000000000E+00 -0.00000000000E+00 -0.12122226872E+03  0.12122226872E+03  0.00000000000E+00 0.  1.
        -24    2    1    2    0    0 -0.12701939753E+02 -0.16142615037E+02  0.26443735682E+03  0.27690412008E+03  0.79541515856E+02 0.  0.
         23    2    1    2    0    0  0.14118502431E+02 -0.47913491366E+02 -0.36793648712E+01  0.10295043956E+03  0.89945653109E+02 0.  0.
         11    1    3    3    0    0 -0.41058583565E+02 -0.98353310382E+01  0.82639246452E+02  0.92799709456E+02  0.00000000000E+00 0. -1.
        -12    1    3    3    0    0  0.28356643813E+02 -0.63072839984E+01  0.18179811036E+03  0.18410441062E+03  0.00000000000E+00 0.  1.
        -11    1    4    4    0    0  0.40450753076E+02 -0.31688040209E+02  0.28131789442E+02  0.58581506416E+02  0.00000000000E+00 0. -1.
         11    1    4    4    0    0 -0.26332250646E+02 -0.16225451158E+02 -0.31811154313E+02  0.44368933141E+02  0.00000000000E+00 0.  1.
         21    1    1    2  503  501 -0.21278637865E+02  0.78157330723E+01 -0.40792343253E+02  0.46667776687E+02  0.00000000000E+00 0.  1.
          2    1    1    2  501    0  0.19862075187E+02  0.56240373331E+02  0.31619947587E+02  0.67507797390E+02  0.00000000000E+00 0. -1.
<scales pt_clust_5="13000.00000" pt_clust_6="13000.00000" pt_clust_7="13000.00000" pt_clust_8="13000.00000" pt_clust_9="22.66862" pt_clust_10="59.94057"></scales>
<clustering>
<clus scale="   22.669">  2  9  1 -1</clus>
<clus scale="   59.941">  2 10  1 -1</clus>
<clus scale="   79.542">  5  6 -1 -1</clus>
<clus scale="   81.124">  1  5  2 -1</clus>
<clus scale="   89.946">  7  8 -1 -1</clus>
<clus scale="   22.669">  2  5  1 -1</clus>
</clustering>
</event>
<event>
10    3  0.5078224E-005  0.1225901E+03  0.7546771E-02  0.1241711E+00
         21   -1    0    0  503  502  0.00000000000E+00  0.00000000000E+00  0.23919691316E+03  0.23919691316E+03  0.00000000000E+00 0.  1.
         -2   -1    0    0    0  501 -0.00000000000E+00 -0.00000000000E+00 -0.14122855485E+03  0.14122855485E+03  0.00000000000E+00 0.  1.
        -24    2    1    2    0    0  0.99573405965E+02 -0.40708377944E+02  0.76535656380E+02  0.15480180165E+03  0.80832270083E+02 0.  0.
         23    2    1    2    0    0 -0.53298239696E+02  0.28743230516E+02  0.64855208247E+02  0.12663380913E+03  0.90349587283E+02 0.  0.
         13    1    3    3    0    0 -0.72588708688E+01 -0.20358950976E+02  0.28862348479E+02  0.36058469891E+02  0.00000000000E+00 0. -1.
        -14    1    3    3    0    0  0.10683227683E+03 -0.20349426968E+02  0.47673307901E+02  0.11874333176E+03  0.00000000000E+00 0.  1.
        -13    1    4    4    0    0 -0.16881121831E+01  0.27955365248E+02 -0.14831183067E+02  0.31690947604E+02  0.00000000000E+00 0. -1.
         13    1    4    4    0    0 -0.51610127513E+02  0.78786526858E+00  0.79686391315E+02  0.94942861524E+02  0.00000000000E+00 0.  1.
         21    1    1    2  503  501 -0.37523775352E+02  0.31750379383E+02  0.14488476554E+01  0.49175394936E+02  0.00000000000E+00 0.  1.
         -1    1    1    2    0  502 -0.87513909169E+01 -0.19785231955E+02 -0.44871353976E+02  0.49814462299E+02  0.00000000000E+00 0.  1.
<scales pt_clust_5="13000.00000" pt_clust_6="13000.00000" pt_clust_7="13000.00000" pt_clust_8="13000.00000" pt_clust_9="48.55263" pt_clust_10="21.63429"></scales>
<clustering>
<clus scale="   21.634">  1 10  2 -1</clus>
<clus scale="   48.553">  2  9  1 -1</clus>
<clus scale="   80.832">  5  6 -1 -1</clus>
<clus scale="   90.350">  7  8 -1 -1</clus>
<clus scale="  115.755">  2  5  1 -1</clus>
<clus scale="   21.634">  1  5  2 -1</clus>
</clustering>
</event>
<event>
10    3  0.5078224E-005  0.1564752E+03  0.7546771E-02  0.1207038E+00
         21   -1    0    0  501  502  0.00000000000E+00  0.00000000000E+00  0.13371700348E+03  0.13371700348E+03  0.00000000000E+00 0.  1.
          1   -1    0    0  503    0 -0.00000000000E+00 -0.00000000000E+00 -0.47141662391E+03  0.47141662391E+03  0.00000000000E+00 0. -1.
         23    2    1    2    0    0 -0.68891696740E+02  0.93480244899E+00 -0.17507175440E+03  0.20882813866E+03  0.90620817532E+02 0.  0.
        -24    2    1    2    0    0 -0.55855910943E+02 -0.12257645218E+03 -0.33646353384E+02  0.16056925227E+03  0.80656917007E+02 0.  0.
         11    1    4    4    0    0 -0.35140949629E+02 -0.86900093579E+02 -0.60297283180E+02  0.11145525992E+03  0.00000000000E+00 0. -1.
        -12    1    4    4    0    0 -0.20714961314E+02 -0.35676358603E+02  0.26650929796E+02  0.49113992349E+02  0.00000000000E+00 0.  1.
        -11    1    3    3    0    0  0.84369874085E+01  0.22518391000E+02 -0.11584947470E+02  0.26692165473E+02  0.00000000000E+00 0. -1.
         11    1    3    3    0    0 -0.77328684148E+02 -0.21583588551E+02 -0.16348680693E+03  0.18213597318E+03  0.00000000000E+00 0.  1.
         21    1    1    2  503  502 -0.83830600234E+01  0.32476327215E+02 -0.67698948349E+01  0.34217232512E+02  0.00000000000E+00 0.  1.
          2    1    1    2  501    0  0.13313066771E+03  0.89165322518E+02 -0.12221161781E+03  0.20151900395E+03  0.00000000000E+00 0. -1.
<scales pt_clust_5="13000.00000" pt_clust_6="13000.00000" pt_clust_7="13000.00000" pt_clust_8="13000.00000" pt_clust_9="33.54083" pt_clust_10="134.08572"></scales>
<clustering>
<clus scale="   33.541">  1  9  2 -1</clus>
<clus scale="   80.657">  5  6 -1 -1</clus>
<clus scale="   90.621">  7  8 -1 -1</clus>
<clus scale="  114.684">  2  7  1 -1</clus>
<clus scale="  134.086">  1 10  2 -1</clus>
<clus scale="   33.541">  1  5  2 -1</clus>
</clustering>
</event>
<event>
10    3  0.5078224E-005  0.1828621E+03  0.7546771E-02  0.1165156E+00
          1   -1    0    0  503    0 -0.00000000000E+00  0.00000000000E+00  0.34121606529E+03  0.34121606529E+03  0.00000000000E+00 0. -1.
         21   -1    0    0  501  502  0.00000000000E+00 -0.00000000000E+00 -0.38302809159E+03  0.38302809159E+03  0.00000000000E+00 0.  1.
        -24    2    1    2    0    0  0.16199023549E+02  0.15300795529E+03  0.22920375813E+03  0.29048304225E+03  0.90400178894E+02 0.  0.
         23    2    1    2    0    0 -0.21855357103E+02 -0.17700253363E+03 -0.54783771942E+02  0.20767077486E+03  0.91204909501E+02 0.  0.
         13    1    3    3    0    0  0.40043050919E+02  0.32835975675E+02  0.41629195182E+02  0.66442735622E+02  0.00000000000E+00 0. -1.
        -14    1    3    3    0    0 -0.23844027370E+02  0.12017197962E+03  0.18757456295E+03  0.22404030662E+03  0.00000000000E+00 0.  1.
        -11    1    4    4    0    0  0.15267937236E+02 -0.37998108920E+02  0.19939872227E+02  0.45547389534E+02  0.00000000000E+00 0. -1.
         11    1    4    4    0    0 -0.37123294338E+02 -0.13900442471E+03 -0.74723644169E+02  0.16212338532E+03  0.00000000000E+00 0.  1.
         21    1    1    2  503  502 -0.18108468898E+02  0.18216237198E+02 -0.18318801559E+03  0.18497999081E+03  0.00000000000E+00 0.  1.
          2    1    1    2  501    0  0.23764802451E+02  0.57783411383E+01 -0.33043996898E+02  0.41110348974E+02  0.00000000000E+00 0. -1.
<scales pt_clust_5="13000.00000" pt_clust_6="13000.00000" pt_clust_7="13000.00000" pt_clust_8="13000.00000" pt_clust_9="21.98064" pt_clust_10="24.45721"></scales>
<clustering>
<clus scale="   24.457">  2 10  1 -1</clus>
<clus scale="   21.981">  2  9  1 -1</clus>
<clus scale="   90.400">  5  6 -1 -1</clus>
<clus scale="   91.205">  7  8 -1 -1</clus>
<clus scale="  182.462">  1  5  2 -1</clus>
<clus scale="   24.457">  2  5  1 -1</clus>
</clustering>
</event>
<event>
10    3  0.5078224E-005  0.2674517E+03  0.7546771E-02  0.1146866E+00
         21   -1    0    0  503  502  0.00000000000E+00  0.00000000000E+00  0.10479231925E+03  0.10479231925E+03  0.00000000000E+00 0.  1.
          1   -1    0    0  502    0 -0.00000000000E+00 -0.00000000000E+00 -0.17144923284E+04  0.17144923284E+04  0.00000000000E+00 0. -1.
        -24    2    1    2    0    0  0.38246821093E+02 -0.90903616901E+00 -0.25194044665E+03  0.26726395346E+03  0.80575346673E+02 0.  0.
         23    2    1    2    0    0 -0.27071009523E+03  0.78742324086E+02 -0.10430142622E+04  0.10845299073E+04  0.94032225699E+02 0.  0.
         11    1    3    3    0    0 -0.17665211996E+02 -0.18034925588E+02 -0.12469982395E+03  0.12722957341E+03  0.00000000000E+00 0. -1.
        -12    1    3    3    0    0  0.55912033090E+02  0.17125889419E+02 -0.12724062270E+03  0.14003438005E+03  0.00000000000E+00 0.  1.
        -11    1    4    4    0    0 -0.22881599379E+03  0.92970853697E+02 -0.79103622320E+03  0.82869695611E+03  0.00000000000E+00 0.  1.
         11    1    4    4    0    0 -0.41894101445E+02 -0.14228529611E+02 -0.25197803896E+03  0.25583295118E+03  0.00000000000E+00 0. -1.
         21    1    1    2  503  501  0.48248750104E+01 -0.27651217933E+02  0.36431419658E+02  0.45990407808E+02  0.00000000000E+00 0.  1.
          2    1    1    2  501    0  0.22763839913E+03 -0.50182069984E+02 -0.35117672002E+03  0.42150037911E+03  0.00000000000E+00 0. -1.
<scales pt_clust_5="13000.00000" pt_clust_6="13000.00000" pt_clust_7="13000.00000" pt_clust_8="13000.00000" pt_clust_9="28.06901" pt_clust_10="250.37641"></scales>
<clustering>
<clus scale="   28.069">  1  9  2 -1</clus>
<clus scale="   80.575">  5  6 -1 -1</clus>
<clus scale="   89.543">  2  5  1 -1</clus>
<clus scale="   94.032">  7  8 -1 -1</clus>
<clus scale="  250.376">  1 10  2 -1</clus>
<clus scale="   28.069">  1  5  2 -1</clus>
</clustering>
</event>
<event>
10    3  0.5078224E-005  0.1902041E+03  0.7546771E-02  0.1159052E+00
         -4   -1    0    0    0  501 -0.00000000000E+00  0.00000000000E+00  0.71020181253E+03  0.71020181253E+03  0.00000000000E+00 0.  1.
         21   -1    0    0  503  502  0.00000000000E+00 -0.00000000000E+00 -0.97316868783E+02  0.97316868783E+02  0.00000000000E+00 0.  1.
         23    2    1    2    0    0 -0.71245514957E+02 -0.13735494054E+03  0.33922446346E+03  0.38338571059E+03  0.89269610607E+02 0.  0.
        -24    2    1    2    0    0  0.83730938139E+02  0.17063969785E+03  0.25315587816E+03  0.32695655873E+03  0.81755221036E+02 0.  0.
         13    1    4    4    0    0  0.51920207870E+02  0.25311716522E+02  0.62089921280E+02  0.84803002913E+02  0.00000000000E+00 0. -1.
        -14    1    4    4    0    0  0.31810730269E+02  0.14532798133E+03  0.19106595688E+03  0.24215355582E+03  0.00000000000E+00 0.  1.
        -11    1    3    3    0    0 -0.81407407435E+02 -0.11792336933E+03  0.22271221818E+03  0.26482790478E+03  0.00000000000E+00 0.  1.
         11    1    3    3    0    0  0.10161892478E+02 -0.19431571206E+02  0.11651224528E+03  0.11855780581E+03  0.00000000000E+00 0. -1.
         21    1    1    2  503  501 -0.36883149917E+02 -0.38663042009E+02 -0.13373753872E+02  0.55082255381E+02  0.00000000000E+00 0.  1.
         -3    1    1    2    0  502  0.24397726735E+02  0.53782847022E+01  0.33878356000E+02  0.42094156619E+02  0.00000000000E+00 0.  1.
<scales pt_clust_5="13000.00000" pt_clust_6="13000.00000" pt_clust_7="13000.00000" pt_clust_8="13000.00000" pt_clust_9="46.10591" pt_clust_10="24.98351"></scales>
<clustering>
<clus scale="   24.984">  2 10  1 -1</clus>
<clus scale="   46.106">  2  9  1 -1</clus>
<clus scale="   81.755">  5  6 -1 -1</clus>
<clus scale="   89.270">  7  8 -1 -1</clus>
<clus scale="  186.795">  2  5  1 -1</clus>
<clus scale="   24.984">  2  5  1 -1</clus>
</clustering>
</event>
<event>
10    3  0.5078224E-005  0.1339485E+03  0.7546771E-02  0.1224499E+00
         21   -1    0    0  501  502  0.00000000000E+00  0.00000000000E+00  0.40335570961E+03  0.40335570961E+03  0.00000000000E+00 0. -1.
          1   -1    0    0  503    0 -0.00000000000E+00 -0.00000000000E+00 -0.12307434919E+03  0.12307434919E+03  0.00000000000E+00 0. -1.
         23    2    1    2    0    0  0.34145681864E+02  0.35730480749E+02  0.73514409097E+02  0.12777576237E+03  0.92085190232E+02 0.  0.
        -24    2    1    2    0    0 -0.46058727146E+02 -0.14615441747E+03  0.40279961879E+02  0.17779883279E+03  0.80668640260E+02 0.  0.
         11    1    4    4    0    0 -0.27982396210E+02 -0.13469635010E+03  0.58689996580E+02  0.14956816816E+03  0.00000000000E+00 0. -1.
        -12    1    4    4    0    0 -0.18076330937E+02 -0.11458067370E+02 -0.18410034701E+02  0.28230664634E+02  0.00000000000E+00 0.  1.
        -11    1    3    3    0    0  0.39370437744E+01  0.61461761705E+02  0.59656807242E+02  0.85743705984E+02  0.00000000000E+00 0.  1.
         11    1    3    3    0    0  0.30208638090E+02 -0.25731280956E+02  0.13857601855E+02  0.42032056386E+02  0.00000000000E+00 0. -1.
         21    1    1    2  503  502  0.12498271458E+02  0.18787651945E+02  0.11198230179E+03  0.11423317631E+03  0.00000000000E+00 0. -1.
          2    1    1    2  501    0 -0.58522617573E+00  0.91636284776E+02  0.54504687658E+02  0.10662228732E+03  0.00000000000E+00 0. -1.
<scales pt_clust_5="13000.00000" pt_clust_6="13000.00000" pt_clust_7="13000.00000" pt_clust_8="13000.00000" pt_clust_9="22.56508" pt_clust_10="96.89406"></scales>
<clustering>
<clus scale="   22.565">  1  9  2 -1</clus>
<clus scale="   80.669">  5  6 -1 -1</clus>
<clus scale="   92.085">  7  8 -1 -1</clus>
<clus scale="   96.894">  1 10  2 -1</clus>
<clus scale="  126.372">  1  5  2 -1</clus>
<clus scale="   22.565">  1  5  2 -1</clus>
</clustering>
</event>
<event>
10    3  0.5078224E-005  0.1089908E+03  0.7546771E-02  0.1266147E+00
         21   -1    0    0  503  502  0.00000000000E+00  0.00000000000E+00  0.90660163846E+02  0.90660163846E+02  0.00000000000E+00 0. -1.
          1   -1    0    0  502    0 -0.00000000000E+00 -0.00000000000E+00 -0.49217988831E+03  0.49217988831E+03  0.00000000000E+00 0. -1.
         23    2    1    2    0    0 -0.91154658280E+02  0.11867401157E+02 -0.34755128471E+03  0.37050382943E+03  0.89616880004E+02 0.  0.
        -24    2    1    2    0    0  0.26913573206E+01 -0.12680992926E+02 -0.53022592821E+02  0.97027288119E+02  0.80217506222E+02 0.  0.
         13    1    4    4    0    0 -0.22543143726E+02 -0.17668492563E+02  0.88849344640E+01  0.29988514784E+02  0.00000000000E+00 0. -1.
        -14    1    4    4    0    0  0.25234501047E+02  0.49874996372E+01 -0.61907527285E+02  0.67038773336E+02  0.00000000000E+00 0.  1.
        -13    1    3    3    0    0 -0.88744562451E+02 -0.21158373977E+02 -0.20889353475E+03  0.22794688639E+03  0.00000000000E+00 0. -1.
         13    1    3    3    0    0 -0.24100958291E+01  0.33025775133E+02 -0.13865774996E+03  0.14255694304E+03  0.00000000000E+00 0.  1.
         21    1    1    2  503  501  0.24645561180E+02 -0.18797119640E+02  0.28716075805E+02  0.42253383323E+02  0.00000000000E+00 0. -1.
          2    1    1    2  501    0  0.63817739779E+02  0.19610711409E+02 -0.29661922732E+02  0.73055551279E+02  0.00000000000E+00 0. -1.
<scales pt_clust_5="13000.00000" pt_clust_6="13000.00000" pt_clust_7="13000.00000" pt_clust_8="13000.00000" pt_clust_9="30.99573" pt_clust_10="74.51783"></scales>
<clustering>
<clus scale="   30.996">  1  9  2 -1</clus>
<clus scale="   74.518">  1 10  2 -1</clus>
<clus scale="   80.218">  5  6 -1 -1</clus>
<clus scale="   89.617">  7  8 -1 -1</clus>
<clus scale="  101.403">  1  5  2 -1</clus>
<clus scale="   30.996">  1  5  2 -1</clus>
</clustering>
</event>
<event>
10    3  0.5078224E-005  0.1700318E+03  0.7546771E-02  0.1179559E+00
         21   -1    0    0  501  502  0.00000000000E+00  0.00000000000E+00  0.13288679287E+03  0.13288679287E+03  0.00000000000E+00 0. -1.
          1   -1    0    0  503    0 -0.00000000000E+00 -0.00000000000E+00 -0.12615451333E+04  0.12615451333E+04  0.00000000000E+00 0. -1.
        -24    2    1    2    0    0  0.16481783535E+03 -0.34383082105E+01 -0.11149043867E+04  0.11299090659E+04  0.80659562524E+02 0.  0.
         23    2    1    2    0    0 -0.44651991964E+02  0.27141029932E+02 -0.57374342655E+02  0.12129871164E+03  0.93226210687E+02 0.  0.
         13    1    3    3    0    0  0.15661833064E+03  0.14761118728E+02 -0.86343455585E+03  0.87764823498E+03  0.00000000000E+00 0. -1.
        -14    1    3    3    0    0  0.81995047149E+01 -0.18199426939E+02 -0.25146983083E+03  0.25226083096E+03  0.00000000000E+00 0.  1.
        -11    1    4    4    0    0 -0.13798113826E+02 -0.34907464570E+02 -0.18583923937E+02  0.41884140874E+02  0.00000000000E+00 0.  1.
         11    1    4    4    0    0 -0.30853878138E+02  0.62048494502E+02 -0.38790418718E+02  0.79414570769E+02  0.00000000000E+00 0. -1.
         21    1    1    2  503  502 -0.85688931920E+02 -0.14519462353E+02  0.51440866641E-01  0.86910358916E+02  0.00000000000E+00 0.  1.
          2    1    1    2  501    0 -0.34476911466E+02 -0.91832593684E+01  0.43568948024E+02  0.56313789686E+02  0.00000000000E+00 0. -1.
<scales pt_clust_5="13000.00000" pt_clust_6="13000.00000" pt_clust_7="13000.00000" pt_clust_8="13000.00000" pt_clust_9="105.54789" pt_clust_10="35.67898"></scales>
<clustering>
<clus scale="   35.679">  1 10  2 -1</clus>
<clus scale="   80.660">  5  6 -1 -1</clus>
<clus scale="   93.226">  7  8 -1 -1</clus>
<clus scale="  105.548">  1  9  2 -1</clus>
<clus scale="  163.480">  2  5  1 -1</clus>
<clus scale="   35.679">  1  5  2 -1</clus>
</clustering>
</event>
<event>
10    3  0.5078224E-005  0.1269756E+03  0.7546771E-02  0.1235159E+00
         21   -1    0    0  503  502  0.00000000000E+00  0.00000000000E+00  0.43648357875E+02  0.43648357875E+02  0.00000000000E+00 0. -1.
          1   -1    0    0  502    0 -0.00000000000E+00 -0.00000000000E+00 -0.84295502690E+03  0.84295502690E+03  0.00000000000E+00 0. -1.
         23    2    1    2    0    0  0.77135496667E+02  0.26528117558E+01 -0.31953383288E+03  0.34128799709E+03  0.91753497748E+02 0.  0.
        -24    2    1    2    0    0 -0.10278067139E+03 -0.35636395776E+02 -0.22422756842E+03  0.26187268539E+03  0.80408219717E+02 0.  0.
         11    1    4    4    0    0 -0.10385715190E+03 -0.50931834869E+02 -0.21453533029E+03  0.24373298453E+03  0.00000000000E+00 0. -1.
        -12    1    4    4    0    0  0.10764805082E+01  0.15295439093E+02 -0.96922381239E+01  0.18139700857E+02  0.00000000000E+00 0.  1.
        -13    1    3    3    0    0  0.87786639919E+02 -0.20723796056E+02 -0.20596500640E+03  0.22485006945E+03  0.00000000000E+00 0.  1.
         13    1    3    3    0    0 -0.10651143252E+02  0.23376607812E+02 -0.11356882648E+03  0.11643792764E+03  0.00000000000E+00 0. -1.
         21    1    1    2  503  501 -0.43515365804E+02  0.30722810402E+02 -0.10407657535E+03  0.11691625925E+03  0.00000000000E+00 0. -1.
          2    1    1    2  501    0  0.69160540526E+02  0.22607736183E+01 -0.15146869238E+03  0.16652644304E+03  0.00000000000E+00 0. -1.
<scales pt_clust_5="13000.00000" pt_clust_6="13000.00000" pt_clust_7="13000.00000" pt_clust_8="13000.00000" pt_clust_9="53.26798" pt_clust_10="60.95218"></scales>
<clustering>
<clus scale="   53.268">  1  9  2 -1</clus>
<clus scale="   60.952">  1 10  2 -1</clus>
<clus scale="   80.408">  5  6 -1 -1</clus>
<clus scale="   91.753">  7  8 -1 -1</clus>
<clus scale="  119.036">  1  5  2 -1</clus>
<clus scale="   53.268">  1  5  2 -1</clus>
</clustering>
</event>
<event>
10    3  0.6467521E-005  0.2076592E+03  0.7546771E-02  0.1172654E+00
          1   -1    0    0  502    0 -0.00000000000E+00  0.00000000000E+00  0.45718781915E+03  0.45718781915E+03  0.00000000000E+00 0. -1.
         21   -1    0    0  503  502  0.00000000000E+00 -0.00000000000E+00 -0.16355527670E+03  0.16355527670E+03  0.00000000000E+00 0. -1.
        -24    2    1    2    0    0 -0.99541006763E+01  0.74440574047E+02  0.52839859321E+02  0.12018963715E+03  0.77543632623E+02 0.  0.
         23    2    1    2    0    0  0.42800068563E+02 -0.19556444507E+03  0.32461580118E+02  0.22323039989E+03  0.93277860218E+02 0.  0.
         13    1    3    3    0    0 -0.27267912916E+02  0.14169549803E+02  0.48390711761E+02  0.57323435008E+02  0.00000000000E+00 0. -1.
        -14    1    3    3    0    0  0.17313812240E+02  0.60271024244E+02  0.44491475604E+01  0.62866202142E+02  0.00000000000E+00 0.  1.
        -11    1    4    4    0    0  0.56682199452E+02 -0.17014263428E+03 -0.51831960087E+00  0.17933671233E+03  0.00000000000E+00 0. -1.
         11    1    4    4    0    0 -0.13882130888E+02 -0.25421810782E+02  0.32979899719E+02  0.43893687552E+02  0.00000000000E+00 0.  1.
         21    1    1    2  503  501  0.12279636546E+02 -0.18699654461E+02 -0.28079425474E-01  0.22371127355E+02  0.00000000000E+00 0. -1.
          2    1    1    2  501    0 -0.45125604433E+02  0.13982352548E+03  0.20835918243E+03  0.25495193146E+03  0.00000000000E+00 0. -1.
<scales pt_clust_5="13000.00000" pt_clust_6="13000.00000" pt_clust_7="13000.00000" pt_clust_8="13000.00000" pt_clust_9="22.37111" pt_clust_10="185.53064"></scales>
<clustering>
<clus scale="   22.371">  2  9  1 -1</clus>
<clus scale="   77.544">  5  6 -1 -1</clus>
<clus scale="   93.278">  7  8 -1 -1</clus>
<clus scale="  104.922">  1  5  2 -1</clus>
<clus scale="  185.531">  2 10  1 -1</clus>
<clus scale="   22.371">  2  5  1 -1</clus>
</clustering>
</event>
<event>
10    3  0.5078224E-005  0.1573183E+03  0.7546771E-02  0.1223330E+00
          1   -1    0    0  503    0 -0.00000000000E+00  0.00000000000E+00  0.14038083299E+03  0.14038083299E+03  0.00000000000E+00 0. -1.
         21   -1    0    0  501  502  0.00000000000E+00 -0.00000000000E+00 -0.12262811876E+04  0.12262811876E+04  0.00000000000E+00 0. -1.
        -24    2    1    2    0    0 -0.18939077285E+02  0.10614253507E+02 -0.11800269141E+03  0.14252636572E+03  0.76927100023E+02 0.  0.
         23    2    1    2    0    0 -0.13035366442E+01  0.65291867107E+02  0.57481207980E+02  0.12636726446E+03  0.91650799986E+02 0.  0.
         13    1    3    3    0    0 -0.47909320082E+02 -0.20320328704E+01 -0.77707763451E+02  0.91312258810E+02  0.00000000000E+00 0. -1.
        -14    1    3    3    0    0  0.28970242797E+02  0.12646286378E+02 -0.40294927963E+02  0.51214106909E+02  0.00000000000E+00 0.  1.
        -13    1    4    4    0    0  0.83786123436E+01  0.20577578131E+02 -0.24133907806E+02  0.32803709737E+02  0.00000000000E+00 0.  1.
         13    1    4    4    0    0 -0.96821489878E+01  0.44714288976E+02  0.81615115785E+02  0.93563554722E+02  0.00000000000E+00 0. -1.
         21    1    1    2  503  502 -0.11677775596E+03  0.84239636960E+02 -0.66387846972E+03  0.67931434791E+03  0.00000000000E+00 0. -1.
          2    1    1    2  501    0  0.13702036989E+03 -0.16014575757E+03 -0.36150040149E+03  0.41845404253E+03  0.00000000000E+00 0. -1.
<scales pt_clust_5="13000.00000" pt_clust_6="13000.00000" pt_clust_7="13000.00000" pt_clust_8="13000.00000" pt_clust_9="157.31831" pt_clust_10="13000.00000"></scales>
<clustering>
<clus scale="   76.927">  5  6 -1 -1</clus>
<clus scale="   79.932">  1  5  2 -1</clus>
<clus scale="   91.651">  7  8 -1 -1</clus>
<clus scale="  118.056">  1  7  2 -1</clus>
<clus scale="  157.318">  2  9  1 -1</clus>
<clus scale="  157.318">  2  5  1 -1</clus>
</clustering>
</event>
<event>
10    3  0.5078224E-005  0.2602694E+03  0.7546771E-02  0.1107455E+00
          1   -1    0    0  502    0 -0.00000000000E+00  0.00000000000E+00  0.71951478952E+03  0.71951478952E+03  0.00000000000E+00 0. -1.
         21   -1    0    0  503  502  0.00000000000E+00 -0.00000000000E+00 -0.33037543675E+03  0.33037543675E+03  0.00000000000E+00 0. -1.
         23    2    1    2    0    0 -0.17318552310E+03  0.18197820588E+03  0.61281608504E+03  0.66845205060E+03  0.90417349244E+02 0.  0.
        -24    2    1    2    0    0  0.15098389971E+03 -0.10869579827E+03 -0.19361524140E+03  0.28044831206E+03  0.80953563844E+02 0.  0.
         11    1    4    4    0    0  0.47161675900E+02 -0.19826766107E+02 -0.10712973503E+03  0.11871859355E+03  0.00000000000E+00 0. -1.
        -12    1    4    4    0    0  0.10382222381E+03 -0.88869032166E+02 -0.86485506374E+02  0.16172971850E+03  0.00000000000E+00 0.  1.
        -13    1    3    3    0    0 -0.48331431714E+02  0.64216030602E+02  0.10379117710E+03  0.13127160517E+03  0.00000000000E+00 0.  1.
         13    1    3    3    0    0 -0.12485409139E+03  0.11776217528E+03  0.50902490793E+03  0.53718044543E+03  0.00000000000E+00 0. -1.
         21    1    1    2  503  501 -0.15712060208E+02 -0.15429374673E+02 -0.22376185473E+02  0.31394714764E+02  0.00000000000E+00 0. -1.
          2    1    1    2  501    0  0.37913683601E+02 -0.57853032935E+02 -0.76853053895E+01  0.69595148846E+02  0.00000000000E+00 0. -1.
<scales pt_clust_5="13000.00000" pt_clust_6="13000.00000" pt_clust_7="13000.00000" pt_clust_8="13000.00000" pt_clust_9="22.02123" pt_clust_10="69.77029"></scales>
<clustering>
<clus scale="   22.021">  2  9  1 -1</clus>
<clus scale="   69.770">  2 10  1 -1</clus>
<clus scale="   80.954">  5  6 -1 -1</clus>
<clus scale="   90.417">  7  8 -1 -1</clus>
<clus scale="  257.135">  2  5  1 -1</clus>
<clus scale="   22.021">  2  5  1 -1</clus>
</clustering>
</event>
<event>
10    3  0.5078224E-005  0.1024946E+03  0.7546771E-02  0.1281159E+00
          1   -1    0    0  503    0 -0.00000000000E+00  0.00000000000E+00  0.34913973754E+03  0.34913973754E+03  0.00000000000E+00 0. -1.
         21   -1    0    0  501  502  0.00000000000E+00 -0.00000000000E+00 -0.61034765152E+02  0.61034765152E+02  0.00000000000E+00 0.  1.
         23    2    1    2    0    0 -0.20453365818E+02 -0.33169245699E+02  0.15686452743E+03  0.18692292973E+03  0.93889097654E+02 0.  0.
        -24    2    1    2    0    0  0.17525334854E+02  0.39559559518E+02  0.13967354740E+03  0.16744599097E+03  0.81592670858E+02 0.  0.
         11    1    4    4    0    0 -0.24477547981E+02  0.71278204456E+01  0.94111349130E+02  0.97503344632E+02  0.00000000000E+00 0. -1.
        -12    1    4    4    0    0  0.42002882834E+02  0.32431739072E+02  0.45562198273E+02  0.69942646340E+02  0.00000000000E+00 0.  1.
        -13    1    3    3    0    0 -0.27023756671E+02  0.23590805266E+02  0.26539857490E+02  0.44622567758E+02  0.00000000000E+00 0.  1.
         13    1    3    3    0    0  0.65703908528E+01 -0.56760050966E+02  0.13032466994E+03  0.14230036197E+03  0.00000000000E+00 0. -1.
         21    1    1    2  503  502 -0.77744454711E+01  0.22273013894E+02 -0.88780147458E+01  0.25206116245E+02  0.00000000000E+00 0.  1.
          2    1    1    2  501    0  0.10702476435E+02 -0.28663327713E+02  0.44491230583E+00  0.30599465753E+02  0.00000000000E+00 0. -1.
<scales pt_clust_5="13000.00000" pt_clust_6="13000.00000" pt_clust_7="13000.00000" pt_clust_8="13000.00000" pt_clust_9="23.59087" pt_clust_10="22.51366"></scales>
<clustering>
<clus scale="   23.591">  2  9  1 -1</clus>
<clus scale="   22.514">  2 10  1 -1</clus>
<clus scale="   81.593">  5  6 -1 -1</clus>
<clus scale="   91.364">  2  5  1 -1</clus>
<clus scale="   93.889">  7  8 -1 -1</clus>
<clus scale="   23.591">  2  5  1 -1</clus>
</clustering>
</event>
<event>
10    3  0.5078224E-005  0.1194784E+03  0.7546771E-02  0.1247244E+00
         21   -1    0    0  503  502  0.00000000000E+00  0.00000000000E+00  0.98402048504E+02  0.98402048504E+02  0.00000000000E+00 0.  1.
          1   -1    0    0  502    0 -0.00000000000E+00 -0.00000000000E+00 -0.37010057756E+03  0.37010057756E+03  0.00000000000E+00 0. -1.
        -24    2    1    2    0    0 -0.66973189207E+02 -0.27988865031E+02 -0.20646159076E+03  0.23343053076E+03  0.81207386339E+02 0.  0.
         23    2    1    2    0    0  0.55776630223E+02  0.87450466299E+02 -0.67906479884E+02  0.15405215873E+03  0.91444852579E+02 0.  0.
         13    1    3    3    0    0 -0.84189134025E+02 -0.16281491739E+02 -0.18280529557E+03  0.20191749144E+03  0.00000000000E+00 0. -1.
        -14    1    3    3    0    0  0.17215944818E+02 -0.11707373292E+02 -0.23656295185E+02  0.31513039321E+02  0.00000000000E+00 0.  1.
        -13    1    4    4    0    0  0.67262093460E+02  0.26726643834E+02 -0.55036299771E+02  0.90925777422E+02  0.00000000000E+00 0. -1.
         13    1    4    4    0    0 -0.11485463237E+02  0.60723822465E+02 -0.12870180113E+02  0.63126381305E+02  0.00000000000E+00 0.  1.
         21    1    1    2  503  501 -0.98556222811E+01 -0.18216514493E+02  0.22556542736E+02  0.30623068282E+02  0.00000000000E+00 0. -1.
          2    1    1    2  501    0  0.21052181265E+02 -0.41245086775E+02 -0.19887001153E+02  0.50396868296E+02  0.00000000000E+00 0. -1.
<scales pt_clust_5="13000.00000" pt_clust_6="13000.00000" pt_clust_7="13000.00000" pt_clust_8="13000.00000" pt_clust_9="20.71170" pt_clust_10="48.93640"></scales>
<clustering>
<clus scale="   20.712">  1  9  2 -1</clus>
<clus scale="   48.936">  1 10  2 -1</clus>
<clus scale="   81.207">  5  6 -1 -1</clus>
<clus scale="   91.445">  7  8 -1 -1</clus>
<clus scale="  111.837">  2  5  1 -1</clus>
<clus scale="   20.712">  1  5  2 -1</clus>
</clustering>
</event>
<event>
10    3  0.5078224E-005  0.3665957E+03  0.7546771E-02  0.1090790E+00
          1   -1    0    0  502    0 -0.00000000000E+00  0.00000000000E+00  0.14838858335E+04  0.14838858335E+04  0.00000000000E+00 0. -1.
         21   -1    0    0  503  502  0.00000000000E+00 -0.00000000000E+00 -0.16507825273E+03  0.16507825273E+03  0.00000000000E+00 0. -1.
        -24    2    1    2    0    0  0.10638822129E+03 -0.35747203962E+02  0.37437997807E+03  0.39921707456E+03  0.81348561257E+02 0.  0.
         23    2    1    2    0    0 -0.43058212383E+03  0.78855404522E+02  0.47084456489E+03  0.64914018118E+03  0.89828894868E+02 0.  0.
         11    1    3    3    0    0  0.70054850101E+02 -0.61886021651E+02  0.23896077322E+03  0.25659269833E+03  0.00000000000E+00 0. -1.
        -12    1    3    3    0    0  0.36333371192E+02  0.26138817689E+02  0.13541920486E+03  0.14262437624E+03  0.00000000000E+00 0.  1.
        -11    1    4    4    0    0 -0.58614542285E+02 -0.12864926006E+02  0.37658336438E+02  0.70847167845E+02  0.00000000000E+00 0.  1.
         11    1    4    4    0    0 -0.37196758154E+03  0.91720330527E+02  0.43318622845E+03  0.57829301333E+03  0.00000000000E+00 0. -1.
         21    1    1    2  503  501  0.43049716452E+02 -0.14721035430E+02 -0.40176236346E+01  0.45674153198E+02  0.00000000000E+00 0.  1.
          2    1    1    2  501    0  0.28114418608E+03 -0.28387165129E+02  0.47760066140E+03  0.55493267725E+03  0.00000000000E+00 0. -1.
<scales pt_clust_5="13000.00000" pt_clust_6="13000.00000" pt_clust_7="13000.00000" pt_clust_8="13000.00000" pt_clust_9="45.49711" pt_clust_10="355.41992"></scales>
<clustering>
<clus scale="   45.497">  2  9  1 -1</clus>
<clus scale="   81.349">  5  6 -1 -1</clus>
<clus scale="   89.829">  7  8 -1 -1</clus>
<clus scale="  141.896">  1  5  2 -1</clus>
<clus scale="  355.420">  2 10  1 -1</clus>
<clus scale="   45.497">  2  5  1 -1</clus>
</clustering>
</event>
<event>
10    3  0.5078224E-005  0.2145956E+03  0.7546771E-02  0.1138443E+00
         21   -1    0    0  501  502  0.00000000000E+00  0.00000000000E+00  0.50352435353E+03  0.50352435353E+03  0.00000000000E+00 0. -1.
          3   -1    0    0  503    0 -0.00000000000E+00 -0.00000000000E+00 -0.66618254612E+03  0.66618254612E+03  0.00000000000E+00 0. -1.
         23    2    1    2    0    0 -0.13265248570E+03 -0.15806684942E+03 -0.60779531196E+03  0.64781660493E+03  0.87575119438E+02 0.  0.
        -24    2    1    2    0    0  0.78077442433E+02  0.80930514100E+02  0.13038334882E+03  0.19049923108E+03  0.81512601881E+02 0.  0.
         11    1    4    4    0    0  0.24708779332E+02  0.44399254610E+01  0.81332717495E+02  0.85119020491E+02  0.00000000000E+00 0. -1.
        -12    1    4    4    0    0  0.53368663101E+02  0.76490588639E+02  0.49050631321E+02  0.10538021059E+03  0.00000000000E+00 0.  1.
        -13    1    3    3    0    0 -0.28375615921E+02 -0.25708521065E+02 -0.39273253918E+02  0.54849722949E+02  0.00000000000E+00 0.  1.
         13    1    3    3    0    0 -0.10427686978E+03 -0.13235832836E+03 -0.56852205804E+03  0.59296688199E+03  0.00000000000E+00 0. -1.
         21    1    1    2  503  502  0.11624262757E+02  0.22203618614E+02  0.15596753084E+03  0.15796833493E+03  0.00000000000E+00 0. -1.
          4    1    1    2  501    0  0.42950780510E+02  0.54932716711E+02  0.15878623972E+03  0.17342272871E+03  0.00000000000E+00 0. -1.
<scales pt_clust_5="13000.00000" pt_clust_6="13000.00000" pt_clust_7="13000.00000" pt_clust_8="13000.00000" pt_clust_9="25.06241" pt_clust_10="81.57501"></scales>
<clustering>
<clus scale="   25.062">  1  9  2 -1</clus>
<clus scale="   81.513">  5  6 -1 -1</clus>
<clus scale="   81.575">  1 10  2 -1</clus>
<clus scale="   87.575">  7  8 -1 -1</clus>
<clus scale="  212.194">  1  5  2 -1</clus>
<clus scale="   25.062">  1  5  2 -1</clus>
</clustering>
</event>
<event>
10    3  0.5078224E-005  0.1316962E+03  0.7546771E-02  0.1230726E+00
         21   -1    0    0  503  502  0.00000000000E+00  0.00000000000E+00  0.61467040165E+03  0.61467040165E+03  0.00000000000E+00 0.  1.
         -4   -1    0    0    0  501 -0.00000000000E+00 -0.00000000000E+00 -0.32958627416E+03  0.32958627416E+03  0.00000000000E+00 0.  1.
        -24    2    1    2    0    0 -0.84263452833E+02  0.52722212039E+01 -0.23723233397E+03  0.26419864505E+03  0.79960102357E+02 0.  0.
         23    2    1    2    0    0 -0.53830290135E+02 -0.50302037267E+02  0.37775881884E+03  0.39559073044E+03  0.91445643446E+02 0.  0.
         13    1    3    3    0    0 -0.12919018189E+02 -0.31620299939E+02 -0.50970655614E+02  0.61357576003E+02  0.00000000000E+00 0. -1.
        -14    1    3    3    0    0 -0.71344434644E+02  0.36892521143E+02 -0.18626167835E+03  0.20284106905E+03  0.00000000000E+00 0.  1.
        -11    1    4    4    0    0 -0.40046723022E+02 -0.70739836024E+02  0.34581743455E+03  0.35524296258E+03  0.00000000000E+00 0.  1.
         11    1    4    4    0    0 -0.13783567113E+02  0.20437798756E+02  0.31941384292E+02  0.40347767855E+02  0.00000000000E+00 0. -1.
         21    1    1    2  503  501 -0.28248382842E+02  0.26569792994E+02  0.10578797559E+03  0.11267218296E+03  0.00000000000E+00 0.  1.
         -3    1    1    2    0  502  0.16634212581E+03  0.18460023070E+02  0.38769667025E+02  0.17179511737E+03  0.00000000000E+00 0.  1.
<scales pt_clust_5="13000.00000" pt_clust_6="13000.00000" pt_clust_7="13000.00000" pt_clust_8="13000.00000" pt_clust_9="38.78047" pt_clust_10="94.77120"></scales>
<clustering>
<clus scale="   38.780">  1  9  2 -1</clus>
<clus scale="   79.960">  5  6 -1 -1</clus>
<clus scale="   91.446">  7  8 -1 -1</clus>
<clus scale="  116.864">  2  5  1 -1</clus>
<clus scale="   94.771">  1 10  2 -1</clus>
<clus scale="   38.780">  1  5  2 -1</clus>
</clustering>
</event>
<event>
10    3  0.5174578E-005  0.1028428E+03  0.7546771E-02  0.1278548E+00
         -2   -1    0    0    0  501 -0.00000000000E+00  0.00000000000E+00  0.45080343064E+03  0.45080343064E+03  0.00000000000E+00 0.  1.
         21   -1    0    0  503  502  0.00000000000E+00 -0.00000000000E+00 -0.37142875967E+03  0.37142875967E+03  0.00000000000E+00 0.  1.
        -24    2    1    2    0    0 -0.40106774058E+02 -0.18875661462E+02  0.36878537392E+03  0.38046363881E+03  0.82371624462E+02 0.  0.
         23    2    1    2    0    0  0.75636105068E+02  0.28340225771E+02 -0.29886128510E+01  0.12190397161E+03  0.91256000902E+02 0.  0.
         13    1    3    3    0    0 -0.12775280651E+02  0.31790984949E+02  0.10421592364E+03  0.10970338765E+03  0.00000000000E+00 0. -1.
        -14    1    3    3    0    0 -0.27331493406E+02 -0.50666646411E+02  0.26456945028E+03  0.27076025117E+03  0.00000000000E+00 0.  1.
        -13    1    4    4    0    0  0.38585913294E+02  0.20090713341E+01  0.42610260560E+02  0.57519938955E+02  0.00000000000E+00 0.  1.
         13    1    4    4    0    0  0.37050191774E+02  0.26331154437E+02 -0.45598873411E+02  0.64384032654E+02  0.00000000000E+00 0. -1.
         21    1    1    2  503  501 -0.37830427064E+02  0.30654397504E+02 -0.27328210239E+03  0.27758591604E+03  0.00000000000E+00 0.  1.
         -1    1    1    2    0  502  0.23010960538E+01 -0.40118961813E+02 -0.13139987713E+02  0.42278663852E+02  0.00000000000E+00 0.  1.
<scales pt_clust_5="13000.00000" pt_clust_6="13000.00000" pt_clust_7="13000.00000" pt_clust_8="13000.00000" pt_clust_9="36.01749" pt_clust_10="40.18490"></scales>
<clustering>
<clus scale="   40.185">  2 10  1 -1</clus>
<clus scale="   36.017">  2  9  1 -1</clus>
<clus scale="   82.372">  5  6 -1 -1</clus>
<clus scale="   91.256">  7  8 -1 -1</clus>
<clus scale="   95.048">  1  5  2 -1</clus>
<clus scale="   40.185">  2  5  1 -1</clus>
</clustering>
</event>
<event>
10    3  0.5078224E-005  0.4294736E+03  0.7546771E-02  0.1081586E+00
         21   -1    0    0  501  502  0.00000000000E+00  0.00000000000E+00  0.15033073984E+04  0.15033073984E+04  0.00000000000E+00 0.  1.
          1   -1    0    0  503    0 -0.00000000000E+00 -0.00000000000E+00 -0.11879697793E+04  0.11879697793E+04  0.00000000000E+00 0. -1.
         23    2    1    2    0    0 -0.27135528801E+02 -0.57574842343E+02 -0.12927224258E+02  0.11350025903E+03  0.93080590232E+02 0.  0.
        -24    2    1    2    0    0 -0.11112498643E+02  0.43158133199E+03 -0.81593642868E+03  0.92661099846E+03  0.80434775268E+02 0.  0.
         11    1    4    4    0    0 -0.97947976478E+01  0.43511946742E+03 -0.81089201759E+03  0.92031013967E+03  0.00000000000E+00 0. -1.
        -12    1    4    4    0    0 -0.13177009953E+01 -0.35381354311E+01 -0.50444110903E+01  0.63008587899E+01  0.00000000000E+00 0.  1.
        -13    1    3    3    0    0 -0.61684684399E+02 -0.42625598204E+02 -0.59587745668E+01  0.75216014957E+02  0.00000000000E+00 0. -1.
         13    1    3    3    0    0  0.34549155598E+02 -0.14949244138E+02 -0.69684496914E+01  0.38284244069E+02  0.00000000000E+00 0.  1.
         21    1    1    2  503  502 -0.11343593122E+03  0.14027590209E+03  0.10983024800E+04  0.11130199355E+04  0.00000000000E+00 0.  1.
          2    1    1    2  501    0  0.15168395866E+03 -0.51428239174E+03  0.45898792074E+02  0.53814598473E+03  0.00000000000E+00 0. -1.
<scales pt_clust_5="13000.00000" pt_clust_6="13000.00000" pt_clust_7="13000.00000" pt_clust_8="13000.00000" pt_clust_9="180.22156" pt_clust_10="421.87420"></scales>
<clustering>
<clus scale="   80.435">  5  6 -1 -1</clus>
<clus scale="   93.081">  7  8 -1 -1</clus>
<clus scale="  112.762">  2  7  1 -1</clus>
<clus scale="  180.222">  1  9  2 -1</clus>
<clus scale="  421.874">  1 10  2 -1</clus>
<clus scale="  180.222">  1  5  2 -1</clus>
</clustering>
</event>
<event>
10    3  0.5078224E-005  0.4376542E+03  0.7546771E-02  0.1031607E+00
          1   -1    0    0  503    0 -0.00000000000E+00  0.00000000000E+00  0.10155576055E+04  0.10155576055E+04  0.00000000000E+00 0. -1.
         21   -1    0    0  501  502  0.00000000000E+00 -0.00000000000E+00 -0.38930784176E+03  0.38930784176E+03  0.00000000000E+00 0. -1.
         23    2    1    2    0    0  0.37742796324E+03 -0.19448766373E+03  0.54762407921E+03  0.69885215401E+03  0.90691136585E+02 0.  0.
        -24    2    1    2    0    0 -0.36307594818E+03  0.24511484094E+03  0.13210829437E+03  0.46479060405E+03  0.81683993392E+02 0.  0.
         13    1    4    4    0    0 -0.16548414520E+03  0.15893458822E+03  0.80229853457E+02  0.24306796381E+03  0.00000000000E+00 0. -1.
        -14    1    4    4    0    0 -0.19759180298E+03  0.86180252724E+02  0.51878440910E+02  0.22172264024E+03  0.00000000000E+00 0.  1.
        -13    1    3    3    0    0  0.11554638836E+03 -0.33525980785E+02  0.10337851201E+03  0.15862558431E+03  0.00000000000E+00 0.  1.
         13    1    3    3    0    0  0.26188157487E+03 -0.16096168294E+03  0.44424556720E+03  0.54022656970E+03  0.00000000000E+00 0. -1.
         21    1    1    2  503  502  0.41944978899E+02 -0.66919422104E+02 -0.12555473970E+03  0.14832930584E+03  0.00000000000E+00 0.  1.
          2    1    1    2  501    0 -0.56296993951E+02  0.16292244889E+02  0.72072129904E+02  0.92893383404E+02  0.00000000000E+00 0. -1.
<scales pt_clust_5="13000.00000" pt_clust_6="13000.00000" pt_clust_7="13000.00000" pt_clust_8="13000.00000" pt_clust_9="64.73994" pt_clust_10="58.60710"></scales>
<clustering>
<clus scale="   58.607">  2 10  1 -1</clus>
<clus scale="   64.740">  2  9  1 -1</clus>
<clus scale="   81.684">  5  6 -1 -1</clus>
<clus scale="   90.691">  7  8 -1 -1</clus>
<clus scale="  435.877">  2  5  1 -1</clus>
<clus scale="   58.607">  2  5  1 -1</clus>
</clustering>
</event>
<event>
10    3  0.5078224E-005  0.1392702E+03  0.7546771E-02  0.1217214E+00
          1   -1    0    0  503    0 -0.00000000000E+00  0.00000000000E+00  0.70518601257E+03  0.70518601257E+03  0.00000000000E+00 0. -1.
         21   -1    0    0  501  502  0.00000000000E+00 -0.00000000000E+00 -0.58141229280E+02  0.58141229280E+02  0.00000000000E+00 0. -1.
        -24    2    1    2    0    0  0.38643688011E+02 -0.11093715683E+03  0.25403500089E+03  0.29100155920E+03  0.79672695390E+02 0.  0.
         23    2    1    2    0    0  0.31181384762E+02  0.93801097637E+02  0.16112530813E+03  0.21051941255E+03  0.92661391474E+02 0.  0.
         11    1    3    3    0    0  0.16410124118E+02 -0.90390767780E+02  0.10766124384E+03  0.14152994912E+03  0.00000000000E+00 0. -1.
        -12    1    3    3    0    0  0.22233563893E+02 -0.20546389052E+02  0.14637375705E+03  0.14947161008E+03  0.00000000000E+00 0.  1.
        -11    1    4    4    0    0  0.18797562339E+02 -0.86342124198E+01  0.18833121654E+01  0.20771250292E+02  0.00000000000E+00 0.  1.
         11    1    4    4    0    0  0.12383822423E+02  0.10243531006E+03  0.15924199596E+03  0.18974816226E+03  0.00000000000E+00 0. -1.
         21    1    1    2  503  502  0.18231453030E+02 -0.14108859816E+02  0.21143491299E+02  0.31280873217E+02  0.00000000000E+00 0. -1.
          2    1    1    2  501    0 -0.88056525803E+02  0.31244919012E+02  0.21074098298E+03  0.23052539688E+03  0.00000000000E+00 0. -1.
<scales pt_clust_5="13000.00000" pt_clust_6="13000.00000" pt_clust_7="13000.00000" pt_clust_8="13000.00000" pt_clust_9="23.05311" pt_clust_10="89.36371"></scales>
<clustering>
<clus scale="   23.053">  2  9  1 -1</clus>
<clus scale="   79.673">  5  6 -1 -1</clus>
<clus scale="   89.364">  2 10  1 -1</clus>
<clus scale="   92.661">  7  8 -1 -1</clus>
<clus scale="  130.988">  1  5  2 -1</clus>
<clus scale="   23.053">  2  5  1 -1</clus>
</clustering>
</event>
<event>
10    3  0.5078224E-005  0.2131894E+03  0.7546771E-02  0.1144060E+00
          1   -1    0    0  502    0 -0.00000000000E+00  0.00000000000E+00  0.16496638945E+04  0.16496638945E+04  0.00000000000E+00 0. -1.
         21   -1    0    0  503  502  0.00000000000E+00 -0.00000000000E+00 -0.22711061177E+03  0.22711061177E+03  0.00000000000E+00 0.  1.
        -24    2    1    2    0    0  0.17220320481E+03 -0.51727455359E+02  0.14767635685E+03  0.24605086551E+03  0.80019051863E+02 0.  0.
         23    2    1    2    0    0 -0.11096333990E+01 -0.19248181239E+03  0.91029163263E+02  0.22913758163E+03  0.84659573359E+02 0.  0.
         13    1    3    3    0    0  0.44256643774E+02 -0.26041204263E+02  0.33278539449E+01  0.51457452808E+02  0.00000000000E+00 0. -1.
        -14    1    3    3    0    0  0.12794656104E+03 -0.25686251096E+02  0.14434850290E+03  0.19459341270E+03  0.00000000000E+00 0.  1.
        -11    1    4    4    0    0  0.17179235191E+01 -0.13687592384E+03  0.19154785163E+02  0.13822038772E+03  0.00000000000E+00 0.  1.
         11    1    4    4    0    0 -0.28275569181E+01 -0.55605888554E+02  0.71874378100E+02  0.90917193903E+02  0.00000000000E+00 0. -1.
         21    1    1    2  503  501 -0.22833182502E+02  0.44594033752E+01 -0.92037440617E+02  0.94932244138E+02  0.00000000000E+00 0.  1.
          2    1    1    2  501    0 -0.14826038891E+03  0.23974986438E+03  0.12758852032E+04  0.13066538150E+04  0.00000000000E+00 0. -1.
<scales pt_clust_5="13000.00000" pt_clust_6="13000.00000" pt_clust_7="13000.00000" pt_clust_8="13000.00000" pt_clust_9="23.26458" pt_clust_10="195.65916"></scales>
<clustering>
<clus scale="   23.265">  2  9  1 -1</clus>
<clus scale="   80.019">  5  6 -1 -1</clus>
<clus scale="   84.660">  7  8 -1 -1</clus>
<clus scale="  189.054">  1  5  2 -1</clus>
<clus scale="  195.659">  2 10  1 -1</clus>
<clus scale="   23.265">  2  5  1 -1</clus>
</clustering>
</event>
<event>
10    3  0.5078224E-005  0.2119069E+03  0.7546771E-02  0.1140065E+00
         21   -1    0    0  501  502  0.00000000000E+00  0.00000000000E+00  0.15438022870E+03  0.15438022870E+03  0.00000000000E+00 0.  1.
          1   -1    0    0  503    0 -0.00000000000E+00 -0.00000000000E+00 -0.54109964155E+03  0.54109964155E+03  0.00000000000E+00 0. -1.
        -24    2    1    2    0    0  0.58498049303E+02 -0.13310733128E+02 -0.10853964847E+03  0.14904943086E+03  0.82678172223E+02 0.  0.
         23    2    1    2    0    0  0.23318458517E+02 -0.51415672681E+02 -0.11086289073E+03  0.15377482383E+03  0.90381380813E+02 0.  0.
         11    1    3    3    0    0 -0.91213538977E+01 -0.28592706638E+02 -0.49993877246E+02  0.58310631380E+02  0.00000000000E+00 0. -1.
        -12    1    3    3    0    0  0.67619403201E+02  0.15281973509E+02 -0.58545771223E+02  0.90738799483E+02  0.00000000000E+00 0.  1.
        -11    1    4    4    0    0  0.52913393481E+02 -0.76338416148E+01 -0.50406177420E+02  0.73477108473E+02  0.00000000000E+00 0. -1.
         11    1    4    4    0    0 -0.29594934964E+02 -0.43781831066E+02 -0.60456713306E+02  0.80297715352E+02  0.00000000000E+00 0.  1.
         21    1    1    2  503  502  0.26017226748E+02  0.28685330247E+02  0.97258353204E+02  0.10468491547E+03  0.00000000000E+00 0.  1.
          2    1    1    2  501    0 -0.10783373457E+03  0.36041075563E+02 -0.26457522686E+03  0.28797070008E+03  0.00000000000E+00 0. -1.
<scales pt_clust_5="13000.00000" pt_clust_6="13000.00000" pt_clust_7="13000.00000" pt_clust_8="13000.00000" pt_clust_9="38.72653" pt_clust_10="110.55745"></scales>
<clustering>
<clus scale="   38.727">  1  9  2 -1</clus>
<clus scale="   82.678">  5  6 -1 -1</clus>
<clus scale="   90.381">  7  8 -1 -1</clus>
<clus scale="  100.511">  5  7 -1 -1</clus>
<clus scale="  110.557">  1 10  2 -1</clus>
<clus scale="   38.727">  1  5  2 -1</clus>
</clustering>
</event>
<event>
10    3  0.5078224E-005  0.1326636E+03  0.7546771E-02  0.1224093E+00
         21   -1    0    0  503  502  0.00000000000E+00  0.00000000000E+00  0.35965327885E+02  0.35965327885E+02  0.00000000000E+00 0.  1.
          1   -1    0    0  502    0 -0.00000000000E+00 -0.00000000000E+00 -0.14201778976E+04  0.14201778976E+04  0.00000000000E+00 0. -1.
         23    2    1    2    0    0 -0.10880111785E+03  0.18823325031E+02 -0.75706091764E+03  0.76958318573E+03  0.83216860919E+02 0.  0.
        -24    2    1    2    0    0  0.65952890478E+02 -0.78268753827E+02 -0.23289103196E+03  0.26692570670E+03  0.80841317035E+02 0.  0.
         11    1    4    4    0    0  0.67084866035E+02 -0.67645489271E+02 -0.23703709425E+03  0.25546599680E+03  0.00000000000E+00 0. -1.
        -12    1    4    4    0    0 -0.11319755570E+01 -0.10623264556E+02  0.41460622884E+01  0.11459709900E+02  0.00000000000E+00 0.  1.
        -13    1    3    3    0    0  0.80671846589E+01  0.19333820124E+02 -0.94541408293E+02  0.96834673289E+02  0.00000000000E+00 0.  1.
         13    1    3    3    0    0 -0.11686830251E+03 -0.51049509258E+00 -0.66251950934E+03  0.67274851245E+03  0.00000000000E+00 0. -1.
         21    1    1    2  503  501 -0.26801619296E+02  0.26829485642E+02 -0.32977611997E+02  0.50256054259E+02  0.00000000000E+00 0.  1.
          2    1    1    2  501    0  0.69649846671E+02  0.32615943154E+02 -0.36128300813E+03  0.36937827881E+03  0.00000000000E+00 0. -1.
<scales pt_clust_5="13000.00000" pt_clust_6="13000.00000" pt_clust_7="13000.00000" pt_clust_8="13000.00000" pt_clust_9="37.92292" pt_clust_10="75.18434"></scales>
<clustering>
<clus scale="   37.923">  1  9  2 -1</clus>
<clus scale="   75.184">  1 10  2 -1</clus>
<clus scale="   80.841">  5  6 -1 -1</clus>
<clus scale="   83.217">  7  8 -1 -1</clus>
<clus scale="  131.187">  1  5  2 -1</clus>
<clus scale="   37.923">  1  5  2 -1</clus>
</clustering>
</event>
<event>
10    3  0.5078224E-005  0.1221143E+03  0.7546771E-02  0.1244600E+00
          1   -1    0    0  502    0 -0.00000000000E+00  0.00000000000E+00  0.78175147248E+03  0.78175147248E+03  0.00000000000E+00 0. -1.
         21   -1    0    0  503  502  0.00000000000E+00 -0.00000000000E+00 -0.49980379025E+02  0.49980379025E+02  0.00000000000E+00 0.  1.
         23    2    1    2    0    0 -0.70940362160E+02  0.94855303069E+01  0.44514193475E+03  0.46080970383E+03  0.95245634033E+02 0.  0.
        -24    2    1    2    0    0  0.90716515841E+02 -0.54232523761E+01  0.13530965536E+03  0.18147039454E+03  0.79774076905E+02 0.  0.
         11    1    4    4    0    0  0.47131486499E+02  0.22545474273E+02  0.11412893560E+03  0.12551927888E+03  0.00000000000E+00 0. -1.
        -12    1    4    4    0    0  0.43585029342E+02 -0.27968726649E+02  0.21180719761E+02  0.55951115652E+02  0.00000000000E+00 0.  1.
        -11    1    3    3    0    0  0.18976668861E+02  0.20805252308E+02  0.12131207593E+03  0.12453751343E+03  0.00000000000E+00 0.  1.
         11    1    3    3    0    0 -0.89917031020E+02 -0.11319722001E+02  0.32382985881E+03  0.33627219039E+03  0.00000000000E+00 0. -1.
         21    1    1    2  503  501  0.12999397282E+02  0.22768450283E+02 -0.56906471943E+01  0.26828531892E+02  0.00000000000E+00 0.  1.
          2    1    1    2  501    0 -0.32775550964E+02 -0.26830728214E+02  0.15701015054E+03  0.16262322125E+03  0.00000000000E+00 0. -1.
<scales pt_clust_5="13000.00000" pt_clust_6="13000.00000" pt_clust_7="13000.00000" pt_clust_8="13000.00000" pt_clust_9="26.21806" pt_clust_10="40.32715"></scales>
<clustering>
<clus scale="   26.218">  2  9  1 -1</clus>
<clus scale="   40.327">  2 10  1 -1</clus>
<clus scale="   79.774">  5  6 -1 -1</clus>
<clus scale="   95.246">  7  8 -1 -1</clus>
<clus scale="  110.472">  2  5  1 -1</clus>
<clus scale="   26.218">  2  5  1 -1</clus>
</clustering>
</event>
<event>
10    3  0.5078224E-005  0.9566365E+02  0.7546771E-02  0.1299821E+00
         21   -1    0    0  501  502  0.00000000000E+00  0.00000000000E+00  0.33167977333E+03  0.33167977333E+03  0.00000000000E+00 0. -1.
         -4   -1    0    0    0  501 -0.00000000000E+00 -0.00000000000E+00 -0.10742182300E+03  0.10742182300E+03  0.00000000000E+00 0.  1.
        -24    2    1    2    0    0 -0.17626706555E+02  0.65661677620E+01 -0.61992739062E+02  0.99903548964E+02  0.76051325144E+02 0.  0.
         23    2    1    2    0    0  0.36378061032E+02 -0.48057999061E+02  0.15246517593E+03  0.18850692542E+03  0.93039220021E+02 0.  0.
         11    1    3    3    0    0  0.25230140123E+02  0.14485470288E+02 -0.44010520611E+02  0.52757129798E+02  0.00000000000E+00 0. -1.
        -12    1    3    3    0    0 -0.42856846678E+02 -0.79193025258E+01 -0.17982218450E+02  0.47146419165E+02  0.00000000000E+00 0.  1.
        -13    1    4    4    0    0  0.46571410920E+02 -0.69427317093E+02  0.13609970145E+03  0.15972531862E+03  0.00000000000E+00 0. -1.
         13    1    4    4    0    0 -0.10193349888E+02  0.21369318032E+02  0.16365474483E+02  0.28781606802E+02  0.00000000000E+00 0.  1.
         21    1    1    2  503  502  0.15501878859E+02  0.28865876873E+02  0.66846041206E+02  0.74444209451E+02  0.00000000000E+00 0. -1.
         -3    1    1    2    0  503 -0.34253233336E+02  0.12625954426E+02  0.66939472257E+02  0.76246912496E+02  0.00000000000E+00 0.  1.
<scales pt_clust_5="13000.00000" pt_clust_6="13000.00000" pt_clust_7="13000.00000" pt_clust_8="13000.00000" pt_clust_9="32.76503" pt_clust_10="36.36078"></scales>
<clustering>
<clus scale="   32.765">  1  9  2 -1</clus>
<clus scale="   36.361">  1 10  2 -1</clus>
<clus scale="   76.051">  5  6 -1 -1</clus>
<clus scale="   79.240">  2  5  1 -1</clus>
<clus scale="   93.039">  7  8 -1 -1</clus>
<clus scale="   32.765">  1  5  2 -1</clus>
</clustering>
</event>
<event>
10    3  0.5078224E-005  0.1430067E+03  0.7546771E-02  0.1214204E+00
         -4   -1    0    0    0  501 -0.00000000000E+00  0.00000000000E+00  0.13826847689E+04  0.13826847689E+04  0.00000000000E+00 0.  1.
         21   -1    0    0  503  502  0.00000000000E+00 -0.00000000000E+00 -0.42696292378E+02  0.42696292378E+02  0.00000000000E+00 0. -1.
         23    2    1    2    0    0  0.37173719655E+02  0.77073885472E+02  0.23074286418E+03  0.26193491753E+03  0.89695944137E+02 0.  0.
        -24    2    1    2    0    0 -0.99616438768E+02  0.30523593956E+02  0.35437866718E+03  0.37800999852E+03  0.80325553610E+02 0.  0.
         11    1    4    4    0    0 -0.62976224378E+02  0.57537170017E+02  0.24945939377E+03  0.26364089196E+03  0.00000000000E+00 0. -1.
        -12    1    4    4    0    0 -0.36640214390E+02 -0.27013576061E+02  0.10491927341E+03  0.11436910656E+03  0.00000000000E+00 0.  1.
        -13    1    3    3    0    0 -0.22463628601E+02  0.62381015735E+01  0.93590084521E+02  0.96450155220E+02  0.00000000000E+00 0.  1.
         13    1    3    3    0    0  0.59637348256E+02  0.70835783899E+02  0.13715277966E+03  0.16548476231E+03  0.00000000000E+00 0. -1.
         21    1    1    2  503  501 -0.16973156509E+02  0.24207059776E+02  0.22702409739E+02  0.37275584406E+02  0.00000000000E+00 0. -1.
         -3    1    1    2    0  502  0.79415875622E+02 -0.13180453920E+03  0.73216453546E+03  0.74816056087E+03  0.00000000000E+00 0.  1.
<scales pt_clust_5="13000.00000" pt_clust_6="13000.00000" pt_clust_7="13000.00000" pt_clust_8="13000.00000" pt_clust_9="29.56467" pt_clust_10="118.31630"></scales>
<clustering>
<clus scale="   29.565">  2  9  1 -1</clus>
<clus scale="   80.326">  5  6 -1 -1</clus>
<clus scale="   89.696">  7  8 -1 -1</clus>
<clus scale="  128.938">  1  7  2 -1</clus>
<clus scale="  118.316">  2 10  1 -1</clus>
<clus scale="   29.565">  2  5  1 -1</clus>
</clustering>
</event>
<event>
10    3  0.5078224E-005  0.2555386E+03  0.7546771E-02  0.1127740E+00
         21   -1    0    0  503  502  0.00000000000E+00  0.00000000000E+00  0.17175305603E+03  0.17175305603E+03  0.00000000000E+00 0. -1.
          1   -1    0    0  502    0 -0.00000000000E+00 -0.00000000000E+00 -0.14648255616E+04  0.14648255616E+04  0.00000000000E+00 0. -1.
        -24    2    1    2    0    0  0.12617720159E+03 -0.24447817367E+02 -0.45053333468E+03  0.47515149326E+03  0.79185061174E+02 0.  0.
         23    2    1    2    0    0  0.92819296552E+02  0.13960647562E+03 -0.46827728618E+03  0.50567009640E+03  0.91176969630E+02 0.  0.
         11    1    3    3    0    0  0.11384721594E+03 -0.81488896194E+01 -0.26552165003E+03  0.28901442804E+03  0.00000000000E+00 0. -1.
        -12    1    3    3    0    0  0.12329985646E+02 -0.16298927748E+02 -0.18501168465E+03  0.18613706522E+03  0.00000000000E+00 0.  1.
        -11    1    4    4    0    0  0.46109058438E+02  0.26524844787E+02 -0.24852396265E+03  0.25415304971E+03  0.00000000000E+00 0.  1.
         11    1    4    4    0    0  0.46710238114E+02  0.11308163083E+03 -0.21975332353E+03  0.25151704669E+03  0.00000000000E+00 0. -1.
         21    1    1    2  503  501  0.11468869949E+03  0.24178555455E+01  0.29972156747E+02  0.11856506229E+03  0.00000000000E+00 0.  1.
          2    1    1    2  501    0 -0.33368519763E+03 -0.11757651379E+03 -0.40423404142E+03  0.53719196565E+03  0.00000000000E+00 0. -1.
<scales pt_clust_5="13000.00000" pt_clust_6="13000.00000" pt_clust_7="13000.00000" pt_clust_8="13000.00000" pt_clust_9="114.71418" pt_clust_10="238.71891"></scales>
<clustering>
<clus scale="   79.185">  5  6 -1 -1</clus>
<clus scale="   91.177">  7  8 -1 -1</clus>
<clus scale="  114.714">  1  9  2 -1</clus>
<clus scale="  163.211">  2  5  1 -1</clus>
<clus scale="  238.719">  1 10  2 -1</clus>
<clus scale="  114.714">  1  5  2 -1</clus>
</clustering>
</event>
<event>
10    3  0.5078224E-005  0.1983377E+03  0.7546771E-02  0.1185680E+00
         21   -1    0    0  503  502  0.00000000000E+00  0.00000000000E+00  0.13080249284E+03  0.13080249284E+03  0.00000000000E+00 0. -1.
          1   -1    0    0  502    0 -0.00000000000E+00 -0.00000000000E+00 -0.10381937885E+04  0.10381937885E+04  0.00000000000E+00 0. -1.
         23    2    1    2    0    0 -0.27354631358E+02 -0.67395353100E+01 -0.32371920792E+01  0.89873323674E+02  0.85282106580E+02 0.  0.
        -24    2    1    2    0    0  0.67631146095E+02 -0.54650381294E+02 -0.15431048156E+03  0.19429020246E+03  0.79851875093E+02 0.  0.
         13    1    4    4    0    0  0.63080964136E+02 -0.85051671125E+01 -0.52836687748E+02  0.82724007859E+02  0.00000000000E+00 0. -1.
        -14    1    4    4    0    0  0.45501819583E+01 -0.46145214181E+02 -0.10147379381E+03  0.11156619460E+03  0.00000000000E+00 0.  1.
        -11    1    3    3    0    0 -0.66475178601E+01 -0.41513654657E+02 -0.19387583771E+02  0.46297423482E+02  0.00000000000E+00 0.  1.
         11    1    3    3    0    0 -0.20707113498E+02  0.34774119347E+02  0.16150391691E+02  0.43575900192E+02  0.00000000000E+00 0. -1.
         21    1    1    2  503  501  0.13740586583E+03  0.14781436531E+03 -0.14491932444E+03  0.24845737895E+03  0.00000000000E+00 0. -1.
          2    1    1    2  501    0 -0.17768238057E+03 -0.86424448709E+02 -0.60492429755E+03  0.63637537623E+03  0.00000000000E+00 0. -1.
<scales pt_clust_5="13000.00000" pt_clust_6="13000.00000" pt_clust_7="13000.00000" pt_clust_8="13000.00000" pt_clust_9="198.33769" pt_clust_10="13000.00000"></scales>
<clustering>
<clus scale="   79.852">  5  6 -1 -1</clus>
<clus scale="   85.282">  7  8 -1 -1</clus>
<clus scale="   89.815">  2  7  1 -1</clus>
<clus scale="  115.934">  2  5  1 -1</clus>
<clus scale="  198.338">  1  9  2 -1</clus>
<clus scale="  198.338">  1  5  2 -1</clus>
</clustering>
</event>
<event>
10    3  0.5078224E-005  0.9756457E+02  0.7546771E-02  0.1292871E+00
         21   -1    0    0  503  502  0.00000000000E+00  0.00000000000E+00  0.53063542842E+03  0.53063542842E+03  0.00000000000E+00 0.  1.
          3   -1    0    0  502    0 -0.00000000000E+00 -0.00000000000E+00 -0.91869399958E+02  0.91869399958E+02  0.00000000000E+00 0. -1.
         23    2    1    2    0    0  0.43759415022E+02 -0.80423409550E+01  0.39795736918E+02  0.11028209837E+03  0.92730118586E+02 0.  0.
        -24    2    1    2    0    0  0.39321536248E+02 -0.21320219414E+02  0.37790328851E+03  0.38873099708E+03  0.79373532476E+02 0.  0.
         13    1    4    4    0    0  0.32458330839E+02  0.23565947975E+02  0.11171841548E+03  0.11870089091E+03  0.00000000000E+00 0. -1.
        -14    1    4    4    0    0  0.68632054083E+01 -0.44886167389E+02  0.26618487302E+03  0.27003010617E+03  0.00000000000E+00 0.  1.
        -11    1    3    3    0    0  0.22478398230E+02  0.33123516886E+02 -0.11009266775E+02  0.41516860584E+02  0.00000000000E+00 0.  1.
         11    1    3    3    0    0  0.21281016791E+02 -0.41165857841E+02  0.50805003693E+02  0.68765237785E+02  0.00000000000E+00 0. -1.
         21    1    1    2  503  501  0.13545453428E+01  0.23650867210E+02  0.30187807706E+02  0.38373194381E+02  0.00000000000E+00 0.  1.
          4    1    1    2  501    0 -0.84435496612E+02  0.57116931588E+01 -0.91208046683E+01  0.85118538548E+02  0.00000000000E+00 0. -1.
<scales pt_clust_5="13000.00000" pt_clust_6="13000.00000" pt_clust_7="13000.00000" pt_clust_8="13000.00000" pt_clust_9="23.68962" pt_clust_10="84.66667"></scales>
<clustering>
<clus scale="   23.690">  1  9  2 -1</clus>
<clus scale="   79.374">  5  6 -1 -1</clus>
<clus scale="   84.667">  1 10  2 -1</clus>
<clus scale="   84.971">  1  5  2 -1</clus>
<clus scale="   92.730">  7  8 -1 -1</clus>
<clus scale="   23.690">  1  5  2 -1</clus>
</clustering>
</event>
<event>
10    3  0.5078224E-005  0.1162279E+03  0.7546771E-02  0.1253693E+00
         -2   -1    0    0    0  501 -0.00000000000E+00  0.00000000000E+00  0.32124580747E+03  0.32124580747E+03  0.00000000000E+00 0.  1.
         21   -1    0    0  503  502  0.00000000000E+00 -0.00000000000E+00 -0.31356465271E+03  0.31356465271E+03  0.00000000000E+00 0.  1.
        -24    2    1    2    0    0  0.17933083516E+02 -0.70030083188E+02  0.25030097613E+03  0.27238919307E+03  0.79495193640E+02 0.  0.
         23    2    1    2    0    0  0.16743169595E+02  0.67203006332E+02 -0.83337140514E+02  0.14199119684E+03  0.91759703592E+02 0.  0.
         13    1    3    3    0    0 -0.17562276249E+02 -0.37216415733E+02  0.42968017545E+02  0.59495761856E+02  0.00000000000E+00 0. -1.
        -14    1    3    3    0    0  0.35495359765E+02 -0.32813667454E+02  0.20733295859E+03  0.21289343121E+03  0.00000000000E+00 0.  1.
        -11    1    4    4    0    0  0.33052024571E+02  0.15014529665E+02 -0.79240738052E+02  0.87160581666E+02  0.00000000000E+00 0.  1.
         11    1    4    4    0    0 -0.16308854976E+02  0.52188476666E+02 -0.40964024617E+01  0.54830615175E+02  0.00000000000E+00 0. -1.
         21    1    1    2  503  501 -0.38104313399E+02 -0.30975388966E+02 -0.17588737342E+03  0.18261374962E+03  0.00000000000E+00 0.  1.
         -1    1    1    2    0  502  0.34280602884E+01  0.33802465822E+02  0.16604692559E+02  0.37816320657E+02  0.00000000000E+00 0.  1.
<scales pt_clust_5="13000.00000" pt_clust_6="13000.00000" pt_clust_7="13000.00000" pt_clust_8="13000.00000" pt_clust_9="37.70869" pt_clust_10="33.97587"></scales>
<clustering>
<clus scale="   33.976">  2 10  1 -1</clus>
<clus scale="   37.709">  2  9  1 -1</clus>
<clus scale="   79.495">  5  6 -1 -1</clus>
<clus scale="   91.760">  7  8 -1 -1</clus>
<clus scale="  106.811">  1  5  2 -1</clus>
<clus scale="   33.976">  2  5  1 -1</clus>
</clustering>
</event>
<event>
10    3  0.5078224E-005  0.1395163E+03  0.7546771E-02  0.1239527E+00
          1   -1    0    0  503    0 -0.00000000000E+00  0.00000000000E+00  0.72891670794E+03  0.72891670794E+03  0.00000000000E+00 0. -1.
         21   -1    0    0  501  502  0.00000000000E+00 -0.00000000000E+00 -0.16242190683E+03  0.16242190683E+03  0.00000000000E+00 0. -1.
        -24    2    1    2    0    0  0.17698600226E+02 -0.99817006114E+01  0.27920559210E+03  0.29085990813E+03  0.78935725112E+02 0.  0.
         23    2    1    2    0    0  0.10792894753E+02 -0.98808214266E+02  0.69928196373E+02  0.15186562310E+03  0.91069561585E+02 0.  0.
         11    1    3    3    0    0  0.47735306670E+02  0.24359653947E+01  0.14089566647E+03  0.14878233182E+03  0.00000000000E+00 0. -1.
        -12    1    3    3    0    0 -0.30036706444E+02 -0.12417666006E+02  0.13830992563E+03  0.14207757631E+03  0.00000000000E+00 0.  1.
        -11    1    4    4    0    0 -0.26260018886E+02 -0.21380086895E+02  0.55221831041E+02  0.64777676179E+02  0.00000000000E+00 0.  1.
         11    1    4    4    0    0  0.37052913639E+02 -0.77428127371E+02  0.14706365332E+02  0.87087946919E+02  0.00000000000E+00 0. -1.
         21    1    1    2  503  502 -0.10485398744E+03  0.89293132118E+02 -0.67268902837E+02  0.15327337477E+03  0.00000000000E+00 0. -1.
          2    1    1    2  501    0  0.76362492463E+02  0.19496782760E+02  0.28462991547E+03  0.29533970877E+03  0.00000000000E+00 0. -1.
<scales pt_clust_5="13000.00000" pt_clust_6="13000.00000" pt_clust_7="13000.00000" pt_clust_8="13000.00000" pt_clust_9="105.69356" pt_clust_10="78.81219"></scales>
<clustering>
<clus scale="   78.812">  2 10  1 -1</clus>
<clus scale="   78.936">  5  6 -1 -1</clus>
<clus scale="   82.086">  1  5  2 -1</clus>
<clus scale="   91.070">  7  8 -1 -1</clus>
<clus scale="  105.694">  2  9  1 -1</clus>
<clus scale="   78.812">  2  5  1 -1</clus>
</clustering>
</event>
<event>
10    3  0.5078224E-005  0.1126654E+03  0.7546771E-02  0.1265869E+00
          1   -1    0    0  503    0 -0.00000000000E+00  0.00000000000E+00  0.22577619318E+03  0.22577619318E+03  0.00000000000E+00 0. -1.
         21   -1    0    0  501  502  0.00000000000E+00 -0.00000000000E+00 -0.26324472467E+03  0.26324472467E+03  0.00000000000E+00 0. -1.
        -24    2    1    2    0    0  0.69918296390E+02 -0.21833736661E+01  0.94024280558E+02  0.14067152154E+03  0.77811158252E+02 0.  0.
         23    2    1    2    0    0  0.35834910321E+02  0.50276520480E+02 -0.25340369642E+02  0.12117221366E+03  0.10113704426E+03 0.  0.
         11    1    3    3    0    0  0.79935401571E+02 -0.15812877026E+02  0.55478506825E+02  0.98577787679E+02  0.00000000000E+00 0. -1.
        -12    1    3    3    0    0 -0.10017105181E+02  0.13629503360E+02  0.38545773733E+02  0.42093733866E+02  0.00000000000E+00 0.  1.
        -13    1    4    4    0    0  0.60991562555E+02  0.64732456675E+02 -0.24028063450E+02  0.92128223055E+02  0.00000000000E+00 0. -1.
         13    1    4    4    0    0 -0.25156652235E+02 -0.14455936195E+02 -0.13123061918E+01  0.29043990609E+02  0.00000000000E+00 0.  1.
         21    1    1    2  503  502 -0.85990864545E+01 -0.79651506231E+02 -0.35833953615E+00  0.80115136771E+02  0.00000000000E+00 0. -1.
          2    1    1    2  501    0 -0.97154120256E+02  0.31558359417E+02 -0.10579410287E+03  0.14706204586E+03  0.00000000000E+00 0. -1.
<scales pt_clust_5="13000.00000" pt_clust_6="13000.00000" pt_clust_7="13000.00000" pt_clust_8="13000.00000" pt_clust_9="80.11434" pt_clust_10="100.70438"></scales>
<clustering>
<clus scale="   77.811">  5  6 -1 -1</clus>
<clus scale="   80.114">  1  9  2 -1</clus>
<clus scale="  100.704">  2 10  1 -1</clus>
<clus scale="   92.300">  1  5  2 -1</clus>
<clus scale="  101.137">  7  8 -1 -1</clus>
<clus scale="  100.704">  2  5  1 -1</clus>
</clustering>
</event>
<event>
10    3  0.5078224E-005  0.1021420E+03  0.7546771E-02  0.1281574E+00
          1   -1    0    0  503    0 -0.00000000000E+00  0.00000000000E+00  0.66651814133E+03  0.66651814133E+03  0.00000000000E+00 0. -1.
         21   -1    0    0  501  502  0.00000000000E+00 -0.00000000000E+00 -0.56446388587E+02  0.56446388587E+02  0.00000000000E+00 0. -1.
        -24    2    1    2    0    0  0.11717394433E+02  0.57073008699E+02  0.36029622888E+03  0.37366317372E+03  0.80100993702E+02 0.  0.
         23    2    1    2    0    0 -0.45839953370E+02  0.14945920488E+01  0.17472937851E+03  0.20271803047E+03  0.91982112583E+02 0.  0.
         13    1    3    3    0    0 -0.16416684676E+02  0.67144259336E+02  0.25665512473E+03  0.26580013572E+03  0.00000000000E+00 0. -1.
        -14    1    3    3    0    0  0.28134079109E+02 -0.10071250637E+02  0.10364110415E+03  0.10786303800E+03  0.00000000000E+00 0.  1.
        -13    1    4    4    0    0 -0.28639169768E+02  0.36201719554E+02  0.14956463838E+03  0.15652586878E+03  0.00000000000E+00 0.  1.
         13    1    4    4    0    0 -0.17200783603E+02 -0.34707127505E+02  0.25164740127E+02  0.46192161693E+02  0.00000000000E+00 0. -1.
         21    1    1    2  503  502  0.37073284842E+01 -0.58610372426E+02 -0.69410478144E+01  0.59136267934E+02  0.00000000000E+00 0. -1.
          2    1    1    2  501    0  0.30415230453E+02  0.42771678292E-01  0.81987193169E+02  0.87447057793E+02  0.00000000000E+00 0. -1.
<scales pt_clust_5="13000.00000" pt_clust_6="13000.00000" pt_clust_7="13000.00000" pt_clust_8="13000.00000" pt_clust_9="62.72558" pt_clust_10="30.41528"></scales>
<clustering>
<clus scale="   30.415">  2 10  1 -1</clus>
<clus scale="   62.726">  2  9  1 -1</clus>
<clus scale="   80.101">  5  6 -1 -1</clus>
<clus scale="   91.588">  1  5  2 -1</clus>
<clus scale="   91.982">  7  8 -1 -1</clus>
<clus scale="   30.415">  2  5  1 -1</clus>
</clustering>
</event>
<event>
10    3  0.5078224E-005  0.1107023E+03  0.7546771E-02  0.1263973E+00
         21   -1    0    0  503  502  0.00000000000E+00  0.00000000000E+00  0.42950394478E+02  0.42950394478E+02  0.00000000000E+00 0.  1.
         -4   -1    0    0    0  501 -0.00000000000E+00 -0.00000000000E+00 -0.75097010101E+03  0.75097010101E+03  0.00000000000E+00 0.  1.
         23    2    1    2    0    0 -0.38492830072E+02 -0.46448597060E+02 -0.33242572698E+03  0.35002658710E+03  0.91501790041E+02 0.  0.
        -24    2    1    2    0    0 -0.47911163406E+01  0.81266957078E+02 -0.13448573822E+03  0.17613751415E+03  0.79440147262E+02 0.  0.
         13    1    4    4    0    0  0.30443272256E+02  0.35961309740E+02 -0.96278321791E+02  0.10718919661E+03  0.00000000000E+00 0. -1.
        -14    1    4    4    0    0 -0.35234388596E+02  0.45305647338E+02 -0.38207416426E+02  0.68948317531E+02  0.00000000000E+00 0.  1.
        -13    1    3    3    0    0 -0.29977877674E+02 -0.72451938649E+02 -0.20035596437E+03  0.21515219967E+03  0.00000000000E+00 0.  1.
         13    1    3    3    0    0 -0.85149523980E+01  0.26003341589E+02 -0.13206976261E+03  0.13487438743E+03  0.00000000000E+00 0. -1.
         21    1    1    2  503  501  0.11572554155E+02  0.31333462101E+02 -0.32415805675E+02  0.46545615416E+02  0.00000000000E+00 0.  1.
         -3    1    1    2    0  502  0.31711392258E+02 -0.66151822120E+02 -0.20869243566E+03  0.22121077883E+03  0.00000000000E+00 0.  1.
<scales pt_clust_5="13000.00000" pt_clust_6="13000.00000" pt_clust_7="13000.00000" pt_clust_8="13000.00000" pt_clust_9="33.40224" pt_clust_10="69.43037"></scales>
<clustering>
<clus scale="   33.402">  1  9  2 -1</clus>
<clus scale="   69.430">  1 10  2 -1</clus>
<clus scale="   79.440">  5  6 -1 -1</clus>
<clus scale="   91.502">  7  8 -1 -1</clus>
<clus scale="  100.961">  1  5  2 -1</clus>
<clus scale="   33.402">  1  5  2 -1</clus>
</clustering>
</event>
<event>
10    3  0.5078224E-005  0.2142898E+03  0.7546771E-02  0.1170583E+00
         21   -1    0    0  503  502  0.00000000000E+00  0.00000000000E+00  0.44698513887E+03  0.44698513887E+03  0.00000000000E+00 0.  1.
         -2   -1    0    0    0  501 -0.00000000000E+00 -0.00000000000E+00 -0.43926480399E+03  0.43926480399E+03  0.00000000000E+00 0.  1.
        -24    2    1    2    0    0  0.31095603487E+02  0.43311291229E+02 -0.17179171909E+03  0.19802531494E+03  0.82818030069E+02 0.  0.
         23    2    1    2    0    0  0.14953479496E+03 -0.16420878461E+03  0.57927134276E+02  0.24651080340E+03  0.89926878414E+02 0.  0.
         11    1    3    3    0    0 -0.24150859818E+02  0.14303761707E+01 -0.20903887754E+02  0.31973153257E+02  0.00000000000E+00 0. -1.
        -12    1    3    3    0    0  0.55246463306E+02  0.41880915058E+02 -0.15088783134E+03  0.16605216168E+03  0.00000000000E+00 0.  1.
        -11    1    4    4    0    0  0.74441715356E+02 -0.52122375073E+02  0.64493890605E+02  0.11143506133E+03  0.00000000000E+00 0. -1.
         11    1    4    4    0    0  0.75093079606E+02 -0.11208640954E+03 -0.65667563289E+01  0.13507574207E+03  0.00000000000E+00 0.  1.
         21    1    1    2  503  501  0.20901596770E+01  0.59112616250E+02  0.21813675089E+03  0.22601396473E+03  0.00000000000E+00 0.  1.
         -1    1    1    2    0  502 -0.18272055813E+03  0.61784877131E+02 -0.96551831190E+02  0.21569985978E+03  0.00000000000E+00 0.  1.
<scales pt_clust_5="13000.00000" pt_clust_6="13000.00000" pt_clust_7="13000.00000" pt_clust_8="13000.00000" pt_clust_9="59.14956" pt_clust_10="194.50786"></scales>
<clustering>
<clus scale="   59.150">  1  9  2 -1</clus>
<clus scale="   82.818">  5  6 -1 -1</clus>
<clus scale="   89.927">  7  8 -1 -1</clus>
<clus scale="  100.099">  2  5  1 -1</clus>
<clus scale="  194.508">  1 10  2 -1</clus>
<clus scale="   59.150">  1  5  2 -1</clus>
</clustering>
</event>
<event>
10    3  0.5512951E-005  0.2876891E+03  0.7546771E-02  0.1091562E+00
          1   -1    0    0  503    0 -0.00000000000E+00  0.00000000000E+00  0.11290634045E+04  0.11290634045E+04  0.00000000000E+00 0. -1.
         21   -1    0    0  501  502  0.00000000000E+00 -0.00000000000E+00 -0.75349625481E+03  0.75349625481E+03  0.00000000000E+00 0.  1.
        -24    2    1    2    0    0 -0.94447239857E+02  0.74626402370E+02  0.23407824193E+03  0.27527054507E+03  0.80572132834E+02 0.  0.
         23    2    1    2    0    0 -0.79094190384E+02  0.26892612512E+02  0.75303801784E+02  0.14417453881E+03  0.90202724560E+02 0.  0.
         11    1    3    3    0    0 -0.10638134725E+03  0.69049725475E+02  0.18390089282E+03  0.22339291397E+03  0.00000000000E+00 0. -1.
        -12    1    3    3    0    0  0.11934107397E+02  0.55766768946E+01  0.50177349118E+02  0.51877631105E+02  0.00000000000E+00 0.  1.
        -13    1    4    4    0    0 -0.53414415721E+02  0.25356723294E+02 -0.54919913557E+01  0.59382027518E+02  0.00000000000E+00 0. -1.
         13    1    4    4    0    0 -0.25679774663E+02  0.15358892183E+01  0.80795793140E+02  0.84792511294E+02  0.00000000000E+00 0.  1.
         21    1    1    2  503  502  0.27100981423E+03 -0.10256487626E+03 -0.66503711741E+03  0.72542417990E+03  0.00000000000E+00 0.  1.
          2    1    1    2  501    0 -0.97468383991E+02  0.10458613763E+01  0.73122222341E+03  0.73769039557E+03  0.00000000000E+00 0. -1.
<scales pt_clust_5="13000.00000" pt_clust_6="13000.00000" pt_clust_7="13000.00000" pt_clust_8="13000.00000" pt_clust_9="207.29405" pt_clust_10="97.47404"></scales>
<clustering>
<clus scale="   80.572">  5  6 -1 -1</clus>
<clus scale="   90.203">  7  8 -1 -1</clus>
<clus scale="   97.474">  2 10  1 -1</clus>
<clus scale="  106.941">  5  7 -1 -1</clus>
<clus scale="  207.294">  2  9  1 -1</clus>
<clus scale="   97.474">  2  5  1 -1</clus>
</clustering>
</event>
<event>
10    3  0.5078224E-005  0.1676185E+03  0.7546771E-02  0.1181949E+00
          1   -1    0    0  503    0 -0.00000000000E+00  0.00000000000E+00  0.21485094826E+03  0.21485094826E+03  0.00000000000E+00 0. -1.
         21   -1    0    0  501  502  0.00000000000E+00 -0.00000000000E+00 -0.28541702907E+03  0.28541702907E+03  0.00000000000E+00 0. -1.
         23    2    1    2    0    0  0.16489875024E+03 -0.49191303972E+02  0.75293429876E+02  0.20881357217E+03  0.91228422781E+02 0.  0.
        -24    2    1    2    0    0 -0.61696443253E+02  0.33425547007E+02 -0.13360285147E+03  0.17075045484E+03  0.79889158242E+02 0.  0.
         13    1    4    4    0    0 -0.54092792462E+02  0.51250861429E+01 -0.13040552171E+03  0.14127242051E+03  0.00000000000E+00 0. -1.
        -14    1    4    4    0    0 -0.76036507903E+01  0.28300460864E+02 -0.31973297616E+01  0.29478034332E+02  0.00000000000E+00 0.  1.
        -13    1    3    3    0    0  0.62703202186E+02  0.23480251584E+02  0.42113875095E+02  0.79098623593E+02  0.00000000000E+00 0.  1.
         13    1    3    3    0    0  0.10219554806E+03 -0.72671555556E+02  0.33179554781E+02  0.12971494858E+03  0.00000000000E+00 0. -1.
         21    1    1    2  503  502 -0.24177504340E+02 -0.41087056912E+00 -0.29575160921E+02  0.38202233891E+02  0.00000000000E+00 0. -1.
          2    1    1    2  501    0 -0.79024802650E+02  0.16176627534E+02  0.17318501705E+02  0.82501716428E+02  0.00000000000E+00 0. -1.
<scales pt_clust_5="13000.00000" pt_clust_6="13000.00000" pt_clust_7="13000.00000" pt_clust_8="13000.00000" pt_clust_9="24.18100" pt_clust_10="83.72478"></scales>
<clustering>
<clus scale="   24.181">  2  9  1 -1</clus>
<clus scale="   79.889">  5  6 -1 -1</clus>
<clus scale="   83.725">  2 10  1 -1</clus>
<clus scale="   91.228">  7  8 -1 -1</clus>
<clus scale="  161.727">  2  5  1 -1</clus>
<clus scale="   24.181">  2  5  1 -1</clus>
</clustering>
</event>
<event>
10    3  0.5078224E-005  0.9826688E+02  0.7546771E-02  0.1288646E+00
         21   -1    0    0  503  502  0.00000000000E+00  0.00000000000E+00  0.39864491387E+03  0.39864491387E+03  0.00000000000E+00 0.  1.
          3   -1    0    0  502    0 -0.00000000000E+00 -0.00000000000E+00 -0.75418778010E+02  0.75418778010E+02  0.00000000000E+00 0. -1.
        -24    2    1    2    0    0  0.11779557999E+02  0.33719546965E+02  0.22605071709E+02  0.90391656682E+02  0.79899289712E+02 0.  0.
         23    2    1    2    0    0  0.13850675307E+02 -0.58569235451E+02  0.10813605636E+03  0.15249736236E+03  0.89105792714E+02 0.  0.
         13    1    3    3    0    0  0.40113472969E+00 -0.21084107769E+02  0.26985764365E+02  0.34248094660E+02  0.00000000000E+00 0. -1.
        -14    1    3    3    0    0  0.11378423270E+02  0.54803654734E+02 -0.43806926562E+01  0.56143562021E+02  0.00000000000E+00 0.  1.
        -13    1    4    4    0    0  0.28594961075E+02  0.79831919003E+00  0.80389776363E+02  0.85327751969E+02  0.00000000000E+00 0. -1.
         13    1    4    4    0    0 -0.14744285768E+02 -0.59367554641E+02  0.27746279996E+02  0.67169610394E+02  0.00000000000E+00 0.  1.
         21    1    1    2  503  501  0.22342152497E+02  0.23295940119E+02  0.17819534710E+03  0.18109515271E+03  0.00000000000E+00 0. -1.
          4    1    1    2  501    0 -0.47972385803E+02  0.15537483680E+01  0.14289660687E+02  0.50079520127E+02  0.00000000000E+00 0. -1.
<scales pt_clust_5="13000.00000" pt_clust_6="13000.00000" pt_clust_7="13000.00000" pt_clust_8="13000.00000" pt_clust_9="32.27805" pt_clust_10="44.96529"></scales>
<clustering>
<clus scale="   32.278">  1  9  2 -1</clus>
<clus scale="   44.965">  1 10  2 -1</clus>
<clus scale="   79.899">  5  6 -1 -1</clus>
<clus scale="   89.106">  7  8 -1 -1</clus>
<clus scale="   90.002">  2  5  1 -1</clus>
<clus scale="   32.278">  1  5  2 -1</clus>
</clustering>
</event>
<event>
10    3  0.5078224E-005  0.9526024E+02  0.7546771E-02  0.1297591E+00
         -2   -1    0    0    0  501 -0.00000000000E+00  0.00000000000E+00  0.12443039544E+03  0.12443039544E+03  0.00000000000E+00 0.  1.
         21   -1    0    0  503  502  0.00000000000E+00 -0.00000000000E+00 -0.13869280911E+03  0.13869280911E+03  0.00000000000E+00 0. -1.
         23    2    1    2    0    0 -0.60553413125E+01  0.40833269267E+02  0.90626182557E+01  0.10102698688E+03  0.91762181702E+02 0.  0.
        -24    2    1    2    0    0 -0.73533925435E+01 -0.11747488661E+02 -0.56298100916E+02  0.98491132086E+02  0.79617529860E+02 0.  0.
         11    1    4    4    0    0  0.16800055271E+02 -0.26479334584E+02 -0.62138379274E+02  0.69602982666E+02  0.00000000000E+00 0. -1.
        -12    1    4    4    0    0 -0.24153447814E+02  0.14731845922E+02  0.58402783588E+01  0.28888149420E+02  0.00000000000E+00 0.  1.
        -11    1    3    3    0    0 -0.47492246265E+02  0.14906008591E+02 -0.53586321452E+01  0.50064133727E+02  0.00000000000E+00 0.  1.
         11    1    3    3    0    0  0.41436904952E+02  0.25927260676E+02  0.14421250401E+02  0.50962853151E+02  0.00000000000E+00 0. -1.
         21    1    1    2  503  501 -0.13367310984E+02 -0.19542518802E+02  0.60150285052E+01  0.24428991219E+02  0.00000000000E+00 0.  1.
         -1    1    1    2    0  502  0.26776044840E+02 -0.95432618040E+01  0.26958040489E+02  0.39176094370E+02  0.00000000000E+00 0.  1.
<scales pt_clust_5="13000.00000" pt_clust_6="13000.00000" pt_clust_7="13000.00000" pt_clust_8="13000.00000" pt_clust_9="23.67689" pt_clust_10="27.48848"></scales>
<clustering>
<clus scale="   23.677">  1  9  2 -1</clus>
<clus scale="   27.488">  2 10  1 -1</clus>
<clus scale="   79.618">  5  6 -1 -1</clus>
<clus scale="   83.625">  2  5  1 -1</clus>
<clus scale="   91.762">  7  8 -1 -1</clus>
<clus scale="   27.488">  2  5  1 -1</clus>
</clustering>
</event>
<event>
10    3  0.5078224E-005  0.2410789E+03  0.7546771E-02  0.1149884E+00
          1   -1    0    0  502    0 -0.00000000000E+00  0.00000000000E+00  0.74193523905E+03  0.74193523905E+03  0.00000000000E+00 0. -1.
         21   -1    0    0  503  502  0.00000000000E+00 -0.00000000000E+00 -0.23807639954E+03  0.23807639954E+03  0.00000000000E+00 0. -1.
        -24    2    1    2    0    0 -0.51017939616E+02 -0.57357844924E+02  0.80605114572E+02  0.14110599591E+03  0.86723497674E+02 0.  0.
         23    2    1    2    0    0  0.14123220581E+03  0.20557378096E+03  0.25373479745E+03  0.36928028252E+03  0.98891173756E+02 0.  0.
         13    1    3    3    0    0 -0.33570886493E+02  0.24292198957E+01  0.70348953310E+02  0.77986413952E+02  0.00000000000E+00 0. -1.
        -14    1    3    3    0    0 -0.17447053123E+02 -0.59787064820E+02  0.10256161262E+02  0.63119581956E+02  0.00000000000E+00 0.  1.
        -13    1    4    4    0    0  0.31733193787E+02  0.94655139234E+02  0.15632188478E+03  0.18548078777E+03  0.00000000000E+00 0.  1.
         13    1    4    4    0    0  0.10949901202E+03  0.11091864172E+03  0.97412912671E+02  0.18379949475E+03  0.00000000000E+00 0. -1.
         21    1    1    2  503  501  0.69334698159E+02 -0.32756701353E+02 -0.10607762189E+03  0.13089218356E+03  0.00000000000E+00 0. -1.
          2    1    1    2  501    0 -0.15954896435E+03 -0.11545923468E+03  0.27559654938E+03  0.33873317660E+03  0.00000000000E+00 0. -1.
<scales pt_clust_5="13000.00000" pt_clust_6="13000.00000" pt_clust_7="13000.00000" pt_clust_8="13000.00000" pt_clust_9="76.68313" pt_clust_10="219.86265"></scales>
<clustering>
<clus scale="   76.683">  2  9  1 -1</clus>
<clus scale="   86.723">  5  6 -1 -1</clus>
<clus scale="   98.891">  7  8 -1 -1</clus>
<clus scale="  113.802">  1  5  2 -1</clus>
<clus scale="  219.863">  2 10  1 -1</clus>
<clus scale="   76.683">  2  5  1 -1</clus>
</clustering>
</event>
<event>
10    3  0.5078224E-005  0.1359634E+03  0.7546771E-02  0.1236872E+00
          1   -1    0    0  503    0 -0.00000000000E+00  0.00000000000E+00  0.57457538243E+03  0.57457538243E+03  0.00000000000E+00 0. -1.
         21   -1    0    0  501  502  0.00000000000E+00 -0.00000000000E+00 -0.16738814953E+03  0.16738814953E+03  0.00000000000E+00 0.  1.
        -24    2    1    2    0    0 -0.22688071114E+02  0.32928273077E+02  0.48872097179E+02  0.10146381769E+03  0.79419170727E+02 0.  0.
         23    2    1    2    0    0 -0.46336226119E+02  0.37189790954E+02  0.41946710581E+03  0.43285788892E+03  0.88787232976E+02 0.  0.
         11    1    3    3    0    0 -0.42783114171E+02  0.44392699023E+01  0.50780022974E+02  0.66548574054E+02  0.00000000000E+00 0. -1.
        -12    1    3    3    0    0  0.20095043057E+02  0.28489003175E+02 -0.19079257949E+01  0.34915243636E+02  0.00000000000E+00 0.  1.
        -11    1    4    4    0    0  0.18534457773E+02  0.32668154514E+02  0.21632467277E+03  0.21956114978E+03  0.00000000000E+00 0.  1.
         11    1    4    4    0    0 -0.64870683893E+02  0.45216364398E+01  0.20314243304E+03  0.21329673913E+03  0.00000000000E+00 0. -1.
         21    1    1    2  503  502  0.12325060877E+02  0.56708426217E+02 -0.29749257050E+02  0.65213273378E+02  0.00000000000E+00 0.  1.
          2    1    1    2  501    0  0.56699236357E+02 -0.12682649025E+03 -0.31402713036E+02  0.14242855198E+03  0.00000000000E+00 0. -1.
<scales pt_clust_5="13000.00000" pt_clust_6="13000.00000" pt_clust_7="13000.00000" pt_clust_8="13000.00000" pt_clust_9="58.03234" pt_clust_10="102.97021"></scales>
<clustering>
<clus scale="   58.032">  2  9  1 -1</clus>
<clus scale="   79.419">  5  6 -1 -1</clus>
<clus scale="   88.787">  7  8 -1 -1</clus>
<clus scale="   93.620">  1  5  2 -1</clus>
<clus scale="  102.970">  2 10  1 -1</clus>
<clus scale="   58.032">  2  5  1 -1</clus>
</clustering>
</event>
<event>
10    3  0.5078224E-005  0.1189619E+03  0.7546771E-02  0.1257210E+00
          1   -1    0    0  503    0 -0.00000000000E+00  0.00000000000E+00  0.49358241009E+03  0.49358241009E+03  0.00000000000E+00 0. -1.
         21   -1    0    0  501  502  0.00000000000E+00 -0.00000000000E+00 -0.12325915053E+03  0.12325915053E+03  0.00000000000E+00 0. -1.
         23    2    1    2    0    0  0.30807196240E+02 -0.37415822234E+02 -0.20207686371E+02  0.10458028711E+03  0.90441465982E+02 0.  0.
        -24    2    1    2    0    0  0.75716501997E+02 -0.31537632668E+02  0.25181903575E+03  0.27672062398E+03  0.80211383341E+02 0.  0.
         11    1    4    4    0    0  0.90449109353E+02 -0.21040997423E+02  0.23195706185E+03  0.24985564532E+03  0.00000000000E+00 0. -1.
        -12    1    4    4    0    0 -0.14732607356E+02 -0.10496635244E+02  0.19861973899E+02  0.26864978655E+02  0.00000000000E+00 0.  1.
        -11    1    3    3    0    0 -0.18757124180E+02  0.17494846701E+02  0.55670970086E+01  0.26246750993E+02  0.00000000000E+00 0.  1.
         11    1    3    3    0    0  0.49564320420E+02 -0.54910668935E+02 -0.25774783380E+02  0.78333536112E+02  0.00000000000E+00 0. -1.
         21    1    1    2  503  502 -0.23884048408E+02  0.29245092884E+02 -0.26819355798E+02  0.46314156276E+02  0.00000000000E+00 0. -1.
          2    1    1    2  501    0 -0.82639649829E+02  0.39708362017E+02  0.16553126597E+03  0.18922649326E+03  0.00000000000E+00 0. -1.
<scales pt_clust_5="13000.00000" pt_clust_6="13000.00000" pt_clust_7="13000.00000" pt_clust_8="13000.00000" pt_clust_9="37.75875" pt_clust_10="87.85254"></scales>
<clustering>
<clus scale="   37.759">  2  9  1 -1</clus>
<clus scale="   80.211">  5  6 -1 -1</clus>
<clus scale="   90.441">  7  8 -1 -1</clus>
<clus scale="   92.914">  1  7  2 -1</clus>
<clus scale="   87.853">  2 10  1 -1</clus>
<clus scale="   37.759">  2  5  1 -1</clus>
</clustering>
</event>
<event>
10    3  0.5078224E-005  0.1702039E+03  0.7546771E-02  0.1203262E+00
         21   -1    0    0  501  502  0.00000000000E+00  0.00000000000E+00  0.27012626557E+03  0.27012626557E+03  0.00000000000E+00 0. -1.
          1   -1    0    0  503    0 -0.00000000000E+00 -0.00000000000E+00 -0.28778742323E+03  0.28778742323E+03  0.00000000000E+00 0. -1.
         23    2    1    2    0    0 -0.16991940822E+02 -0.23030001598E+02 -0.10146610729E+03  0.13886059574E+03  0.90375810340E+02 0.  0.
        -24    2    1    2    0    0 -0.71264234482E+02  0.15798022377E+03  0.47106807149E+02  0.19919479572E+03  0.86157838551E+02 0.  0.
         11    1    4    4    0    0 -0.78289048390E+02  0.11137592452E+03  0.62243352136E+02  0.14969304107E+03  0.00000000000E+00 0. -1.
        -12    1    4    4    0    0  0.70248139086E+01  0.46604299252E+02 -0.15136544987E+02  0.49501754649E+02  0.00000000000E+00 0.  1.
        -11    1    3    3    0    0  0.26740750057E+02  0.12097637965E+02 -0.66686918164E+02  0.72859904009E+02  0.00000000000E+00 0.  1.
         11    1    3    3    0    0 -0.43732690880E+02 -0.35127639563E+02 -0.34779189123E+02  0.66000691731E+02  0.00000000000E+00 0. -1.
         21    1    1    2  503  502 -0.26805839948E+02 -0.57066097443E+02  0.49736804904E+02  0.80304684139E+02  0.00000000000E+00 0. -1.
          2    1    1    2  501    0  0.11506201525E+03 -0.77884124728E+02 -0.13038662428E+02  0.13955361320E+03  0.00000000000E+00 0. -1.
<scales pt_clust_5="13000.00000" pt_clust_6="13000.00000" pt_clust_7="13000.00000" pt_clust_8="13000.00000" pt_clust_9="63.04833" pt_clust_10="146.78624"></scales>
<clustering>
<clus scale="   63.048">  1  9  2 -1</clus>
<clus scale="   86.158">  5  6 -1 -1</clus>
<clus scale="   90.376">  7  8 -1 -1</clus>
<clus scale="   96.657">  2  7  1 -1</clus>
<clus scale="  146.786">  1 10  2 -1</clus>
<clus scale="   63.048">  1  5  2 -1</clus>
</clustering>
</event>
<event>
10    3  0.5078224E-005  0.1831686E+03  0.7546771E-02  0.1165813E+00
         -2   -1    0    0    0  501 -0.00000000000E+00  0.00000000000E+00  0.10520673931E+04  0.10520673931E+04  0.00000000000E+00 0.  1.
         21   -1    0    0  503  502  0.00000000000E+00 -0.00000000000E+00 -0.12722923915E+03  0.12722923915E+03  0.00000000000E+00 0.  1.
        -24    2    1    2    0    0  0.16627912580E+03  0.10074695567E+02  0.72799089005E+03  0.75128362558E+03  0.81890798592E+02 0.  0.
         23    2    1    2    0    0 -0.12231029469E+03  0.10931062905E+03  0.10470765838E+03  0.21483080593E+03  0.90994283568E+02 0.  0.
         11    1    3    3    0    0  0.94593851933E+02  0.42950228349E+02  0.34708494872E+03  0.36229915894E+03  0.00000000000E+00 0. -1.
        -12    1    3    3    0    0  0.71685273871E+02 -0.32875532782E+02  0.38090594134E+03  0.38898446664E+03  0.00000000000E+00 0.  1.
        -11    1    4    4    0    0 -0.71140203652E+02  0.89391065024E+02  0.11133508964E+03  0.15952176424E+03  0.00000000000E+00 0.  1.
         11    1    4    4    0    0 -0.51170091037E+02  0.19919564022E+02 -0.66274312513E+01  0.55309041689E+02  0.00000000000E+00 0. -1.
         21    1    1    2  503  501 -0.81427681641E+02 -0.34186164603E+02  0.96880626158E+01  0.88842668493E+02  0.00000000000E+00 0.  1.
         -1    1    1    2    0  502  0.37458850525E+02 -0.85199160010E+02  0.82451542848E+02  0.12433953220E+03  0.00000000000E+00 0.  1.
<scales pt_clust_5="13000.00000" pt_clust_6="13000.00000" pt_clust_7="13000.00000" pt_clust_8="13000.00000" pt_clust_9="88.31286" pt_clust_10="95.08742"></scales>
<clustering>
<clus scale="   81.891">  5  6 -1 -1</clus>
<clus scale="   88.313">  2  9  1 -1</clus>
<clus scale="   90.994">  7  8 -1 -1</clus>
<clus scale="   95.087">  2 10  1 -1</clus>
<clus scale="  178.821">  1  5  2 -1</clus>
<clus scale="   88.313">  2  5  1 -1</clus>
</clustering>
</event>
<event>
10    3  0.5078224E-005  0.5186227E+03  0.7546771E-02  0.1009140E+00
          1   -1    0    0  503    0 -0.00000000000E+00  0.00000000000E+00  0.16171945157E+04  0.16171945157E+04  0.00000000000E+00 0. -1.
         21   -1    0    0  501  502  0.00000000000E+00 -0.00000000000E+00 -0.33582642999E+03  0.33582642999E+03  0.00000000000E+00 0. -1.
        -24    2    1    2    0    0  0.26445482068E+03  0.55467475468E+03  0.95344068593E+03  0.11369520721E+04  0.77527008337E+02 0.  0.
         23    2    1    2    0    0 -0.28616553402E+03 -0.26147247558E+03  0.18474895329E+03  0.43844684453E+03  0.88571391494E+02 0.  0.
         13    1    3    3    0    0  0.17908779546E+03  0.44830767481E+03  0.75581657442E+03  0.89683382181E+03  0.00000000000E+00 0. -1.
        -14    1    3    3    0    0  0.85367025222E+02  0.10636707987E+03  0.19762411151E+03  0.24011825029E+03  0.00000000000E+00 0.  1.
        -13    1    4    4    0    0 -0.26255666835E+03 -0.20452427059E+03  0.17504059508E+03  0.37603908212E+03  0.00000000000E+00 0. -1.
         13    1    4    4    0    0 -0.23608865664E+02 -0.56948204991E+02  0.97083582080E+01  0.62407762407E+02  0.00000000000E+00 0.  1.
         21    1    1    2  503  502  0.32129897829E+02 -0.78926776334E+01 -0.29192276909E+02  0.44122712132E+02  0.00000000000E+00 0.  1.
          2    1    1    2  501    0 -0.10419184492E+02 -0.28530960147E+03  0.17237072338E+03  0.33349931690E+03  0.00000000000E+00 0. -1.
<scales pt_clust_5="13000.00000" pt_clust_6="13000.00000" pt_clust_7="13000.00000" pt_clust_8="13000.00000" pt_clust_9="33.08511" pt_clust_10="287.44048"></scales>
<clustering>
<clus scale="   33.085">  2  9  1 -1</clus>
<clus scale="   77.527">  5  6 -1 -1</clus>
<clus scale="   88.571">  7  8 -1 -1</clus>
<clus scale="  287.440">  2 10  1 -1</clus>
<clus scale="  516.851">  1  5  2 -1</clus>
<clus scale="   33.085">  2  5  1 -1</clus>
</clustering>
</event>
<event>
10    3  0.5078224E-005  0.1571870E+03  0.7546771E-02  0.1217785E+00
         21   -1    0    0  503  502  0.00000000000E+00  0.00000000000E+00  0.91642688916E+03  0.91642688916E+03  0.00000000000E+00 0. -1.
         -4   -1    0    0    0  501 -0.00000000000E+00 -0.00000000000E+00 -0.35233843783E+03  0.35233843783E+03  0.00000000000E+00 0.  1.
         23    2    1    2    0    0 -0.45076467705E+01 -0.48039731173E+02  0.36403029354E+02  0.97098921703E+02  0.75992666746E+02 0.  0.
        -24    2    1    2    0    0 -0.37047158635E+02  0.10530034508E+03  0.26369135480E+03  0.29747220706E+03  0.80597324651E+02 0.  0.
         11    1    4    4    0    0 -0.78108719615E+01  0.57216143510E+02  0.21637663939E+03  0.22394987581E+03  0.00000000000E+00 0. -1.
        -12    1    4    4    0    0 -0.29236286673E+02  0.48084201573E+02  0.47314715411E+02  0.73522331259E+02  0.00000000000E+00 0.  1.
        -11    1    3    3    0    0 -0.22574894981E+02  0.88043843595E+01 -0.46724551788E+01  0.24677416898E+02  0.00000000000E+00 0. -1.
         11    1    3    3    0    0  0.18067248211E+02 -0.56844115533E+02  0.41075484532E+02  0.72421504805E+02  0.00000000000E+00 0.  1.
         21    1    1    2  503  501 -0.18387475270E+02 -0.19389576101E+03  0.53250906906E+03  0.56700932445E+03  0.00000000000E+00 0. -1.
         -3    1    1    2    0  502  0.59942280675E+02  0.13663514710E+03 -0.26851500188E+03  0.30718487377E+03  0.00000000000E+00 0.  1.
<scales pt_clust_5="13000.00000" pt_clust_6="13000.00000" pt_clust_7="13000.00000" pt_clust_8="13000.00000" pt_clust_9="134.95114" pt_clust_10="109.10484"></scales>
<clustering>
<clus scale="   75.993">  7  8 -1 -1</clus>
<clus scale="   80.597">  5  6 -1 -1</clus>
<clus scale="   90.017">  2  7  1 -1</clus>
<clus scale="  109.105">  1 10  2 -1</clus>
<clus scale="  134.951">  1  9  2 -1</clus>
<clus scale="  109.105">  1  5  2 -1</clus>
</clustering>
</event>
<event>
10    3  0.5078224E-005  0.1140059E+03  0.7546771E-02  0.1257281E+00
         21   -1    0    0  503  502  0.00000000000E+00  0.00000000000E+00  0.40219248576E+03  0.40219248576E+03  0.00000000000E+00 0. -1.
         -2   -1    0    0    0  501 -0.00000000000E+00 -0.00000000000E+00 -0.30921728951E+03  0.30921728951E+03  0.00000000000E+00 0.  1.
        -24    2    1    2    0    0 -0.52365109598E+02 -0.46920455661E+02 -0.26818882710E+03  0.28842697594E+03  0.79506223702E+02 0.  0.
         23    2    1    2    0    0  0.29353744858E+02  0.53134367576E+02  0.80680540384E+02  0.13564691701E+03  0.90586053806E+02 0.  0.
         11    1    3    3    0    0  0.15620413172E+02 -0.28954572624E+02 -0.11954118122E+03  0.12398571930E+03  0.00000000000E+00 0. -1.
        -12    1    3    3    0    0 -0.67985522770E+02 -0.17965883037E+02 -0.14864764588E+03  0.16444125664E+03  0.00000000000E+00 0.  1.
        -11    1    4    4    0    0 -0.29196000944E+02  0.18839438314E+02  0.50700966825E+02  0.61464778077E+02  0.00000000000E+00 0. -1.
         11    1    4    4    0    0  0.58549745802E+02  0.34294929262E+02  0.29979573558E+02  0.74182138937E+02  0.00000000000E+00 0.  1.
         21    1    1    2  503  501 -0.13066666067E+02 -0.19596114575E+02  0.12150268572E+03  0.12376448644E+03  0.00000000000E+00 0. -1.
         -1    1    1    2    0  502  0.36078030807E+02  0.13382202660E+02  0.15898079724E+03  0.16357139587E+03  0.00000000000E+00 0.  1.
<scales pt_clust_5="13000.00000" pt_clust_6="13000.00000" pt_clust_7="13000.00000" pt_clust_8="13000.00000" pt_clust_9="23.55304" pt_clust_10="28.61544"></scales>
<clustering>
<clus scale="   23.553">  1  9  2 -1</clus>
<clus scale="   28.615">  1 10  2 -1</clus>
<clus scale="   79.506">  5  6 -1 -1</clus>
<clus scale="   90.586">  7  8 -1 -1</clus>
<clus scale="  105.417">  2  5  1 -1</clus>
<clus scale="   23.553">  1  5  2 -1</clus>
</clustering>
</event>
<event>
10    3  0.5078224E-005  0.1263734E+03  0.7546771E-02  0.1248050E+00
         -2   -1    0    0    0  501 -0.00000000000E+00  0.00000000000E+00  0.76990151414E+03  0.76990151414E+03  0.00000000000E+00 0.  1.
         21   -1    0    0  503  502  0.00000000000E+00 -0.00000000000E+00 -0.13506220208E+03  0.13506220208E+03  0.00000000000E+00 0.  1.
         23    2    1    2    0    0 -0.22423316605E+02  0.13288325573E+02  0.29638281758E+03  0.31121537671E+03  0.91284453341E+02 0.  0.
        -24    2    1    2    0    0 -0.89694224364E+02  0.36130208250E+02  0.35504537406E+03  0.37675442404E+03  0.80846969982E+02 0.  0.
         13    1    4    4    0    0 -0.16396563865E+02 -0.23508217565E+02  0.12110188548E+03  0.12444737951E+03  0.00000000000E+00 0. -1.
        -14    1    4    4    0    0 -0.73297660499E+02  0.59638425815E+02  0.23394348858E+03  0.25230704453E+03  0.00000000000E+00 0.  1.
        -11    1    3    3    0    0  0.27603897125E+02  0.29820379115E+02  0.15799643926E+03  0.16313830012E+03  0.00000000000E+00 0. -1.
         11    1    3    3    0    0 -0.50027213730E+02 -0.16532053542E+02  0.13838637832E+03  0.14807707659E+03  0.00000000000E+00 0.  1.
         21    1    1    2  503  501  0.25846295077E+02 -0.68278206712E+02 -0.79978855410E+02  0.10828925059E+03  0.00000000000E+00 0.  1.
         -1    1    1    2    0  502  0.86271245893E+02  0.18859672889E+02  0.63389975830E+02  0.10870466487E+03  0.00000000000E+00 0.  1.
<scales pt_clust_5="13000.00000" pt_clust_6="13000.00000" pt_clust_7="13000.00000" pt_clust_8="13000.00000" pt_clust_9="73.00647" pt_clust_10="97.12876"></scales>
<clustering>
<clus scale="   73.006">  2  9  1 -1</clus>
<clus scale="   80.847">  5  6 -1 -1</clus>
<clus scale="   91.284">  7  8 -1 -1</clus>
<clus scale="   92.997">  1  7  2 -1</clus>
<clus scale="   97.129">  2 10  1 -1</clus>
<clus scale="   73.006">  2  5  1 -1</clus>
</clustering>
</event>
<event>
10    3  0.5078224E-005  0.9026955E+02  0.7546771E-02  0.1305932E+00
         21   -1    0    0  501  502  0.00000000000E+00  0.00000000000E+00  0.43426950269E+02  0.43426950269E+02  0.00000000000E+00 0. -1.
          1   -1    0    0  503    0 -0.00000000000E+00 -0.00000000000E+00 -0.64124057692E+03  0.64124057692E+03  0.00000000000E+00 0. -1.
        -24    2    1    2    0    0 -0.22286087258E+01 -0.65650441182E+01 -0.31676114227E+03  0.32702526993E+03  0.80992835577E+02 0.  0.
         23    2    1    2    0    0  0.68501652286E+01  0.65049475117E+02 -0.21564989291E+03  0.24162865243E+03  0.87184691220E+02 0.  0.
         11    1    3    3    0    0  0.31301919013E+02  0.18166383698E+02 -0.19507662310E+03  0.19840543468E+03  0.00000000000E+00 0. -1.
        -12    1    3    3    0    0 -0.33530527739E+02 -0.24731427816E+02 -0.12168451918E+03  0.12861983525E+03  0.00000000000E+00 0.  1.
        -13    1    4    4    0    0 -0.18734321298E+02  0.39613457300E+02 -0.19540769022E+03  0.20026074550E+03  0.00000000000E+00 0.  1.
         13    1    4    4    0    0  0.25584486527E+02  0.25436017817E+02 -0.20242202698E+02  0.41367906924E+02  0.00000000000E+00 0. -1.
         21    1    1    2  503  502  0.19487031496E+01 -0.32134979750E+02  0.11711151075E+02  0.34257925025E+02  0.00000000000E+00 0. -1.
          2    1    1    2  501    0 -0.65702596524E+01 -0.26349451249E+02 -0.77113742537E+02  0.81755679810E+02  0.00000000000E+00 0. -1.
<scales pt_clust_5="13000.00000" pt_clust_6="13000.00000" pt_clust_7="13000.00000" pt_clust_8="13000.00000" pt_clust_9="46.90009" pt_clust_10="27.15626"></scales>
<clustering>
<clus scale="   27.156">  1 10  2 -1</clus>
<clus scale="   46.900">  1  9  2 -1</clus>
<clus scale="   80.993">  5  6 -1 -1</clus>
<clus scale="   84.305">  2  5  1 -1</clus>
<clus scale="   87.185">  7  8 -1 -1</clus>
<clus scale="   27.156">  1  5  2 -1</clus>
</clustering>
</event>
<event>
10    3  0.5078224E-005  0.2628779E+03  0.7546771E-02  0.1116225E+00
         21   -1    0    0  503  502  0.00000000000E+00  0.00000000000E+00  0.71958162878E+03  0.71958162878E+03  0.00000000000E+00 0. -1.
          1   -1    0    0  502    0 -0.00000000000E+00 -0.00000000000E+00 -0.40629817619E+03  0.40629817619E+03  0.00000000000E+00 0. -1.
         23    2    1    2    0    0 -0.17064832999E+03  0.53256189704E+02 -0.21068043592E+03  0.28954800876E+03  0.86572103047E+02 0.  0.
        -24    2    1    2    0    0 -0.87553321329E+02 -0.17981840629E+03  0.66830242611E+02  0.22657328127E+03  0.82878990954E+02 0.  0.
         13    1    4    4    0    0 -0.93583960427E+02 -0.11358935504E+03  0.62601986475E+02  0.15993594949E+03  0.00000000000E+00 0. -1.
        -14    1    4    4    0    0  0.60306390978E+01 -0.66229051245E+02  0.42282561363E+01  0.66637331779E+02  0.00000000000E+00 0.  1.
        -11    1    3    3    0    0 -0.82689084027E+02  0.17505839601E+02 -0.38398900843E+02  0.92835416858E+02  0.00000000000E+00 0.  1.
         11    1    3    3    0    0 -0.87959245963E+02  0.35750350103E+02 -0.17228153508E+03  0.19671259190E+03  0.00000000000E+00 0. -1.
         21    1    1    2  503  501 -0.25665463654E+02 -0.26401431021E+02  0.18256742039E+03  0.18624342827E+03  0.00000000000E+00 0. -1.
          2    1    1    2  501    0  0.28386711497E+03  0.15296364760E+03  0.27456622551E+03  0.42351508667E+03  0.00000000000E+00 0. -1.
<scales pt_clust_5="13000.00000" pt_clust_6="13000.00000" pt_clust_7="13000.00000" pt_clust_8="13000.00000" pt_clust_9="36.82053" pt_clust_10="249.47116"></scales>
<clustering>
<clus scale="   36.821">  1  9  2 -1</clus>
<clus scale="   82.879">  5  6 -1 -1</clus>
<clus scale="   86.572">  7  8 -1 -1</clus>
<clus scale="  199.743">  2  7  1 -1</clus>
<clus scale="  249.471">  1 10  2 -1</clus>
<clus scale="   36.821">  1  5  2 -1</clus>
</clustering>
</event>
<event>
10    3  0.5078224E-005  0.2251416E+03  0.7546771E-02  0.1156758E+00
          1   -1    0    0  503    0 -0.00000000000E+00  0.00000000000E+00  0.87343636351E+03  0.87343636351E+03  0.00000000000E+00 0. -1.
         21   -1    0    0  501  502  0.00000000000E+00 -0.00000000000E+00 -0.54550148523E+03  0.54550148523E+03  0.00000000000E+00 0.  1.
         23    2    1    2    0    0 -0.18416723518E+02  0.73734785099E+02  0.31881048340E+03  0.34027891010E+03  0.91507475629E+02 0.  0.
        -24    2    1    2    0    0  0.22025200018E+03  0.62781909982E+02 -0.39728773644E+03  0.46664828522E+03  0.86432428903E+02 0.  0.
         13    1    4    4    0    0  0.13432922167E+03  0.51844940063E+02 -0.16639855589E+03  0.22004707907E+03  0.00000000000E+00 0. -1.
        -14    1    4    4    0    0  0.85922778509E+02  0.10936969919E+02 -0.23088918055E+03  0.24660120615E+03  0.00000000000E+00 0.  1.
        -13    1    3    3    0    0 -0.23022438288E+02 -0.12766914247E+02  0.36677796622E+02  0.45147397812E+02  0.00000000000E+00 0. -1.
         13    1    3    3    0    0  0.46057147703E+01  0.86501699346E+02  0.28213268678E+03  0.29513151229E+03  0.00000000000E+00 0.  1.
         21    1    1    2  503  502 -0.20069679090E+02 -0.13350702947E+02 -0.77207615318E+02  0.80882934856E+02  0.00000000000E+00 0.  1.
          2    1    1    2  501    0 -0.18176559758E+03 -0.12316599213E+03  0.48361974664E+03  0.53112771856E+03  0.00000000000E+00 0. -1.
<scales pt_clust_5="13000.00000" pt_clust_6="13000.00000" pt_clust_7="13000.00000" pt_clust_8="13000.00000" pt_clust_9="24.10463" pt_clust_10="207.88997"></scales>
<clustering>
<clus scale="   24.105">  2  9  1 -1</clus>
<clus scale="   86.432">  5  6 -1 -1</clus>
<clus scale="   91.507">  7  8 -1 -1</clus>
<clus scale="  118.834">  1  7  2 -1</clus>
<clus scale="  207.890">  2 10  1 -1</clus>
<clus scale="   24.105">  2  5  1 -1</clus>
</clustering>
</event>
<event>
10    3  0.5078224E-005  0.2069458E+03  0.7546771E-02  0.1166423E+00
         21   -1    0    0  503  502  0.00000000000E+00  0.00000000000E+00  0.63328756761E+03  0.63328756761E+03  0.00000000000E+00 0. -1.
          3   -1    0    0  502    0 -0.00000000000E+00 -0.00000000000E+00 -0.14133038914E+03  0.14133038914E+03  0.00000000000E+00 0. -1.
        -24    2    1    2    0    0  0.80139135772E+02  0.51869014154E+02  0.28371315183E+03  0.30893664598E+03  0.76393867535E+02 0.  0.
         23    2    1    2    0    0 -0.11969539646E+03  0.14164824102E+03  0.12460971449E+03  0.24188541842E+03  0.92680972063E+02 0.  0.
         11    1    3    3    0    0  0.35440485455E+02  0.53680129398E+01  0.20036401949E+03  0.20354504140E+03  0.00000000000E+00 0. -1.
        -12    1    3    3    0    0  0.44698650317E+02  0.46501001214E+02  0.83349132332E+02  0.10539160457E+03  0.00000000000E+00 0.  1.
        -13    1    4    4    0    0  0.13163359432E+01  0.31059004917E+02 -0.67555522061E+01  0.31812450587E+02  0.00000000000E+00 0.  1.
         13    1    4    4    0    0 -0.12101173240E+03  0.11058923610E+03  0.13136526670E+03  0.21007296783E+03  0.00000000000E+00 0. -1.
         21    1    1    2  503  501 -0.13982791818E+02 -0.31860514862E+02  0.27953865207E+02  0.44632157178E+02  0.00000000000E+00 0.  1.
          4    1    1    2  501    0  0.53539052504E+02 -0.16165674031E+03  0.55680446956E+02  0.17916373518E+03  0.00000000000E+00 0. -1.
<scales pt_clust_5="13000.00000" pt_clust_6="13000.00000" pt_clust_7="13000.00000" pt_clust_8="13000.00000" pt_clust_9="28.85931" pt_clust_10="195.73734"></scales>
<clustering>
<clus scale="   28.859">  9 10 -1 -1</clus>
<clus scale="   76.394">  5  6 -1 -1</clus>
<clus scale="   92.681">  7  8 -1 -1</clus>
<clus scale="  122.265">  2  5  1 -1</clus>
<clus scale="  195.737">  1  9  2 -1</clus>
<clus scale="  195.737">  1  5  2 -1</clus>
</clustering>
</event>
<event>
10    3  0.5078224E-005  0.2610147E+03  0.7546771E-02  0.1144344E+00
          1   -1    0    0  503    0 -0.00000000000E+00  0.00000000000E+00  0.17936663479E+04  0.17936663479E+04  0.00000000000E+00 0. -1.
         21   -1    0    0  501  502  0.00000000000E+00 -0.00000000000E+00 -0.41068467108E+03  0.41068467108E+03  0.00000000000E+00 0. -1.
         23    2    1    2    0    0 -0.25415499482E+02 -0.42755498292E+02  0.15049724046E+03  0.18198265491E+03  0.89410777058E+02 0.  0.
        -24    2    1    2    0    0  0.17948697484E+03  0.14923015578E+03  0.78138279611E+03  0.81910697483E+03  0.76759029632E+02 0.  0.
         13    1    4    4    0    0  0.18692870189E+03  0.14621170670E+03  0.74665493568E+03  0.78346269582E+03  0.00000000000E+00 0. -1.
        -14    1    4    4    0    0 -0.74417270465E+01  0.30184490807E+01  0.34727860428E+02  0.35644279010E+02  0.00000000000E+00 0.  1.
        -13    1    3    3    0    0 -0.47213024638E+02 -0.71705733684E+01  0.12316303009E+03  0.13209700526E+03  0.00000000000E+00 0.  1.
         13    1    3    3    0    0  0.21797525155E+02 -0.35584924923E+02  0.27334210377E+02  0.49885649656E+02  0.00000000000E+00 0. -1.
         21    1    1    2  503  502  0.16110246487E+03 -0.81338357937E+02 -0.32137668015E+03  0.36858228824E+03  0.00000000000E+00 0. -1.
          2    1    1    2  501    0 -0.31517394023E+03 -0.25136299551E+02  0.77247832040E+03  0.83467910100E+03  0.00000000000E+00 0. -1.
<scales pt_clust_5="13000.00000" pt_clust_6="13000.00000" pt_clust_7="13000.00000" pt_clust_8="13000.00000" pt_clust_9="180.42328" pt_clust_10="249.47288"></scales>
<clustering>
<clus scale="   76.759">  5  6 -1 -1</clus>
<clus scale="   89.411">  7  8 -1 -1</clus>
<clus scale="  102.315">  1  7  2 -1</clus>
<clus scale="  180.423">  2  9  1 -1</clus>
<clus scale="  249.473">  2 10  1 -1</clus>
<clus scale="  180.423">  2  5  1 -1</clus>
</clustering>
</event>
<event>
10    3  0.5078224E-005  0.9901686E+02  0.7546771E-02  0.1290167E+00
         21   -1    0    0  501  502  0.00000000000E+00  0.00000000000E+00  0.12314809476E+03  0.12314809476E+03  0.00000000000E+00 0. -1.
          3   -1    0    0  503    0 -0.00000000000E+00 -0.00000000000E+00 -0.33537351250E+03  0.33537351250E+03  0.00000000000E+00 0. -1.
         23    2    1    2    0    0 -0.44884280212E+02 -0.19415339855E+02 -0.15736530714E+03  0.18989026630E+03  0.94355282389E+02 0.  0.
        -24    2    1    2    0    0 -0.42218532368E+01 -0.25526433326E+02 -0.13677131751E+02  0.85236210491E+02  0.80054511446E+02 0.  0.
         11    1    4    4    0    0 -0.38650517531E+02 -0.26576960505E+02 -0.18564751386E+02  0.50446479849E+02  0.00000000000E+00 0. -1.
        -12    1    4    4    0    0  0.34428664294E+02  0.10505271790E+01  0.48876196353E+01  0.34789730642E+02  0.00000000000E+00 0.  1.
        -11    1    3    3    0    0 -0.70911660769E+02  0.37034624739E+01 -0.11361550716E+03  0.13398008335E+03  0.00000000000E+00 0.  1.
         11    1    3    3    0    0  0.26027380557E+02 -0.23118802329E+02 -0.43749799972E+02  0.55910182949E+02  0.00000000000E+00 0. -1.
         21    1    1    2  503  502  0.20397926180E+02  0.27379800578E+02  0.64229763831E+02  0.72740576255E+02  0.00000000000E+00 0. -1.
          4    1    1    2  501    0  0.28708207269E+02  0.17561972604E+02 -0.10541274268E+03  0.11065455421E+03  0.00000000000E+00 0. -1.
<scales pt_clust_5="13000.00000" pt_clust_6="13000.00000" pt_clust_7="13000.00000" pt_clust_8="13000.00000" pt_clust_9="52.37675" pt_clust_10="33.65390"></scales>
<clustering>
<clus scale="   33.654">  1 10  2 -1</clus>
<clus scale="   52.377">  1  9  2 -1</clus>
<clus scale="   80.055">  5  6 -1 -1</clus>
<clus scale="   85.499">  1  5  2 -1</clus>
<clus scale="   94.355">  7  8 -1 -1</clus>
<clus scale="   33.654">  1  5  2 -1</clus>
</clustering>
</event>
<event>
10    3  0.5078224E-005  0.1294455E+03  0.7546771E-02  0.1238785E+00
         -2   -1    0    0    0  501 -0.00000000000E+00  0.00000000000E+00  0.38040134518E+03  0.38040134518E+03  0.00000000000E+00 0.  1.
         21   -1    0    0  503  502  0.00000000000E+00 -0.00000000000E+00 -0.10302780959E+03  0.10302780959E+03  0.00000000000E+00 0. -1.
         23    2    1    2    0    0  0.21872542010E+02 -0.49832120467E+02  0.84346024306E+02  0.13565893405E+03  0.91254842316E+02 0.  0.
        -24    2    1    2    0    0  0.85721143760E+02  0.29443598835E+02  0.28325443550E+02  0.12592257417E+03  0.82698995968E+02 0.  0.
         13    1    4    4    0    0  0.93563515694E+02  0.36200758083E+02  0.50508538725E+01  0.10044967635E+03  0.00000000000E+00 0. -1.
        -14    1    4    4    0    0 -0.78423719340E+01 -0.67571592478E+01  0.23274589677E+02  0.25472897819E+02  0.00000000000E+00 0.  1.
        -11    1    3    3    0    0 -0.29002779557E+02 -0.20873966913E+02  0.35846010550E+01  0.35912853986E+02  0.00000000000E+00 0. -1.
         11    1    3    3    0    0  0.50875321567E+02 -0.28958153554E+02  0.80761423251E+02  0.99746080060E+02  0.00000000000E+00 0.  1.
         21    1    1    2  503  501  0.14755742002E+02  0.21488467676E+02  0.24643124909E+02  0.35871573291E+02  0.00000000000E+00 0. -1.
         -1    1    1    2    0  502 -0.12234942777E+03 -0.10999460439E+01  0.14005894283E+03  0.18597607325E+03  0.00000000000E+00 0.  1.
<scales pt_clust_5="13000.00000" pt_clust_6="13000.00000" pt_clust_7="13000.00000" pt_clust_8="13000.00000" pt_clust_9="26.06696" pt_clust_10="99.58425"></scales>
<clustering>
<clus scale="   26.067">  1  9  2 -1</clus>
<clus scale="   82.699">  5  6 -1 -1</clus>
<clus scale="   91.255">  7  8 -1 -1</clus>
<clus scale="  104.337">  1  7  2 -1</clus>
<clus scale="   99.584">  2 10  1 -1</clus>
<clus scale="   99.584">  2  5  1 -1</clus>
</clustering>
</event>
<event>
10    3  0.5078224E-005  0.1089568E+03  0.7546771E-02  0.1266186E+00
          1   -1    0    0  503    0 -0.00000000000E+00  0.00000000000E+00  0.54671192147E+03  0.54671192147E+03  0.00000000000E+00 0. -1.
         21   -1    0    0  501  502  0.00000000000E+00 -0.00000000000E+00 -0.57666304321E+02  0.57666304321E+02  0.00000000000E+00 0. -1.
        -24    2    1    2    0    0 -0.32544765220E+02 -0.85944296993E+02  0.30396709895E+03  0.32792507777E+03  0.81812440703E+02 0.  0.
         23    2    1    2    0    0  0.20682633971E+02  0.47567914148E+01  0.10591046568E+03  0.14123027225E+03  0.90986617959E+02 0.  0.
         11    1    3    3    0    0 -0.56072423910E+02 -0.38626698479E+02  0.14051366447E+03  0.15614169354E+03  0.00000000000E+00 0. -1.
        -12    1    3    3    0    0  0.23527658689E+02 -0.47317598514E+02  0.16345343448E+03  0.17178338423E+03  0.00000000000E+00 0.  1.
        -13    1    4    4    0    0  0.26745078349E+02 -0.36297508782E+02  0.28332212086E+02  0.53249625363E+02  0.00000000000E+00 0. -1.
         13    1    4    4    0    0 -0.60624443774E+01  0.41054300197E+02  0.77578253592E+02  0.87980646888E+02  0.00000000000E+00 0.  1.
         21    1    1    2  503  502  0.17305117858E+02  0.39169413299E+02 -0.28406150938E+01  0.42915954334E+02  0.00000000000E+00 0. -1.
          2    1    1    2  501    0 -0.54429866093E+01  0.42018092280E+02  0.82008667613E+02  0.92306921440E+02  0.00000000000E+00 0. -1.
<scales pt_clust_5="13000.00000" pt_clust_6="13000.00000" pt_clust_7="13000.00000" pt_clust_8="13000.00000" pt_clust_9="59.38246" pt_clust_10="42.36919"></scales>
<clustering>
<clus scale="   42.369">  2 10  1 -1</clus>
<clus scale="   59.382">  2  9  1 -1</clus>
<clus scale="   81.812">  5  6 -1 -1</clus>
<clus scale="   90.987">  7  8 -1 -1</clus>
<clus scale="  101.421">  1  5  2 -1</clus>
<clus scale="   42.369">  2  5  1 -1</clus>
</clustering>
</event>
<event>
10    3  0.5078224E-005  0.1060425E+03  0.7546771E-02  0.1272971E+00
         21   -1    0    0  501  502  0.00000000000E+00  0.00000000000E+00  0.10086388348E+03  0.10086388348E+03  0.00000000000E+00 0. -1.
          1   -1    0    0  503    0 -0.00000000000E+00 -0.00000000000E+00 -0.25148885621E+03  0.25148885621E+03  0.00000000000E+00 0. -1.
        -24    2    1    2    0    0  0.53192081127E+02 -0.34698338815E+02 -0.10629256365E+03  0.14809736277E+03  0.81248677290E+02 0.  0.
         23    2    1    2    0    0 -0.49314911519E+01  0.37664189726E+02 -0.10298623971E+02  0.10043616666E+03  0.92403739777E+02 0.  0.
         13    1    3    3    0    0 -0.91067397293E+01 -0.38168219290E+02 -0.53606164467E+02  0.66433173499E+02  0.00000000000E+00 0. -1.
        -14    1    3    3    0    0  0.62298820857E+02  0.34698804752E+01 -0.52686399184E+02  0.81664189273E+02  0.00000000000E+00 0.  1.
        -11    1    4    4    0    0  0.16217678600E+02  0.61912299418E+02 -0.19614343213E+02  0.66939288748E+02  0.00000000000E+00 0. -1.
         11    1    4    4    0    0 -0.21149169752E+02 -0.24248109692E+02  0.93157192424E+01  0.33496877911E+02  0.00000000000E+00 0.  1.
         21    1    1    2  503  502  0.17774341182E+02 -0.18248415716E+02  0.44739053897E+01  0.25864023470E+02  0.00000000000E+00 0. -1.
          2    1    1    2  501    0 -0.66034931158E+02  0.15282564805E+02 -0.38507690497E+02  0.77955186790E+02  0.00000000000E+00 0. -1.
<scales pt_clust_5="13000.00000" pt_clust_6="13000.00000" pt_clust_7="13000.00000" pt_clust_8="13000.00000" pt_clust_9="25.47414" pt_clust_10="62.92753"></scales>
<clustering>
<clus scale="   25.474">  1  9  2 -1</clus>
<clus scale="   62.928">  1 10  2 -1</clus>
<clus scale="   81.249">  5  6 -1 -1</clus>
<clus scale="   92.404">  7  8 -1 -1</clus>
<clus scale="   96.478">  2  5  1 -1</clus>
<clus scale="   25.474">  1  5  2 -1</clus>
</clustering>
</event>
<event>
10    3  0.5078224E-005  0.2471049E+03  0.7546771E-02  0.1150474E+00
          3   -1    0    0  502    0 -0.00000000000E+00  0.00000000000E+00  0.13140605246E+03  0.13140605246E+03  0.00000000000E+00 0. -1.
         21   -1    0    0  503  502  0.00000000000E+00 -0.00000000000E+00 -0.14669474069E+04  0.14669474069E+04  0.00000000000E+00 0. -1.
        -24    2    1    2    0    0  0.47376732358E+02  0.34380738671E+02  0.33164355650E+02  0.10906674076E+03  0.85843400995E+02 0.  0.
         23    2    1    2    0    0  0.14334399509E+03 -0.10430311570E+03 -0.51838429872E+03  0.55556104843E+03  0.92190869963E+02 0.  0.
         13    1    3    3    0    0  0.71732177725E+02  0.16367415554E+02  0.24745254317E+02  0.77625544921E+02  0.00000000000E+00 0. -1.
        -14    1    3    3    0    0 -0.24355445366E+02  0.18013323117E+02  0.84191013333E+01  0.31441195842E+02  0.00000000000E+00 0.  1.
        -11    1    4    4    0    0  0.12612423403E+03 -0.11903300986E+03 -0.48616461103E+03  0.51617071679E+03  0.00000000000E+00 0. -1.
         11    1    4    4    0    0  0.17219761059E+02  0.14729894156E+02 -0.32219687686E+02  0.39390331648E+02  0.00000000000E+00 0.  1.
         21    1    1    2  503  501  0.61696217561E+02 -0.60633922233E+02 -0.32670155509E+03  0.33795976371E+03  0.00000000000E+00 0. -1.
          4    1    1    2  501    0 -0.25241694501E+03  0.13055629926E+03 -0.52361985632E+03  0.59576590649E+03  0.00000000000E+00 0. -1.
<scales pt_clust_5="13000.00000" pt_clust_6="13000.00000" pt_clust_7="13000.00000" pt_clust_8="13000.00000" pt_clust_9="86.50373" pt_clust_10="229.26349"></scales>
<clustering>
<clus scale="   85.843">  5  6 -1 -1</clus>
<clus scale="   86.504">  2  9  1 -1</clus>
<clus scale="   92.191">  7  8 -1 -1</clus>
<clus scale="  104.212">  1  5  2 -1</clus>
<clus scale="  229.263">  2 10  1 -1</clus>
<clus scale="   86.504">  2  5  1 -1</clus>
</clustering>
</event>
<event>
10    3  0.5078224E-005  0.1869670E+03  0.7546771E-02  0.1191221E+00
         21   -1    0    0  503  502  0.00000000000E+00  0.00000000000E+00  0.61582840480E+02  0.61582840480E+02  0.00000000000E+00 0. -1.
          1   -1    0    0  502    0 -0.00000000000E+00 -0.00000000000E+00 -0.98957597596E+03  0.98957597596E+03  0.00000000000E+00 0. -1.
         23    2    1    2    0    0 -0.11178271085E+02  0.12855988212E+02 -0.20942053000E+03  0.22948003650E+03  0.92270789466E+02 0.  0.
        -24    2    1    2    0    0 -0.46118386668E+02 -0.16116408933E+03 -0.37848183173E+03  0.42180167485E+03  0.81039414359E+02 0.  0.
         13    1    4    4    0    0 -0.46096385068E+02 -0.13391283662E+03 -0.36476271571E+03  0.39129191571E+03  0.00000000000E+00 0. -1.
        -14    1    4    4    0    0 -0.22001599990E-01 -0.27251252710E+02 -0.13719116014E+02  0.30509759136E+02  0.00000000000E+00 0.  1.
        -13    1    3    3    0    0  0.33175262727E+02 -0.82704880249E+01 -0.37812498516E+02  0.50978270598E+02  0.00000000000E+00 0.  1.
         13    1    3    3    0    0 -0.44353533812E+02  0.21126476237E+02 -0.17160803149E+03  0.17850176590E+03  0.00000000000E+00 0. -1.
         21    1    1    2  503  501 -0.35342249192E+02  0.10505646145E+01 -0.43855490357E+02  0.56333669314E+02  0.00000000000E+00 0. -1.
          2    1    1    2  501    0  0.92638906946E+02  0.14725753650E+03 -0.29623528339E+03  0.34354343577E+03  0.00000000000E+00 0. -1.
<scales pt_clust_5="13000.00000" pt_clust_6="13000.00000" pt_clust_7="13000.00000" pt_clust_8="13000.00000" pt_clust_9="35.35786" pt_clust_10="168.49115"></scales>
<clustering>
<clus scale="   35.358">  1  9  2 -1</clus>
<clus scale="   81.039">  5  6 -1 -1</clus>
<clus scale="   92.271">  7  8 -1 -1</clus>
<clus scale="   94.833">  2  7  1 -1</clus>
<clus scale="  168.491">  1 10  2 -1</clus>
<clus scale="   35.358">  1  5  2 -1</clus>
</clustering>
</event>
<event>
10    3  0.5078224E-005  0.1267374E+03  0.7546771E-02  0.1235868E+00
         21   -1    0    0  501  502  0.00000000000E+00  0.00000000000E+00  0.77908016749E+02  0.77908016749E+02  0.00000000000E+00 0. -1.
          1   -1    0    0  503    0 -0.00000000000E+00 -0.00000000000E+00 -0.64101934166E+03  0.64101934166E+03  0.00000000000E+00 0. -1.
        -24    2    1    2    0    0 -0.16469445690E+02 -0.72532696852E+02 -0.27412611559E+03  0.29498467450E+03  0.79615301213E+02 0.  0.
         23    2    1    2    0    0  0.30684976288E+01  0.12238152538E+03 -0.18305811838E+03  0.23869987104E+03  0.92090717765E+02 0.  0.
         13    1    3    3    0    0  0.18207806265E+02 -0.58033528103E+02 -0.22530856790E+03  0.23337387464E+03  0.00000000000E+00 0. -1.
        -14    1    3    3    0    0 -0.34677251955E+02 -0.14499168749E+02 -0.48817547694E+02  0.61610799868E+02  0.00000000000E+00 0.  1.
        -13    1    4    4    0    0  0.24207045536E+02 -0.43989899043E+01 -0.27077983016E+02  0.36586190427E+02  0.00000000000E+00 0.  1.
         13    1    4    4    0    0 -0.21138547907E+02  0.12678051528E+03 -0.15598013537E+03  0.20211368062E+03  0.00000000000E+00 0. -1.
         21    1    1    2  503  502  0.34911059144E+02  0.16561941117E+02  0.18292976378E+02  0.42751759366E+02  0.00000000000E+00 0. -1.
          2    1    1    2  501    0 -0.21510111082E+02 -0.66410769645E+02 -0.12422006731E+03  0.14249105350E+03  0.00000000000E+00 0. -1.
<scales pt_clust_5="13000.00000" pt_clust_6="13000.00000" pt_clust_7="13000.00000" pt_clust_8="13000.00000" pt_clust_9="38.64039" pt_clust_10="64.92246"></scales>
<clustering>
<clus scale="   38.640">  1  9  2 -1</clus>
<clus scale="   64.922">  1 10  2 -1</clus>
<clus scale="   79.615">  5  6 -1 -1</clus>
<clus scale="   92.091">  7  8 -1 -1</clus>
<clus scale="  117.984">  2  5  1 -1</clus>
<clus scale="   38.640">  1  5  2 -1</clus>
</clustering>
</event>
<event>
10    3  0.5078224E-005  0.2644108E+03  0.7546771E-02  0.1135682E+00
          1   -1    0    0  503    0 -0.00000000000E+00  0.00000000000E+00  0.10669624758E+04  0.10669624758E+04  0.00000000000E+00 0. -1.
         21   -1    0    0  501  502  0.00000000000E+00 -0.00000000000E+00 -0.12979157019E+03  0.12979157019E+03  0.00000000000E+00 0.  1.
         23    2    1    2    0    0  0.17926714944E+02 -0.86547690268E+02  0.17764886495E+03  0.22092107402E+03  0.97134607267E+02 0.  0.
        -24    2    1    2    0    0 -0.21401332220E+03  0.12434756025E+03  0.21110369894E+03  0.33564257418E+03  0.82626557938E+02 0.  0.
         11    1    4    4    0    0 -0.35435384014E+01  0.27319459653E+02  0.35147329368E+02  0.44656962524E+02  0.00000000000E+00 0. -1.
        -12    1    4    4    0    0 -0.21046978380E+03  0.97028100593E+02  0.17595636957E+03  0.29098561165E+03  0.00000000000E+00 0.  1.
        -13    1    3    3    0    0 -0.18874723762E+02 -0.92096768987E+02  0.13108210065E+03  0.16130898043E+03  0.00000000000E+00 0.  1.
         13    1    3    3    0    0  0.36801438706E+02  0.55490787187E+01  0.46566764294E+02  0.59612093591E+02  0.00000000000E+00 0. -1.
         21    1    1    2  503  502 -0.41494843760E+01  0.81636681574E+02  0.68553990736E+02  0.10668371781E+03  0.00000000000E+00 0.  1.
          2    1    1    2  501    0  0.20023609163E+03 -0.11943655155E+03  0.47986435095E+03  0.53350667995E+03  0.00000000000E+00 0. -1.
<scales pt_clust_5="13000.00000" pt_clust_6="13000.00000" pt_clust_7="13000.00000" pt_clust_8="13000.00000" pt_clust_9="81.74207" pt_clust_10="251.16927"></scales>
<clustering>
<clus scale="   81.742">  2  9  1 -1</clus>
<clus scale="   82.627">  5  6 -1 -1</clus>
<clus scale="   97.135">  7  8 -1 -1</clus>
<clus scale="  121.292">  1  7  2 -1</clus>
<clus scale="  251.169">  2 10  1 -1</clus>
<clus scale="   81.742">  2  5  1 -1</clus>
</clustering>
</event>
<event>
10    3  0.5078224E-005  0.1664052E+03  0.7546771E-02  0.1182966E+00
          1   -1    0    0  503    0 -0.00000000000E+00  0.00000000000E+00  0.10596941632E+04  0.10596941632E+04  0.00000000000E+00 0. -1.
         21   -1    0    0  501  502  0.00000000000E+00 -0.00000000000E+00 -0.61821846375E+02  0.61821846375E+02  0.00000000000E+00 0.  1.
         23    2    1    2    0    0 -0.40628301218E+02  0.17023209119E+03  0.65215106621E+03  0.68117718753E+03  0.89842773362E+02 0.  0.
        -24    2    1    2    0    0 -0.12991197183E+02 -0.10416765664E+03  0.25052081858E+03  0.28331409570E+03  0.80538961933E+02 0.  0.
         13    1    4    4    0    0  0.15932730414E+02 -0.42622760602E+02  0.35255366767E+02  0.57562943858E+02  0.00000000000E+00 0. -1.
        -14    1    4    4    0    0 -0.28923927597E+02 -0.61544896035E+02  0.21526545181E+03  0.22575115184E+03  0.00000000000E+00 0.  1.
        -11    1    3    3    0    0 -0.62843708486E+02  0.14209686888E+03  0.45509838100E+03  0.48089020392E+03  0.00000000000E+00 0. -1.
         11    1    3    3    0    0  0.22215407268E+02  0.28135222312E+02  0.19705268521E+03  0.20028698361E+03  0.00000000000E+00 0.  1.
         21    1    1    2  503  502 -0.21062463364E+02 -0.13620427288E+02 -0.93193636696E-01  0.25082904288E+02  0.00000000000E+00 0.  1.
          2    1    1    2  501    0  0.74681961765E+02 -0.52444007268E+02  0.95293625662E+02  0.13194182204E+03  0.00000000000E+00 0. -1.
<scales pt_clust_5="13000.00000" pt_clust_6="13000.00000" pt_clust_7="13000.00000" pt_clust_8="13000.00000" pt_clust_9="25.08273" pt_clust_10="88.18019"></scales>
<clustering>
<clus scale="   25.083">  2  9  1 -1</clus>
<clus scale="   80.539">  5  6 -1 -1</clus>
<clus scale="   88.180">  2 10  1 -1</clus>
<clus scale="   89.843">  7  8 -1 -1</clus>
<clus scale="  161.572">  2  5  1 -1</clus>
<clus scale="   25.083">  2  5  1 -1</clus>
</clustering>
</event>
<event>
10    3  0.5078224E-005  0.9293915E+02  0.7546771E-02  0.1299981E+00
         21   -1    0    0  501  502  0.00000000000E+00  0.00000000000E+00  0.54211998019E+03  0.54211998019E+03  0.00000000000E+00 0.  1.
          3   -1    0    0  503    0 -0.00000000000E+00 -0.00000000000E+00 -0.16473160818E+03  0.16473160818E+03  0.00000000000E+00 0. -1.
         23    2    1    2    0    0  0.24820922296E+02 -0.14147800889E+02  0.17114701069E+02  0.93623419194E+02  0.87499675287E+02 0.  0.
        -24    2    1    2    0    0 -0.55994049372E+02  0.36073064905E+01  0.40077909597E+03  0.41257033526E+03  0.80262391853E+02 0.  0.
         13    1    4    4    0    0 -0.28887717929E+02 -0.99869506643E+01  0.39133023741E+02  0.49655140497E+02  0.00000000000E+00 0. -1.
        -14    1    4    4    0    0 -0.27106331444E+02  0.13594257155E+02  0.36164607223E+03  0.36291519476E+03  0.00000000000E+00 0.  1.
        -11    1    3    3    0    0 -0.31404981871E+02 -0.60096263142E+01 -0.55584652432E+01  0.32454353030E+02  0.00000000000E+00 0.  1.
         11    1    3    3    0    0  0.56225904167E+02 -0.81381745744E+01  0.22673166312E+02  0.61169066164E+02  0.00000000000E+00 0. -1.
         21    1    1    2  503  502 -0.39704869697E+02  0.24801758615E+02  0.60466464806E+02  0.76470891679E+02  0.00000000000E+00 0.  1.
          4    1    1    2  501    0  0.70877996774E+02 -0.14261264217E+02 -0.10097188984E+03  0.12418694224E+03  0.00000000000E+00 0. -1.
<scales pt_clust_5="13000.00000" pt_clust_6="13000.00000" pt_clust_7="13000.00000" pt_clust_8="13000.00000" pt_clust_9="46.81457" pt_clust_10="71.22589"></scales>
<clustering>
<clus scale="   46.815">  1  9  2 -1</clus>
<clus scale="   71.226">  1 10  2 -1</clus>
<clus scale="   80.262">  5  6 -1 -1</clus>
<clus scale="   86.160">  1  5  2 -1</clus>
<clus scale="   87.500">  7  8 -1 -1</clus>
<clus scale="   46.815">  1  5  2 -1</clus>
</clustering>
</event>
<event>
10    3  0.5078224E-005  0.1279543E+03  0.7546771E-02  0.1234046E+00
          3   -1    0    0  502    0 -0.00000000000E+00  0.00000000000E+00  0.36298011930E+03  0.36298011930E+03  0.00000000000E+00 0. -1.
         21   -1    0    0  503  502  0.00000000000E+00 -0.00000000000E+00 -0.17058583390E+03  0.17058583390E+03  0.00000000000E+00 0. -1.
        -24    2    1    2    0    0  0.78100062587E+02 -0.16701224509E+02  0.89284589905E+02  0.14263641508E+03  0.77426469877E+02 0.  0.
         23    2    1    2    0    0 -0.10188884890E+03 -0.57593532377E+02  0.13560387852E+03  0.20072515769E+03  0.90574966525E+02 0.  0.
         11    1    3    3    0    0  0.45585719737E+02 -0.47826410342E+02  0.56764294067E+02  0.87106879471E+02  0.00000000000E+00 0. -1.
        -12    1    3    3    0    0  0.32514342850E+02  0.31125185834E+02  0.32520295838E+02  0.55529535614E+02  0.00000000000E+00 0.  1.
        -13    1    4    4    0    0 -0.41163363867E+02  0.86605686746E+01  0.52481700115E+01  0.42390697836E+02  0.00000000000E+00 0. -1.
         13    1    4    4    0    0 -0.60725485029E+02 -0.66254101051E+02  0.13035570850E+03  0.15833445986E+03  0.00000000000E+00 0.  1.
         21    1    1    2  503  501 -0.59319938468E+02  0.56137754499E+02 -0.59392606909E+02  0.10098407961E+03  0.00000000000E+00 0. -1.
          4    1    1    2  501    0  0.83108724777E+02  0.18157002386E+02  0.26898423887E+02  0.89220300814E+02  0.00000000000E+00 0. -1.
<scales pt_clust_5="13000.00000" pt_clust_6="13000.00000" pt_clust_7="13000.00000" pt_clust_8="13000.00000" pt_clust_9="81.67192" pt_clust_10="73.02885"></scales>
<clustering>
<clus scale="   77.426">  5  6 -1 -1</clus>
<clus scale="   81.672">  2  9  1 -1</clus>
<clus scale="   73.029">  2 10  1 -1</clus>
<clus scale="   90.575">  7  8 -1 -1</clus>
<clus scale="  119.010">  1  5  2 -1</clus>
<clus scale="   81.672">  2  5  1 -1</clus>
</clustering>
</event>
<event>
10    3  0.5078224E-005  0.3737117E+03  0.7546771E-02  0.1053511E+00
         21   -1    0    0  503  502  0.00000000000E+00  0.00000000000E+00  0.14688514070E+03  0.14688514070E+03  0.00000000000E+00 0.  1.
          1   -1    0    0  502    0 -0.00000000000E+00 -0.00000000000E+00 -0.12171071610E+04  0.12171071610E+04  0.00000000000E+00 0. -1.
        -24    2    1    2    0    0  0.17203138334E+03 -0.33683161801E+03 -0.56828268968E+03  0.68726431959E+03  0.79603353239E+02 0.  0.
         23    2    1    2    0    0 -0.16433099341E+03  0.30353823667E+03 -0.40675455756E+03  0.54103893524E+03  0.90187154478E+02 0.  0.
         13    1    3    3    0    0  0.15371061863E+03 -0.22478710121E+03 -0.41893769244E+03  0.49966487298E+03  0.00000000000E+00 0. -1.
        -14    1    3    3    0    0  0.18320764702E+02 -0.11204451681E+03 -0.14934499724E+03  0.18759944660E+03  0.00000000000E+00 0.  1.
        -13    1    4    4    0    0 -0.11112895891E+03  0.24900562020E+03 -0.26569011321E+03  0.38071601051E+03  0.00000000000E+00 0.  1.
         13    1    4    4    0    0 -0.53202034509E+02  0.54532616467E+02 -0.14106444435E+03  0.16032292473E+03  0.00000000000E+00 0. -1.
         21    1    1    2  503  501  0.21574234785E+02  0.71372489852E+01  0.89324015226E+01  0.24416709987E+02  0.00000000000E+00 0.  1.
          2    1    1    2  501    0 -0.29274624707E+02  0.26156132356E+02 -0.10411717462E+03  0.11127233692E+03  0.00000000000E+00 0. -1.
<scales pt_clust_5="13000.00000" pt_clust_6="13000.00000" pt_clust_7="13000.00000" pt_clust_8="13000.00000" pt_clust_9="22.72417" pt_clust_10="38.94985"></scales>
<clustering>
<clus scale="   22.724">  1  9  2 -1</clus>
<clus scale="   38.950">  1 10  2 -1</clus>
<clus scale="   79.603">  5  6 -1 -1</clus>
<clus scale="   90.187">  7  8 -1 -1</clus>
<clus scale="  371.300">  2  5  1 -1</clus>
<clus scale="   22.724">  1  5  2 -1</clus>
</clustering>
</event>
<event>
10    3  0.5078224E-005  0.2143443E+03  0.7546771E-02  0.1164555E+00
         -2   -1    0    0    0  501 -0.00000000000E+00  0.00000000000E+00  0.11315312335E+04  0.11315312335E+04  0.00000000000E+00 0.  1.
         21   -1    0    0  503  502  0.00000000000E+00 -0.00000000000E+00 -0.19363839483E+03  0.19363839483E+03  0.00000000000E+00 0.  1.
        -24    2    1    2    0    0  0.44376818653E+02 -0.71773011712E+02  0.15239677697E+03  0.19187618788E+03  0.80442691410E+02 0.  0.
         23    2    1    2    0    0  0.20147715759E+03  0.72632421675E+02 -0.24648327056E+02  0.23284438511E+03  0.87979849634E+02 0.  0.
         13    1    3    3    0    0 -0.70691742256E+01 -0.31425698757E+02  0.77360428680E+01  0.33126939578E+02  0.00000000000E+00 0. -1.
        -14    1    3    3    0    0  0.51445992879E+02 -0.40347312955E+02  0.14466073410E+03  0.15874924830E+03  0.00000000000E+00 0.  1.
        -13    1    4    4    0    0  0.89788291030E+02 -0.46396889254E+01 -0.35353896972E+02  0.96609326416E+02  0.00000000000E+00 0.  1.
         13    1    4    4    0    0  0.11168886656E+03  0.77272110600E+02  0.10705569916E+02  0.13623505869E+03  0.00000000000E+00 0. -1.
         21    1    1    2  503  501 -0.28983930348E+02  0.54208438946E+01 -0.24331833660E+02  0.38229463719E+02  0.00000000000E+00 0. -1.
         -1    1    1    2    0  502 -0.21687004589E+03 -0.62802538576E+01  0.83447622242E+03  0.86221959162E+03  0.00000000000E+00 0.  1.
<scales pt_clust_5="13000.00000" pt_clust_6="13000.00000" pt_clust_7="13000.00000" pt_clust_8="13000.00000" pt_clust_9="29.48650" pt_clust_10="195.45602"></scales>
<clustering>
<clus scale="   29.487">  2  9  1 -1</clus>
<clus scale="   80.443">  5  6 -1 -1</clus>
<clus scale="   87.980">  7  8 -1 -1</clus>
<clus scale="  114.879">  1  5  2 -1</clus>
<clus scale="  195.456">  2 10  1 -1</clus>
<clus scale="   29.487">  2  5  1 -1</clus>
</clustering>
</event>
<event>
10    3  0.5078224E-005  0.1193270E+03  0.7546771E-02  0.1244902E+00
          1   -1    0    0  503    0 -0.00000000000E+00  0.00000000000E+00  0.49133999528E+03  0.49133999528E+03  0.00000000000E+00 0. -1.
         21   -1    0    0  501  502  0.00000000000E+00 -0.00000000000E+00 -0.12859603961E+04  0.12859603961E+04  0.00000000000E+00 0.  1.
         23    2    1    2    0    0 -0.64113567822E+02 -0.21572624717E+02  0.22691165332E+03  0.25306238148E+03  0.89307014227E+02 0.  0.
        -24    2    1    2    0    0  0.13757366283E+03 -0.54155178293E+02  0.45139399716E+02  0.17961974400E+03  0.91467977925E+02 0.  0.
         13    1    4    4    0    0  0.80739508817E+02  0.12935692221E+02  0.22765332945E+01  0.81800874207E+02  0.00000000000E+00 0. -1.
        -14    1    4    4    0    0  0.56834154015E+02 -0.67090870514E+02  0.42862866422E+02  0.97818869789E+02  0.00000000000E+00 0.  1.
        -11    1    3    3    0    0  0.22936654315E+01 -0.40145113377E+02  0.57596298330E+02  0.70244036120E+02  0.00000000000E+00 0.  1.
         11    1    3    3    0    0 -0.66407233254E+02  0.18572488660E+02  0.16931535499E+03  0.18281834536E+03  0.00000000000E+00 0. -1.
         21    1    1    2  503  502 -0.12802960733E+03  0.14343292492E+03 -0.11834800481E+04  0.11989952496E+04  0.00000000000E+00 0.  1.
          2    1    1    2  501    0  0.54569512319E+02 -0.67705121913E+02  0.11680859421E+03  0.14562301634E+03  0.00000000000E+00 0. -1.
<scales pt_clust_5="13000.00000" pt_clust_6="13000.00000" pt_clust_7="13000.00000" pt_clust_8="13000.00000" pt_clust_9="110.97457" pt_clust_10="86.95874"></scales>
<clustering>
<clus scale="   86.959">  2 10  1 -1</clus>
<clus scale="   89.307">  7  8 -1 -1</clus>
<clus scale="   91.468">  5  6 -1 -1</clus>
<clus scale="  110.975">  2  9  1 -1</clus>
<clus scale="  117.679">  1  7  2 -1</clus>
<clus scale="   86.959">  2  5  1 -1</clus>
</clustering>
</event>
<event>
10    3  0.5078224E-005  0.4277974E+03  0.7546771E-02  0.1034558E+00
         -2   -1    0    0    0  501 -0.00000000000E+00  0.00000000000E+00  0.12655993702E+04  0.12655993702E+04  0.00000000000E+00 0.  1.
         21   -1    0    0  503  502  0.00000000000E+00 -0.00000000000E+00 -0.16598298513E+03  0.16598298513E+03  0.00000000000E+00 0.  1.
        -24    2    1    2    0    0 -0.22285810132E+03 -0.95071773530E+02  0.54419355994E+03  0.60303774459E+03  0.93827049798E+02 0.  0.
         23    2    1    2    0    0 -0.11508380782E+03  0.20574851400E+02  0.16989517698E+03  0.22311872287E+03  0.85146849622E+02 0.  0.
         13    1    3    3    0    0 -0.11308075024E+03 -0.79395956338E+01  0.31041201764E+03  0.33046318093E+03  0.00000000000E+00 0. -1.
        -14    1    3    3    0    0 -0.10977735108E+03 -0.87132177896E+02  0.23378154230E+03  0.27257456366E+03  0.00000000000E+00 0.  1.
        -11    1    4    4    0    0 -0.12164634451E+02 -0.24887768692E+02  0.58809789517E+02  0.65007466531E+02  0.00000000000E+00 0. -1.
         11    1    4    4    0    0 -0.10291917336E+03  0.45462620092E+02  0.11108538746E+03  0.15811125634E+03  0.00000000000E+00 0.  1.
         21    1    1    2  503  501 -0.27309182550E+02 -0.34330157786E+02 -0.20612238860E+02  0.48468707183E+02  0.00000000000E+00 0.  1.
         -1    1    1    2    0  502  0.36525109168E+03  0.10882707992E+03  0.40613988698E+03  0.55695718067E+03  0.00000000000E+00 0.  1.
<scales pt_clust_5="13000.00000" pt_clust_6="13000.00000" pt_clust_7="13000.00000" pt_clust_8="13000.00000" pt_clust_9="43.86743" pt_clust_10="360.76768"></scales>
<clustering>
<clus scale="   43.867">  2  9  1 -1</clus>
<clus scale="   85.147">  7  8 -1 -1</clus>
<clus scale="   93.827">  5  6 -1 -1</clus>
<clus scale="  131.487">  5  7 -1 -1</clus>
<clus scale="  360.768">  2 10  1 -1</clus>
<clus scale="   43.867">  2  5  1 -1</clus>
</clustering>
</event>
<event>
10    3  0.5078224E-005  0.1776441E+03  0.7546771E-02  0.1171228E+00
          1   -1    0    0  502    0 -0.00000000000E+00  0.00000000000E+00  0.10649304786E+04  0.10649304786E+04  0.00000000000E+00 0. -1.
         21   -1    0    0  503  502  0.00000000000E+00 -0.00000000000E+00 -0.88926466561E+02  0.88926466561E+02  0.00000000000E+00 0. -1.
        -24    2    1    2    0    0  0.13363812200E+03  0.82220867108E+02  0.33032939846E+03  0.37435641975E+03  0.80036234815E+02 0.  0.
         23    2    1    2    0    0 -0.11292664519E+03 -0.97468972000E+02  0.17230000055E+03  0.24480125765E+03  0.89374145386E+02 0.  0.
         11    1    3    3    0    0  0.12846201153E+03  0.85636681447E+02  0.25028835042E+03  0.29407548006E+03  0.00000000000E+00 0. -1.
        -12    1    3    3    0    0  0.51761104737E+01 -0.34158143388E+01  0.80041048035E+02  0.80280939692E+02  0.00000000000E+00 0.  1.
        -13    1    4    4    0    0 -0.44000694450E+02 -0.46788383934E+02  0.13876917299E+03  0.15291205759E+03  0.00000000000E+00 0.  1.
         13    1    4    4    0    0 -0.68925950740E+02 -0.50680588066E+02  0.33530827558E+02  0.91889200067E+02  0.00000000000E+00 0. -1.
         21    1    1    2  503  501  0.51605104071E+02 -0.25477660107E+01 -0.37438416312E+01  0.51803419076E+02  0.00000000000E+00 0. -1.
          2    1    1    2  501    0 -0.72316580882E+02  0.17795870902E+02  0.47711845469E+03  0.48289584871E+03  0.00000000000E+00 0. -1.
<scales pt_clust_5="13000.00000" pt_clust_6="13000.00000" pt_clust_7="13000.00000" pt_clust_8="13000.00000" pt_clust_9="51.66796" pt_clust_10="72.07974"></scales>
<clustering>
<clus scale="   51.668">  2  9  1 -1</clus>
<clus scale="   72.080">  2 10  1 -1</clus>
<clus scale="   80.036">  5  6 -1 -1</clus>
<clus scale="   89.374">  7  8 -1 -1</clus>
<clus scale="  173.134">  1  5  2 -1</clus>
<clus scale="   51.668">  2  5  1 -1</clus>
</clustering>
</event>
<event>
10    3  0.5078224E-005  0.1396550E+03  0.7546771E-02  0.1228329E+00
          1   -1    0    0  503    0 -0.00000000000E+00  0.00000000000E+00  0.52276254636E+03  0.52276254636E+03  0.00000000000E+00 0. -1.
         21   -1    0    0  501  502  0.00000000000E+00 -0.00000000000E+00 -0.94680988002E+02  0.94680988002E+02  0.00000000000E+00 0. -1.
         23    2    1    2    0    0 -0.34125079989E+02 -0.27897299738E+02  0.26705449627E+03  0.28604709640E+03  0.92531383660E+02 0.  0.
        -24    2    1    2    0    0 -0.77427640363E+02 -0.33837615833E+02  0.10097966219E+03  0.15615081681E+03  0.83941418135E+02 0.  0.
         11    1    4    4    0    0 -0.62412766425E+02 -0.56591616255E+02  0.97196804330E+02  0.12862808097E+03  0.00000000000E+00 0. -1.
        -12    1    4    4    0    0 -0.15014873938E+02  0.22754000422E+02  0.37828578598E+01  0.27522735840E+02  0.00000000000E+00 0.  1.
        -13    1    3    3    0    0  0.31781467532E+02 -0.77433578352E+01  0.69428601286E+02  0.76748628298E+02  0.00000000000E+00 0.  1.
         13    1    3    3    0    0 -0.65906547521E+02 -0.20153941903E+02  0.19762589499E+03  0.20929846810E+03  0.00000000000E+00 0. -1.
         21    1    1    2  503  502  0.10516884662E+02 -0.27359459586E+02  0.16705153492E+02  0.33737324213E+02  0.00000000000E+00 0. -1.
          2    1    1    2  501    0  0.10103583569E+03  0.89094375157E+02  0.43342246402E+02  0.14150829693E+03  0.00000000000E+00 0. -1.
<scales pt_clust_5="13000.00000" pt_clust_6="13000.00000" pt_clust_7="13000.00000" pt_clust_8="13000.00000" pt_clust_9="29.31117" pt_clust_10="111.61258"></scales>
<clustering>
<clus scale="   29.311">  2  9  1 -1</clus>
<clus scale="   83.941">  5  6 -1 -1</clus>
<clus scale="   92.531">  7  8 -1 -1</clus>
<clus scale="  102.978">  1  7  2 -1</clus>
<clus scale="  111.613">  2 10  1 -1</clus>
<clus scale="   29.311">  2  5  1 -1</clus>
</clustering>
</event>
<event>
10    3  0.5078224E-005  0.9391863E+02  0.7546771E-02  0.1301463E+00
         21   -1    0    0  501  502  0.00000000000E+00  0.00000000000E+00  0.59841180025E+03  0.59841180025E+03  0.00000000000E+00 0. -1.
          1   -1    0    0  503    0 -0.00000000000E+00 -0.00000000000E+00 -0.33620239756E+02  0.33620239756E+02  0.00000000000E+00 0. -1.
         23    2    1    2    0    0 -0.30076407976E+02  0.37481759531E+01  0.89187842925E+02  0.13168496185E+03  0.92020751535E+02 0.  0.
        -24    2    1    2    0    0 -0.32682038233E+01 -0.52945325964E+01  0.19415542564E+03  0.20972074450E+03  0.79042698201E+02 0.  0.
         11    1    4    4    0    0 -0.27669553014E+02  0.12663612881E+02  0.16462149477E+03  0.16741029776E+03  0.00000000000E+00 0. -1.
        -12    1    4    4    0    0  0.24401349191E+02 -0.17958145477E+02  0.29533930867E+02  0.42310446745E+02  0.00000000000E+00 0.  1.
        -13    1    3    3    0    0 -0.88249786653E+01  0.42866968922E+02  0.71396086373E+02  0.83742811169E+02  0.00000000000E+00 0.  1.
         13    1    3    3    0    0 -0.21251429311E+02 -0.39118792969E+02  0.17791756552E+02  0.47942150685E+02  0.00000000000E+00 0. -1.
         21    1    1    2  503  502 -0.26293699863E+01  0.27683211978E+02  0.98320837828E+02  0.10217759521E+03  0.00000000000E+00 0.  1.
          2    1    1    2  501    0  0.35973981785E+02 -0.26136855334E+02  0.18312745410E+03  0.18844873844E+03  0.00000000000E+00 0. -1.
<scales pt_clust_5="13000.00000" pt_clust_6="13000.00000" pt_clust_7="13000.00000" pt_clust_8="13000.00000" pt_clust_9="27.80780" pt_clust_10="38.40014"></scales>
<clustering>
<clus scale="   27.808">  1  9  2 -1</clus>
<clus scale="   38.400">  1 10  2 -1</clus>
<clus scale="   79.043">  5  6 -1 -1</clus>
<clus scale="   81.244">  1  5  2 -1</clus>
<clus scale="   92.021">  7  8 -1 -1</clus>
<clus scale="   27.808">  1  5  2 -1</clus>
</clustering>
</event>
<event>
10    3  0.5078224E-005  0.9021368E+02  0.7546771E-02  0.1307535E+00
          3   -1    0    0  503    0 -0.00000000000E+00  0.00000000000E+00  0.70638195012E+02  0.70638195012E+02  0.00000000000E+00 0. -1.
         21   -1    0    0  501  502  0.00000000000E+00 -0.00000000000E+00 -0.16804896633E+04  0.16804896633E+04  0.00000000000E+00 0. -1.
         23    2    1    2    0    0  0.23630164217E+01  0.18806695561E+02  0.26531378476E+02  0.93896570434E+02  0.88053258036E+02 0.  0.
        -24    2    1    2    0    0  0.23871357392E+02 -0.39352080362E+02 -0.86322461419E+03  0.86811206569E+03  0.79645439970E+02 0.  0.
         11    1    4    4    0    0  0.37972819187E+02 -0.20270887675E+01 -0.19357061831E+03  0.19727044472E+03  0.00000000000E+00 0. -1.
        -12    1    4    4    0    0 -0.14101461794E+02 -0.37324991595E+02 -0.66965399588E+03  0.67084162097E+03  0.00000000000E+00 0.  1.
        -11    1    3    3    0    0 -0.30664670193E+02  0.36763080908E+02 -0.18343119236E-01  0.47873233151E+02  0.00000000000E+00 0. -1.
         11    1    3    3    0    0  0.33027686614E+02 -0.17956385347E+02  0.26549721595E+02  0.46023337282E+02  0.00000000000E+00 0.  1.
         21    1    1    2  503  502  0.56667969795E+02  0.34227138387E+02 -0.46587570027E+03  0.47055597319E+03  0.00000000000E+00 0.  1.
          4    1    1    2  501    0 -0.82902343609E+02 -0.13681753586E+02 -0.30728253227E+03  0.31856324897E+03  0.00000000000E+00 0. -1.
<scales pt_clust_5="13000.00000" pt_clust_6="13000.00000" pt_clust_7="13000.00000" pt_clust_8="13000.00000" pt_clust_9="66.20239" pt_clust_10="68.44652"></scales>
<clustering>
<clus scale="   66.202">  2  9  1 -1</clus>
<clus scale="   68.447">  2 10  1 -1</clus>
<clus scale="   79.645">  5  6 -1 -1</clus>
<clus scale="   82.028">  2  5  1 -1</clus>
<clus scale="   88.053">  7  8 -1 -1</clus>
<clus scale="   66.202">  2  5  1 -1</clus>
</clustering>
</event>
<event>
10    3  0.5078224E-005  0.1690479E+03  0.7546771E-02  0.1185941E+00
          1   -1    0    0  502    0 -0.00000000000E+00  0.00000000000E+00  0.29438229295E+03  0.29438229295E+03  0.00000000000E+00 0. -1.
         21   -1    0    0  503  502  0.00000000000E+00 -0.00000000000E+00 -0.43834997068E+03  0.43834997068E+03  0.00000000000E+00 0. -1.
         23    2    1    2    0    0  0.97691351391E+02 -0.70608846707E+02  0.96709937690E+02  0.17919138012E+03  0.90705729103E+02 0.  0.
        -24    2    1    2    0    0 -0.17032086989E+03 -0.57519158723E+02  0.35769393168E+02  0.20021609189E+03  0.80556698204E+02 0.  0.
         11    1    4    4    0    0 -0.12522739324E+03 -0.26736189847E+02 -0.10732009266E+02  0.12849863769E+03  0.00000000000E+00 0. -1.
        -12    1    4    4    0    0 -0.45093476648E+02 -0.30782968876E+02  0.46501402433E+02  0.71717454202E+02  0.00000000000E+00 0.  1.
        -11    1    3    3    0    0  0.80062556986E+02 -0.59254337967E+02  0.22551980898E+02  0.10212581183E+03  0.00000000000E+00 0.  1.
         11    1    3    3    0    0  0.17628794404E+02 -0.11354508739E+02  0.74157956792E+02  0.77065568293E+02  0.00000000000E+00 0. -1.
         21    1    1    2  503  501 -0.47121109006E+02  0.39004908072E+02 -0.13255876795E+03  0.14599181049E+03  0.00000000000E+00 0. -1.
          2    1    1    2  501    0  0.11975062751E+03  0.89123097357E+02 -0.14388824064E+03  0.20733298113E+03  0.00000000000E+00 0. -1.
<scales pt_clust_5="13000.00000" pt_clust_6="13000.00000" pt_clust_7="13000.00000" pt_clust_8="13000.00000" pt_clust_9="61.17011" pt_clust_10="148.61971"></scales>
<clustering>
<clus scale="   61.170">  2  9  1 -1</clus>
<clus scale="   80.557">  5  6 -1 -1</clus>
<clus scale="   90.706">  7  8 -1 -1</clus>
<clus scale="  144.218">  1  7  2 -1</clus>
<clus scale="  148.620">  2 10  1 -1</clus>
<clus scale="   61.170">  2  5  1 -1</clus>
</clustering>
</event>
<event>
10    3  0.5078224E-005  0.1585365E+03  0.7546771E-02  0.1203606E+00
         21   -1    0    0  503  502  0.00000000000E+00  0.00000000000E+00  0.37739369471E+03  0.37739369471E+03  0.00000000000E+00 0. -1.
         -2   -1    0    0    0  501 -0.00000000000E+00 -0.00000000000E+00 -0.55071352458E+03  0.55071352458E+03  0.00000000000E+00 0.  1.
         23    2    1    2    0    0  0.41254593424E+02 -0.64152992158E+02 -0.10470779986E+03  0.15829938726E+03  0.90980353770E+02 0.  0.
        -24    2    1    2    0    0  0.10264347127E+03  0.67034340562E+02 -0.11548803018E+03  0.19314603391E+03  0.94544276868E+02 0.  0.
         11    1    4    4    0    0  0.40094428442E+02  0.18540406953E+02  0.95218476661E+01  0.45188222636E+02  0.00000000000E+00 0. -1.
        -12    1    4    4    0    0  0.62549042832E+02  0.48493933609E+02 -0.12500987785E+03  0.14795781127E+03  0.00000000000E+00 0.  1.
        -11    1    3    3    0    0 -0.80240400291E+01 -0.56943681282E+02 -0.21634707951E+02  0.61441261742E+02  0.00000000000E+00 0.  1.
         11    1    3    3    0    0  0.49278633453E+02 -0.72093108757E+01 -0.83073091912E+02  0.96858125514E+02  0.00000000000E+00 0. -1.
         21    1    1    2  503  501 -0.84691930317E+02  0.11234673920E+03  0.27807508295E+03  0.31164124346E+03  0.00000000000E+00 0. -1.
         -1    1    1    2    0  502 -0.59206134380E+02 -0.11522808760E+03 -0.23119908277E+03  0.26502055466E+03  0.00000000000E+00 0.  1.
<scales pt_clust_5="13000.00000" pt_clust_6="13000.00000" pt_clust_7="13000.00000" pt_clust_8="13000.00000" pt_clust_9="137.64804" pt_clust_10="127.26043"></scales>
<clustering>
<clus scale="   90.980">  7  8 -1 -1</clus>
<clus scale="   94.544">  5  6 -1 -1</clus>
<clus scale="  118.722">  2  7  1 -1</clus>
<clus scale="  137.648">  1  9  2 -1</clus>
<clus scale="  127.260">  1 10  2 -1</clus>
<clus scale="  137.648">  1  5  2 -1</clus>
</clustering>
</event>
<event>
10    3  0.5078224E-005  0.1575152E+03  0.7546771E-02  0.1215949E+00
         21   -1    0    0  503  502  0.00000000000E+00  0.00000000000E+00  0.18905488725E+03  0.18905488725E+03  0.00000000000E+00 0. -1.
          1   -1    0    0  502    0 -0.00000000000E+00 -0.00000000000E+00 -0.29658340331E+03  0.29658340331E+03  0.00000000000E+00 0. -1.
        -24    2    1    2    0    0 -0.46630901705E+02  0.34645244263E+01 -0.15151949196E+03  0.17777886417E+03  0.80378630109E+02 0.  0.
         23    2    1    2    0    0 -0.26764848630E+01  0.12238682210E+03 -0.18957140044E+02  0.15336587321E+03  0.90421347659E+02 0.  0.
         13    1    3    3    0    0 -0.69569060491E+02 -0.12142085222E+01 -0.11344029083E+03  0.13307902939E+03  0.00000000000E+00 0. -1.
        -14    1    3    3    0    0  0.22938158786E+02  0.46787329485E+01 -0.38079201131E+02  0.44699834779E+02  0.00000000000E+00 0.  1.
        -11    1    4    4    0    0  0.19287685992E+02  0.12754870279E+03 -0.11104557818E+02  0.12947585728E+03  0.00000000000E+00 0. -1.
         11    1    4    4    0    0 -0.21964170855E+02 -0.51618806888E+01 -0.78525822254E+01  0.23890015932E+02  0.00000000000E+00 0.  1.
         21    1    1    2  503  501  0.13100869491E+02 -0.40248347801E+02  0.41136484440E+02  0.59023492224E+02  0.00000000000E+00 0. -1.
          2    1    1    2  501    0  0.36206517076E+02 -0.85602998727E+02  0.21811631498E+02  0.95470060954E+02  0.00000000000E+00 0. -1.
<scales pt_clust_5="13000.00000" pt_clust_6="13000.00000" pt_clust_7="13000.00000" pt_clust_8="13000.00000" pt_clust_9="27.29532" pt_clust_10="135.17042"></scales>
<clustering>
<clus scale="   27.295">  9 10 -1 -1</clus>
<clus scale="   80.379">  5  6 -1 -1</clus>
<clus scale="   90.421">  7  8 -1 -1</clus>
<clus scale="   92.990">  2  5  1 -1</clus>
<clus scale="  135.170">  1  9  2 -1</clus>
<clus scale="  135.170">  1  5  2 -1</clus>
</clustering>
</event>
<event>
10    3  0.5078224E-005  0.2411167E+03  0.7546771E-02  0.1159207E+00
         21   -1    0    0  501  502  0.00000000000E+00  0.00000000000E+00  0.97364716184E+03  0.97364716184E+03  0.00000000000E+00 0. -1.
          1   -1    0    0  503    0 -0.00000000000E+00 -0.00000000000E+00 -0.23176639746E+03  0.23176639746E+03  0.00000000000E+00 0. -1.
        -24    2    1    2    0    0 -0.22575109085E+02 -0.30010941445E+02 -0.29590470244E+02  0.96036351215E+02  0.83289210998E+02 0.  0.
         23    2    1    2    0    0  0.40823616968E+02 -0.18520711984E+03  0.97855335960E+02  0.23026226325E+03  0.86468480738E+02 0.  0.
         11    1    3    3    0    0 -0.42293160316E+02 -0.21425645822E+02 -0.48190701037E+02  0.67602613669E+02  0.00000000000E+00 0. -1.
        -12    1    3    3    0    0  0.19718051231E+02 -0.85852956231E+01  0.18600230793E+02  0.28433737546E+02  0.00000000000E+00 0.  1.
        -13    1    4    4    0    0  0.67687195822E+02 -0.13508075023E+03  0.64078229631E+02  0.16411698594E+03  0.00000000000E+00 0. -1.
         13    1    4    4    0    0 -0.26863578854E+02 -0.50126369605E+02  0.33777106329E+02  0.66145277311E+02  0.00000000000E+00 0.  1.
         21    1    1    2  503  502 -0.60079955601E+02  0.31784640621E+03  0.69468400143E+03  0.76630398724E+03  0.00000000000E+00 0. -1.
          2    1    1    2  501    0  0.41831447718E+02 -0.10262834493E+03 -0.21068102771E+02  0.11281095760E+03  0.00000000000E+00 0. -1.
<scales pt_clust_5="13000.00000" pt_clust_6="13000.00000" pt_clust_7="13000.00000" pt_clust_8="13000.00000" pt_clust_9="225.07880" pt_clust_10="119.14748"></scales>
<clustering>
<clus scale="   83.289">  5  6 -1 -1</clus>
<clus scale="   86.468">  7  8 -1 -1</clus>
<clus scale="   91.364">  2  5  1 -1</clus>
<clus scale="  119.147">  1 10  2 -1</clus>
<clus scale="  225.079">  1  9  2 -1</clus>
<clus scale="  119.147">  1  5  2 -1</clus>
</clustering>
</event>
<event>
10    3  0.5078224E-005  0.1812287E+03  0.7546771E-02  0.1168829E+00
         21   -1    0    0  501  502  0.00000000000E+00  0.00000000000E+00  0.26031689924E+03  0.26031689924E+03  0.00000000000E+00 0. -1.
          1   -1    0    0  503    0 -0.00000000000E+00 -0.00000000000E+00 -0.28898330915E+03  0.28898330915E+03  0.00000000000E+00 0. -1.
        -24    2    1    2    0    0  0.14840004471E+03 -0.50527362845E+02 -0.18614015130E+03  0.26663997790E+03  0.10896391248E+03 0.  0.
         23    2    1    2    0    0 -0.95440805691E+02  0.44623671221E+02  0.97838761914E+02  0.17139229240E+03  0.93288129670E+02 0.  0.
         11    1    3    3    0    0  0.11609366756E+03 -0.74494184939E+02 -0.17867856419E+03  0.22572804996E+03  0.00000000000E+00 0. -1.
        -12    1    3    3    0    0  0.32306377145E+02  0.23966822094E+02 -0.74615871137E+01  0.40911927940E+02  0.00000000000E+00 0.  1.
        -11    1    4    4    0    0 -0.91455800822E+01  0.37442008069E+02  0.70910463695E+02  0.80708360563E+02  0.00000000000E+00 0. -1.
         11    1    4    4    0    0 -0.86295225609E+02  0.71816631518E+01  0.26928298218E+02  0.90683931837E+02  0.00000000000E+00 0.  1.
         21    1    1    2  503  502  0.18095015964E+02  0.13289685093E+02  0.15813915301E+02  0.27461341005E+02  0.00000000000E+00 0. -1.
          2    1    1    2  501    0 -0.71054254981E+02 -0.73859934690E+01  0.43821064172E+02  0.83806597089E+02  0.00000000000E+00 0. -1.
<scales pt_clust_5="13000.00000" pt_clust_6="13000.00000" pt_clust_7="13000.00000" pt_clust_8="13000.00000" pt_clust_9="22.45095" pt_clust_10="66.32717"></scales>
<clustering>
<clus scale="   22.451">  1  9  2 -1</clus>
<clus scale="   66.327">  1 10  2 -1</clus>
<clus scale="   93.288">  7  8 -1 -1</clus>
<clus scale="  108.964">  5  6 -1 -1</clus>
<clus scale="  172.260">  1  7  2 -1</clus>
<clus scale="   22.451">  1  5  2 -1</clus>
</clustering>
</event>
<event>
10    3  0.5078224E-005  0.1320714E+03  0.7546771E-02  0.1232490E+00
          1   -1    0    0  503    0 -0.00000000000E+00  0.00000000000E+00  0.17863339694E+03  0.17863339694E+03  0.00000000000E+00 0. -1.
         21   -1    0    0  501  502  0.00000000000E+00 -0.00000000000E+00 -0.19343948906E+03  0.19343948906E+03  0.00000000000E+00 0. -1.
         23    2    1    2    0    0 -0.28328451152E+02  0.88085340900E+02  0.59993082456E+02  0.15334938680E+03  0.10656141920E+03 0.  0.
        -24    2    1    2    0    0 -0.25598832802E+01 -0.62746944887E+02 -0.11651704266E+02  0.10235853761E+03  0.79986098258E+02 0.  0.
         13    1    4    4    0    0  0.24609039608E+02 -0.68070360589E+02 -0.16532080671E+02  0.74246134663E+02  0.00000000000E+00 0. -1.
        -14    1    4    4    0    0 -0.27168922888E+02  0.53234157016E+01  0.48803764054E+01  0.28112402948E+02  0.00000000000E+00 0.  1.
        -11    1    3    3    0    0 -0.54711619770E+02  0.80791176477E+02  0.12281565629E+02  0.98343339321E+02  0.00000000000E+00 0. -1.
         11    1    3    3    0    0  0.26383168618E+02  0.72941644220E+01  0.47711516827E+02  0.55006047475E+02  0.00000000000E+00 0.  1.
         21    1    1    2  503  502 -0.27350309561E+02 -0.24352376261E+02 -0.38448416506E+02  0.53097630780E+02  0.00000000000E+00 0. -1.
          2    1    1    2  501    0  0.58238643993E+02 -0.98601975162E+00 -0.24699053810E+02  0.63267330813E+02  0.00000000000E+00 0. -1.
<scales pt_clust_5="13000.00000" pt_clust_6="13000.00000" pt_clust_7="13000.00000" pt_clust_8="13000.00000" pt_clust_9="36.62073" pt_clust_10="50.76534"></scales>
<clustering>
<clus scale="   36.621">  2  9  1 -1</clus>
<clus scale="   50.765">  2 10  1 -1</clus>
<clus scale="   79.986">  5  6 -1 -1</clus>
<clus scale="  106.561">  7  8 -1 -1</clus>
<clus scale="  111.738">  2  5  1 -1</clus>
<clus scale="   36.621">  2  5  1 -1</clus>
</clustering>
</event>
<event>
10    3  0.5078224E-005  0.9911287E+02  0.7546771E-02  0.1305389E+00
          1   -1    0    0  503    0 -0.00000000000E+00  0.00000000000E+00  0.46601057991E+03  0.46601057991E+03  0.00000000000E+00 0. -1.
         21   -1    0    0  501  502  0.00000000000E+00 -0.00000000000E+00 -0.74946041124E+02  0.74946041124E+02  0.00000000000E+00 0. -1.
         23    2    1    2    0    0  0.30075834071E+01 -0.13568696318E+01  0.24914812451E+03  0.26701957134E+03  0.95988420542E+02 0.  0.
        -24    2    1    2    0    0 -0.84319611841E+02  0.18313504966E+02  0.81290047116E+02  0.13259623145E+03  0.59401240969E+02 0.  0.
         13    1    4    4    0    0 -0.72544397034E+02  0.84260542534E+01  0.29831862643E+02  0.78889973761E+02  0.00000000000E+00 0. -1.
        -14    1    4    4    0    0 -0.11775214807E+02  0.98874507128E+01  0.51458184473E+02  0.53706257686E+02  0.00000000000E+00 0.  1.
        -11    1    3    3    0    0  0.11199279377E+02 -0.47669712327E+02  0.13120511410E+03  0.14004501882E+03  0.00000000000E+00 0.  1.
         11    1    3    3    0    0 -0.81916959695E+01  0.46312842696E+02  0.11794301041E+03  0.12697455251E+03  0.00000000000E+00 0. -1.
         21    1    1    2  503  502  0.47824009708E+02 -0.17000887790E+02 -0.19597502031E+02  0.54407978974E+02  0.00000000000E+00 0. -1.
          2    1    1    2  501    0  0.33488018726E+02  0.44252455161E-01  0.80223869195E+02  0.86932839279E+02  0.00000000000E+00 0. -1.
<scales pt_clust_5="13000.00000" pt_clust_6="13000.00000" pt_clust_7="13000.00000" pt_clust_8="13000.00000" pt_clust_9="67.30905" pt_clust_10="33.48806"></scales>
<clustering>
<clus scale="   33.488">  2 10  1 -1</clus>
<clus scale="   59.401">  5  6 -1 -1</clus>
<clus scale="   67.309">  2  9  1 -1</clus>
<clus scale="   64.328">  2  5  1 -1</clus>
<clus scale="   95.988">  7  8 -1 -1</clus>
<clus scale="   33.488">  2  5  1 -1</clus>
</clustering>
</event>
<event>
10    3  0.5078224E-005  0.2243009E+03  0.7546771E-02  0.1167529E+00
          1   -1    0    0  502    0 -0.00000000000E+00  0.00000000000E+00  0.61691127848E+03  0.61691127848E+03  0.00000000000E+00 0. -1.
         21   -1    0    0  503  502  0.00000000000E+00 -0.00000000000E+00 -0.15731134586E+03  0.15731134586E+03  0.00000000000E+00 0. -1.
        -24    2    1    2    0    0  0.47546516712E+01  0.25023972792E+02  0.74568570998E+02  0.11937545566E+03  0.89672859359E+02 0.  0.
         23    2    1    2    0    0 -0.16741432240E+03 -0.71373283390E+02  0.10821834539E+03  0.24472502604E+03  0.12270870860E+03 0.  0.
         13    1    3    3    0    0  0.31244876577E+02 -0.96570844098E+01 -0.31337475312E+00  0.32704736589E+02  0.00000000000E+00 0. -1.
        -14    1    3    3    0    0 -0.26490224906E+02  0.34681057201E+02  0.74881945751E+02  0.86670719067E+02  0.00000000000E+00 0.  1.
        -13    1    4    4    0    0 -0.11984167604E+03 -0.19344061220E+02  0.12286555852E+03  0.17271990474E+03  0.00000000000E+00 0. -1.
         13    1    4    4    0    0 -0.47572646365E+02 -0.52029222170E+02 -0.14647213138E+02  0.72005121308E+02  0.00000000000E+00 0.  1.
         21    1    1    2  503  501 -0.20673094896E+02  0.95209136323E+01 -0.37805235048E+02  0.44127774088E+02  0.00000000000E+00 0. -1.
          2    1    1    2  501    0  0.18333276563E+03  0.36828396966E+02  0.31461825128E+03  0.36599436856E+03  0.00000000000E+00 0. -1.
<scales pt_clust_5="13000.00000" pt_clust_6="13000.00000" pt_clust_7="13000.00000" pt_clust_8="13000.00000" pt_clust_9="22.76015" pt_clust_10="187.75920"></scales>
<clustering>
<clus scale="   22.760">  2  9  1 -1</clus>
<clus scale="   89.673">  5  6 -1 -1</clus>
<clus scale="   93.612">  1  5  2 -1</clus>
<clus scale="  122.709">  7  8 -1 -1</clus>
<clus scale="  187.759">  2 10  1 -1</clus>
<clus scale="   22.760">  2  5  1 -1</clus>
</clustering>
</event>
<event>
10    3  0.5078224E-005  0.1414182E+03  0.7546771E-02  0.1223803E+00
         21   -1    0    0  503  502  0.00000000000E+00  0.00000000000E+00  0.15325801558E+03  0.15325801558E+03  0.00000000000E+00 0.  1.
         -4   -1    0    0    0  501 -0.00000000000E+00 -0.00000000000E+00 -0.28276262346E+03  0.28276262346E+03  0.00000000000E+00 0.  1.
         23    2    1    2    0    0 -0.53436524624E+02  0.33040225226E+02 -0.18924768149E+02  0.11283333223E+03  0.91793765398E+02 0.  0.
        -24    2    1    2    0    0  0.24834116922E+02  0.89498401614E+02 -0.11541443924E+03  0.16865279591E+03  0.80601337019E+02 0.  0.
         11    1    4    4    0    0  0.16616694236E+02  0.84155617631E+02 -0.43697527556E+02  0.96269187286E+02  0.00000000000E+00 0. -1.
        -12    1    4    4    0    0  0.82174226857E+01  0.53427839822E+01 -0.71716911683E+02  0.72383608625E+02  0.00000000000E+00 0.  1.
        -13    1    3    3    0    0 -0.80762453199E+01  0.50981535199E+02  0.14602172780E+02  0.53642950326E+02  0.00000000000E+00 0.  1.
         13    1    3    3    0    0 -0.45360279304E+02 -0.17941309973E+02 -0.33526940929E+02  0.59190381905E+02  0.00000000000E+00 0. -1.
         21    1    1    2  503  501  0.21213451307E+02  0.85796514539E+01 -0.24050184593E+01  0.23008803733E+02  0.00000000000E+00 0. -1.
         -3    1    1    2    0  502  0.73889563951E+01 -0.13111827829E+03  0.72396179685E+01  0.13152570717E+03  0.00000000000E+00 0.  1.
<scales pt_clust_5="13000.00000" pt_clust_6="13000.00000" pt_clust_7="13000.00000" pt_clust_8="13000.00000" pt_clust_9="22.88277" pt_clust_10="116.20045"></scales>
<clustering>
<clus scale="   22.883">  1  9  2 -1</clus>
<clus scale="   80.601">  5  6 -1 -1</clus>
<clus scale="   91.794">  7  8 -1 -1</clus>
<clus scale="  108.955">  2  7  1 -1</clus>
<clus scale="  116.200">  1 10  2 -1</clus>
<clus scale="   22.883">  1  5  2 -1</clus>
</clustering>
</event>
<event>
10    3  0.5078224E-005  0.1119315E+03  0.7546771E-02  0.1260382E+00
         21   -1    0    0  501  502  0.00000000000E+00  0.00000000000E+00  0.44419733924E+02  0.44419733924E+02  0.00000000000E+00 0. -1.
          1   -1    0    0  503    0 -0.00000000000E+00 -0.00000000000E+00 -0.10122670773E+04  0.10122670773E+04  0.00000000000E+00 0. -1.
        -24    2    1    2    0    0  0.71059428524E+02 -0.70748115854E+02 -0.32792942922E+03  0.35275386907E+03  0.82721480347E+02 0.  0.
         23    2    1    2    0    0 -0.35994084095E+02 -0.10114031017E+02 -0.15379500493E+03  0.18287077102E+03  0.91602115905E+02 0.  0.
         11    1    3    3    0    0  0.34650258968E+02 -0.82484971515E+02 -0.25759316688E+03  0.27268782627E+03  0.00000000000E+00 0. -1.
        -12    1    3    3    0    0  0.36409169556E+02  0.11736855661E+02 -0.70336262345E+02  0.80066042797E+02  0.00000000000E+00 0.  1.
        -11    1    4    4    0    0 -0.52387780967E+01  0.21299673443E+02  0.99678490694E+00  0.21957105111E+02  0.00000000000E+00 0.  1.
         11    1    4    4    0    0 -0.30755305998E+02 -0.31413704459E+02 -0.15479178984E+03  0.16091366591E+03  0.00000000000E+00 0. -1.
         21    1    1    2  503  502  0.65836523975E+01  0.21835221019E+02  0.60666159416E+01  0.23599262379E+02  0.00000000000E+00 0. -1.
          2    1    1    2  501    0 -0.41648996827E+02  0.59026925852E+02 -0.49218952515E+03  0.49746290875E+03  0.00000000000E+00 0. -1.
<scales pt_clust_5="13000.00000" pt_clust_6="13000.00000" pt_clust_7="13000.00000" pt_clust_8="13000.00000" pt_clust_9="22.80617" pt_clust_10="73.51055"></scales>
<clustering>
<clus scale="   22.806">  1  9  2 -1</clus>
<clus scale="   73.511">  1 10  2 -1</clus>
<clus scale="   82.721">  5  6 -1 -1</clus>
<clus scale="   91.602">  7  8 -1 -1</clus>
<clus scale="  104.788">  2  5  1 -1</clus>
<clus scale="   22.806">  1  5  2 -1</clus>
</clustering>
</event>
<event>
10    3  0.5078224E-005  0.2860360E+03  0.7546771E-02  0.1123385E+00
         21   -1    0    0  501  502  0.00000000000E+00  0.00000000000E+00  0.76240183705E+03  0.76240183705E+03  0.00000000000E+00 0. -1.
          1   -1    0    0  503    0 -0.00000000000E+00 -0.00000000000E+00 -0.37512044883E+03  0.37512044883E+03  0.00000000000E+00 0. -1.
        -24    2    1    2    0    0  0.14262161063E+02 -0.99193525547E+02 -0.64342300460E+02  0.14401341775E+03  0.80976342937E+02 0.  0.
         23    2    1    2    0    0 -0.18759750801E+03  0.28299007925E+03 -0.76973414034E+02  0.35998165368E+03  0.91573328822E+02 0.  0.
         13    1    3    3    0    0  0.25708183228E+02 -0.64167793676E+02 -0.78446821082E+02  0.10455773605E+03  0.00000000000E+00 0. -1.
        -14    1    3    3    0    0 -0.11446022165E+02 -0.35025731871E+02  0.14104520623E+02  0.39455681701E+02  0.00000000000E+00 0.  1.
        -13    1    4    4    0    0 -0.70876329706E+02  0.15742606186E+03 -0.14590276770E+01  0.17265152136E+03  0.00000000000E+00 0.  1.
         13    1    4    4    0    0 -0.11672117831E+03  0.12556401738E+03 -0.75514386357E+02  0.18733013232E+03  0.00000000000E+00 0. -1.
         21    1    1    2  503  502 -0.52698748636E+02 -0.24785371674E+02  0.35324167407E+02  0.68112183637E+02  0.00000000000E+00 0. -1.
          2    1    1    2  501    0  0.22603409559E+03 -0.15901118202E+03  0.49327293531E+03  0.56541503082E+03  0.00000000000E+00 0. -1.
<scales pt_clust_5="13000.00000" pt_clust_6="13000.00000" pt_clust_7="13000.00000" pt_clust_8="13000.00000" pt_clust_9="58.23635" pt_clust_10="270.98144"></scales>
<clustering>
<clus scale="   58.236">  1  9  2 -1</clus>
<clus scale="   80.976">  5  6 -1 -1</clus>
<clus scale="   91.573">  7  8 -1 -1</clus>
<clus scale="  129.622">  2  5  1 -1</clus>
<clus scale="  270.981">  1 10  2 -1</clus>
<clus scale="   58.236">  1  5  2 -1</clus>
</clustering>
</event>
<event>
10    3  0.5078224E-005  0.1354429E+03  0.7546771E-02  0.1222572E+00
          1   -1    0    0  503    0 -0.00000000000E+00  0.00000000000E+00  0.56970635418E+03  0.56970635418E+03  0.00000000000E+00 0. -1.
         21   -1    0    0  501  502  0.00000000000E+00 -0.00000000000E+00 -0.38445532739E+03  0.38445532739E+03  0.00000000000E+00 0. -1.
        -24    2    1    2    0    0 -0.76991717584E+01  0.91654104508E+02  0.29724794551E+03  0.32106449752E+03  0.79160080488E+02 0.  0.
         23    2    1    2    0    0 -0.27438477742E+01 -0.11325017817E+03  0.23699835094E+03  0.27824264675E+03  0.91747591628E+02 0.  0.
         11    1    3    3    0    0 -0.40402599972E+02  0.72947172966E+02  0.19426325155E+03  0.21140451989E+03  0.00000000000E+00 0. -1.
        -12    1    3    3    0    0  0.32703428213E+02  0.18706931542E+02  0.10298469396E+03  0.10965997763E+03  0.00000000000E+00 0.  1.
        -13    1    4    4    0    0  0.39769503314E+02 -0.29165449321E+02  0.10565896108E+03  0.11660211355E+03  0.00000000000E+00 0.  1.
         13    1    4    4    0    0 -0.42513351088E+02 -0.84084728845E+02  0.13133938986E+03  0.16164053320E+03  0.00000000000E+00 0. -1.
         21    1    1    2  503  502 -0.20380115510E+02 -0.61428834084E+01 -0.85128284162E+02  0.87749124720E+02  0.00000000000E+00 0. -1.
          2    1    1    2  501    0  0.30823135042E+02  0.27738957066E+02 -0.26386698549E+03  0.26710541258E+03  0.00000000000E+00 0. -1.
<scales pt_clust_5="13000.00000" pt_clust_6="13000.00000" pt_clust_7="13000.00000" pt_clust_8="13000.00000" pt_clust_9="21.28577" pt_clust_10="25.61779"></scales>
<clustering>
<clus scale="   21.286">  2  9  1 -1</clus>
<clus scale="   25.618">  2 10  1 -1</clus>
<clus scale="   79.160">  5  6 -1 -1</clus>
<clus scale="   91.748">  7  8 -1 -1</clus>
<clus scale="  127.254">  1  5  2 -1</clus>
<clus scale="   21.286">  2  5  1 -1</clus>
</clustering>
</event>
<event>
10    3  0.5078224E-005  0.1076014E+03  0.7546771E-02  0.1269659E+00
         21   -1    0    0  503  502  0.00000000000E+00  0.00000000000E+00  0.13108631762E+03  0.13108631762E+03  0.00000000000E+00 0.  1.
         -2   -1    0    0    0  501 -0.00000000000E+00 -0.00000000000E+00 -0.32242864643E+03  0.32242864643E+03  0.00000000000E+00 0.  1.
         23    2    1    2    0    0  0.84507246651E+01 -0.31022386627E+02 -0.99574471006E+02  0.13943786880E+03  0.92163120390E+02 0.  0.
        -24    2    1    2    0    0 -0.91198107518E+02  0.48780391436E+02 -0.10631716752E+03  0.16913487549E+03  0.81281268410E+02 0.  0.
         11    1    4    4    0    0 -0.12143429912E+02 -0.18622953354E+02 -0.26824639334E+01  0.22393590476E+02  0.00000000000E+00 0. -1.
        -12    1    4    4    0    0 -0.79054677606E+02  0.67403344790E+02 -0.10363470359E+03  0.14674128502E+03  0.00000000000E+00 0.  1.
        -13    1    3    3    0    0 -0.66415860327E+01  0.27670075423E+02 -0.61774933650E+02  0.68013867457E+02  0.00000000000E+00 0. -1.
         13    1    3    3    0    0  0.15092310698E+02 -0.58692462049E+02 -0.37799537355E+02  0.71424001343E+02  0.00000000000E+00 0.  1.
         21    1    1    2  503  501  0.27039328152E+02  0.11136779133E+01  0.63110636416E+02  0.68668172935E+02  0.00000000000E+00 0.  1.
         -1    1    1    2    0  502  0.55708054701E+02 -0.18871682722E+02 -0.48561326700E+02  0.76274046819E+02  0.00000000000E+00 0.  1.
<scales pt_clust_5="13000.00000" pt_clust_6="13000.00000" pt_clust_7="13000.00000" pt_clust_8="13000.00000" pt_clust_9="27.06225" pt_clust_10="64.21801"></scales>
<clustering>
<clus scale="   27.062">  1  9  2 -1</clus>
<clus scale="   64.218">  1 10  2 -1</clus>
<clus scale="   81.281">  5  6 -1 -1</clus>
<clus scale="   92.163">  7  8 -1 -1</clus>
<clus scale="   98.441">  1  5  2 -1</clus>
<clus scale="   27.062">  1  5  2 -1</clus>
</clustering>
</event>
<event>
10    3  0.5078224E-005  0.1004787E+03  0.7546771E-02  0.1284982E+00
         -2   -1    0    0    0  501 -0.00000000000E+00  0.00000000000E+00  0.20713627299E+03  0.20713627299E+03  0.00000000000E+00 0.  1.
         21   -1    0    0  503  502  0.00000000000E+00 -0.00000000000E+00 -0.22812040351E+03  0.22812040351E+03  0.00000000000E+00 0.  1.
         23    2    1    2    0    0  0.21552303675E+02  0.57152315922E+02  0.12380848861E+03  0.16563209525E+03  0.91512622727E+02 0.  0.
        -24    2    1    2    0    0 -0.67758610576E+01  0.19487542800E+02 -0.32409953906E+02  0.88831294791E+02  0.80093178265E+02 0.  0.
         11    1    4    4    0    0  0.31388051554E+02  0.29347892724E+02 -0.20796619616E+02  0.47738956578E+02  0.00000000000E+00 0. -1.
        -12    1    4    4    0    0 -0.38163912612E+02 -0.98603499245E+01 -0.11613334290E+02  0.41092338213E+02  0.00000000000E+00 0.  1.
        -11    1    3    3    0    0  0.36535263390E+02  0.10245812987E+02  0.66190849350E+01  0.38517715925E+02  0.00000000000E+00 0. -1.
         11    1    3    3    0    0 -0.14982959715E+02  0.46906502934E+02  0.11718940367E+03  0.12711437933E+03  0.00000000000E+00 0.  1.
         21    1    1    2  503  501 -0.14695285083E+02 -0.22751505293E+02 -0.12293342131E+03  0.12588172414E+03  0.00000000000E+00 0.  1.
         -1    1    1    2    0  502 -0.81157533921E-01 -0.53888353429E+02  0.10550756089E+02  0.54911562315E+02  0.00000000000E+00 0.  1.
<scales pt_clust_5="13000.00000" pt_clust_6="13000.00000" pt_clust_7="13000.00000" pt_clust_8="13000.00000" pt_clust_9="27.08473" pt_clust_10="58.84246"></scales>
<clustering>
<clus scale="   27.085">  2  9  1 -1</clus>
<clus scale="   58.842">  2 10  1 -1</clus>
<clus scale="   80.093">  5  6 -1 -1</clus>
<clus scale="   90.202">  2  5  1 -1</clus>
<clus scale="   91.513">  7  8 -1 -1</clus>
<clus scale="   27.085">  2  5  1 -1</clus>
</clustering>
</event>
<event>
10    3  0.5078224E-005  0.2118888E+03  0.7546771E-02  0.1164313E+00
         21   -1    0    0  503  502  0.00000000000E+00  0.00000000000E+00  0.19212751918E+03  0.19212751918E+03  0.00000000000E+00 0.  1.
         -4   -1    0    0    0  501 -0.00000000000E+00 -0.00000000000E+00 -0.98921798107E+03  0.98921798107E+03  0.00000000000E+00 0.  1.
         23    2    1    2    0    0  0.30247971995E+02  0.71399559619E+02  0.15316263480E+02  0.12056268361E+03  0.91038100977E+02 0.  0.
        -24    2    1    2    0    0  0.11428652680E+03  0.42210230884E+02 -0.53373893622E+03  0.55324521071E+03  0.79748964508E+02 0.  0.
         13    1    4    4    0    0  0.43757505499E+02 -0.23101699625E+02 -0.17895485319E+03  0.18566972638E+03  0.00000000000E+00 0. -1.
        -14    1    4    4    0    0  0.70529021297E+02  0.65311930508E+02 -0.35478408303E+03  0.36757548433E+03  0.00000000000E+00 0.  1.
        -13    1    3    3    0    0 -0.41274293914E+00  0.85707913728E+02  0.12416806511E+02  0.86603659948E+02  0.00000000000E+00 0. -1.
         13    1    3    3    0    0  0.30660714934E+02 -0.14308354110E+02  0.28994569695E+01  0.33959023665E+02  0.00000000000E+00 0.  1.
         21    1    1    2  503  501  0.11653931284E+03 -0.61337025139E+02 -0.14537475203E+02  0.13249520850E+03  0.00000000000E+00 0.  1.
         -3    1    1    2    0  502 -0.26107381163E+03 -0.52272765364E+02 -0.26413031395E+03  0.37504239743E+03  0.00000000000E+00 0.  1.
<scales pt_clust_5="13000.00000" pt_clust_6="13000.00000" pt_clust_7="13000.00000" pt_clust_8="13000.00000" pt_clust_9="131.32618" pt_clust_10="196.30840"></scales>
<clustering>
<clus scale="   79.749">  5  6 -1 -1</clus>
<clus scale="   91.038">  7  8 -1 -1</clus>
<clus scale="  119.586">  2  7  1 -1</clus>
<clus scale="  131.326">  1  9  2 -1</clus>
<clus scale="  196.308">  1 10  2 -1</clus>
<clus scale="  131.326">  1  5  2 -1</clus>
</clustering>
</event>
<event>
10    3  0.5078224E-005  0.1230206E+03  0.7546771E-02  0.1241724E+00
         21   -1    0    0  501  502  0.00000000000E+00  0.00000000000E+00  0.36185548138E+03  0.36185548138E+03  0.00000000000E+00 0.  1.
          1   -1    0    0  503    0 -0.00000000000E+00 -0.00000000000E+00 -0.95046126488E+02  0.95046126488E+02  0.00000000000E+00 0. -1.
         23    2    1    2    0    0 -0.47943660350E+02  0.64374411712E+02 -0.10094220585E+02  0.12251858081E+03  0.92012226924E+02 0.  0.
        -24    2    1    2    0    0  0.44153189092E+02 -0.73194040619E+02  0.11898698295E+03  0.16706318578E+03  0.80282839026E+02 0.  0.
         13    1    4    4    0    0  0.36077471881E+02 -0.67834505794E+01  0.81536543526E+01  0.37604271811E+02  0.00000000000E+00 0. -1.
        -14    1    4    4    0    0  0.80757172104E+01 -0.66410590040E+02  0.11083332860E+03  0.12945891397E+03  0.00000000000E+00 0.  1.
        -11    1    3    3    0    0 -0.20414341481E+02  0.80011380195E+02 -0.26678844506E+02  0.86777456997E+02  0.00000000000E+00 0.  1.
         11    1    3    3    0    0 -0.27529318869E+02 -0.15636968483E+02  0.16584623922E+02  0.35741123812E+02  0.00000000000E+00 0. -1.
         21    1    1    2  503  502 -0.19182818380E+02  0.13185966539E+02  0.12372944947E+03  0.12590006712E+03  0.00000000000E+00 0.  1.
          2    1    1    2  501    0  0.22973289638E+02 -0.43663376309E+01  0.34187143056E+02  0.41419774160E+02  0.00000000000E+00 0. -1.
<scales pt_clust_5="13000.00000" pt_clust_6="13000.00000" pt_clust_7="13000.00000" pt_clust_8="13000.00000" pt_clust_9="23.27768" pt_clust_10="20.04222"></scales>
<clustering>
<clus scale="   23.278">  1  9  2 -1</clus>
<clus scale="   20.042">  1 10  2 -1</clus>
<clus scale="   80.283">  5  6 -1 -1</clus>
<clus scale="   92.012">  7  8 -1 -1</clus>
<clus scale="  114.513">  1  5  2 -1</clus>
<clus scale="   23.278">  1  5  2 -1</clus>
</clustering>
</event>
<event>
10    3  0.5078224E-005  0.2407904E+03  0.7546771E-02  0.1119730E+00
          1   -1    0    0  502    0 -0.00000000000E+00  0.00000000000E+00  0.14252967136E+04  0.14252967136E+04  0.00000000000E+00 0. -1.
         21   -1    0    0  503  502  0.00000000000E+00 -0.00000000000E+00 -0.13904168314E+03  0.13904168314E+03  0.00000000000E+00 0. -1.
        -24    2    1    2    0    0  0.23659442583E+03 -0.26638217187E+02  0.89999435223E+03  0.93442134160E+03  0.80416992246E+02 0.  0.
         23    2    1    2    0    0 -0.13616966016E+03  0.28298866134E+02 -0.39784949564E+02  0.16946716430E+03  0.88279529849E+02 0.  0.
         13    1    3    3    0    0  0.14820556285E+03 -0.47353353831E+02  0.47475811799E+03  0.49960234144E+03  0.00000000000E+00 0. -1.
        -14    1    3    3    0    0  0.88388862971E+02  0.20715136644E+02  0.42523623424E+03  0.43481900016E+03  0.00000000000E+00 0.  1.
        -11    1    4    4    0    0 -0.10894893894E+03 -0.18463563564E+02 -0.29740792397E+02  0.11443465038E+03  0.00000000000E+00 0. -1.
         11    1    4    4    0    0 -0.27220721229E+02  0.46762429698E+02 -0.10044157166E+02  0.55032513922E+02  0.00000000000E+00 0.  1.
         21    1    1    2  503  501  0.26859416057E+02 -0.14509722490E+02  0.24888895689E+02  0.39388036334E+02  0.00000000000E+00 0. -1.
          2    1    1    2  501    0 -0.12728418172E+03  0.12849073542E+02  0.40115673208E+03  0.42106185448E+03  0.00000000000E+00 0. -1.
<scales pt_clust_5="13000.00000" pt_clust_6="13000.00000" pt_clust_7="13000.00000" pt_clust_8="13000.00000" pt_clust_9="30.52802" pt_clust_10="125.80613"></scales>
<clustering>
<clus scale="   30.528">  2  9  1 -1</clus>
<clus scale="   80.417">  5  6 -1 -1</clus>
<clus scale="   88.280">  7  8 -1 -1</clus>
<clus scale="  125.806">  2 10  1 -1</clus>
<clus scale="  238.020">  1  5  2 -1</clus>
<clus scale="   30.528">  2  5  1 -1</clus>
</clustering>
</event>
<event>
10    3  0.5078224E-005  0.1272238E+03  0.7546771E-02  0.1233576E+00
         21   -1    0    0  501  502  0.00000000000E+00  0.00000000000E+00  0.28571203010E+03  0.28571203010E+03  0.00000000000E+00 0.  1.
          1   -1    0    0  503    0 -0.00000000000E+00 -0.00000000000E+00 -0.43038599876E+03  0.43038599876E+03  0.00000000000E+00 0. -1.
        -24    2    1    2    0    0  0.83141624800E+02  0.90072527190E+01 -0.31023494025E+03  0.33227953986E+03  0.84677707135E+02 0.  0.
         23    2    1    2    0    0 -0.12075339928E+03  0.30021797359E+02 -0.91064170558E+01  0.15484768303E+03  0.91717971805E+02 0.  0.
         11    1    3    3    0    0  0.52222451101E+02  0.46436107412E+02 -0.16663701329E+03  0.18069695811E+03  0.00000000000E+00 0. -1.
        -12    1    3    3    0    0  0.30919173699E+02 -0.37428854693E+02 -0.14359792695E+03  0.15158258175E+03  0.00000000000E+00 0.  1.
        -13    1    4    4    0    0 -0.25007675417E+02  0.48536632525E+02 -0.16525841233E+02  0.57046401771E+02  0.00000000000E+00 0. -1.
         13    1    4    4    0    0 -0.95745723868E+02 -0.18514835166E+02  0.74194241773E+01  0.97801281256E+02  0.00000000000E+00 0.  1.
         21    1    1    2  503  502  0.57505045369E+02 -0.78652270645E+02  0.14812501440E+03  0.17729644613E+03  0.00000000000E+00 0.  1.
          2    1    1    2  501    0 -0.19893270884E+02  0.39623220568E+02  0.26542374241E+02  0.51674359841E+02  0.00000000000E+00 0. -1.
<scales pt_clust_5="13000.00000" pt_clust_6="13000.00000" pt_clust_7="13000.00000" pt_clust_8="13000.00000" pt_clust_9="68.75085" pt_clust_10="44.33669"></scales>
<clustering>
<clus scale="   44.337">  1 10  2 -1</clus>
<clus scale="   68.751">  1  9  2 -1</clus>
<clus scale="   84.678">  5  6 -1 -1</clus>
<clus scale="   91.718">  7  8 -1 -1</clus>
<clus scale="  122.246">  2  5  1 -1</clus>
<clus scale="   44.337">  1  5  2 -1</clus>
</clustering>
</event>
<event>
10    3  0.5078224E-005  0.2457720E+03  0.7546771E-02  0.1122674E+00
          1   -1    0    0  503    0 -0.00000000000E+00  0.00000000000E+00  0.43590250029E+03  0.43590250029E+03  0.00000000000E+00 0. -1.
         21   -1    0    0  501  502  0.00000000000E+00 -0.00000000000E+00 -0.47428848204E+03  0.47428848204E+03  0.00000000000E+00 0. -1.
        -24    2    1    2    0    0  0.16733120920E+03  0.72940829907E+02 -0.15551750000E+03  0.25169265705E+03  0.76442151776E+02 0.  0.
         23    2    1    2    0    0  0.88367949034E+02 -0.19485500963E+03  0.90362189996E+02  0.25155196279E+03  0.96621402431E+02 0.  0.
         11    1    3    3    0    0  0.14090006480E+03  0.76283727764E+02 -0.15788775454E+03  0.22494572327E+03  0.00000000000E+00 0. -1.
        -12    1    3    3    0    0  0.26431144397E+02 -0.33428978569E+01  0.23702545413E+01  0.26746933783E+02  0.00000000000E+00 0.  1.
        -11    1    4    4    0    0  0.48865521731E+02 -0.43994226108E+02  0.66983877002E+02  0.93862510744E+02  0.00000000000E+00 0. -1.
         11    1    4    4    0    0  0.39502427303E+02 -0.15086078352E+03  0.23378312994E+02  0.15768945205E+03  0.00000000000E+00 0.  1.
         21    1    1    2  503  502  0.11515350547E+02  0.23249427962E+02 -0.94029023627E+02  0.97542793086E+02  0.00000000000E+00 0.  1.
          2    1    1    2  501    0 -0.26721450878E+03  0.98664751763E+02  0.12079835188E+03  0.30940356940E+03  0.00000000000E+00 0. -1.
<scales pt_clust_5="13000.00000" pt_clust_6="13000.00000" pt_clust_7="13000.00000" pt_clust_8="13000.00000" pt_clust_9="25.94493" pt_clust_10="225.98282"></scales>
<clustering>
<clus scale="   25.945">  2  9  1 -1</clus>
<clus scale="   76.442">  5  6 -1 -1</clus>
<clus scale="   96.621">  7  8 -1 -1</clus>
<clus scale="  207.980">  1  5  2 -1</clus>
<clus scale="  225.983">  2 10  1 -1</clus>
<clus scale="   25.945">  2  5  1 -1</clus>
</clustering>
</event>
<event>
10    3  0.5078224E-005  0.2933749E+03  0.7546771E-02  0.1088948E+00
          1   -1    0    0  503    0 -0.00000000000E+00  0.00000000000E+00  0.77965630498E+03  0.77965630498E+03  0.00000000000E+00 0. -1.
         21   -1    0    0  501  502  0.00000000000E+00 -0.00000000000E+00 -0.32217699640E+03  0.32217699640E+03  0.00000000000E+00 0. -1.
        -24    2    1    2    0    0  0.77789392035E+02  0.24211617601E+03  0.18077942345E+03  0.32243800634E+03  0.81324263247E+02 0.  0.
         23    2    1    2    0    0 -0.21752803735E+03 -0.23805382473E+03  0.25327819809E+03  0.41990848998E+03  0.90472226809E+02 0.  0.
         13    1    3    3    0    0  0.22270414719E+02  0.18310599206E+03  0.10939538611E+03  0.21445541775E+03  0.00000000000E+00 0. -1.
        -14    1    3    3    0    0  0.55518977316E+02  0.59010183945E+02  0.71384037342E+02  0.10798258859E+03  0.00000000000E+00 0.  1.
        -11    1    4    4    0    0 -0.34476870593E+02 -0.82942823402E+02  0.10360154927E+03  0.13711837065E+03  0.00000000000E+00 0.  1.
         11    1    4    4    0    0 -0.18305116676E+03 -0.15511100132E+03  0.14967664883E+03  0.28279011932E+03  0.00000000000E+00 0. -1.
         21    1    1    2  503  502  0.15284334096E+03 -0.10047376558E+03 -0.95090004236E+02  0.20615085096E+03  0.00000000000E+00 0. -1.
          2    1    1    2  501    0 -0.13104695648E+02  0.96411414297E+02  0.11851169127E+03  0.15333595411E+03  0.00000000000E+00 0. -1.
<scales pt_clust_5="13000.00000" pt_clust_6="13000.00000" pt_clust_7="13000.00000" pt_clust_8="13000.00000" pt_clust_9="155.60770" pt_clust_10="97.29801"></scales>
<clustering>
<clus scale="   81.324">  5  6 -1 -1</clus>
<clus scale="   90.472">  7  8 -1 -1</clus>
<clus scale="   97.298">  2 10  1 -1</clus>
<clus scale="  155.608">  2  9  1 -1</clus>
<clus scale="  290.684">  1  5  2 -1</clus>
<clus scale="   97.298">  2  5  1 -1</clus>
</clustering>
</event>
<event>
10    3  0.5078224E-005  0.1414307E+03  0.7546771E-02  0.1222883E+00
          1   -1    0    0  503    0 -0.00000000000E+00  0.00000000000E+00  0.47375887112E+03  0.47375887112E+03  0.00000000000E+00 0. -1.
         21   -1    0    0  501  502  0.00000000000E+00 -0.00000000000E+00 -0.15655429378E+03  0.15655429378E+03  0.00000000000E+00 0. -1.
        -24    2    1    2    0    0  0.78818844134E+02  0.19444891943E+02  0.28010213396E+03  0.30191457827E+03  0.78132535543E+02 0.  0.
         23    2    1    2    0    0  0.86489466995E+02  0.16859667298E+02  0.26666708266E+02  0.13020523031E+03  0.92073950649E+02 0.  0.
         11    1    3    3    0    0  0.71133519469E+02  0.44397186485E+02  0.18182504919E+03  0.20022846019E+03  0.00000000000E+00 0. -1.
        -12    1    3    3    0    0  0.76853246658E+01 -0.24952294542E+02  0.98277084777E+02  0.10168611808E+03  0.00000000000E+00 0.  1.
        -11    1    4    4    0    0  0.80236175196E+02 -0.18645974505E+02  0.40246451582E+02  0.91680385253E+02  0.00000000000E+00 0. -1.
         11    1    4    4    0    0  0.62532917991E+01  0.35505641803E+02 -0.13579743316E+02  0.38524845058E+02  0.00000000000E+00 0.  1.
         21    1    1    2  503  502 -0.24581458998E+02 -0.88591605608E+00 -0.37949524309E+02  0.45223880517E+02  0.00000000000E+00 0.  1.
          2    1    1    2  501    0 -0.14072685213E+03 -0.35418643186E+02  0.48385259421E+02  0.15296947580E+03  0.00000000000E+00 0. -1.
<scales pt_clust_5="13000.00000" pt_clust_6="13000.00000" pt_clust_7="13000.00000" pt_clust_8="13000.00000" pt_clust_9="24.59742" pt_clust_10="107.35473"></scales>
<clustering>
<clus scale="   24.597">  2  9  1 -1</clus>
<clus scale="   78.133">  5  6 -1 -1</clus>
<clus scale="   92.074">  7  8 -1 -1</clus>
<clus scale="  111.040">  1  5  2 -1</clus>
<clus scale="  107.355">  2 10  1 -1</clus>
<clus scale="   24.597">  2  5  1 -1</clus>
</clustering>
</event>
<event>
10    3  0.1111873E-004  0.9728091E+02  0.7546771E-02  0.1291481E+00
         -4   -1    0    0    0  501 -0.00000000000E+00  0.00000000000E+00  0.47083923682E+03  0.47083923682E+03  0.00000000000E+00 0.  1.
         21   -1    0    0  503  502  0.00000000000E+00 -0.00000000000E+00 -0.31151928656E+03  0.31151928656E+03  0.00000000000E+00 0.  1.
         23    2    1    2    0    0  0.37526891936E+02 -0.22926540667E+02  0.26166421232E+03  0.28106005955E+03  0.92696834773E+02 0.  0.
        -24    2    1    2    0    0  0.38197872163E+02 -0.50489252877E+01  0.57933815845E+01  0.91574661072E+02  0.82872107467E+02 0.  0.
         11    1    4    4    0    0  0.79017332533E+01  0.33510109753E+02 -0.15936328011E+02  0.37938521249E+02  0.00000000000E+00 0. -1.
        -12    1    4    4    0    0  0.30296138909E+02 -0.38559035041E+02  0.21729709595E+02  0.53636139824E+02  0.00000000000E+00 0.  1.
        -13    1    3    3    0    0  0.32751484775E+02 -0.57870478513E+02  0.15328437698E+03  0.16708606245E+03  0.00000000000E+00 0. -1.
         13    1    3    3    0    0  0.47754071615E+01  0.34943937847E+02  0.10837983535E+03  0.11397399710E+03  0.00000000000E+00 0.  1.
         21    1    1    2  503  501 -0.66685694593E+02 -0.23594077833E+01 -0.25289301904E+03  0.26154813658E+03  0.00000000000E+00 0.  1.
         -3    1    1    2    0  502 -0.90390695063E+01  0.30334873738E+02  0.14475537540E+03  0.14817566618E+03  0.00000000000E+00 0.  1.
<scales pt_clust_5="13000.00000" pt_clust_6="13000.00000" pt_clust_7="13000.00000" pt_clust_8="13000.00000" pt_clust_9="77.62254" pt_clust_10="31.65297"></scales>
<clustering>
<clus scale="   31.653">  2 10  1 -1</clus>
<clus scale="   77.623">  2  9  1 -1</clus>
<clus scale="   82.872">  5  6 -1 -1</clus>
<clus scale="   87.970">  2  5  1 -1</clus>
<clus scale="   92.697">  7  8 -1 -1</clus>
<clus scale="   31.653">  2  5  1 -1</clus>
</clustering>
</event>
<event>
10    3  0.5078224E-005  0.1034859E+03  0.7546771E-02  0.1278155E+00
          1   -1    0    0  503    0 -0.00000000000E+00  0.00000000000E+00  0.11516792097E+03  0.11516792097E+03  0.00000000000E+00 0. -1.
         21   -1    0    0  501  502  0.00000000000E+00 -0.00000000000E+00 -0.21987138403E+03  0.21987138403E+03  0.00000000000E+00 0. -1.
         23    2    1    2    0    0  0.46427115900E+02 -0.52972811326E+01 -0.15007707758E+02  0.10331380127E+03  0.90911891210E+02 0.  0.
        -24    2    1    2    0    0 -0.47707566768E+02  0.25160899927E+02 -0.21444135342E+02  0.98784801676E+02  0.79934368638E+02 0.  0.
         13    1    4    4    0    0 -0.41634084026E+02  0.15919882151E+02  0.24956346054E+02  0.51084819749E+02  0.00000000000E+00 0. -1.
        -14    1    4    4    0    0 -0.60734827418E+01  0.92410177765E+01 -0.46400481395E+02  0.47699981927E+02  0.00000000000E+00 0.  1.
        -13    1    3    3    0    0  0.40400610655E+02  0.22541391313E+02  0.26240063007E+02  0.53187071458E+02  0.00000000000E+00 0.  1.
         13    1    3    3    0    0  0.60265052451E+01 -0.27838672445E+02 -0.41247770765E+02  0.50126729816E+02  0.00000000000E+00 0. -1.
         21    1    1    2  503  502  0.29333341128E+02  0.37400195764E+02 -0.43838959395E+02  0.64661224128E+02  0.00000000000E+00 0. -1.
          2    1    1    2  501    0 -0.28052890260E+02 -0.57263814558E+02 -0.24412660558E+02  0.68279477921E+02  0.00000000000E+00 0. -1.
<scales pt_clust_5="13000.00000" pt_clust_6="13000.00000" pt_clust_7="13000.00000" pt_clust_8="13000.00000" pt_clust_9="47.53125" pt_clust_10="50.83171"></scales>
<clustering>
<clus scale="   47.531">  2  9  1 -1</clus>
<clus scale="   50.832">  2 10  1 -1</clus>
<clus scale="   79.934">  5  6 -1 -1</clus>
<clus scale="   90.912">  7  8 -1 -1</clus>
<clus scale="   93.989">  2  5  1 -1</clus>
<clus scale="   47.531">  2  5  1 -1</clus>
</clustering>
</event>
<event>
10    3  0.5078224E-005  0.2744489E+03  0.7546771E-02  0.1099222E+00
          1   -1    0    0  502    0 -0.00000000000E+00  0.00000000000E+00  0.16654800425E+04  0.16654800425E+04  0.00000000000E+00 0. -1.
         21   -1    0    0  503  502  0.00000000000E+00 -0.00000000000E+00 -0.89813640296E+02  0.89813640296E+02  0.00000000000E+00 0. -1.
        -24    2    1    2    0    0  0.19305492043E+03 -0.96608253473E+02  0.57825044194E+03  0.62249432144E+03  0.80760446286E+02 0.  0.
         23    2    1    2    0    0 -0.30392767141E+03  0.19340068348E+03  0.61749965426E+03  0.72068745816E+03  0.91152265538E+02 0.  0.
         11    1    3    3    0    0  0.18228696333E+03 -0.10939776459E+03  0.55013080500E+03  0.58977988309E+03  0.00000000000E+00 0. -1.
        -12    1    3    3    0    0  0.10767957101E+02  0.12789511114E+02  0.28119636939E+02  0.32714438346E+02  0.00000000000E+00 0.  1.
        -11    1    4    4    0    0 -0.20495911975E+03  0.13733493217E+03  0.49767397146E+03  0.55547142701E+03  0.00000000000E+00 0.  1.
         11    1    4    4    0    0 -0.98968551658E+02  0.56065751307E+02  0.11982568281E+03  0.16521603114E+03  0.00000000000E+00 0. -1.
         21    1    1    2  503  501  0.33091104414E+02 -0.10292982070E+02  0.40438594624E+02  0.53256423146E+02  0.00000000000E+00 0.  1.
          2    1    1    2  501    0  0.77781646570E+02 -0.86499447937E+02  0.33947771133E+03  0.35885548000E+03  0.00000000000E+00 0. -1.
<scales pt_clust_5="13000.00000" pt_clust_6="13000.00000" pt_clust_7="13000.00000" pt_clust_8="13000.00000" pt_clust_9="33.81500" pt_clust_10="159.68671"></scales>
<clustering>
<clus scale="   33.815">  9 10 -1 -1</clus>
<clus scale="   80.760">  5  6 -1 -1</clus>
<clus scale="   91.152">  7  8 -1 -1</clus>
<clus scale="  159.687">  2  9  1 -1</clus>
<clus scale="  271.175">  1  5  2 -1</clus>
<clus scale="  159.687">  2  5  1 -1</clus>
</clustering>
</event>
<event>
10    3  0.5078224E-005  0.1016987E+03  0.7546771E-02  0.1282556E+00
         21   -1    0    0  501  502  0.00000000000E+00  0.00000000000E+00  0.29706607587E+03  0.29706607587E+03  0.00000000000E+00 0.  1.
         -2   -1    0    0    0  501 -0.00000000000E+00 -0.00000000000E+00 -0.21218778723E+03  0.21218778723E+03  0.00000000000E+00 0.  1.
        -24    2    1    2    0    0 -0.19224533199E+02 -0.37098365950E+02 -0.12108229111E+03  0.15043767749E+03  0.78896781645E+02 0.  0.
         23    2    1    2    0    0  0.49283441960E+02  0.91177287581E+02  0.20853450926E+03  0.25000148227E+03  0.90950229045E+02 0.  0.
         11    1    3    3    0    0 -0.35659037988E+02 -0.26340856336E+02 -0.22120089293E+02  0.49544990192E+02  0.00000000000E+00 0. -1.
        -12    1    3    3    0    0  0.16434504790E+02 -0.10757509614E+02 -0.98962201818E+02  0.10089268729E+03  0.00000000000E+00 0.  1.
        -11    1    4    4    0    0 -0.12374086266E+02  0.46157204774E+02  0.13808062194E+03  0.14611592561E+03  0.00000000000E+00 0.  1.
         11    1    4    4    0    0  0.61657528226E+02  0.45020082807E+02  0.70453887320E+02  0.10388555665E+03  0.00000000000E+00 0. -1.
         21    1    1    2  503  502  0.26379866722E+02 -0.27574226957E+01  0.15085437587E+02  0.30513458922E+02  0.00000000000E+00 0.  1.
         -1    1    1    2    0  503 -0.56438775484E+02 -0.51321498935E+02 -0.17659367092E+02  0.78301244416E+02  0.00000000000E+00 0.  1.
<scales pt_clust_5="13000.00000" pt_clust_6="13000.00000" pt_clust_7="13000.00000" pt_clust_8="13000.00000" pt_clust_9="26.52359" pt_clust_10="74.36352"></scales>
<clustering>
<clus scale="   26.524">  1  9  2 -1</clus>
<clus scale="   74.364">  1 10  2 -1</clus>
<clus scale="   78.897">  5  6 -1 -1</clus>
<clus scale="   90.950">  7  8 -1 -1</clus>
<clus scale="   91.079">  2  5  1 -1</clus>
<clus scale="   26.524">  1  5  2 -1</clus>
</clustering>
</event>
<event>
10    3  0.5078224E-005  0.1641539E+03  0.7546771E-02  0.1200017E+00
          1   -1    0    0  503    0 -0.00000000000E+00  0.00000000000E+00  0.75679317495E+03  0.75679317495E+03  0.00000000000E+00 0. -1.
         21   -1    0    0  501  502  0.00000000000E+00 -0.00000000000E+00 -0.10324172743E+03  0.10324172743E+03  0.00000000000E+00 0. -1.
        -24    2    1    2    0    0  0.51575107843E+02  0.45286051231E+02  0.15294290984E+02  0.10742271255E+03  0.81209024432E+02 0.  0.
         23    2    1    2    0    0  0.57037111341E+02  0.48628102436E+02  0.46444285343E+03  0.47926022039E+03  0.91461851783E+02 0.  0.
         13    1    3    3    0    0  0.69159082453E+02  0.43143390653E+02 -0.35107099000E+01  0.81588332050E+02  0.00000000000E+00 0. -1.
        -14    1    3    3    0    0 -0.17583974609E+02  0.21426605777E+01  0.18805000884E+02  0.25834380497E+02  0.00000000000E+00 0.  1.
        -11    1    4    4    0    0  0.52160721621E+02  0.75002164316E+02  0.36591813717E+03  0.37715003465E+03  0.00000000000E+00 0. -1.
         11    1    4    4    0    0  0.48763897203E+01 -0.26374061880E+02  0.98524716265E+02  0.10211018574E+03  0.00000000000E+00 0.  1.
         21    1    1    2  503  502  0.32208188500E+02  0.90165304813E+00  0.27355994367E+01  0.32336726627E+02  0.00000000000E+00 0.  1.
          2    1    1    2  501    0 -0.14082040768E+03 -0.94815806715E+02  0.17107870367E+03  0.24101524282E+03  0.00000000000E+00 0. -1.
<scales pt_clust_5="13000.00000" pt_clust_6="13000.00000" pt_clust_7="13000.00000" pt_clust_8="13000.00000" pt_clust_9="32.22081" pt_clust_10="136.31296"></scales>
<clustering>
<clus scale="   32.221">  2  9  1 -1</clus>
<clus scale="   81.209">  5  6 -1 -1</clus>
<clus scale="   91.462">  7  8 -1 -1</clus>
<clus scale="  115.587">  1  5  2 -1</clus>
<clus scale="  136.313">  2 10  1 -1</clus>
<clus scale="   32.221">  2  5  1 -1</clus>
</clustering>
</event>
<event>
10    3  0.5078225E-005  0.4249018E+03  0.7546771E-02  0.1086907E+00
         21   -1    0    0  501  502  0.00000000000E+00  0.00000000000E+00  0.12321092944E+03  0.12321092944E+03  0.00000000000E+00 0. -1.
          1   -1    0    0  503    0 -0.00000000000E+00 -0.00000000000E+00 -0.22588002442E+04  0.22588002442E+04  0.00000000000E+00 0. -1.
         23    2    1    2    0    0  0.20811025327E+02  0.31001625844E+02 -0.11153004973E+03  0.14975789774E+03  0.92705320046E+02 0.  0.
        -24    2    1    2    0    0 -0.37855936265E+03  0.20062111344E+03 -0.13884569779E+04  0.14556763763E+04  0.87320735164E+02 0.  0.
         11    1    4    4    0    0 -0.37442575492E+03  0.20710562147E+03 -0.13763996074E+04  0.14413754763E+04  0.00000000000E+00 0. -1.
        -12    1    4    4    0    0 -0.41336077307E+01 -0.64845080265E+01 -0.12057370440E+02  0.14300899941E+02  0.00000000000E+00 0.  1.
        -13    1    3    3    0    0  0.56002311357E+02  0.31739069154E+02 -0.65805260146E+02  0.92054112624E+02  0.00000000000E+00 0.  1.
         13    1    3    3    0    0 -0.35191286030E+02 -0.73744331025E+00 -0.45724789580E+02  0.57703785121E+02  0.00000000000E+00 0. -1.
         21    1    1    2  503  502  0.29264543057E+02 -0.20194312144E+01 -0.55407372515E+01  0.29852828209E+02  0.00000000000E+00 0. -1.
          2    1    1    2  501    0  0.32848379426E+03 -0.22960330807E+03 -0.63006154990E+03  0.74672407142E+03  0.00000000000E+00 0. -1.
<scales pt_clust_5="13000.00000" pt_clust_6="13000.00000" pt_clust_7="13000.00000" pt_clust_8="13000.00000" pt_clust_9="29.33414" pt_clust_10="415.83244"></scales>
<clustering>
<clus scale="   29.334">  1  9  2 -1</clus>
<clus scale="   87.321">  5  6 -1 -1</clus>
<clus scale="   92.705">  7  8 -1 -1</clus>
<clus scale="  101.005">  2  7  1 -1</clus>
<clus scale="  415.832">  1 10  2 -1</clus>
<clus scale="   29.334">  1  5  2 -1</clus>
</clustering>
</event>
<event>
10    3  0.7795623E-005  0.1051529E+03  0.7546771E-02  0.1281675E+00
         21   -1    0    0  501  502  0.00000000000E+00  0.00000000000E+00  0.32974446360E+03  0.32974446360E+03  0.00000000000E+00 0. -1.
         -2   -1    0    0    0  501 -0.00000000000E+00 -0.00000000000E+00 -0.34369448293E+03  0.34369448293E+03  0.00000000000E+00 0.  1.
        -24    2    1    2    0    0  0.11186564739E+02  0.13287608655E+02 -0.12577213008E+03  0.14936547659E+03  0.78674755278E+02 0.  0.
         23    2    1    2    0    0 -0.91393828065E+02 -0.10718901519E+02 -0.35287494561E+02  0.14120981264E+03  0.10113000175E+03 0.  0.
         11    1    3    3    0    0  0.11923056165E+02 -0.32112061943E+02 -0.43197728538E+02  0.55130640677E+02  0.00000000000E+00 0. -1.
        -12    1    3    3    0    0 -0.73649142680E+00  0.45399670597E+02 -0.82574401541E+02  0.94234835914E+02  0.00000000000E+00 0.  1.
        -13    1    4    4    0    0 -0.97334821698E+02 -0.32203837018E+02 -0.37535372699E+01  0.10259261024E+03  0.00000000000E+00 0. -1.
         13    1    4    4    0    0  0.59409936332E+01  0.21484935499E+02 -0.31533957291E+02  0.38617202399E+02  0.00000000000E+00 0.  1.
         21    1    1    2  503  502  0.39106918724E+02 -0.19047104415E+02  0.25894907010E+03  0.26257715853E+03  0.00000000000E+00 0. -1.
         -1    1    1    2    0  503  0.41100344602E+02  0.16478397279E+02 -0.11183946478E+03  0.12028649877E+03  0.00000000000E+00 0.  1.
<scales pt_clust_5="13000.00000" pt_clust_6="13000.00000" pt_clust_7="13000.00000" pt_clust_8="13000.00000" pt_clust_9="43.49877" pt_clust_10="46.11137"></scales>
<clustering>
<clus scale="   43.499">  1  9  2 -1</clus>
<clus scale="   46.111">  1 10  2 -1</clus>
<clus scale="   78.675">  5  6 -1 -1</clus>
<clus scale="   83.783">  2  5  1 -1</clus>
<clus scale="  101.130">  7  8 -1 -1</clus>
<clus scale="   43.499">  1  5  2 -1</clus>
</clustering>
</event>
<event>
10    3  0.5078224E-005  0.1608556E+03  0.7546771E-02  0.1209265E+00
         21   -1    0    0  503  502  0.00000000000E+00  0.00000000000E+00  0.37217655486E+02  0.37217655486E+02  0.00000000000E+00 0. -1.
          1   -1    0    0  502    0 -0.00000000000E+00 -0.00000000000E+00 -0.13420427991E+04  0.13420427991E+04  0.00000000000E+00 0. -1.
         23    2    1    2    0    0  0.26635319416E+02  0.31615492073E+02 -0.17189905613E+03  0.19919672667E+03  0.91766392766E+02 0.  0.
        -24    2    1    2    0    0  0.33000529016E+02 -0.15098350994E+03 -0.76786069828E+03  0.78736846008E+03  0.80336696345E+02 0.  0.
         11    1    4    4    0    0  0.41534827879E+02 -0.15719047390E+03 -0.73802716413E+03  0.75572354866E+03  0.00000000000E+00 0. -1.
        -12    1    4    4    0    0 -0.85342988636E+01  0.62069639624E+01 -0.29833534152E+02  0.31644911419E+02  0.00000000000E+00 0.  1.
        -13    1    3    3    0    0  0.36941285861E+02 -0.24842112846E+01 -0.15573905662E+03  0.16007961664E+03  0.00000000000E+00 0.  1.
         13    1    3    3    0    0 -0.10305966445E+02  0.34099703357E+02 -0.16159999507E+02  0.39117110035E+02  0.00000000000E+00 0. -1.
         21    1    1    2  503  501 -0.14643450067E+02  0.29956452212E+02 -0.37509595534E+02  0.50187542439E+02  0.00000000000E+00 0.  1.
          2    1    1    2  501    0 -0.44992398365E+02  0.89411565657E+02 -0.32755579372E+03  0.34250772544E+03  0.00000000000E+00 0. -1.
<scales pt_clust_5="13000.00000" pt_clust_6="13000.00000" pt_clust_7="13000.00000" pt_clust_8="13000.00000" pt_clust_9="32.29935" pt_clust_10="150.17396"></scales>
<clustering>
<clus scale="   32.299">  9 10 -1 -1</clus>
<clus scale="   80.337">  5  6 -1 -1</clus>
<clus scale="   91.766">  7  8 -1 -1</clus>
<clus scale="  100.648">  2  7  1 -1</clus>
<clus scale="  150.174">  1  9  2 -1</clus>
<clus scale="  150.174">  1  5  2 -1</clus>
</clustering>
</event>
<event>
10    3  0.5078224E-005  0.2296787E+03  0.7546771E-02  0.1155582E+00
          1   -1    0    0  502    0 -0.00000000000E+00  0.00000000000E+00  0.41368653942E+03  0.41368653942E+03  0.00000000000E+00 0. -1.
         21   -1    0    0  503  502  0.00000000000E+00 -0.00000000000E+00 -0.56149997202E+03  0.56149997202E+03  0.00000000000E+00 0. -1.
        -24    2    1    2    0    0  0.77040017013E+02  0.33148993655E+02  0.16566827436E+03  0.20264498157E+03  0.81147960078E+02 0.  0.
         23    2    1    2    0    0 -0.76408005152E+02 -0.18278582864E+03 -0.30552251093E+03  0.37548937186E+03  0.91648356737E+02 0.  0.
         11    1    3    3    0    0  0.42613948496E+02  0.58581752092E+02  0.88170301737E+02  0.11411298083E+03  0.00000000000E+00 0. -1.
        -12    1    3    3    0    0  0.34426068517E+02 -0.25432758437E+02  0.77497972621E+02  0.88532000744E+02  0.00000000000E+00 0.  1.
        -13    1    4    4    0    0  0.15483098087E+02 -0.27816332458E+02 -0.19131632261E+02  0.37141540501E+02  0.00000000000E+00 0.  1.
         13    1    4    4    0    0 -0.91891103239E+02 -0.15496949618E+03 -0.28639087867E+03  0.33834783136E+03  0.00000000000E+00 0. -1.
         21    1    1    2  503  501 -0.50205925483E+02 -0.76577700792E+01 -0.16298047485E+03  0.17071002190E+03  0.00000000000E+00 0. -1.
          2    1    1    2  501    0  0.49573913622E+02  0.15729460506E+03  0.15502127882E+03  0.22634213611E+03  0.00000000000E+00 0. -1.
<scales pt_clust_5="13000.00000" pt_clust_6="13000.00000" pt_clust_7="13000.00000" pt_clust_8="13000.00000" pt_clust_9="50.78658" pt_clust_10="210.60133"></scales>
<clustering>
<clus scale="   50.787">  2  9  1 -1</clus>
<clus scale="   81.148">  5  6 -1 -1</clus>
<clus scale="   91.648">  7  8 -1 -1</clus>
<clus scale="  115.059">  1  5  2 -1</clus>
<clus scale="  210.601">  2 10  1 -1</clus>
<clus scale="   50.787">  2  5  1 -1</clus>
</clustering>
</event>
<event>
10    3  0.5078224E-005  0.3456231E+03  0.7546771E-02  0.1109837E+00
          1   -1    0    0  502    0 -0.00000000000E+00  0.00000000000E+00  0.30222945586E+03  0.30222945586E+03  0.00000000000E+00 0. -1.
         21   -1    0    0  503  502  0.00000000000E+00 -0.00000000000E+00 -0.30465494786E+04  0.30465494786E+04  0.00000000000E+00 0.  1.
        -24    2    1    2    0    0 -0.21867626881E+02 -0.61093548451E+02  0.88470891116E+02  0.13602571231E+03  0.80406971499E+02 0.  0.
         23    2    1    2    0    0  0.27166574708E+03  0.93079060122E+02 -0.65546424906E+03  0.72143078930E+03  0.91449507328E+02 0.  0.
         11    1    3    3    0    0  0.10252435680E+02 -0.65956019758E+02  0.76197763907E+02  0.10129860909E+03  0.00000000000E+00 0. -1.
        -12    1    3    3    0    0 -0.32120062560E+02  0.48624713069E+01  0.12273127209E+02  0.34727103213E+02  0.00000000000E+00 0.  1.
        -13    1    4    4    0    0  0.15952074493E+03  0.59102482083E+02 -0.48988954230E+03  0.51858628511E+03  0.00000000000E+00 0.  1.
         13    1    4    4    0    0  0.11214500215E+03  0.33976578039E+02 -0.16557470676E+03  0.20284450419E+03  0.00000000000E+00 0. -1.
         21    1    1    2  503  501  0.63534077270E+02 -0.27557126520E+03 -0.20573668913E+04  0.20767124564E+04  0.00000000000E+00 0.  1.
          2    1    1    2  501    0 -0.31333219747E+03  0.24358575353E+03 -0.11995977347E+03  0.41460997642E+03  0.00000000000E+00 0. -1.
<scales pt_clust_5="13000.00000" pt_clust_6="13000.00000" pt_clust_7="13000.00000" pt_clust_8="13000.00000" pt_clust_9="285.58693" pt_clust_10="333.30534"></scales>
<clustering>
<clus scale="   80.407">  5  6 -1 -1</clus>
<clus scale="   91.450">  7  8 -1 -1</clus>
<clus scale="  103.324">  1  5  2 -1</clus>
<clus scale="  285.587">  2  9  1 -1</clus>
<clus scale="  333.305">  2 10  1 -1</clus>
<clus scale="  285.587">  2  5  1 -1</clus>
</clustering>
</event>
<event>
10    3  0.5078224E-005  0.1321201E+03  0.7546771E-02  0.1226778E+00
          1   -1    0    0  503    0 -0.00000000000E+00  0.00000000000E+00  0.24988842149E+03  0.24988842149E+03  0.00000000000E+00 0. -1.
         21   -1    0    0  501  502  0.00000000000E+00 -0.00000000000E+00 -0.13589798222E+03  0.13589798222E+03  0.00000000000E+00 0.  1.
        -24    2    1    2    0    0 -0.75458270295E+02 -0.63447058796E+02  0.74875286639E+02  0.14833192670E+03  0.81710293735E+02 0.  0.
         23    2    1    2    0    0  0.35196982672E+02  0.91874479023E+02  0.62731211601E+02  0.14823409812E+03  0.91424260741E+02 0.  0.
         13    1    3    3    0    0 -0.70936424769E+02 -0.10292580411E+02  0.58522376362E+02  0.92535301942E+02  0.00000000000E+00 0. -1.
        -14    1    3    3    0    0 -0.45218455263E+01 -0.53154478385E+02  0.16352910277E+02  0.55796624754E+02  0.00000000000E+00 0.  1.
        -13    1    4    4    0    0 -0.23457844186E+02  0.53008671723E+02  0.68299225771E+01  0.58368121215E+02  0.00000000000E+00 0.  1.
         13    1    4    4    0    0  0.58654826858E+02  0.38865807299E+02  0.55901289024E+02  0.89865976906E+02  0.00000000000E+00 0. -1.
         21    1    1    2  503  502 -0.17142152143E+02 -0.20779953001E+02 -0.71955065783E+00  0.26947682274E+02  0.00000000000E+00 0.  1.
          2    1    1    2  501    0  0.57403439766E+02 -0.76474672258E+01 -0.22896508308E+02  0.62272696622E+02  0.00000000000E+00 0. -1.
<scales pt_clust_5="13000.00000" pt_clust_6="13000.00000" pt_clust_7="13000.00000" pt_clust_8="13000.00000" pt_clust_9="26.93807" pt_clust_10="53.53737"></scales>
<clustering>
<clus scale="   26.938">  2  9  1 -1</clus>
<clus scale="   53.537">  2 10  1 -1</clus>
<clus scale="   81.710">  5  6 -1 -1</clus>
<clus scale="   91.424">  7  8 -1 -1</clus>
<clus scale="  125.594">  1  5  2 -1</clus>
<clus scale="   26.938">  2  5  1 -1</clus>
</clustering>
</event>
<event>
10    3  0.5078224E-005  0.2485990E+03  0.7546771E-02  0.1141637E+00
         21   -1    0    0  501  502  0.00000000000E+00  0.00000000000E+00  0.17909304262E+03  0.17909304262E+03  0.00000000000E+00 0. -1.
          1   -1    0    0  503    0 -0.00000000000E+00 -0.00000000000E+00 -0.11086164184E+04  0.11086164184E+04  0.00000000000E+00 0. -1.
         23    2    1    2    0    0 -0.59935990305E+02  0.67419995456E+02 -0.16498795075E+03  0.20874203384E+03  0.90633515188E+02 0.  0.
        -24    2    1    2    0    0 -0.96175995088E+02 -0.22921468524E+03 -0.63963281539E+03  0.69075419218E+03  0.78879791707E+02 0.  0.
         13    1    4    4    0    0 -0.98624527129E+02 -0.18687778285E+03 -0.58220921618E+03  0.61936877100E+03  0.00000000000E+00 0. -1.
        -14    1    4    4    0    0  0.24485320413E+01 -0.42336902386E+02 -0.57423599204E+02  0.71385421189E+02  0.00000000000E+00 0.  1.
        -11    1    3    3    0    0 -0.80175665799E+02  0.69652589236E+02 -0.14834111080E+03  0.18244096505E+03  0.00000000000E+00 0. -1.
         11    1    3    3    0    0  0.20239675494E+02 -0.22325937798E+01 -0.16646839952E+02  0.26301068790E+02  0.00000000000E+00 0.  1.
         21    1    1    2  503  502 -0.67677033291E+01 -0.20498662744E+02  0.71463386500E+02  0.74652612766E+02  0.00000000000E+00 0.  1.
          2    1    1    2  501    0  0.16287968872E+03  0.18229335253E+03 -0.19636599611E+03  0.31356062221E+03  0.00000000000E+00 0. -1.
<scales pt_clust_5="13000.00000" pt_clust_6="13000.00000" pt_clust_7="13000.00000" pt_clust_8="13000.00000" pt_clust_9="21.58696" pt_clust_10="235.75296"></scales>
<clustering>
<clus scale="   21.587">  1  9  2 -1</clus>
<clus scale="   78.880">  5  6 -1 -1</clus>
<clus scale="   90.634">  7  8 -1 -1</clus>
<clus scale="  126.369">  2  7  1 -1</clus>
<clus scale="  235.753">  1 10  2 -1</clus>
<clus scale="   21.587">  1  5  2 -1</clus>
</clustering>
</event>
<event>
10    3  0.5078224E-005  0.1864935E+03  0.7546771E-02  0.1168593E+00
          1   -1    0    0  502    0 -0.00000000000E+00  0.00000000000E+00  0.79543294019E+03  0.79543294019E+03  0.00000000000E+00 0. -1.
         21   -1    0    0  503  502  0.00000000000E+00 -0.00000000000E+00 -0.27946320935E+03  0.27946320935E+03  0.00000000000E+00 0. -1.
         23    2    1    2    0    0  0.12029743334E+03  0.46476578565E+02 -0.86871858151E+02  0.17991928220E+03  0.90513444003E+02 0.  0.
        -24    2    1    2    0    0 -0.17897423443E+03 -0.18430337404E+03  0.62884862352E+03  0.68394715683E+03  0.79583991886E+02 0.  0.
         13    1    4    4    0    0 -0.17403527729E+03 -0.14193353431E+03  0.49732269025E+03  0.54567688620E+03  0.00000000000E+00 0. -1.
        -14    1    4    4    0    0 -0.49389571394E+01 -0.42369839733E+02  0.13152593327E+03  0.13827027063E+03  0.00000000000E+00 0.  1.
        -13    1    3    3    0    0  0.34335078784E+02  0.88814511546E+01 -0.77991064921E+02  0.85676041093E+02  0.00000000000E+00 0.  1.
         13    1    3    3    0    0  0.85962354559E+02  0.37595127411E+02 -0.88807932294E+01  0.94243241109E+02  0.00000000000E+00 0. -1.
         21    1    1    2  503  501  0.95215203553E+01 -0.19085909930E+02 -0.40692297642E+02  0.45943382496E+02  0.00000000000E+00 0. -1.
          2    1    1    2  501    0  0.49155280728E+02  0.15691270541E+03  0.14685263116E+02  0.16508632801E+03  0.00000000000E+00 0. -1.
<scales pt_clust_5="13000.00000" pt_clust_6="13000.00000" pt_clust_7="13000.00000" pt_clust_8="13000.00000" pt_clust_9="21.32912" pt_clust_10="168.66005"></scales>
<clustering>
<clus scale="   21.329">  2  9  1 -1</clus>
<clus scale="   79.584">  5  6 -1 -1</clus>
<clus scale="   90.513">  7  8 -1 -1</clus>
<clus scale="  158.938">  1  7  2 -1</clus>
<clus scale="  168.660">  2 10  1 -1</clus>
<clus scale="   21.329">  2  5  1 -1</clus>
</clustering>
</event>
<event>
10    3  0.5078224E-005  0.1067020E+03  0.7546771E-02  0.1271113E+00
         21   -1    0    0  501  502  0.00000000000E+00  0.00000000000E+00  0.25580316799E+03  0.25580316799E+03  0.00000000000E+00 0.  1.
          1   -1    0    0  503    0 -0.00000000000E+00 -0.00000000000E+00 -0.27609101750E+03  0.27609101750E+03  0.00000000000E+00 0. -1.
        -24    2    1    2    0    0 -0.17666757455E+02  0.21471615370E+02 -0.65927164275E+02  0.10714900219E+03  0.79758216478E+02 0.  0.
         23    2    1    2    0    0  0.62048571630E+02 -0.64154644520E+02 -0.15692226674E+03  0.20175035655E+03  0.90070888265E+02 0.  0.
         11    1    3    3    0    0  0.28886110803E+02  0.75351620013E+01 -0.45537630985E+02  0.54450545447E+02  0.00000000000E+00 0. -1.
        -12    1    3    3    0    0 -0.46552868258E+02  0.13936453368E+02 -0.20389533290E+02  0.52698456745E+02  0.00000000000E+00 0.  1.
        -11    1    4    4    0    0  0.67229465952E+01 -0.42465448055E+02 -0.12922102163E+03  0.13618584626E+03  0.00000000000E+00 0. -1.
         11    1    4    4    0    0  0.55325625035E+02 -0.21689196465E+02 -0.27701245110E+02  0.65564510289E+02  0.00000000000E+00 0.  1.
         21    1    1    2  503  502 -0.25259347244E+02  0.59588053192E+02  0.16795969146E+03  0.17999785738E+03  0.00000000000E+00 0.  1.
          2    1    1    2  501    0 -0.19122466931E+02 -0.16905024042E+02  0.34601890049E+02  0.42996969362E+02  0.00000000000E+00 0. -1.
<scales pt_clust_5="13000.00000" pt_clust_6="13000.00000" pt_clust_7="13000.00000" pt_clust_8="13000.00000" pt_clust_9="61.37412" pt_clust_10="25.52349"></scales>
<clustering>
<clus scale="   25.523">  1 10  2 -1</clus>
<clus scale="   61.374">  1  9  2 -1</clus>
<clus scale="   79.758">  5  6 -1 -1</clus>
<clus scale="   90.071">  7  8 -1 -1</clus>
<clus scale="   98.153">  2  5  1 -1</clus>
<clus scale="   25.523">  1  5  2 -1</clus>
</clustering>
</event>
<event>
10    3  0.5078224E-005  0.1739611E+03  0.7546771E-02  0.1208576E+00
          1   -1    0    0  502    0 -0.00000000000E+00  0.00000000000E+00  0.39494947090E+03  0.39494947090E+03  0.00000000000E+00 0. -1.
         21   -1    0    0  503  502  0.00000000000E+00 -0.00000000000E+00 -0.11397856333E+04  0.11397856333E+04  0.00000000000E+00 0.  1.
        -24    2    1    2    0    0  0.14541656948E+02  0.39880540032E+01  0.20214289210E+03  0.21767594049E+03  0.79332854985E+02 0.  0.
         23    2    1    2    0    0 -0.34269858315E+02  0.48720382108E+02 -0.13519649927E+03  0.17440710353E+03  0.92691129694E+02 0.  0.
         11    1    3    3    0    0 -0.80149820096E+01 -0.34786647358E+02  0.97175760046E+02  0.10352525833E+03  0.00000000000E+00 0. -1.
        -12    1    3    3    0    0  0.22556638957E+02  0.38774701361E+02  0.10496713205E+03  0.11415068216E+03  0.00000000000E+00 0.  1.
        -11    1    4    4    0    0 -0.14706988957E+02 -0.22387080914E+02 -0.90300285556E+01  0.28266912314E+02  0.00000000000E+00 0. -1.
         11    1    4    4    0    0 -0.19562869358E+02  0.71107463022E+02 -0.12616647072E+03  0.14614019121E+03  0.00000000000E+00 0.  1.
         21    1    1    2  503  501  0.14000500935E+03 -0.10717076899E+03 -0.94131730612E+03  0.95768744754E+03  0.00000000000E+00 0.  1.
          2    1    1    2  501    0 -0.12027680799E+03  0.54462332881E+02  0.12953475090E+03  0.18496461265E+03  0.00000000000E+00 0. -1.
<scales pt_clust_5="13000.00000" pt_clust_6="13000.00000" pt_clust_7="13000.00000" pt_clust_8="13000.00000" pt_clust_9="13000.00000" pt_clust_10="173.96108"></scales>
<clustering>
<clus scale="   79.333">  5  6 -1 -1</clus>
<clus scale="   80.753">  1  5  2 -1</clus>
<clus scale="   92.691">  7  8 -1 -1</clus>
<clus scale="  109.899">  1  7  2 -1</clus>
<clus scale="  173.961">  1 10  2 -1</clus>
<clus scale="  173.961">  2  5  1 -1</clus>
</clustering>
</event>
<event>
10    3  0.5078224E-005  0.1112107E+03  0.7546771E-02  0.1263067E+00
         -2   -1    0    0    0  501 -0.00000000000E+00  0.00000000000E+00  0.48737067125E+03  0.48737067125E+03  0.00000000000E+00 0.  1.
         21   -1    0    0  501  502  0.00000000000E+00 -0.00000000000E+00 -0.59956046485E+02  0.59956046485E+02  0.00000000000E+00 0. -1.
        -24    2    1    2    0    0  0.24724501971E+01 -0.74161302162E+02  0.29815394671E+03  0.31766657633E+03  0.80686219584E+02 0.  0.
         23    2    1    2    0    0 -0.99339801317E+01  0.15357506515E+02  0.30102583162E+02  0.99218501198E+02  0.92755638639E+02 0.  0.
         13    1    3    3    0    0  0.37430231397E+02 -0.19475536396E+02  0.85771366660E+02  0.95587897137E+02  0.00000000000E+00 0. -1.
        -14    1    3    3    0    0 -0.34957781200E+02 -0.54685765766E+02  0.21238258005E+03  0.22207867919E+03  0.00000000000E+00 0.  1.
        -13    1    4    4    0    0 -0.42244213111E+02  0.19222043470E+02  0.43889682676E+02  0.63877732755E+02  0.00000000000E+00 0.  1.
         13    1    4    4    0    0  0.32310232980E+02 -0.38645369555E+01 -0.13787099514E+02  0.35340768442E+02  0.00000000000E+00 0. -1.
         21    1    1    2  503  502  0.29558054253E+02  0.24013376172E+02  0.24863377714E+02  0.45480857047E+02  0.00000000000E+00 0. -1.
         -1    1    1    2    0  503 -0.22096524318E+02  0.34790419475E+02  0.74294717181E+02  0.84960783160E+02  0.00000000000E+00 0.  1.
<scales pt_clust_5="13000.00000" pt_clust_6="13000.00000" pt_clust_7="13000.00000" pt_clust_8="13000.00000" pt_clust_9="38.08308" pt_clust_10="41.88714"></scales>
<clustering>
<clus scale="   38.083">  2  9  1 -1</clus>
<clus scale="   41.887">  2 10  1 -1</clus>
<clus scale="   80.686">  5  6 -1 -1</clus>
<clus scale="   92.756">  7  8 -1 -1</clus>
<clus scale="  101.363">  1  5  2 -1</clus>
<clus scale="   38.083">  2  5  1 -1</clus>
</clustering>
</event>
<event>
10    3  0.5078224E-005  0.1228874E+03  0.7546771E-02  0.1252900E+00
          1   -1    0    0  503    0 -0.00000000000E+00  0.00000000000E+00  0.45163929976E+03  0.45163929976E+03  0.00000000000E+00 0. -1.
         21   -1    0    0  501  502  0.00000000000E+00 -0.00000000000E+00 -0.12606966129E+03  0.12606966129E+03  0.00000000000E+00 0. -1.
         23    2    1    2    0    0  0.32808085538E+00 -0.26457340831E+02  0.13651951529E+03  0.16416030836E+03  0.87240645710E+02 0.  0.
        -24    2    1    2    0    0 -0.66663473692E+02 -0.16816973519E+02 -0.17400137110E+02  0.11304217286E+03  0.88028056612E+02 0.  0.
         11    1    4    4    0    0 -0.83591950157E+02  0.41630383487E+01 -0.19711064551E+02  0.85985295750E+02  0.00000000000E+00 0. -1.
        -12    1    4    4    0    0  0.16928476466E+02 -0.20980011868E+02  0.23109274407E+01  0.27056877112E+02  0.00000000000E+00 0.  1.
        -13    1    3    3    0    0 -0.37396678868E+02 -0.33121214933E+02  0.97074960795E+02  0.10917451389E+03  0.00000000000E+00 0.  1.
         13    1    3    3    0    0  0.37724759724E+02  0.66638741024E+01  0.39444554498E+02  0.54985794473E+02  0.00000000000E+00 0. -1.
         21    1    1    2  503  502 -0.16919847136E+02 -0.13138202153E+02 -0.33822755282E+02  0.40035888373E+02  0.00000000000E+00 0. -1.
          2    1    1    2  501    0  0.83255239972E+02  0.56412516503E+02  0.24027301557E+03  0.26047059145E+03  0.00000000000E+00 0. -1.
<scales pt_clust_5="13000.00000" pt_clust_6="13000.00000" pt_clust_7="13000.00000" pt_clust_8="13000.00000" pt_clust_9="21.42180" pt_clust_10="85.74599"></scales>
<clustering>
<clus scale="   21.422">  2  9  1 -1</clus>
<clus scale="   87.241">  7  8 -1 -1</clus>
<clus scale="   88.028">  5  6 -1 -1</clus>
<clus scale="   91.805">  1  7  2 -1</clus>
<clus scale="   85.746">  2 10  1 -1</clus>
<clus scale="   21.422">  2  5  1 -1</clus>
</clustering>
</event>
<event>
10    3  0.5078224E-005  0.1366068E+03  0.7546771E-02  0.1239388E+00
         21   -1    0    0  501  502  0.00000000000E+00  0.00000000000E+00  0.39230598658E+03  0.39230598658E+03  0.00000000000E+00 0. -1.
          1   -1    0    0  503    0 -0.00000000000E+00 -0.00000000000E+00 -0.28107977547E+03  0.28107977547E+03  0.00000000000E+00 0. -1.
        -24    2    1    2    0    0  0.34883419418E+02  0.36442823315E+00 -0.11092924853E+03  0.14109086827E+03  0.79902122456E+02 0.  0.
         23    2    1    2    0    0  0.25817573038E+02 -0.66914659448E+02  0.29437997588E+03  0.31563843506E+03  0.88452997493E+02 0.  0.
         11    1    3    3    0    0 -0.21153877270E+02 -0.17696719046E+02 -0.44221962263E+02  0.52117581822E+02  0.00000000000E+00 0. -1.
        -12    1    3    3    0    0  0.56037296688E+02  0.18061147279E+02 -0.66707286266E+02  0.88973286453E+02  0.00000000000E+00 0.  1.
        -11    1    4    4    0    0 -0.26089684832E+02 -0.94609085962E+00  0.39993538081E+02  0.47760337423E+02  0.00000000000E+00 0.  1.
         11    1    4    4    0    0  0.51907257869E+02 -0.65968568588E+02  0.25438643779E+03  0.26787809764E+03  0.00000000000E+00 0. -1.
         21    1    1    2  503  502  0.28783427740E+02 -0.23541217585E+02  0.34544451932E+02  0.50754249055E+02  0.00000000000E+00 0.  1.
          2    1    1    2  501    0 -0.89484420195E+02  0.90091448800E+02 -0.10676896818E+03  0.16590220966E+03  0.00000000000E+00 0. -1.
<scales pt_clust_5="13000.00000" pt_clust_6="13000.00000" pt_clust_7="13000.00000" pt_clust_8="13000.00000" pt_clust_9="37.18433" pt_clust_10="104.10332"></scales>
<clustering>
<clus scale="   37.184">  1  9  2 -1</clus>
<clus scale="   79.902">  5  6 -1 -1</clus>
<clus scale="   87.691">  2  5  1 -1</clus>
<clus scale="   88.453">  7  8 -1 -1</clus>
<clus scale="  104.103">  1 10  2 -1</clus>
<clus scale="   37.184">  1  5  2 -1</clus>
</clustering>
</event>
<event>
10    3  0.5078224E-005  0.1105981E+03  0.7546771E-02  0.1266423E+00
         -2   -1    0    0    0  501 -0.00000000000E+00  0.00000000000E+00  0.63132799145E+02  0.63132799145E+02  0.00000000000E+00 0.  1.
         21   -1    0    0  503  502  0.00000000000E+00 -0.00000000000E+00 -0.51789989865E+03  0.51789989865E+03  0.00000000000E+00 0. -1.
         23    2    1    2    0    0  0.57329430479E+01  0.30540467309E+02 -0.55858427272E+02  0.11635067456E+03  0.97220002022E+02 0.  0.
        -24    2    1    2    0    0  0.21184054796E+02 -0.10856834353E+03 -0.19557046458E+03  0.23879017458E+03  0.80852281758E+02 0.  0.
         13    1    4    4    0    0  0.51950378964E+02 -0.62984894487E+02 -0.10810048763E+03  0.13546827760E+03  0.00000000000E+00 0. -1.
        -14    1    4    4    0    0 -0.30766324168E+02 -0.45583449048E+02 -0.87469976946E+02  0.10332189699E+03  0.00000000000E+00 0.  1.
        -13    1    3    3    0    0  0.17905619836E+02 -0.31645792678E+02 -0.87679184471E+01  0.37402457270E+02  0.00000000000E+00 0.  1.
         13    1    3    3    0    0 -0.12172676789E+02  0.62186259987E+02 -0.47090508825E+02  0.78948217287E+02  0.00000000000E+00 0. -1.
         21    1    1    2  503  501 -0.18284120542E+01  0.61994598982E+02 -0.17116638179E+03  0.18205659463E+03  0.00000000000E+00 0.  1.
         -1    1    1    2    0  502 -0.25088585789E+02  0.16033277244E+02 -0.32171825869E+02  0.43835254029E+02  0.00000000000E+00 0.  1.
<scales pt_clust_5="13000.00000" pt_clust_6="13000.00000" pt_clust_7="13000.00000" pt_clust_8="13000.00000" pt_clust_9="68.79034" pt_clust_10="29.77422"></scales>
<clustering>
<clus scale="   29.774">  2 10  1 -1</clus>
<clus scale="   68.790">  2  9  1 -1</clus>
<clus scale="   80.852">  5  6 -1 -1</clus>
<clus scale="   96.526">  2  5  1 -1</clus>
<clus scale="   97.220">  7  8 -1 -1</clus>
<clus scale="   29.774">  2  5  1 -1</clus>
</clustering>
</event>
<event>
10    3  0.5078224E-005  0.2581206E+03  0.7546771E-02  0.1119853E+00
         -2   -1    0    0    0  501 -0.00000000000E+00  0.00000000000E+00  0.16598137037E+03  0.16598137037E+03  0.00000000000E+00 0.  1.
         21   -1    0    0  501  502  0.00000000000E+00 -0.00000000000E+00 -0.12213419661E+04  0.12213419661E+04  0.00000000000E+00 0.  1.
         23    2    1    2    0    0  0.91100642488E+02  0.14206189811E+03  0.92591181306E+01  0.19285073090E+03  0.92869603110E+02 0.  0.
        -24    2    1    2    0    0 -0.64918895890E+02  0.17127094345E+03 -0.27774799060E+03  0.34266540332E+03  0.82020931705E+02 0.  0.
         13    1    4    4    0    0 -0.16708737345E+02  0.67453309806E+02 -0.17709194609E+03  0.19023850367E+03  0.00000000000E+00 0. -1.
        -14    1    4    4    0    0 -0.48210158546E+02  0.10381763364E+03 -0.10065604451E+03  0.15242689966E+03  0.00000000000E+00 0.  1.
        -11    1    3    3    0    0  0.46034309020E+02  0.11006950795E+03  0.44462533132E+02  0.12732388244E+03  0.00000000000E+00 0.  1.
         11    1    3    3    0    0  0.45066333468E+02  0.31992390159E+02 -0.35203415002E+02  0.65526848452E+02  0.00000000000E+00 0. -1.
         21    1    1    2  503  502  0.18729761427E+02 -0.28945844222E+02 -0.13222864214E+03  0.13664947736E+03  0.00000000000E+00 0. -1.
         -1    1    1    2    0  503 -0.44911508026E+02 -0.28438699734E+03 -0.65464308111E+03  0.71515772488E+03  0.00000000000E+00 0.  1.
<scales pt_clust_5="13000.00000" pt_clust_6="13000.00000" pt_clust_7="13000.00000" pt_clust_8="13000.00000" pt_clust_9="30.05924" pt_clust_10="30.05924"></scales>
<clustering>
<clus scale="   30.059">  9 10 -1 -1</clus>
<clus scale="   82.021">  5  6 -1 -1</clus>
<clus scale="   92.870">  7  8 -1 -1</clus>
<clus scale="  192.628">  1  7  2 -1</clus>
<clus scale="  256.531">  1  5  2 -1</clus>
<clus scale="  258.121">  2  5  1 -1</clus>
</clustering>
</event>
<event>
10    3  0.5078224E-005  0.2579875E+03  0.7546771E-02  0.1108679E+00
         21   -1    0    0  501  502  0.00000000000E+00  0.00000000000E+00  0.83087522256E+03  0.83087522256E+03  0.00000000000E+00 0. -1.
          1   -1    0    0  503    0 -0.00000000000E+00 -0.00000000000E+00 -0.61077209558E+03  0.61077209558E+03  0.00000000000E+00 0. -1.
         23    2    1    2    0    0  0.17681578119E+03  0.16730007665E+03 -0.47501036142E+03  0.54152017124E+03  0.91411795102E+02 0.  0.
        -24    2    1    2    0    0 -0.27394039186E+03 -0.27035132859E+02  0.18085709783E+03  0.34023555835E+03  0.85303626089E+02 0.  0.
         13    1    4    4    0    0 -0.25837425409E+03 -0.26781846851E+02  0.19031822850E+03  0.32201793521E+03  0.00000000000E+00 0. -1.
        -14    1    4    4    0    0 -0.15566137773E+02 -0.25328600744E+00 -0.94611306742E+01  0.18217623133E+02  0.00000000000E+00 0.  1.
        -13    1    3    3    0    0  0.14103489637E+02  0.62114945171E+02 -0.86993649403E+02  0.10781961728E+03  0.00000000000E+00 0.  1.
         13    1    3    3    0    0  0.16271229155E+03  0.10518513148E+03 -0.38801671202E+03  0.43370055397E+03  0.00000000000E+00 0. -1.
         21    1    1    2  503  502 -0.22820719058E+02 -0.14128076507E+02  0.18985328788E+03  0.19174112413E+03  0.00000000000E+00 0. -1.
          2    1    1    2  501    0  0.11994532973E+03 -0.12613686728E+03  0.32440310269E+03  0.36815046442E+03  0.00000000000E+00 0. -1.
<scales pt_clust_5="13000.00000" pt_clust_6="13000.00000" pt_clust_7="13000.00000" pt_clust_8="13000.00000" pt_clust_9="26.84004" pt_clust_10="171.68213"></scales>
<clustering>
<clus scale="   26.840">  1  9  2 -1</clus>
<clus scale="   85.304">  5  6 -1 -1</clus>
<clus scale="   91.412">  7  8 -1 -1</clus>
<clus scale="  171.682">  1 10  2 -1</clus>
<clus scale="  255.887">  1  5  2 -1</clus>
<clus scale="   26.840">  1  5  2 -1</clus>
</clustering>
</event>
<event>
10    3  0.5078224E-005  0.1752762E+03  0.7546771E-02  0.1194559E+00
          1   -1    0    0  503    0 -0.00000000000E+00  0.00000000000E+00  0.38302003960E+03  0.38302003960E+03  0.00000000000E+00 0. -1.
         21   -1    0    0  501  502  0.00000000000E+00 -0.00000000000E+00 -0.26148262214E+03  0.26148262214E+03  0.00000000000E+00 0. -1.
        -24    2    1    2    0    0 -0.61986753415E+02 -0.30239321437E+02  0.18505833212E+03  0.21268365461E+03  0.78936534580E+02 0.  0.
         23    2    1    2    0    0 -0.83253493536E+02 -0.39380945258E+02 -0.91692155598E+02  0.15882092216E+03  0.91294199602E+02 0.  0.
         11    1    3    3    0    0 -0.54484039998E+02 -0.55840939251E+02  0.14234964003E+03  0.16232726551E+03  0.00000000000E+00 0. -1.
        -12    1    3    3    0    0 -0.75027134170E+01  0.25601617814E+02  0.42708692097E+02  0.50356389108E+02  0.00000000000E+00 0.  1.
        -13    1    4    4    0    0 -0.14448839822E+02 -0.32645377315E+02 -0.81453290672E+02  0.88933279449E+02  0.00000000000E+00 0.  1.
         13    1    4    4    0    0 -0.68804653714E+02 -0.67355679431E+01 -0.10238864926E+02  0.69887642707E+02  0.00000000000E+00 0. -1.
         21    1    1    2  503  502 -0.52924239702E+02 -0.16548521363E+02  0.54440727876E+01  0.55717740764E+02  0.00000000000E+00 0.  1.
          2    1    1    2  501    0  0.19816448665E+03  0.86168788058E+02  0.22727168140E+02  0.21728034420E+03  0.00000000000E+00 0. -1.
<scales pt_clust_5="13000.00000" pt_clust_6="13000.00000" pt_clust_7="13000.00000" pt_clust_8="13000.00000" pt_clust_9="55.45114" pt_clust_10="149.62334"></scales>
<clustering>
<clus scale="   55.451">  2  9  1 -1</clus>
<clus scale="   78.937">  5  6 -1 -1</clus>
<clus scale="   91.294">  7  8 -1 -1</clus>
<clus scale="  106.959">  1  5  2 -1</clus>
<clus scale="  149.623">  2 10  1 -1</clus>
<clus scale="   55.451">  2  5  1 -1</clus>
</clustering>
</event>
<event>
10    3  0.5078224E-005  0.3050591E+03  0.7546771E-02  0.1103016E+00
          1   -1    0    0  503    0 -0.00000000000E+00  0.00000000000E+00  0.40810809520E+03  0.40810809520E+03  0.00000000000E+00 0. -1.
         21   -1    0    0  501  502  0.00000000000E+00 -0.00000000000E+00 -0.75359845144E+03  0.75359845144E+03  0.00000000000E+00 0. -1.
         23    2    1    2    0    0 -0.15311635260E+03 -0.72589296496E+02 -0.33540281557E+03  0.38699739582E+03  0.92510065841E+02 0.  0.
        -24    2    1    2    0    0 -0.15027541760E+03  0.22724678311E+03  0.45627971868E+02  0.28678228554E+03  0.77060793654E+02 0.  0.
         13    1    4    4    0    0 -0.12705162343E+03  0.15691608406E+03  0.61446450557E+02  0.21104605833E+03  0.00000000000E+00 0. -1.
        -14    1    4    4    0    0 -0.23223794170E+02  0.70330699044E+02 -0.15818478689E+02  0.75736227208E+02  0.00000000000E+00 0.  1.
        -13    1    3    3    0    0 -0.14557861218E+03 -0.38020055030E+02 -0.30601012237E+03  0.34099978284E+03  0.00000000000E+00 0. -1.
         13    1    3    3    0    0 -0.75377404240E+01 -0.34569241465E+02 -0.29392693205E+02  0.45997612982E+02  0.00000000000E+00 0.  1.
         21    1    1    2  503  502  0.18120927005E+02  0.27680863664E+02 -0.13600495463E+03  0.13997123237E+03  0.00000000000E+00 0. -1.
          2    1    1    2  501    0  0.28527084319E+03 -0.18233835027E+03  0.80289442093E+02  0.34795563290E+03  0.00000000000E+00 0. -1.
<scales pt_clust_5="13000.00000" pt_clust_6="13000.00000" pt_clust_7="13000.00000" pt_clust_8="13000.00000" pt_clust_9="33.08471" pt_clust_10="295.16566"></scales>
<clustering>
<clus scale="   33.085">  2  9  1 -1</clus>
<clus scale="   77.061">  5  6 -1 -1</clus>
<clus scale="   92.510">  7  8 -1 -1</clus>
<clus scale="  178.983">  1  7  2 -1</clus>
<clus scale="  295.166">  2 10  1 -1</clus>
<clus scale="   33.085">  2  5  1 -1</clus>
</clustering>
</event>
<event>
10    3  0.5078224E-005  0.1903925E+03  0.7546771E-02  0.1183654E+00
         21   -1    0    0  503  502  0.00000000000E+00  0.00000000000E+00  0.20018054573E+03  0.20018054573E+03  0.00000000000E+00 0.  1.
         -4   -1    0    0    0  501 -0.00000000000E+00 -0.00000000000E+00 -0.60512398057E+03  0.60512398057E+03  0.00000000000E+00 0.  1.
        -24    2    1    2    0    0 -0.60948066443E+02 -0.23505128901E+02  0.99659651318E+02  0.14513680405E+03  0.82858239789E+02 0.  0.
         23    2    1    2    0    0  0.18892141619E+03 -0.38242250782E+02 -0.14910910105E+03  0.25973873823E+03  0.89871668966E+02 0.  0.
         11    1    3    3    0    0 -0.46602253531E+02 -0.53039122540E+02  0.53949404459E+02  0.88856382975E+02  0.00000000000E+00 0. -1.
        -12    1    3    3    0    0 -0.14345812913E+02  0.29533993639E+02  0.45710246859E+02  0.56280421074E+02  0.00000000000E+00 0.  1.
        -13    1    4    4    0    0  0.15411005395E+03 -0.41996932020E+00 -0.13860764551E+03  0.20727316395E+03  0.00000000000E+00 0.  1.
         13    1    4    4    0    0  0.34811362244E+02 -0.37822281462E+02 -0.10501455546E+02  0.52465574283E+02  0.00000000000E+00 0. -1.
         21    1    1    2  503  501 -0.21949264250E+02 -0.23992111542E+02 -0.19731530975E+02  0.38035837469E+02  0.00000000000E+00 0. -1.
         -3    1    1    2    0  502 -0.10602408550E+03  0.85739491225E+02 -0.33576245413E+03  0.36239314654E+03  0.00000000000E+00 0.  1.
<scales pt_clust_5="13000.00000" pt_clust_6="13000.00000" pt_clust_7="13000.00000" pt_clust_8="13000.00000" pt_clust_9="32.51756" pt_clust_10="167.84641"></scales>
<clustering>
<clus scale="   32.518">  2  9  1 -1</clus>
<clus scale="   82.858">  5  6 -1 -1</clus>
<clus scale="   89.872">  7  8 -1 -1</clus>
<clus scale="  106.228">  2  5  1 -1</clus>
<clus scale="  167.846">  1 10  2 -1</clus>
<clus scale="  167.846">  1  5  2 -1</clus>
</clustering>
</event>
<event>
10    3  0.5078224E-005  0.1505079E+03  0.7546771E-02  0.1215828E+00
         21   -1    0    0  503  502  0.00000000000E+00  0.00000000000E+00  0.11942496357E+03  0.11942496357E+03  0.00000000000E+00 0. -1.
          3   -1    0    0  502    0 -0.00000000000E+00 -0.00000000000E+00 -0.72672518499E+03  0.72672518499E+03  0.00000000000E+00 0. -1.
        -24    2    1    2    0    0 -0.78425498957E+02  0.17281045946E+02  0.42740950594E+02  0.12231909468E+03  0.81767833706E+02 0.  0.
         23    2    1    2    0    0  0.10254402376E+03  0.75861374385E+02 -0.37795670097E+03  0.40928230361E+03  0.91599734208E+02 0.  0.
         11    1    3    3    0    0 -0.20004961388E+02 -0.16652369881E+01  0.55999071040E+02  0.59488380812E+02  0.00000000000E+00 0. -1.
        -12    1    3    3    0    0 -0.58420537569E+02  0.18946282934E+02 -0.13258120445E+02  0.62830713863E+02  0.00000000000E+00 0.  1.
        -13    1    4    4    0    0  0.47441802223E+02 -0.15349855645E+02 -0.10419578590E+03  0.11551235633E+03  0.00000000000E+00 0.  1.
         13    1    4    4    0    0  0.55102221534E+02  0.91211230031E+02 -0.27376091507E+03  0.29376994727E+03  0.00000000000E+00 0. -1.
         21    1    1    2  503  501  0.23723663954E+02  0.19713785394E+02 -0.29145326928E+02  0.42436960868E+02  0.00000000000E+00 0.  1.
          4    1    1    2  501    0 -0.47842188754E+02 -0.11285620572E+03 -0.24293914412E+03  0.27211178942E+03  0.00000000000E+00 0. -1.
<scales pt_clust_5="13000.00000" pt_clust_6="13000.00000" pt_clust_7="13000.00000" pt_clust_8="13000.00000" pt_clust_9="30.84551" pt_clust_10="119.42413"></scales>
<clustering>
<clus scale="   30.846">  1  9  2 -1</clus>
<clus scale="   81.768">  5  6 -1 -1</clus>
<clus scale="   91.600">  7  8 -1 -1</clus>
<clus scale="  106.866">  2  5  1 -1</clus>
<clus scale="  119.424">  1 10  2 -1</clus>
<clus scale="   30.846">  1  5  2 -1</clus>
</clustering>
</event>
<event>
10    3  0.5078224E-005  0.1788469E+03  0.7546771E-02  0.1170022E+00
         21   -1    0    0  503  502  0.00000000000E+00  0.00000000000E+00  0.89735822253E+03  0.89735822253E+03  0.00000000000E+00 0.  1.
          1   -1    0    0  502    0 -0.00000000000E+00 -0.00000000000E+00 -0.16936755998E+03  0.16936755998E+03  0.00000000000E+00 0. -1.
         23    2    1    2    0    0 -0.16753450483E+03 -0.13411498794E+02 -0.96017600863E+02  0.21295794612E+03  0.88792052194E+02 0.  0.
        -24    2    1    2    0    0  0.83214454041E+02  0.24723149804E+01  0.31869467371E+03  0.33883873214E+03  0.79464669165E+02 0.  0.
         13    1    4    4    0    0  0.68921888802E+02 -0.51401338652E+01  0.11266956306E+03  0.13217820612E+03  0.00000000000E+00 0. -1.
        -14    1    4    4    0    0  0.14292565239E+02  0.76124488457E+01  0.20602511065E+03  0.20666052602E+03  0.00000000000E+00 0.  1.
        -11    1    3    3    0    0 -0.90700931877E+02  0.32694730318E+01 -0.25179144390E+01  0.90794759708E+02  0.00000000000E+00 0.  1.
         11    1    3    3    0    0 -0.76833572954E+02 -0.16680971826E+02 -0.93499686424E+02  0.12216318642E+03  0.00000000000E+00 0. -1.
         21    1    1    2  503  501  0.14699146508E+02  0.22949362099E+02  0.10816578098E+03  0.11154628772E+03  0.00000000000E+00 0.  1.
          2    1    1    2  501    0  0.69620904281E+02 -0.12010178286E+02  0.39714780873E+03  0.40338281653E+03  0.00000000000E+00 0. -1.
<scales pt_clust_5="13000.00000" pt_clust_6="13000.00000" pt_clust_7="13000.00000" pt_clust_8="13000.00000" pt_clust_9="27.25322" pt_clust_10="77.09284"></scales>
<clustering>
<clus scale="   27.253">  1  9  2 -1</clus>
<clus scale="   77.093">  1 10  2 -1</clus>
<clus scale="   79.465">  5  6 -1 -1</clus>
<clus scale="   88.792">  7  8 -1 -1</clus>
<clus scale="  174.404">  1  5  2 -1</clus>
<clus scale="   27.253">  1  5  2 -1</clus>
</clustering>
</event>
<event>
10    3  0.5078224E-005  0.1017053E+03  0.7546771E-02  0.1281591E+00
         -4   -1    0    0    0  501 -0.00000000000E+00  0.00000000000E+00  0.46882225219E+03  0.46882225219E+03  0.00000000000E+00 0.  1.
         21   -1    0    0  503  502  0.00000000000E+00 -0.00000000000E+00 -0.21155366366E+03  0.21155366366E+03  0.00000000000E+00 0.  1.
        -24    2    1    2    0    0 -0.22047056467E+01 -0.46793224367E+02  0.30296453591E+03  0.31729014532E+03  0.81798898045E+02 0.  0.
         23    2    1    2    0    0  0.74781948781E+02 -0.77171749741E+01 -0.63851073297E+02  0.13476920685E+03  0.91836185140E+02 0.  0.
         13    1    3    3    0    0 -0.23195075159E+02 -0.38691956868E+02  0.70229791914E+02  0.83470370253E+02  0.00000000000E+00 0. -1.
        -14    1    3    3    0    0  0.20990369512E+02 -0.81012674997E+01  0.23273474400E+03  0.23381977506E+03  0.00000000000E+00 0.  1.
        -13    1    4    4    0    0  0.24628606475E+02 -0.19583936380E+02  0.19320497768E+02  0.36923982113E+02  0.00000000000E+00 0. -1.
         13    1    4    4    0    0  0.50153342305E+02  0.11866761406E+02 -0.83171571065E+02  0.97845224738E+02  0.00000000000E+00 0.  1.
         21    1    1    2  503  501 -0.56262986925E+02  0.30585690728E+02 -0.93298830645E+02  0.11316218438E+03  0.00000000000E+00 0.  1.
         -3    1    1    2    0  502 -0.16314256209E+02  0.23924708614E+02  0.11145395656E+03  0.11515437929E+03  0.00000000000E+00 0.  1.
<scales pt_clust_5="13000.00000" pt_clust_6="13000.00000" pt_clust_7="13000.00000" pt_clust_8="13000.00000" pt_clust_9="76.99577" pt_clust_10="28.95768"></scales>
<clustering>
<clus scale="   28.958">  2 10  1 -1</clus>
<clus scale="   76.996">  2  9  1 -1</clus>
<clus scale="   81.799">  5  6 -1 -1</clus>
<clus scale="   91.836">  7  8 -1 -1</clus>
<clus scale="   92.742">  1  5  2 -1</clus>
<clus scale="   28.958">  2  5  1 -1</clus>
</clustering>
</event>
<event>
10    3  0.5078224E-005  0.2492872E+03  0.7546771E-02  0.1114412E+00
         21   -1    0    0  503  502  0.00000000000E+00  0.00000000000E+00  0.43870126338E+03  0.43870126338E+03  0.00000000000E+00 0. -1.
         -2   -1    0    0    0  501 -0.00000000000E+00 -0.00000000000E+00 -0.51689868845E+03  0.51689868845E+03  0.00000000000E+00 0.  1.
         23    2    1    2    0    0  0.11334253800E+03 -0.19382429529E+03 -0.13315645735E+03  0.27622483997E+03  0.90305767914E+02 0.  0.
        -24    2    1    2    0    0 -0.24624802835E+02  0.28069705140E+03  0.18487418258E+03  0.34598047230E+03  0.78273930842E+02 0.  0.
         11    1    4    4    0    0 -0.40594015597E+02  0.25353461301E+03  0.18118961786E+03  0.31425682445E+03  0.00000000000E+00 0. -1.
        -12    1    4    4    0    0  0.15969212761E+02  0.27162438396E+02  0.36845647228E+01  0.31723647852E+02  0.00000000000E+00 0.  1.
        -11    1    3    3    0    0  0.36599872459E+02 -0.41255249873E+01 -0.27199387191E+02  0.45786212816E+02  0.00000000000E+00 0. -1.
         11    1    3    3    0    0  0.76742665540E+02 -0.18969877031E+03 -0.10595707015E+03  0.23043862716E+03  0.00000000000E+00 0.  1.
         21    1    1    2  503  501  0.67801441370E+02 -0.49688141273E+02  0.45331368743E+02  0.95503297468E+02  0.00000000000E+00 0.  1.
         -1    1    1    2    0  502 -0.15651917653E+03 -0.37184614836E+02 -0.17524651905E+03  0.23789134209E+03  0.00000000000E+00 0.  1.
<scales pt_clust_5="13000.00000" pt_clust_6="13000.00000" pt_clust_7="13000.00000" pt_clust_8="13000.00000" pt_clust_9="84.05919" pt_clust_10="156.33692"></scales>
<clustering>
<clus scale="   78.274">  5  6 -1 -1</clus>
<clus scale="   84.059">  1  9  2 -1</clus>
<clus scale="   90.306">  7  8 -1 -1</clus>
<clus scale="  156.337">  1 10  2 -1</clus>
<clus scale="  245.185">  1  5  2 -1</clus>
<clus scale="   84.059">  1  5  2 -1</clus>
</clustering>
</event>
<event>
10    3  0.5078224E-005  0.1943490E+03  0.7546771E-02  0.1155413E+00
         -2   -1    0    0    0  501 -0.00000000000E+00  0.00000000000E+00  0.46937252994E+03  0.46937252994E+03  0.00000000000E+00 0.  1.
         21   -1    0    0  503  502  0.00000000000E+00 -0.00000000000E+00 -0.14929056155E+03  0.14929056155E+03  0.00000000000E+00 0. -1.
        -24    2    1    2    0    0 -0.11913678703E+03  0.14215689389E+03  0.19895273995E+03  0.28423285646E+03  0.82486165230E+02 0.  0.
         23    2    1    2    0    0  0.13466680886E+03 -0.77237357948E+02  0.39061949719E+02  0.18398724855E+03  0.90690202565E+02 0.  0.
         11    1    3    3    0    0 -0.77951198316E+02  0.14009948715E+03  0.14378499016E+03  0.21535639998E+03  0.00000000000E+00 0. -1.
        -12    1    3    3    0    0 -0.41185588712E+02  0.20574067426E+01  0.55167749798E+02  0.68876456484E+02  0.00000000000E+00 0.  1.
        -11    1    4    4    0    0  0.75626718061E+02 -0.30876180559E+02  0.65181837755E+02  0.10450555480E+03  0.00000000000E+00 0. -1.
         11    1    4    4    0    0  0.59040090799E+02 -0.46361177388E+02 -0.26119888036E+02  0.79481693751E+02  0.00000000000E+00 0.  1.
         21    1    1    2  503  501 -0.36978799463E+02 -0.17888606721E+02 -0.12270363107E+02  0.42871851732E+02  0.00000000000E+00 0.  1.
         -1    1    1    2    0  502  0.21448777630E+02 -0.47030929220E+02  0.94337641829E+02  0.10757113475E+03  0.00000000000E+00 0.  1.
<scales pt_clust_5="13000.00000" pt_clust_6="13000.00000" pt_clust_7="13000.00000" pt_clust_8="13000.00000" pt_clust_9="41.07839" pt_clust_10="51.78981"></scales>
<clustering>
<clus scale="   41.078">  2  9  1 -1</clus>
<clus scale="   51.790">  2 10  1 -1</clus>
<clus scale="   82.486">  5  6 -1 -1</clus>
<clus scale="   90.690">  7  8 -1 -1</clus>
<clus scale="  190.659">  1  5  2 -1</clus>
<clus scale="   41.078">  2  5  1 -1</clus>
</clustering>
</event>
<event>
10    3  0.5078224E-005  0.1068673E+03  0.7546771E-02  0.1273087E+00
         21   -1    0    0  501  502  0.00000000000E+00  0.00000000000E+00  0.13885755718E+03  0.13885755718E+03  0.00000000000E+00 0. -1.
          1   -1    0    0  503    0 -0.00000000000E+00 -0.00000000000E+00 -0.23688345744E+03  0.23688345744E+03  0.00000000000E+00 0. -1.
        -24    2    1    2    0    0  0.68839162358E+02 -0.38599502930E+02 -0.92677356221E+02  0.14441049601E+03  0.77695219296E+02 0.  0.
         23    2    1    2    0    0  0.93623211909E+01  0.41529603195E+02 -0.43398922314E+02  0.11093861299E+03  0.92798428841E+02 0.  0.
         13    1    3    3    0    0  0.47653137793E+02 -0.10766752702E+02 -0.39223290348E+01  0.49011520792E+02  0.00000000000E+00 0. -1.
        -14    1    3    3    0    0  0.21186024565E+02 -0.27832750228E+02 -0.88755027186E+02  0.95398975220E+02  0.00000000000E+00 0.  1.
        -13    1    4    4    0    0 -0.17399492459E+02  0.44167441635E+02  0.12342619501E+02  0.49049418902E+02  0.00000000000E+00 0.  1.
         13    1    4    4    0    0  0.26761813650E+02 -0.26378384407E+01 -0.55741541815E+02  0.61889194092E+02  0.00000000000E+00 0. -1.
         21    1    1    2  503  502 -0.80695728238E+02  0.25175578248E+02  0.36667718076E+02  0.92141911446E+02  0.00000000000E+00 0. -1.
          2    1    1    2  501    0  0.24942446891E+01 -0.28105678513E+02  0.13826601975E+01  0.28249994167E+02  0.00000000000E+00 0. -1.
<scales pt_clust_5="13000.00000" pt_clust_6="13000.00000" pt_clust_7="13000.00000" pt_clust_8="13000.00000" pt_clust_9="80.10278" pt_clust_10="28.21614"></scales>
<clustering>
<clus scale="   28.216">  1 10  2 -1</clus>
<clus scale="   77.695">  5  6 -1 -1</clus>
<clus scale="   80.103">  1  9  2 -1</clus>
<clus scale="   92.798">  7  8 -1 -1</clus>
<clus scale="   94.051">  2  5  1 -1</clus>
<clus scale="   28.216">  1  5  2 -1</clus>
</clustering>
</event>
<event>
10    3  0.5078224E-005  0.2744413E+03  0.7546771E-02  0.1098764E+00
         21   -1    0    0  503  502  0.00000000000E+00  0.00000000000E+00  0.39673393978E+02  0.39673393978E+02  0.00000000000E+00 0. -1.
          1   -1    0    0  502    0 -0.00000000000E+00 -0.00000000000E+00 -0.22685255806E+04  0.22685255806E+04  0.00000000000E+00 0. -1.
        -24    2    1    2    0    0 -0.21682498336E+02  0.42824525240E+02 -0.47701415993E+03  0.48605649610E+03  0.80027107502E+02 0.  0.
         23    2    1    2    0    0 -0.69853659260E+02  0.12014883499E+03 -0.59640825153E+03  0.61895760672E+03  0.89946874119E+02 0.  0.
         11    1    3    3    0    0  0.13920406832E+02  0.30606834381E+02 -0.73910629942E+02  0.81199367335E+02  0.00000000000E+00 0. -1.
        -12    1    3    3    0    0 -0.35602905168E+02  0.12217690859E+02 -0.40310352998E+03  0.40485712876E+03  0.00000000000E+00 0.  1.
        -13    1    4    4    0    0 -0.26664614333E+02  0.31526953522E+02 -0.55701581104E+02  0.69336978542E+02  0.00000000000E+00 0.  1.
         13    1    4    4    0    0 -0.43189044928E+02  0.88621881467E+02 -0.54070667043E+03  0.54962062818E+03  0.00000000000E+00 0. -1.
         21    1    1    2  503  501 -0.55473736993E+02 -0.37132146041E+01 -0.44230420762E+02  0.71045433206E+02  0.00000000000E+00 0. -1.
          2    1    1    2  501    0  0.14700989459E+03 -0.15926014563E+03 -0.11111993544E+04  0.11321394385E+04  0.00000000000E+00 0. -1.
<scales pt_clust_5="13000.00000" pt_clust_6="13000.00000" pt_clust_7="13000.00000" pt_clust_8="13000.00000" pt_clust_9="55.59787" pt_clust_10="203.56023"></scales>
<clustering>
<clus scale="   55.598">  1  9  2 -1</clus>
<clus scale="   80.027">  5  6 -1 -1</clus>
<clus scale="   89.947">  7  8 -1 -1</clus>
<clus scale="   93.085">  5  7 -1 -1</clus>
<clus scale="  203.560">  1 10  2 -1</clus>
<clus scale="   55.598">  1  5  2 -1</clus>
</clustering>
</event>
<event>
10    3  0.5078224E-005  0.2535615E+03  0.7546771E-02  0.1147532E+00
          1   -1    0    0  502    0 -0.00000000000E+00  0.00000000000E+00  0.16217799582E+04  0.16217799582E+04  0.00000000000E+00 0. -1.
         21   -1    0    0  503  502  0.00000000000E+00 -0.00000000000E+00 -0.28566763345E+03  0.28566763345E+03  0.00000000000E+00 0. -1.
         23    2    1    2    0    0  0.25373247154E+02 -0.38431996421E+02  0.26988107505E+02  0.10689165420E+03  0.92610192587E+02 0.  0.
        -24    2    1    2    0    0  0.16638933783E+03  0.10422713931E+02 -0.14839853448E+03  0.23689763890E+03  0.79399758001E+02 0.  0.
         11    1    4    4    0    0  0.13254355807E+03  0.40839382119E+02 -0.11876209494E+03  0.18259267541E+03  0.00000000000E+00 0. -1.
        -12    1    4    4    0    0  0.33845779760E+02 -0.30416668188E+02 -0.29636439542E+02  0.54304963492E+02  0.00000000000E+00 0.  1.
        -11    1    3    3    0    0  0.45532876504E+01 -0.64715276314E+02  0.33064437071E+02  0.72815221044E+02  0.00000000000E+00 0. -1.
         11    1    3    3    0    0  0.20819959504E+02  0.26283279893E+02 -0.60763295662E+01  0.34076433157E+02  0.00000000000E+00 0.  1.
         21    1    1    2  503  501  0.73142008515E+02 -0.10645553061E+03  0.74537496594E+02  0.14912535601E+03  0.00000000000E+00 0.  1.
          2    1    1    2  501    0 -0.26490459350E+03  0.13446481310E+03  0.13829852551E+04  0.14145329425E+04  0.00000000000E+00 0. -1.
<scales pt_clust_5="13000.00000" pt_clust_6="13000.00000" pt_clust_7="13000.00000" pt_clust_8="13000.00000" pt_clust_9="132.47263" pt_clust_10="240.80939"></scales>
<clustering>
<clus scale="   79.400">  5  6 -1 -1</clus>
<clus scale="   92.610">  7  8 -1 -1</clus>
<clus scale="  103.429">  1  7  2 -1</clus>
<clus scale="  132.473">  2  9  1 -1</clus>
<clus scale="  240.809">  2 10  1 -1</clus>
<clus scale="  132.473">  2  5  1 -1</clus>
</clustering>
</event>
<event>
10    3  0.5078224E-005  0.2456048E+03  0.7546771E-02  0.1154105E+00
         21   -1    0    0  503  502  0.00000000000E+00  0.00000000000E+00  0.28347158612E+03  0.28347158612E+03  0.00000000000E+00 0.  1.
         -2   -1    0    0    0  501 -0.00000000000E+00 -0.00000000000E+00 -0.46781681058E+03  0.46781681058E+03  0.00000000000E+00 0.  1.
        -24    2    1    2    0    0 -0.59488311958E+02 -0.12102004158E+02  0.75482023247E+02  0.12582526559E+03  0.80306561764E+02 0.  0.
         23    2    1    2    0    0 -0.10371442668E+03 -0.17838964808E+03 -0.14741649792E+03  0.26879133962E+03  0.89093274441E+02 0.  0.
         11    1    3    3    0    0 -0.38446262547E+02  0.29132399274E+02  0.16794154441E+02  0.51076955809E+02  0.00000000000E+00 0. -1.
        -12    1    3    3    0    0 -0.21042049411E+02 -0.41234403432E+02  0.58687868806E+02  0.74748309778E+02  0.00000000000E+00 0.  1.
        -11    1    4    4    0    0 -0.44579874683E+02 -0.15253192106E+03 -0.11760885048E+03  0.19769975691E+03  0.00000000000E+00 0.  1.
         11    1    4    4    0    0 -0.59134551997E+02 -0.25857727017E+02 -0.29807647443E+02  0.71091582712E+02  0.00000000000E+00 0. -1.
         21    1    1    2  503  501  0.18540397026E+02 -0.18008653385E+02  0.49364656854E+02  0.55721874205E+02  0.00000000000E+00 0.  1.
         -1    1    1    2    0  502  0.14466234161E+03  0.20850030562E+03 -0.16177540664E+03  0.30094991729E+03  0.00000000000E+00 0.  1.
<scales pt_clust_5="13000.00000" pt_clust_6="13000.00000" pt_clust_7="13000.00000" pt_clust_8="13000.00000" pt_clust_9="25.84682" pt_clust_10="228.87591"></scales>
<clustering>
<clus scale="   25.847">  1  9  2 -1</clus>
<clus scale="   80.307">  5  6 -1 -1</clus>
<clus scale="   89.093">  7  8 -1 -1</clus>
<clus scale="   97.416">  2  5  1 -1</clus>
<clus scale="  228.876">  1 10  2 -1</clus>
<clus scale="   25.847">  1  5  2 -1</clus>
</clustering>
</event>
<event>
10    3  0.5078224E-005  0.1035739E+03  0.7546771E-02  0.1275798E+00
         -2   -1    0    0    0  501 -0.00000000000E+00  0.00000000000E+00  0.10811294602E+04  0.10811294602E+04  0.00000000000E+00 0.  1.
         21   -1    0    0  503  502  0.00000000000E+00 -0.00000000000E+00 -0.49938889194E+02  0.49938889194E+02  0.00000000000E+00 0.  1.
        -24    2    1    2    0    0 -0.25617730160E+02 -0.49295717214E+02  0.70603422522E+03  0.71304708366E+03  0.82858195133E+02 0.  0.
         23    2    1    2    0    0  0.16335532942E+02  0.32668664984E+02  0.11063162431E+03  0.14679446433E+03  0.89303791362E+02 0.  0.
         11    1    3    3    0    0  0.18987038363E+02  0.12466617239E+02  0.12599967148E+03  0.12803062674E+03  0.00000000000E+00 0. -1.
        -12    1    3    3    0    0 -0.44604768523E+02 -0.61762334452E+02  0.58003455374E+03  0.58501645691E+03  0.00000000000E+00 0.  1.
        -11    1    4    4    0    0 -0.35954826820E+02  0.37616380586E+01  0.34045170231E+02  0.49658565309E+02  0.00000000000E+00 0.  1.
         11    1    4    4    0    0  0.52290359763E+02  0.28907026926E+02  0.76586454081E+02  0.97135899021E+02  0.00000000000E+00 0. -1.
         21    1    1    2  503  501 -0.77102562533E+02  0.10054226379E+02  0.82986877754E+02  0.11372209327E+03  0.00000000000E+00 0.  1.
         -1    1    1    2    0  502  0.86384759751E+02  0.65728258509E+01  0.13153784375E+03  0.15750470817E+03  0.00000000000E+00 0.  1.
<scales pt_clust_5="13000.00000" pt_clust_6="13000.00000" pt_clust_7="13000.00000" pt_clust_8="13000.00000" pt_clust_9="77.75534" pt_clust_10="58.35346"></scales>
<clustering>
<clus scale="   77.755">  2  9  1 -1</clus>
<clus scale="   58.353">  2 10  1 -1</clus>
<clus scale="   82.858">  5  6 -1 -1</clus>
<clus scale="   89.304">  7  8 -1 -1</clus>
<clus scale="   98.071">  1  5  2 -1</clus>
<clus scale="   77.755">  2  5  1 -1</clus>
</clustering>
</event>
<event>
10    3  0.5078224E-005  0.2188897E+03  0.7546771E-02  0.1158619E+00
         21   -1    0    0  503  502  0.00000000000E+00  0.00000000000E+00  0.10539082688E+03  0.10539082688E+03  0.00000000000E+00 0. -1.
          3   -1    0    0  502    0 -0.00000000000E+00 -0.00000000000E+00 -0.21485763917E+04  0.21485763917E+04  0.00000000000E+00 0. -1.
         23    2    1    2    0    0  0.96226891080E+02 -0.17132171078E+02 -0.78393642846E+02  0.15541056363E+03  0.91944299424E+02 0.  0.
        -24    2    1    2    0    0 -0.27431144563E+02  0.16991310076E+03 -0.39655233324E+03  0.43967937301E+03  0.80257513954E+02 0.  0.
         11    1    4    4    0    0 -0.32191165645E+02  0.19062398501E+02 -0.58135291532E+02  0.69132903191E+02  0.00000000000E+00 0. -1.
        -12    1    4    4    0    0  0.47600210818E+01  0.15085070226E+03 -0.33841704171E+03  0.37054646981E+03  0.00000000000E+00 0.  1.
        -11    1    3    3    0    0  0.38760328607E+02 -0.21400619669E+02 -0.86543956073E+02  0.97212169654E+02  0.00000000000E+00 0.  1.
         11    1    3    3    0    0  0.57466562472E+02  0.42684485914E+01  0.81503132273E+01  0.58198393977E+02  0.00000000000E+00 0. -1.
         21    1    1    2  503  501 -0.32625128561E+02  0.80970738211E+02 -0.16038590972E+02  0.88757511572E+02  0.00000000000E+00 0.  1.
          4    1    1    2  501    0 -0.36170617955E+02 -0.23375166789E+03 -0.15522009978E+04  0.15701197704E+04  0.00000000000E+00 0. -1.
<scales pt_clust_5="13000.00000" pt_clust_6="13000.00000" pt_clust_7="13000.00000" pt_clust_8="13000.00000" pt_clust_9="87.29639" pt_clust_10="203.64541"></scales>
<clustering>
<clus scale="   80.258">  5  6 -1 -1</clus>
<clus scale="   87.296">  1  9  2 -1</clus>
<clus scale="   91.944">  7  8 -1 -1</clus>
<clus scale="  123.807">  2  7  1 -1</clus>
<clus scale="  203.645">  1 10  2 -1</clus>
<clus scale="   87.296">  1  5  2 -1</clus>
</clustering>
</event>
<event>
10    3  0.5078224E-005  0.1039543E+03  0.7546771E-02  0.1278974E+00
         21   -1    0    0  501  502  0.00000000000E+00  0.00000000000E+00  0.22236875231E+03  0.22236875231E+03  0.00000000000E+00 0.  1.
          3   -1    0    0  503    0 -0.00000000000E+00 -0.00000000000E+00 -0.15315932389E+03  0.15315932389E+03  0.00000000000E+00 0. -1.
        -24    2    1    2    0    0  0.13879828443E+02  0.39925249847E+02 -0.58075119903E+02  0.10676083127E+03  0.78984051111E+02 0.  0.
         23    2    1    2    0    0 -0.25841969877E+02 -0.65848862167E+02  0.15373119655E+03  0.19325907801E+03  0.93337615063E+02 0.  0.
         13    1    3    3    0    0  0.58575145359E+01  0.58730458827E+02 -0.17889561651E+02  0.61673443934E+02  0.00000000000E+00 0. -1.
        -14    1    3    3    0    0  0.80223139071E+01 -0.18805208981E+02 -0.40185558252E+02  0.45087387341E+02  0.00000000000E+00 0.  1.
        -11    1    4    4    0    0  0.29375044186E+02 -0.30529297069E+02  0.99647696022E+02  0.10828016680E+03  0.00000000000E+00 0.  1.
         11    1    4    4    0    0 -0.55217014064E+02 -0.35319565097E+02  0.54083500525E+02  0.84978911206E+02  0.00000000000E+00 0. -1.
         21    1    1    2  503  502 -0.21714934429E+02 -0.19329287902E+01  0.41042755392E+01  0.22183770388E+02  0.00000000000E+00 0. -1.
          4    1    1    2  501    0  0.33677075863E+02  0.27856541110E+02 -0.30550923767E+02  0.53324396521E+02  0.00000000000E+00 0. -1.
<scales pt_clust_5="13000.00000" pt_clust_6="13000.00000" pt_clust_7="13000.00000" pt_clust_8="13000.00000" pt_clust_9="21.80079" pt_clust_10="42.73268"></scales>
<clustering>
<clus scale="   21.801">  1  9  2 -1</clus>
<clus scale="   42.733">  1 10  2 -1</clus>
<clus scale="   78.984">  5  6 -1 -1</clus>
<clus scale="   91.286">  2  5  1 -1</clus>
<clus scale="   93.338">  7  8 -1 -1</clus>
<clus scale="   21.801">  1  5  2 -1</clus>
</clustering>
</event>
<event>
10    3  0.5078224E-005  0.1748949E+03  0.7546771E-02  0.1190625E+00
         21   -1    0    0  503  502  0.00000000000E+00  0.00000000000E+00  0.10353953491E+03  0.10353953491E+03  0.00000000000E+00 0. -1.
          1   -1    0    0  502    0 -0.00000000000E+00 -0.00000000000E+00 -0.11502349429E+04  0.11502349429E+04  0.00000000000E+00 0. -1.
        -24    2    1    2    0    0  0.22589404290E+01  0.86861725387E+02 -0.38862897094E+02  0.12365756874E+03  0.78935463425E+02 0.  0.
         23    2    1    2    0    0 -0.74174716945E+02 -0.79527588113E+02 -0.19291108767E+03  0.23855838629E+03  0.88706764229E+02 0.  0.
         11    1    3    3    0    0  0.25697563565E+02  0.58940528690E+02  0.74379494236E+01  0.64727689492E+02  0.00000000000E+00 0. -1.
        -12    1    3    3    0    0 -0.23438623135E+02  0.27921196697E+02 -0.46300846517E+02  0.58929879244E+02  0.00000000000E+00 0.  1.
        -13    1    4    4    0    0 -0.21728699778E+02  0.18773345410E+02 -0.44948798975E+02  0.53338254763E+02  0.00000000000E+00 0.  1.
         13    1    4    4    0    0 -0.52446017167E+02 -0.98300933523E+02 -0.14796228869E+03  0.18522013153E+03  0.00000000000E+00 0. -1.
         21    1    1    2  503  501  0.12988360522E+02 -0.17712587828E+03 -0.33650434245E+03  0.38049631634E+03  0.00000000000E+00 0. -1.
          2    1    1    2  501    0  0.58927415994E+02  0.16979174100E+03 -0.47841708075E+03  0.51106220641E+03  0.00000000000E+00 0. -1.
<scales pt_clust_5="13000.00000" pt_clust_6="13000.00000" pt_clust_7="13000.00000" pt_clust_8="13000.00000" pt_clust_9="13000.00000" pt_clust_10="174.89493"></scales>
<clustering>
<clus scale="   78.935">  5  6 -1 -1</clus>
<clus scale="   88.707">  7  8 -1 -1</clus>
<clus scale="  117.392">  2  5  1 -1</clus>
<clus scale="  130.947">  2  7  1 -1</clus>
<clus scale="  174.895">  2 10  1 -1</clus>
<clus scale="  174.895">  1  5  2 -1</clus>
</clustering>
</event>
<event>
10    3  0.5078224E-005  0.2232261E+03  0.7546771E-02  0.1155628E+00
          1   -1    0    0  503    0 -0.00000000000E+00  0.00000000000E+00  0.70030078561E+03  0.70030078561E+03  0.00000000000E+00 0. -1.
         21   -1    0    0  501  502  0.00000000000E+00 -0.00000000000E+00 -0.23778582371E+03  0.23778582371E+03  0.00000000000E+00 0. -1.
         23    2    1    2    0    0  0.69636698087E+02 -0.37031020755E+02  0.10990526407E+03  0.16506663104E+03  0.94589953984E+02 0.  0.
        -24    2    1    2    0    0  0.12576743972E+03  0.11409284531E+03  0.41284088099E+03  0.45355950207E+03  0.80274545542E+02 0.  0.
         11    1    4    4    0    0  0.72290675717E+02  0.98770906017E+02  0.20840646913E+03  0.24169172523E+03  0.00000000000E+00 0. -1.
        -12    1    4    4    0    0  0.53476764002E+02  0.15321939296E+02  0.20443441186E+03  0.21186777684E+03  0.00000000000E+00 0.  1.
        -13    1    3    3    0    0  0.14607435793E+02  0.31573847674E+02  0.25166741327E+02  0.42937744543E+02  0.00000000000E+00 0.  1.
         13    1    3    3    0    0  0.55029262294E+02 -0.68604868430E+02  0.84738522743E+02  0.12212888650E+03  0.00000000000E+00 0. -1.
         21    1    1    2  503  502  0.26900865235E+02  0.12716025795E+02 -0.73551080770E+02  0.79341762930E+02  0.00000000000E+00 0. -1.
          2    1    1    2  501    0 -0.22230500304E+03 -0.89777850352E+02  0.13319897609E+02  0.24011871327E+03  0.00000000000E+00 0. -1.
<scales pt_clust_5="13000.00000" pt_clust_6="13000.00000" pt_clust_7="13000.00000" pt_clust_8="13000.00000" pt_clust_9="29.75490" pt_clust_10="208.29280"></scales>
<clustering>
<clus scale="   29.755">  2  9  1 -1</clus>
<clus scale="   80.275">  5  6 -1 -1</clus>
<clus scale="   94.590">  7  8 -1 -1</clus>
<clus scale="  125.193">  1  7  2 -1</clus>
<clus scale="  208.293">  2 10  1 -1</clus>
<clus scale="   29.755">  2  5  1 -1</clus>
</clustering>
</event>
<event>
10    3  0.5078224E-005  0.9316050E+02  0.7546771E-02  0.1301924E+00
         21   -1    0    0  501  502  0.00000000000E+00  0.00000000000E+00  0.21021283875E+02  0.21021283875E+02  0.00000000000E+00 0. -1.
          1   -1    0    0  503    0 -0.00000000000E+00 -0.00000000000E+00 -0.11018700013E+04  0.11018700013E+04  0.00000000000E+00 0. -1.
        -24    2    1    2    0    0 -0.99312210971E+01  0.31474590089E-02 -0.37549221951E+03  0.38414666822E+03  0.80471278296E+02 0.  0.
         23    2    1    2    0    0  0.36605788659E+02  0.14093437831E+02 -0.23227351459E+03  0.25264799372E+03  0.91331344009E+02 0.  0.
         11    1    3    3    0    0 -0.96711781314E+01  0.38569026307E+02 -0.24003313760E+03  0.24330435390E+03  0.00000000000E+00 0. -1.
        -12    1    3    3    0    0 -0.26004296570E+00 -0.38565878848E+02 -0.13545908191E+03  0.14084231432E+03  0.00000000000E+00 0.  1.
        -11    1    4    4    0    0  0.53799000273E+02 -0.18400658460E+02 -0.96689992887E+02  0.11216894127E+03  0.00000000000E+00 0. -1.
         11    1    4    4    0    0 -0.17193211614E+02  0.32494096291E+02 -0.13558352170E+03  0.14047905244E+03  0.00000000000E+00 0.  1.
         21    1    1    2  503  502  0.34908074307E+02  0.18581797905E+02 -0.12520426374E+03  0.13130104541E+03  0.00000000000E+00 0. -1.
          2    1    1    2  501    0 -0.61582641869E+02 -0.32678383196E+02 -0.34787871963E+03  0.35479557788E+03  0.00000000000E+00 0. -1.
<scales pt_clust_5="13000.00000" pt_clust_6="13000.00000" pt_clust_7="13000.00000" pt_clust_8="13000.00000" pt_clust_9="39.54563" pt_clust_10="62.10632"></scales>
<clustering>
<clus scale="   39.546">  1  9  2 -1</clus>
<clus scale="   62.106">  1 10  2 -1</clus>
<clus scale="   80.471">  5  6 -1 -1</clus>
<clus scale="   82.541">  2  5  1 -1</clus>
<clus scale="   91.331">  7  8 -1 -1</clus>
<clus scale="   39.546">  1  5  2 -1</clus>
</clustering>
</event>
<event>
10    3  0.5078224E-005  0.1664002E+03  0.7546771E-02  0.1191333E+00
          1   -1    0    0  503    0 -0.00000000000E+00  0.00000000000E+00  0.98856559701E+03  0.98856559701E+03  0.00000000000E+00 0. -1.
         21   -1    0    0  501  502  0.00000000000E+00 -0.00000000000E+00 -0.88112388131E+02  0.88112388131E+02  0.00000000000E+00 0. -1.
        -24    2    1    2    0    0 -0.10097898122E+03 -0.46157499134E+02  0.36158380415E+03  0.38627958370E+03  0.78369636862E+02 0.  0.
         23    2    1    2    0    0 -0.61307014435E+02  0.98319687905E+02  0.82287940401E+02  0.16920844382E+03  0.91841609713E+02 0.  0.
         13    1    3    3    0    0 -0.79519607992E+02 -0.65156926170E+01  0.29693112635E+03  0.30746368257E+03  0.00000000000E+00 0. -1.
        -14    1    3    3    0    0 -0.21459373225E+02 -0.39641806517E+02  0.64652677805E+02  0.78815901127E+02  0.00000000000E+00 0.  1.
        -13    1    4    4    0    0  0.12808626796E+01  0.39305659177E+02  0.72697406715E+02  0.82652818437E+02  0.00000000000E+00 0.  1.
         13    1    4    4    0    0 -0.62587877115E+02  0.59014028729E+02  0.95905336863E+01  0.86555625380E+02  0.00000000000E+00 0. -1.
         21    1    1    2  503  502 -0.50114113924E+00  0.32938526766E+02  0.45419307726E+01  0.33253974546E+02  0.00000000000E+00 0. -1.
          2    1    1    2  501    0  0.16278713679E+03 -0.85100715537E+02  0.45203953356E+03  0.48793598309E+03  0.00000000000E+00 0. -1.
<scales pt_clust_5="13000.00000" pt_clust_6="13000.00000" pt_clust_7="13000.00000" pt_clust_8="13000.00000" pt_clust_9="32.94234" pt_clust_10="138.75934"></scales>
<clustering>
<clus scale="   32.942">  2  9  1 -1</clus>
<clus scale="   78.370">  5  6 -1 -1</clus>
<clus scale="   91.842">  7  8 -1 -1</clus>
<clus scale="  134.192">  1  5  2 -1</clus>
<clus scale="  138.759">  2 10  1 -1</clus>
<clus scale="   32.942">  2  5  1 -1</clus>
</clustering>
</event>
<event>
10    3  0.5078224E-005  0.2640787E+03  0.7546771E-02  0.1104717E+00
          1   -1    0    0  503    0 -0.00000000000E+00  0.00000000000E+00  0.13640976084E+04  0.13640976084E+04  0.00000000000E+00 0. -1.
         21   -1    0    0  501  502  0.00000000000E+00 -0.00000000000E+00 -0.12150095713E+03  0.12150095713E+03  0.00000000000E+00 0. -1.
        -24    2    1    2    0    0  0.21694209414E+02  0.11191730943E+03  0.63496031011E+03  0.65065683496E+03  0.84756112444E+02 0.  0.
         23    2    1    2    0    0  0.50422421098E+01  0.13557083511E+02  0.18507025908E+03  0.20641707547E+03  0.90265106937E+02 0.  0.
         11    1    3    3    0    0  0.37980945807E+02  0.11755725387E+03  0.58181700627E+03  0.59478844051E+03  0.00000000000E+00 0. -1.
        -12    1    3    3    0    0 -0.16286736393E+02 -0.56399444354E+01  0.53143303840E+02  0.55868394451E+02  0.00000000000E+00 0.  1.
        -13    1    4    4    0    0 -0.34452939240E+02 -0.19156115027E+02  0.93372987223E+02  0.10135322643E+03  0.00000000000E+00 0.  1.
         13    1    4    4    0    0  0.39495181350E+02  0.32713198538E+02  0.91697271860E+02  0.10506384904E+03  0.00000000000E+00 0. -1.
         21    1    1    2  503  502 -0.98814443076E+02  0.59290102308E+02 -0.42588262573E+02  0.12285507926E+03  0.00000000000E+00 0. -1.
          2    1    1    2  501    0  0.72077991552E+02 -0.18476449525E+03  0.46515434465E+03  0.50566957583E+03  0.00000000000E+00 0. -1.
<scales pt_clust_5="13000.00000" pt_clust_6="13000.00000" pt_clust_7="13000.00000" pt_clust_8="13000.00000" pt_clust_9="115.23719" pt_clust_10="155.14726"></scales>
<clustering>
<clus scale="   84.756">  5  6 -1 -1</clus>
<clus scale="   90.265">  7  8 -1 -1</clus>
<clus scale="   90.301">  5  7 -1 -1</clus>
<clus scale="  115.237">  2  9  1 -1</clus>
<clus scale="  155.147">  2 10  1 -1</clus>
<clus scale="  115.237">  2  5  1 -1</clus>
</clustering>
</event>
<event>
10    3  0.5078224E-005  0.1804047E+03  0.7546771E-02  0.1202170E+00
         21   -1    0    0  501  502  0.00000000000E+00  0.00000000000E+00  0.88584481320E+03  0.88584481320E+03  0.00000000000E+00 0. -1.
          3   -1    0    0  503    0 -0.00000000000E+00 -0.00000000000E+00 -0.12827777770E+03  0.12827777770E+03  0.00000000000E+00 0. -1.
        -24    2    1    2    0    0 -0.11991604722E+02 -0.19377022237E+02  0.15242665404E+03  0.17341445564E+03  0.79494785927E+02 0.  0.
         23    2    1    2    0    0 -0.95890172426E+02  0.96207402055E+02 -0.31847938729E+02  0.16840503824E+03  0.94314242428E+02 0.  0.
         13    1    3    3    0    0 -0.45433109174E+02 -0.17554433451E+02  0.80805566550E+02  0.94349695964E+02  0.00000000000E+00 0. -1.
        -14    1    3    3    0    0  0.33441504452E+02 -0.18225887856E+01  0.71621087490E+02  0.79064759679E+02  0.00000000000E+00 0.  1.
        -13    1    4    4    0    0  0.32575729888E+01  0.57026627979E+02 -0.22485541046E+02  0.61386054089E+02  0.00000000000E+00 0.  1.
         13    1    4    4    0    0 -0.99147745415E+02  0.39180774076E+02 -0.93623976825E+01  0.10701898415E+03  0.00000000000E+00 0. -1.
         21    1    1    2  503  502 -0.28352044129E+02 -0.85549733021E+00  0.17167766359E+02  0.33155730783E+02  0.00000000000E+00 0.  1.
          4    1    1    2  501    0  0.13623382128E+03 -0.75974882488E+02  0.61982055382E+03  0.63914736624E+03  0.00000000000E+00 0. -1.
<scales pt_clust_5="13000.00000" pt_clust_6="13000.00000" pt_clust_7="13000.00000" pt_clust_8="13000.00000" pt_clust_9="28.36495" pt_clust_10="153.78783"></scales>
<clustering>
<clus scale="   28.365">  2  9  1 -1</clus>
<clus scale="   79.495">  5  6 -1 -1</clus>
<clus scale="   83.109">  2  5  1 -1</clus>
<clus scale="   94.314">  7  8 -1 -1</clus>
<clus scale="  153.788">  1 10  2 -1</clus>
<clus scale="  153.788">  1  5  2 -1</clus>
</clustering>
</event>
<event>
10    3  0.5078224E-005  0.1098117E+03  0.7546771E-02  0.1264249E+00
          1   -1    0    0  502    0 -0.00000000000E+00  0.00000000000E+00  0.52552560847E+03  0.52552560847E+03  0.00000000000E+00 0. -1.
         21   -1    0    0  503  502  0.00000000000E+00 -0.00000000000E+00 -0.33260345127E+03  0.33260345127E+03  0.00000000000E+00 0. -1.
        -24    2    1    2    0    0 -0.62080044634E+01  0.76955385814E+02  0.38434862310E+03  0.40057407301E+03  0.82310711104E+02 0.  0.
         23    2    1    2    0    0  0.71542202159E+02  0.90981551503E+01  0.85895813326E+02  0.14431932032E+03  0.90823523129E+02 0.  0.
         11    1    3    3    0    0  0.18147463141E+02  0.63926344513E+02  0.35117279202E+03  0.35740486538E+03  0.00000000000E+00 0. -1.
        -12    1    3    3    0    0 -0.24355467604E+02  0.13029041301E+02  0.33175831076E+02  0.43169207626E+02  0.00000000000E+00 0.  1.
        -11    1    4    4    0    0  0.12508078302E+02 -0.36693487655E+02  0.15768407731E+02  0.41851006457E+02  0.00000000000E+00 0.  1.
         11    1    4    4    0    0  0.59034123857E+02  0.45791642805E+02  0.70127405594E+02  0.10246831386E+03  0.00000000000E+00 0. -1.
         21    1    1    2  503  501 -0.25232977649E+02  0.19738659261E+02 -0.72007578958E+02  0.78812494300E+02  0.00000000000E+00 0. -1.
          2    1    1    2  501    0 -0.40101220047E+02 -0.10579220023E+03 -0.20531470027E+03  0.23442317211E+03  0.00000000000E+00 0. -1.
<scales pt_clust_5="13000.00000" pt_clust_6="13000.00000" pt_clust_7="13000.00000" pt_clust_8="13000.00000" pt_clust_9="32.03620" pt_clust_10="108.21228"></scales>
<clustering>
<clus scale="   32.036">  2  9  1 -1</clus>
<clus scale="   82.311">  5  6 -1 -1</clus>
<clus scale="   90.824">  7  8 -1 -1</clus>
<clus scale="  108.212">  2 10  1 -1</clus>
<clus scale="  102.882">  1  5  2 -1</clus>
<clus scale="   32.036">  2  5  1 -1</clus>
</clustering>
</event>
<event>
10    3  0.5078224E-005  0.1796559E+03  0.7546771E-02  0.1200181E+00
         -2   -1    0    0    0  501 -0.00000000000E+00  0.00000000000E+00  0.10714249750E+04  0.10714249750E+04  0.00000000000E+00 0.  1.
         21   -1    0    0  503  502  0.00000000000E+00 -0.00000000000E+00 -0.10009465541E+03  0.10009465541E+03  0.00000000000E+00 0.  1.
        -24    2    1    2    0    0 -0.31231913079E+02 -0.22771083475E+02  0.26458792553E+03  0.27917583905E+03  0.80239791451E+02 0.  0.
         23    2    1    2    0    0 -0.12977108898E+03 -0.67481781459E+02  0.26393652179E+03  0.31565098034E+03  0.92621420268E+02 0.  0.
         11    1    3    3    0    0  0.15037201778E+02 -0.29440878166E+02  0.52841844097E+02  0.62330917144E+02  0.00000000000E+00 0. -1.
        -12    1    3    3    0    0 -0.46269114858E+02  0.66697946916E+01  0.21174608144E+03  0.21684492190E+03  0.00000000000E+00 0.  1.
        -11    1    4    4    0    0 -0.89437718920E+02 -0.40634097965E+02  0.24440875290E+03  0.26341198526E+03  0.00000000000E+00 0.  1.
         11    1    4    4    0    0 -0.40333370062E+02 -0.26847683494E+02  0.19527768887E+02  0.52238995083E+02  0.00000000000E+00 0. -1.
         21    1    1    2  503  501 -0.12257312404E+02  0.60739015081E+02 -0.32473767825E+02  0.69957238776E+02  0.00000000000E+00 0. -1.
         -1    1    1    2    0  502  0.17326031447E+03  0.29513849853E+02  0.47527964011E+03  0.50673557227E+03  0.00000000000E+00 0.  1.
<scales pt_clust_5="13000.00000" pt_clust_6="13000.00000" pt_clust_7="13000.00000" pt_clust_8="13000.00000" pt_clust_9="61.96345" pt_clust_10="153.94008"></scales>
<clustering>
<clus scale="   61.963">  2  9  1 -1</clus>
<clus scale="   80.240">  5  6 -1 -1</clus>
<clus scale="   87.860">  1  5  2 -1</clus>
<clus scale="   92.621">  7  8 -1 -1</clus>
<clus scale="  153.940">  2 10  1 -1</clus>
<clus scale="   61.963">  2  5  1 -1</clus>
</clustering>
</event>
<event>
10    3  0.5078224E-005  0.1137599E+03  0.7546771E-02  0.1257687E+00
          3   -1    0    0  502    0 -0.00000000000E+00  0.00000000000E+00  0.52140946163E+03  0.52140946163E+03  0.00000000000E+00 0. -1.
         21   -1    0    0  503  502  0.00000000000E+00 -0.00000000000E+00 -0.75467066659E+02  0.75467066659E+02  0.00000000000E+00 0. -1.
         23    2    1    2    0    0  0.51446388203E+02 -0.67888782545E+02  0.34283418049E+03  0.36464024416E+03  0.90396983872E+02 0.  0.
        -24    2    1    2    0    0 -0.53988224201E+02 -0.15043618133E+01  0.80921492735E+02  0.12559657015E+03  0.79430592280E+02 0.  0.
         13    1    4    4    0    0 -0.18575065598E+02 -0.15956828080E+02 -0.10387681023E+02  0.26599950026E+02  0.00000000000E+00 0. -1.
        -14    1    4    4    0    0 -0.35413158604E+02  0.14452466267E+02  0.91309173759E+02  0.98996620124E+02  0.00000000000E+00 0.  1.
        -11    1    3    3    0    0  0.74839372682E+01 -0.59670567330E+02  0.28633409009E+03  0.29258126575E+03  0.00000000000E+00 0.  1.
         11    1    3    3    0    0  0.43962450935E+02 -0.82182152147E+01  0.56500090400E+02  0.72058978404E+02  0.00000000000E+00 0. -1.
         21    1    1    2  503  501 -0.21172894918E+02 -0.92547792279E+00 -0.12627048309E+02  0.24669623783E+02  0.00000000000E+00 0. -1.
          4    1    1    2  501    0  0.23714730917E+02  0.70318622281E+02  0.34813770058E+02  0.81970090201E+02  0.00000000000E+00 0. -1.
<scales pt_clust_5="13000.00000" pt_clust_6="13000.00000" pt_clust_7="13000.00000" pt_clust_8="13000.00000" pt_clust_9="21.19311" pt_clust_10="71.51019"></scales>
<clustering>
<clus scale="   21.193">  2  9  1 -1</clus>
<clus scale="   71.510">  2 10  1 -1</clus>
<clus scale="   79.431">  5  6 -1 -1</clus>
<clus scale="   90.397">  7  8 -1 -1</clus>
<clus scale="  105.256">  2  5  1 -1</clus>
<clus scale="   21.193">  2  5  1 -1</clus>
</clustering>
</event>
<event>
10    3  0.5078224E-005  0.1318514E+03  0.7546771E-02  0.1236091E+00
         21   -1    0    0  503  502  0.00000000000E+00  0.00000000000E+00  0.37623657595E+03  0.37623657595E+03  0.00000000000E+00 0. -1.
          1   -1    0    0  502    0 -0.00000000000E+00 -0.00000000000E+00 -0.32768465532E+03  0.32768465532E+03  0.00000000000E+00 0. -1.
        -24    2    1    2    0    0 -0.59247301779E+02  0.31331721487E+02  0.19161283369E+02  0.10605202389E+03  0.79924698631E+02 0.  0.
         23    2    1    2    0    0 -0.20850316360E+01 -0.74428077470E+02 -0.11946475744E+02  0.11988468579E+03  0.93197282854E+02 0.  0.
         13    1    3    3    0    0 -0.83258537798E+01  0.48293479681E+02 -0.16566970273E+00  0.49006198254E+02  0.00000000000E+00 0. -1.
        -14    1    3    3    0    0 -0.50921447999E+02 -0.16961758195E+02  0.19326953071E+02  0.57045825635E+02  0.00000000000E+00 0.  1.
        -13    1    4    4    0    0 -0.41450230882E+02 -0.15441655789E+02 -0.19940470723E+02  0.48519982959E+02  0.00000000000E+00 0.  1.
         13    1    4    4    0    0  0.39365199246E+02 -0.58986421682E+02  0.79939949787E+01  0.71364702831E+02  0.00000000000E+00 0. -1.
         21    1    1    2  503  501 -0.12275918437E+03 -0.27788495002E+02  0.19212859402E+03  0.22968546851E+03  0.00000000000E+00 0. -1.
          2    1    1    2  501    0  0.18409151779E+03  0.70884850986E+02 -0.15079148101E+03  0.24829905309E+03  0.00000000000E+00 0. -1.
<scales pt_clust_5="13000.00000" pt_clust_6="13000.00000" pt_clust_7="13000.00000" pt_clust_8="13000.00000" pt_clust_9="13000.00000" pt_clust_10="131.85138"></scales>
<clustering>
<clus scale="   79.925">  5  6 -1 -1</clus>
<clus scale="   93.197">  7  8 -1 -1</clus>
<clus scale="  104.307">  2  5  1 -1</clus>
<clus scale="  115.961">  2  7  1 -1</clus>
<clus scale="  131.851">  2 10  1 -1</clus>
<clus scale="  131.851">  1  5  2 -1</clus>
</clustering>
</event>
<event>
10    3  0.5078224E-005  0.1088514E+03  0.7546771E-02  0.1266775E+00
         21   -1    0    0  501  502  0.00000000000E+00  0.00000000000E+00  0.23984480418E+03  0.23984480418E+03  0.00000000000E+00 0.  1.
          1   -1    0    0  503    0 -0.00000000000E+00 -0.00000000000E+00 -0.28247345394E+03  0.28247345394E+03  0.00000000000E+00 0. -1.
         23    2    1    2    0    0  0.22142903271E+02 -0.59971912164E+02 -0.22386101252E+03  0.25035448521E+03  0.92068870569E+02 0.  0.
        -24    2    1    2    0    0 -0.86129767712E+01  0.31492834367E+02  0.23884200627E+02  0.91522523635E+02  0.82097109009E+02 0.  0.
         13    1    4    4    0    0  0.35157468691E+02  0.11512318061E+02  0.22678242004E+02  0.43392208198E+02  0.00000000000E+00 0. -1.
        -14    1    4    4    0    0 -0.43770445463E+02  0.19980516306E+02  0.12059586233E+01  0.48130315437E+02  0.00000000000E+00 0.  1.
        -11    1    3    3    0    0  0.25804949273E+02 -0.32349760536E+02 -0.21798470190E+03  0.22187774264E+03  0.00000000000E+00 0. -1.
         11    1    3    3    0    0 -0.36620460017E+01 -0.27622151628E+02 -0.58763106155E+01  0.28476742579E+02  0.00000000000E+00 0.  1.
         21    1    1    2  503  502  0.28112154405E+02  0.84577743381E+01  0.11168711324E+03  0.11548090074E+03  0.00000000000E+00 0.  1.
          2    1    1    2  501    0 -0.41642080905E+02  0.20021303459E+02  0.45661048893E+02  0.64960348524E+02  0.00000000000E+00 0. -1.
<scales pt_clust_5="13000.00000" pt_clust_6="13000.00000" pt_clust_7="13000.00000" pt_clust_8="13000.00000" pt_clust_9="29.35689" pt_clust_10="37.72291"></scales>
<clustering>
<clus scale="   29.357">  1  9  2 -1</clus>
<clus scale="   37.723">  1 10  2 -1</clus>
<clus scale="   82.097">  5  6 -1 -1</clus>
<clus scale="   92.069">  7  8 -1 -1</clus>
<clus scale="  100.558">  1  5  2 -1</clus>
<clus scale="   29.357">  1  5  2 -1</clus>
</clustering>
</event>
<event>
10    3  0.5078224E-005  0.2256214E+03  0.7546771E-02  0.1164632E+00
         21   -1    0    0  503  502  0.00000000000E+00  0.00000000000E+00  0.91044634691E+03  0.91044634691E+03  0.00000000000E+00 0.  1.
          1   -1    0    0  502    0 -0.00000000000E+00 -0.00000000000E+00 -0.49330949934E+03  0.49330949934E+03  0.00000000000E+00 0. -1.
         23    2    1    2    0    0 -0.22218132219E+02 -0.23186858156E+02 -0.30050905478E+03  0.31618524926E+03  0.92930856306E+02 0.  0.
        -24    2    1    2    0    0  0.20046719404E+03 -0.88494025611E+02  0.40881528751E+02  0.23700026784E+03  0.80495584385E+02 0.  0.
         11    1    4    4    0    0  0.19067544923E+03 -0.60266549976E+02  0.49297979337E+02  0.20595988627E+03  0.00000000000E+00 0. -1.
        -12    1    4    4    0    0  0.97917448072E+01 -0.28227475635E+02 -0.84164505863E+01  0.31040381563E+02  0.00000000000E+00 0.  1.
        -13    1    3    3    0    0 -0.23030925086E+02  0.23005048127E+02 -0.39811442357E+02  0.51425739588E+02  0.00000000000E+00 0. -1.
         13    1    3    3    0    0  0.81279286607E+00 -0.46191906283E+02 -0.26069761243E+03  0.26475950967E+03  0.00000000000E+00 0.  1.
         21    1    1    2  503  501 -0.11584041951E+03 -0.13766397612E+03  0.51823527734E+03  0.54857832239E+03  0.00000000000E+00 0.  1.
          2    1    1    2  501    0 -0.62408642314E+02  0.24934485988E+03  0.15852909627E+03  0.30199200676E+03  0.00000000000E+00 0. -1.
<scales pt_clust_5="13000.00000" pt_clust_6="13000.00000" pt_clust_7="13000.00000" pt_clust_8="13000.00000" pt_clust_9="182.54638" pt_clust_10="210.77357"></scales>
<clustering>
<clus scale="   80.496">  5  6 -1 -1</clus>
<clus scale="   92.931">  7  8 -1 -1</clus>
<clus scale="   98.323">  2  7  1 -1</clus>
<clus scale="  182.546">  1  9  2 -1</clus>
<clus scale="  210.774">  1 10  2 -1</clus>
<clus scale="  182.546">  1  5  2 -1</clus>
</clustering>
</event>
<event>
10    3  0.5078224E-005  0.8277285E+02  0.7546771E-02  0.1325196E+00
         -4   -1    0    0    0  501 -0.00000000000E+00  0.00000000000E+00  0.29230840436E+03  0.29230840436E+03  0.00000000000E+00 0.  1.
         21   -1    0    0  503  502  0.00000000000E+00 -0.00000000000E+00 -0.67520897011E+02  0.67520897011E+02  0.00000000000E+00 0.  1.
         23    2    1    2    0    0  0.45472378545E+01 -0.82671078470E+01  0.13958338539E+03  0.15864533820E+03  0.74805076107E+02 0.  0.
        -24    2    1    2    0    0 -0.30004683481E+02  0.42702153200E+02  0.44433475438E+02  0.10567386629E+03  0.80429331463E+02 0.  0.
         13    1    4    4    0    0  0.17591100040E+01  0.55576670913E+02  0.44786738904E+02  0.71398268883E+02  0.00000000000E+00 0. -1.
        -14    1    4    4    0    0 -0.31763793485E+02 -0.12874517713E+02 -0.35326346626E+00  0.34275597412E+02  0.00000000000E+00 0.  1.
        -13    1    3    3    0    0  0.28089139328E+02  0.11801183742E+02  0.23406562667E+02  0.38420500540E+02  0.00000000000E+00 0.  1.
         13    1    3    3    0    0 -0.23541901473E+02 -0.20068291589E+02  0.11617682272E+03  0.12022483766E+03  0.00000000000E+00 0. -1.
         21    1    1    2  503  501  0.34868984194E+02 -0.53684215707E+02  0.24249178639E+02  0.68453369088E+02  0.00000000000E+00 0.  1.
         -3    1    1    2    0  502 -0.94115385684E+01  0.19249170354E+02  0.16521467878E+02  0.27056727784E+02  0.00000000000E+00 0.  1.
<scales pt_clust_5="13000.00000" pt_clust_6="13000.00000" pt_clust_7="13000.00000" pt_clust_8="13000.00000" pt_clust_9="56.47050" pt_clust_10="21.42680"></scales>
<clustering>
<clus scale="   21.427">  2 10  1 -1</clus>
<clus scale="   56.470">  2  9  1 -1</clus>
<clus scale="   74.805">  7  8 -1 -1</clus>
<clus scale="   77.319">  1  7  2 -1</clus>
<clus scale="   80.429">  5  6 -1 -1</clus>
<clus scale="   21.427">  2  5  1 -1</clus>
</clustering>
</event>
<event>
10    3  0.5078224E-005  0.1809027E+03  0.7546771E-02  0.1201199E+00
          1   -1    0    0  503    0 -0.00000000000E+00  0.00000000000E+00  0.11389747839E+04  0.11389747839E+04  0.00000000000E+00 0. -1.
         21   -1    0    0  501  502  0.00000000000E+00 -0.00000000000E+00 -0.29348365908E+03  0.29348365908E+03  0.00000000000E+00 0. -1.
        -24    2    1    2    0    0 -0.96112603718E+01  0.19707061071E+02  0.89093690022E+02  0.12257049725E+03  0.81271745467E+02 0.  0.
         23    2    1    2    0    0  0.31653515213E+02  0.21565978510E+03  0.36139673313E+03  0.43127193887E+03  0.88751330166E+02 0.  0.
         11    1    3    3    0    0  0.29689901993E+02  0.21784457182E+02  0.17274928744E+02  0.40675250684E+02  0.00000000000E+00 0. -1.
        -12    1    3    3    0    0 -0.39301162365E+02 -0.20773961112E+01  0.71818761278E+02  0.81895246561E+02  0.00000000000E+00 0.  1.
        -11    1    4    4    0    0  0.53417178432E+02  0.12049125871E+03  0.15872724081E+03  0.20631499062E+03  0.00000000000E+00 0.  1.
         11    1    4    4    0    0 -0.21763663219E+02  0.95168526386E+02  0.20266949231E+03  0.22495694825E+03  0.00000000000E+00 0. -1.
         21    1    1    2  503  502  0.28213172518E+02 -0.10642506566E+03 -0.22118928355E+03  0.24707686428E+03  0.00000000000E+00 0. -1.
          2    1    1    2  501    0 -0.50255427360E+02 -0.12894178051E+03  0.61618998518E+03  0.63153914255E+03  0.00000000000E+00 0. -1.
<scales pt_clust_5="13000.00000" pt_clust_6="13000.00000" pt_clust_7="13000.00000" pt_clust_8="13000.00000" pt_clust_9="109.83172" pt_clust_10="157.63567"></scales>
<clustering>
<clus scale="   81.272">  5  6 -1 -1</clus>
<clus scale="   84.177">  1  5  2 -1</clus>
<clus scale="   88.751">  7  8 -1 -1</clus>
<clus scale="  109.832">  2  9  1 -1</clus>
<clus scale="  157.636">  2 10  1 -1</clus>
<clus scale="  109.832">  2  5  1 -1</clus>
</clustering>
</event>
<event>
10    3  0.5078224E-005  0.1036379E+03  0.7546771E-02  0.1278364E+00
         21   -1    0    0  503  502  0.00000000000E+00  0.00000000000E+00  0.12686864176E+03  0.12686864176E+03  0.00000000000E+00 0. -1.
          3   -1    0    0  502    0 -0.00000000000E+00 -0.00000000000E+00 -0.42693366742E+03  0.42693366742E+03  0.00000000000E+00 0. -1.
        -24    2    1    2    0    0  0.26031841000E+02 -0.47364156658E+02 -0.36088163065E+03  0.37331012374E+03  0.78764694270E+02 0.  0.
         23    2    1    2    0    0  0.11650232931E+02  0.37254598335E+01  0.49319251368E+02  0.10411481117E+03  0.90872979324E+02 0.  0.
         11    1    3    3    0    0  0.46987895241E+02 -0.54291152113E+02 -0.24324279815E+03  0.25361871056E+03  0.00000000000E+00 0. -1.
        -12    1    3    3    0    0 -0.20956054242E+02  0.69269954552E+01 -0.11763883251E+03  0.11969141318E+03  0.00000000000E+00 0.  1.
        -11    1    4    4    0    0  0.24229922735E+01  0.34039085659E+02 -0.11104599341E+02  0.35886520737E+02  0.00000000000E+00 0.  1.
         11    1    4    4    0    0  0.92272406574E+01 -0.30313625826E+02  0.60423850709E+02  0.68228290433E+02  0.00000000000E+00 0. -1.
         21    1    1    2  503  501 -0.18258572501E+02  0.89862078595E+01  0.26934986566E+02  0.33758271620E+02  0.00000000000E+00 0.  1.
          4    1    1    2  501    0 -0.19423501429E+02  0.34652488965E+02 -0.15437632941E+02  0.42619102643E+02  0.00000000000E+00 0. -1.
<scales pt_clust_5="13000.00000" pt_clust_6="13000.00000" pt_clust_7="13000.00000" pt_clust_8="13000.00000" pt_clust_9="20.35012" pt_clust_10="42.11699"></scales>
<clustering>
<clus scale="   20.350">  1  9  2 -1</clus>
<clus scale="   42.117">  1 10  2 -1</clus>
<clus scale="   78.765">  5  6 -1 -1</clus>
<clus scale="   90.873">  7  8 -1 -1</clus>
<clus scale="   93.203">  2  5  1 -1</clus>
<clus scale="   20.350">  1  5  2 -1</clus>
</clustering>
</event>
<event>
10    3  0.5078224E-005  0.1140117E+03  0.7546771E-02  0.1270627E+00
         -4   -1    0    0    0  501 -0.00000000000E+00  0.00000000000E+00  0.73118418029E+03  0.73118418029E+03  0.00000000000E+00 0.  1.
         21   -1    0    0  503  502  0.00000000000E+00 -0.00000000000E+00 -0.72251839883E+02  0.72251839883E+02  0.00000000000E+00 0. -1.
        -24    2    1    2    0    0  0.42863481723E+01 -0.50834394673E+01  0.24102855622E+03  0.25434454951E+03  0.80945480495E+02 0.  0.
         23    2    1    2    0    0  0.15608374104E+02 -0.43715466572E+02  0.91701630349E+02  0.13628373339E+03  0.89495271480E+02 0.  0.
         11    1    3    3    0    0  0.19534044114E+02  0.31659955679E+02  0.76374420402E+02  0.84952832589E+02  0.00000000000E+00 0. -1.
        -12    1    3    3    0    0 -0.15247695942E+02 -0.36743395146E+02  0.16465413582E+03  0.16939171692E+03  0.00000000000E+00 0.  1.
        -13    1    4    4    0    0 -0.21449951682E+02 -0.31580626521E+02  0.89413087008E+02  0.97222098964E+02  0.00000000000E+00 0. -1.
         13    1    4    4    0    0  0.37058325786E+02 -0.12134840051E+02  0.22885433409E+01  0.39061634423E+02  0.00000000000E+00 0.  1.
         21    1    1    2  503  501  0.60606900500E+02  0.10364588556E+03  0.70625294892E+02  0.13929679918E+03  0.00000000000E+00 0. -1.
         -3    1    1    2    0  502 -0.80501622777E+02 -0.54846979525E+02  0.25557685895E+03  0.27351093810E+03  0.00000000000E+00 0.  1.
<scales pt_clust_5="13000.00000" pt_clust_6="13000.00000" pt_clust_7="13000.00000" pt_clust_8="13000.00000" pt_clust_9="70.63477" pt_clust_10="97.10538"></scales>
<clustering>
<clus scale="   80.945">  5  6 -1 -1</clus>
<clus scale="   81.218">  1  5  2 -1</clus>
<clus scale="   89.495">  7  8 -1 -1</clus>
<clus scale="   97.105">  2 10  1 -1</clus>
<clus scale="   70.635">  2  9  1 -1</clus>
<clus scale="   97.105">  2  5  1 -1</clus>
</clustering>
</event>
<event>
10    3  0.5078224E-005  0.9997190E+02  0.7546771E-02  0.1283748E+00
         21   -1    0    0  503  502  0.00000000000E+00  0.00000000000E+00  0.71571873093E+03  0.71571873093E+03  0.00000000000E+00 0. -1.
         -2   -1    0    0    0  501 -0.00000000000E+00 -0.00000000000E+00 -0.13380015946E+03  0.13380015946E+03  0.00000000000E+00 0.  1.
        -24    2    1    2    0    0 -0.47259812676E+02 -0.64218155370E+01  0.11158652866E+03  0.14573501858E+03  0.80699520778E+02 0.  0.
         23    2    1    2    0    0  0.29516914210E+02  0.19539955271E+02  0.98838739415E+02  0.13804314620E+03  0.89631220718E+02 0.  0.
         13    1    3    3    0    0 -0.64203806568E+02 -0.45714232475E+01  0.11143604562E+03  0.12868962255E+03  0.00000000000E+00 0. -1.
        -14    1    3    3    0    0  0.16943993892E+02 -0.18503922895E+01  0.15048303481E+00  0.17045396029E+02  0.00000000000E+00 0.  1.
        -11    1    4    4    0    0  0.48803464193E+02 -0.17455994926E+02  0.70922927188E+02  0.87843904041E+02  0.00000000000E+00 0. -1.
         11    1    4    4    0    0 -0.19286549983E+02  0.36995950196E+02  0.27915812227E+02  0.50199242160E+02  0.00000000000E+00 0.  1.
         21    1    1    2  503  501 -0.72431867550E+02 -0.62007763398E+02  0.43484713914E+03  0.44517791115E+03  0.00000000000E+00 0. -1.
         -1    1    1    2    0  502  0.90174766015E+02  0.48889623664E+02 -0.63353835735E+02  0.12056281446E+03  0.00000000000E+00 0.  1.
<scales pt_clust_5="13000.00000" pt_clust_6="13000.00000" pt_clust_7="13000.00000" pt_clust_8="13000.00000" pt_clust_9="44.27894" pt_clust_10="68.73175"></scales>
<clustering>
<clus scale="   80.700">  5  6 -1 -1</clus>
<clus scale="   89.631">  7  8 -1 -1</clus>
<clus scale="   93.740">  2  5  1 -1</clus>
<clus scale="   68.732">  1 10  2 -1</clus>
<clus scale="   44.279">  1  9  2 -1</clus>
<clus scale="   68.732">  1  5  2 -1</clus>
</clustering>
</event>
<event>
10    3  0.5078224E-005  0.1393835E+03  0.7546771E-02  0.1226325E+00
         21   -1    0    0  503  502  0.00000000000E+00  0.00000000000E+00  0.34986446013E+03  0.34986446013E+03  0.00000000000E+00 0. -1.
          3   -1    0    0  502    0 -0.00000000000E+00 -0.00000000000E+00 -0.57081046864E+03  0.57081046864E+03  0.00000000000E+00 0. -1.
        -24    2    1    2    0    0  0.32263694103E+02  0.53183402044E+02 -0.26248478887E+03  0.28312444527E+03  0.85975385472E+02 0.  0.
         23    2    1    2    0    0  0.71602462212E+02 -0.66262636035E+02 -0.24105793652E+03  0.27571905687E+03  0.91621067637E+02 0.  0.
         11    1    3    3    0    0  0.26852835230E+02 -0.15218935630E+02 -0.13352937254E+03  0.13705029767E+03  0.00000000000E+00 0. -1.
        -12    1    3    3    0    0  0.54108588730E+01  0.68402337675E+02 -0.12895541634E+03  0.14607414760E+03  0.00000000000E+00 0.  1.
        -13    1    4    4    0    0  0.83951738016E+02 -0.46035941200E+02 -0.23084549481E+03  0.24991367444E+03  0.00000000000E+00 0. -1.
         13    1    4    4    0    0 -0.12349275804E+02 -0.20226694835E+02 -0.10212441708E+02  0.25805382432E+02  0.00000000000E+00 0.  1.
         21    1    1    2  503  501  0.36915648903E+02  0.65749250890E+02  0.86461284368E+02  0.11472263430E+03  0.00000000000E+00 0. -1.
          4    1    1    2  501    0 -0.14078180522E+03 -0.52670016899E+02  0.19613543252E+03  0.24710879233E+03  0.00000000000E+00 0. -1.
<scales pt_clust_5="13000.00000" pt_clust_6="13000.00000" pt_clust_7="13000.00000" pt_clust_8="13000.00000" pt_clust_9="75.40377" pt_clust_10="105.03968"></scales>
<clustering>
<clus scale="   75.404">  1  9  2 -1</clus>
<clus scale="   85.975">  5  6 -1 -1</clus>
<clus scale="   91.621">  7  8 -1 -1</clus>
<clus scale="  107.977">  2  5  1 -1</clus>
<clus scale="  105.040">  1 10  2 -1</clus>
<clus scale="   75.404">  1  5  2 -1</clus>
</clustering>
</event>
<event>
10    3  0.5078224E-005  0.1326734E+03  0.7546771E-02  0.1240355E+00
         21   -1    0    0  501  502  0.00000000000E+00  0.00000000000E+00  0.61344988080E+02  0.61344988080E+02  0.00000000000E+00 0. -1.
          1   -1    0    0  503    0 -0.00000000000E+00 -0.00000000000E+00 -0.97160681904E+03  0.97160681904E+03  0.00000000000E+00 0. -1.
         23    2    1    2    0    0 -0.61614252117E+00  0.23732342857E+02 -0.40815825221E+02  0.10448496889E+03  0.93207153198E+02 0.  0.
        -24    2    1    2    0    0 -0.75686758354E+02  0.60460737987E+02 -0.71255425161E+03  0.72395920100E+03  0.83662279403E+02 0.  0.
         13    1    4    4    0    0 -0.41517809963E+02 -0.66148484642E+01 -0.13170286521E+03  0.13825024220E+03  0.00000000000E+00 0. -1.
        -14    1    4    4    0    0 -0.34168948391E+02  0.67075586452E+02 -0.58085138640E+03  0.58570895880E+03  0.00000000000E+00 0.  1.
        -13    1    3    3    0    0  0.37490560352E+02 -0.15787413696E+02 -0.11624979575E+02  0.42307501662E+02  0.00000000000E+00 0.  1.
         13    1    3    3    0    0 -0.38106702874E+02  0.39519756553E+02 -0.29190845646E+02  0.62177467232E+02  0.00000000000E+00 0. -1.
         21    1    1    2  503  502 -0.40255069257E+01 -0.21847705689E+02 -0.68340451657E+01  0.23242872525E+02  0.00000000000E+00 0.  1.
          2    1    1    2  501    0  0.80328407801E+02 -0.62345375156E+02 -0.15005770896E+03  0.18126476470E+03  0.00000000000E+00 0. -1.
<scales pt_clust_5="13000.00000" pt_clust_6="13000.00000" pt_clust_7="13000.00000" pt_clust_8="13000.00000" pt_clust_9="22.21547" pt_clust_10="102.97012"></scales>
<clustering>
<clus scale="   22.215">  1  9  2 -1</clus>
<clus scale="   83.662">  5  6 -1 -1</clus>
<clus scale="   93.207">  7  8 -1 -1</clus>
<clus scale="   93.862">  2  7  1 -1</clus>
<clus scale="  102.970">  1 10  2 -1</clus>
<clus scale="   22.215">  1  5  2 -1</clus>
</clustering>
</event>
<event>
10    3  0.5078224E-005  0.2472216E+03  0.7546771E-02  0.1134291E+00
         21   -1    0    0  501  502  0.00000000000E+00  0.00000000000E+00  0.53578658023E+03  0.53578658023E+03  0.00000000000E+00 0.  1.
          1   -1    0    0  503    0 -0.00000000000E+00 -0.00000000000E+00 -0.13897807064E+04  0.13897807064E+04  0.00000000000E+00 0. -1.
        -24    2    1    2    0    0 -0.50658546182E+02  0.12125742801E+03 -0.92283713930E+03  0.93557953285E+03  0.80068873356E+02 0.  0.
         23    2    1    2    0    0 -0.12561851535E+03 -0.26402611795E+03 -0.25821045910E+03  0.40049487827E+03  0.90739759630E+02 0.  0.
         13    1    3    3    0    0 -0.53085124736E+02  0.10591511181E+03 -0.55927499627E+03  0.57168572033E+03  0.00000000000E+00 0. -1.
        -14    1    3    3    0    0  0.24265785546E+01  0.15342316202E+02 -0.36356214303E+03  0.36389381253E+03  0.00000000000E+00 0.  1.
        -13    1    4    4    0    0 -0.11563420397E+03 -0.14705379086E+03 -0.13797084676E+03  0.23244793200E+03  0.00000000000E+00 0. -1.
         13    1    4    4    0    0 -0.99843113859E+01 -0.11697232709E+03 -0.12023961234E+03  0.16804694628E+03  0.00000000000E+00 0.  1.
         21    1    1    2  503  502  0.73297601300E+02  0.13958086572E+03  0.42131722494E+03  0.44984837497E+03  0.00000000000E+00 0.  1.
          2    1    1    2  501    0  0.10297946024E+03  0.31878242167E+01 -0.94263752706E+02  0.13964450053E+03  0.00000000000E+00 0. -1.
<scales pt_clust_5="13000.00000" pt_clust_6="13000.00000" pt_clust_7="13000.00000" pt_clust_8="13000.00000" pt_clust_9="229.96697" pt_clust_10="103.02884"></scales>
<clustering>
<clus scale="   80.069">  5  6 -1 -1</clus>
<clus scale="   90.740">  7  8 -1 -1</clus>
<clus scale="  103.029">  1 10  2 -1</clus>
<clus scale="  153.500">  2  5  1 -1</clus>
<clus scale="  229.967">  1  9  2 -1</clus>
<clus scale="  103.029">  1  5  2 -1</clus>
</clustering>
</event>
<event>
10    3  0.5078224E-005  0.2432139E+03  0.7546771E-02  0.1117670E+00
         21   -1    0    0  503  502  0.00000000000E+00  0.00000000000E+00  0.60762318933E+02  0.60762318933E+02  0.00000000000E+00 0. -1.
         -2   -1    0    0    0  501 -0.00000000000E+00 -0.00000000000E+00 -0.11466166154E+04  0.11466166154E+04  0.00000000000E+00 0.  1.
        -24    2    1    2    0    0  0.10218530503E+03  0.31698101182E+01 -0.14665510678E+03  0.19659153024E+03  0.81784015295E+02 0.  0.
         23    2    1    2    0    0  0.72057092665E+02  0.35745278808E+02 -0.18659518519E+03  0.22497842054E+03  0.96579381917E+02 0.  0.
         13    1    3    3    0    0  0.11590985414E+03  0.83487622881E+01 -0.13176085646E+03  0.17568642354E+03  0.00000000000E+00 0. -1.
        -14    1    3    3    0    0 -0.13724549111E+02 -0.51789521700E+01 -0.14894250314E+02  0.20905106703E+02  0.00000000000E+00 0.  1.
        -11    1    4    4    0    0  0.59163765433E+02  0.12339651644E+02 -0.18873062424E+03  0.19817130637E+03  0.00000000000E+00 0.  1.
         11    1    4    4    0    0  0.12893327232E+02  0.23405627164E+02  0.21354390491E+01  0.26807114168E+02  0.00000000000E+00 0. -1.
         21    1    1    2  503  501 -0.33285434889E+02  0.19042288905E+02 -0.34091508468E+02  0.51310426739E+02  0.00000000000E+00 0. -1.
         -1    1    1    2    0  502 -0.14095696281E+03 -0.57957377831E+02 -0.71851249606E+03  0.73449855685E+03  0.00000000000E+00 0.  1.
<scales pt_clust_5="13000.00000" pt_clust_6="13000.00000" pt_clust_7="13000.00000" pt_clust_8="13000.00000" pt_clust_9="38.34748" pt_clust_10="156.08442"></scales>
<clustering>
<clus scale="   38.347">  1  9  2 -1</clus>
<clus scale="   81.784">  5  6 -1 -1</clus>
<clus scale="   96.579">  7  8 -1 -1</clus>
<clus scale="  104.429">  5  7 -1 -1</clus>
<clus scale="  156.084">  1 10  2 -1</clus>
<clus scale="   38.347">  1  5  2 -1</clus>
</clustering>
</event>
<event>
10    3  0.5078224E-005  0.2878803E+03  0.7546771E-02  0.1127720E+00
         21   -1    0    0  501  502  0.00000000000E+00  0.00000000000E+00  0.13426771156E+03  0.13426771156E+03  0.00000000000E+00 0. -1.
          1   -1    0    0  503    0 -0.00000000000E+00 -0.00000000000E+00 -0.10369598006E+04  0.10369598006E+04  0.00000000000E+00 0. -1.
        -24    2    1    2    0    0  0.80097902683E+02  0.24019950810E+02 -0.21937115714E+03  0.24827187993E+03  0.80762551519E+02 0.  0.
         23    2    1    2    0    0  0.55477104402E+02  0.25997531585E+03 -0.22855253604E+03  0.36240837795E+03  0.91862379196E+02 0.  0.
         13    1    3    3    0    0  0.71952548102E+02  0.41796934145E+02 -0.21134195158E+03  0.22713338235E+03  0.00000000000E+00 0. -1.
        -14    1    3    3    0    0  0.81453545808E+01 -0.17776983335E+02 -0.80292055569E+01  0.21138497572E+02  0.00000000000E+00 0.  1.
        -13    1    4    4    0    0  0.35727811971E+02  0.20488246024E+03 -0.22087808139E+03  0.30338165057E+03  0.00000000000E+00 0. -1.
         13    1    4    4    0    0  0.19749292431E+02  0.55092855612E+02 -0.76744546476E+01  0.59026727380E+02  0.00000000000E+00 0.  1.
         21    1    1    2  503  502 -0.23456035751E+02 -0.93719608918E+01 -0.12939221692E+02  0.28380322798E+02  0.00000000000E+00 0. -1.
          2    1    1    2  501    0 -0.11211897133E+03 -0.27462330577E+03 -0.44182917414E+03  0.53216693144E+03  0.00000000000E+00 0. -1.
<scales pt_clust_5="13000.00000" pt_clust_6="13000.00000" pt_clust_7="13000.00000" pt_clust_8="13000.00000" pt_clust_9="25.25904" pt_clust_10="272.83045"></scales>
<clustering>
<clus scale="   25.259">  1  9  2 -1</clus>
<clus scale="   80.763">  5  6 -1 -1</clus>
<clus scale="   91.862">  7  8 -1 -1</clus>
<clus scale="  114.206">  2  5  1 -1</clus>
<clus scale="  272.830">  1 10  2 -1</clus>
<clus scale="   25.259">  1  5  2 -1</clus>
</clustering>
</event>
<event>
10    3  0.5078224E-005  0.2864298E+03  0.7546771E-02  0.1092624E+00
          1   -1    0    0  503    0 -0.00000000000E+00  0.00000000000E+00  0.79356880959E+03  0.79356880959E+03  0.00000000000E+00 0. -1.
         21   -1    0    0  501  502  0.00000000000E+00 -0.00000000000E+00 -0.18830996118E+03  0.18830996118E+03  0.00000000000E+00 0. -1.
         23    2    1    2    0    0  0.26351695778E+03  0.81868288355E+02  0.49070361127E+03  0.57053690028E+03  0.92621362495E+02 0.  0.
        -24    2    1    2    0    0 -0.22892646486E+03 -0.12578065934E+03  0.54913707172E+02  0.27951515786E+03  0.82976548853E+02 0.  0.
         13    1    4    4    0    0 -0.14981479247E+03 -0.11377781992E+03  0.11484432490E+02  0.18847216383E+03  0.00000000000E+00 0. -1.
        -14    1    4    4    0    0 -0.79111672386E+02 -0.12002839419E+02  0.43429274682E+02  0.91042994026E+02  0.00000000000E+00 0.  1.
        -11    1    3    3    0    0  0.15137253645E+03 -0.12806284447E+01  0.24834102848E+03  0.29084110994E+03  0.00000000000E+00 0. -1.
         11    1    3    3    0    0  0.11214442133E+03  0.83148916799E+02  0.24236258278E+03  0.27969579034E+03  0.00000000000E+00 0.  1.
         21    1    1    2  503  502  0.22461545108E+02 -0.14459860867E+02 -0.56481263274E+01  0.27304027467E+02  0.00000000000E+00 0. -1.
          2    1    1    2  501    0 -0.57052038028E+02  0.58372231849E+02  0.65289656301E+02  0.10452268517E+03  0.00000000000E+00 0. -1.
<scales pt_clust_5="13000.00000" pt_clust_6="13000.00000" pt_clust_7="13000.00000" pt_clust_8="13000.00000" pt_clust_9="26.71345" pt_clust_10="78.65273"></scales>
<clustering>
<clus scale="   26.713">  2  9  1 -1</clus>
<clus scale="   78.653">  2 10  1 -1</clus>
<clus scale="   82.977">  5  6 -1 -1</clus>
<clus scale="   92.621">  7  8 -1 -1</clus>
<clus scale="  283.458">  2  5  1 -1</clus>
<clus scale="   26.713">  2  5  1 -1</clus>
</clustering>
</event>
<event>
10    3  0.5078224E-005  0.8648404E+03  0.7546771E-02  0.1015177E+00
         21   -1    0    0  501  502  0.00000000000E+00  0.00000000000E+00  0.18153945548E+04  0.18153945548E+04  0.00000000000E+00 0. -1.
          1   -1    0    0  503    0 -0.00000000000E+00 -0.00000000000E+00 -0.12136634761E+04  0.12136634761E+04  0.00000000000E+00 0. -1.
         23    2    1    2    0    0  0.11670194917E+02  0.22484154069E+02 -0.48621005453E+02  0.10456461334E+03  0.89039460685E+02 0.  0.
        -24    2    1    2    0    0 -0.25599782575E+03  0.76402543211E+03 -0.55983346640E+03  0.98453404471E+03  0.81388128067E+02 0.  0.
         13    1    4    4    0    0 -0.25984845731E+03  0.71601205625E+03 -0.52668689927E+03  0.92606348343E+03  0.00000000000E+00 0. -1.
        -14    1    4    4    0    0  0.38506315620E+01  0.48013375855E+02 -0.33146567130E+02  0.58470561285E+02  0.00000000000E+00 0.  1.
        -13    1    3    3    0    0 -0.36188877723E+02  0.21564831882E+02 -0.10615571924E+02  0.43443839750E+02  0.00000000000E+00 0. -1.
         13    1    3    3    0    0  0.47859072640E+02  0.91932218688E+00 -0.38005433528E+02  0.61120773595E+02  0.00000000000E+00 0.  1.
         21    1    1    2  503  502 -0.35396769515E+02  0.16351387944E+03  0.88038463507E+03  0.89613995878E+03  0.00000000000E+00 0. -1.
          2    1    1    2  501    0  0.27972440034E+03 -0.95002346561E+03  0.32980091550E+03  0.10438194141E+04  0.00000000000E+00 0. -1.
<scales pt_clust_5="13000.00000" pt_clust_6="13000.00000" pt_clust_7="13000.00000" pt_clust_8="13000.00000" pt_clust_9="167.43646" pt_clust_10="861.00230"></scales>
<clustering>
<clus scale="   81.388">  5  6 -1 -1</clus>
<clus scale="   89.039">  7  8 -1 -1</clus>
<clus scale="   92.573">  2  7  1 -1</clus>
<clus scale="  167.436">  1  9  2 -1</clus>
<clus scale="  861.002">  1 10  2 -1</clus>
<clus scale="  167.436">  1  5  2 -1</clus>
</clustering>
</event>
<event>
10    3  0.5078224E-005  0.1009049E+03  0.7546771E-02  0.1286282E+00
         21   -1    0    0  501  502  0.00000000000E+00  0.00000000000E+00  0.15617319326E+03  0.15617319326E+03  0.00000000000E+00 0. -1.
          1   -1    0    0  503    0 -0.00000000000E+00 -0.00000000000E+00 -0.42033268751E+03  0.42033268751E+03  0.00000000000E+00 0. -1.
        -24    2    1    2    0    0  0.16855115928E+02  0.20308925870E+01 -0.14935286762E+03  0.16987626312E+03  0.79141937346E+02 0.  0.
         23    2    1    2    0    0 -0.37254093227E+02 -0.63103281542E+02 -0.20737230042E+03  0.23930303131E+03  0.94301528130E+02 0.  0.
         13    1    3    3    0    0 -0.22273915466E+02  0.26553128451E+02 -0.68362322491E+02  0.76645959300E+02  0.00000000000E+00 0. -1.
        -14    1    3    3    0    0  0.39129031394E+02 -0.24522235864E+02 -0.80990545131E+02  0.93230303819E+02  0.00000000000E+00 0.  1.
        -13    1    4    4    0    0 -0.13801030262E+02  0.24035175196E+02 -0.34118933958E+02  0.43957476468E+02  0.00000000000E+00 0.  1.
         13    1    4    4    0    0 -0.23453062964E+02 -0.87138456737E+02 -0.17325336647E+03  0.19534555484E+03  0.00000000000E+00 0. -1.
         21    1    1    2  503  502 -0.26003715297E+02  0.17208427005E+02  0.98385347974E+02  0.10320852613E+03  0.00000000000E+00 0. -1.
          2    1    1    2  501    0  0.46402692596E+02  0.43863961949E+02 -0.58196741743E+01  0.64118060214E+02  0.00000000000E+00 0. -1.
<scales pt_clust_5="13000.00000" pt_clust_6="13000.00000" pt_clust_7="13000.00000" pt_clust_8="13000.00000" pt_clust_9="31.18210" pt_clust_10="62.21748"></scales>
<clustering>
<clus scale="   31.182">  1  9  2 -1</clus>
<clus scale="   62.217">  1 10  2 -1</clus>
<clus scale="   79.142">  5  6 -1 -1</clus>
<clus scale="   86.905">  2  5  1 -1</clus>
<clus scale="   94.302">  7  8 -1 -1</clus>
<clus scale="   31.182">  1  5  2 -1</clus>
</clustering>
</event>
<event>
10    3  0.5078224E-005  0.1778208E+03  0.7546771E-02  0.1184737E+00
          1   -1    0    0  502    0 -0.00000000000E+00  0.00000000000E+00  0.18675335822E+03  0.18675335822E+03  0.00000000000E+00 0. -1.
         21   -1    0    0  503  502  0.00000000000E+00 -0.00000000000E+00 -0.64592922759E+03  0.64592922759E+03  0.00000000000E+00 0. -1.
         23    2    1    2    0    0 -0.85130212800E+02  0.24071514929E+02 -0.18363013000E+03  0.22342548891E+03  0.91500456228E+02 0.  0.
        -24    2    1    2    0    0  0.22174931224E+03 -0.82706898129E+02  0.42316188542E+02  0.25349064870E+03  0.80334679221E+02 0.  0.
         11    1    4    4    0    0  0.22446752331E+03 -0.88375708933E+02  0.34870100089E+02  0.24374547961E+03  0.00000000000E+00 0. -1.
        -12    1    4    4    0    0 -0.27182110639E+01  0.56688108038E+01  0.74460884531E+01  0.97451690888E+01  0.00000000000E+00 0.  1.
        -11    1    3    3    0    0 -0.69448667092E+02 -0.25646276710E+02 -0.92973935355E+02  0.11884864966E+03  0.00000000000E+00 0.  1.
         11    1    3    3    0    0 -0.15681545707E+02  0.49717791639E+02 -0.90656194642E+02  0.10457683925E+03  0.00000000000E+00 0. -1.
         21    1    1    2  503  501 -0.22716871236E+02  0.24795221699E+02 -0.12317895937E+03  0.12768678588E+03  0.00000000000E+00 0. -1.
          2    1    1    2  501    0 -0.11390222821E+03  0.33840161501E+02 -0.19468296855E+03  0.22807966232E+03  0.00000000000E+00 0. -1.
<scales pt_clust_5="13000.00000" pt_clust_6="13000.00000" pt_clust_7="13000.00000" pt_clust_8="13000.00000" pt_clust_9="31.15960" pt_clust_10="169.10721"></scales>
<clustering>
<clus scale="   31.160">  9 10 -1 -1</clus>
<clus scale="   80.335">  5  6 -1 -1</clus>
<clus scale="   91.500">  7  8 -1 -1</clus>
<clus scale="  127.275">  1  7  2 -1</clus>
<clus scale="  169.107">  2  9  1 -1</clus>
<clus scale="  169.107">  2  5  1 -1</clus>
</clustering>
</event>
<event>
10    3  0.7230103E-005  0.3039914E+03  0.7546771E-02  0.1113579E+00
         21   -1    0    0  503  502  0.00000000000E+00  0.00000000000E+00  0.85301252278E+03  0.85301252278E+03  0.00000000000E+00 0. -1.
         -2   -1    0    0    0  501 -0.00000000000E+00 -0.00000000000E+00 -0.48249043625E+03  0.48249043625E+03  0.00000000000E+00 0.  1.
        -24    2    1    2    0    0 -0.81117154159E+02 -0.51896149796E+02 -0.74837837009E+02  0.15606158988E+03  0.97372043858E+02 0.  0.
         23    2    1    2    0    0  0.30150364376E+03 -0.12501242393E+03 -0.82472324974E+02  0.34879898259E+03  0.91249616614E+02 0.  0.
         13    1    3    3    0    0 -0.48793158184E+02  0.14657347427E+02 -0.17339565170E+00  0.50947425698E+02  0.00000000000E+00 0. -1.
        -14    1    3    3    0    0 -0.32323995975E+02 -0.66553497223E+02 -0.74664441357E+02  0.10511416418E+03  0.00000000000E+00 0.  1.
        -11    1    4    4    0    0  0.24499316824E+03 -0.58974414476E+02 -0.61676046531E+02  0.25942931361E+03  0.00000000000E+00 0.  1.
         11    1    4    4    0    0  0.56510475523E+02 -0.66038009450E+02 -0.20796278442E+02  0.89369668977E+02  0.00000000000E+00 0. -1.
         21    1    1    2  503  501 -0.18150689458E+03  0.17888542870E+03  0.65225459330E+03  0.70027194993E+03  0.00000000000E+00 0. -1.
         -1    1    1    2    0  502 -0.38879595017E+02 -0.19768549746E+01 -0.12442234478E+03  0.13037043662E+03  0.00000000000E+00 0.  1.
<scales pt_clust_5="13000.00000" pt_clust_6="13000.00000" pt_clust_7="13000.00000" pt_clust_8="13000.00000" pt_clust_9="289.97284" pt_clust_10="38.92984"></scales>
<clustering>
<clus scale="   38.930">  1 10  2 -1</clus>
<clus scale="   91.250">  7  8 -1 -1</clus>
<clus scale="   97.372">  5  6 -1 -1</clus>
<clus scale="  138.091">  2  5  1 -1</clus>
<clus scale="  289.973">  1  9  2 -1</clus>
<clus scale="   38.930">  1  5  2 -1</clus>
</clustering>
</event>
<event>
10    3  0.5078224E-005  0.2318221E+03  0.7546771E-02  0.1126080E+00
         21   -1    0    0  501  502  0.00000000000E+00  0.00000000000E+00  0.17800664863E+03  0.17800664863E+03  0.00000000000E+00 0.  1.
          1   -1    0    0  503    0 -0.00000000000E+00 -0.00000000000E+00 -0.62911145969E+03  0.62911145969E+03  0.00000000000E+00 0. -1.
        -24    2    1    2    0    0  0.16425187397E+02 -0.19906048141E+03 -0.22815412602E+03  0.31430463408E+03  0.82693625769E+02 0.  0.
         23    2    1    2    0    0 -0.37966992390E+02  0.24456644597E+03 -0.24827974115E+02  0.26567235598E+03  0.93333452904E+02 0.  0.
         13    1    3    3    0    0  0.12945942845E+02 -0.20091222369E+03 -0.23308206591E+03  0.30799442935E+03  0.00000000000E+00 0. -1.
        -14    1    3    3    0    0  0.34792445522E+01  0.18517422818E+01  0.49279398877E+01  0.63102047248E+01  0.00000000000E+00 0.  1.
        -11    1    4    4    0    0 -0.35596901812E+02  0.19195039708E+03  0.20350477311E+02  0.19628101356E+03  0.00000000000E+00 0.  1.
         11    1    4    4    0    0 -0.23700905782E+01  0.52616048883E+02 -0.45178451426E+02  0.69391342419E+02  0.00000000000E+00 0. -1.
         21    1    1    2  503  502 -0.21056715170E+02  0.65281055432E+00 -0.19485775330E+01  0.21156757071E+02  0.00000000000E+00 0.  1.
          2    1    1    2  501    0  0.42598520162E+02 -0.46158775112E+02 -0.19617413340E+03  0.20598436119E+03  0.00000000000E+00 0. -1.
<scales pt_clust_5="13000.00000" pt_clust_6="13000.00000" pt_clust_7="13000.00000" pt_clust_8="13000.00000" pt_clust_9="21.06683" pt_clust_10="62.38299"></scales>
<clustering>
<clus scale="   21.067">  1  9  2 -1</clus>
<clus scale="   62.383">  1 10  2 -1</clus>
<clus scale="   82.694">  5  6 -1 -1</clus>
<clus scale="   93.333">  7  8 -1 -1</clus>
<clus scale="  227.747">  2  5  1 -1</clus>
<clus scale="   21.067">  1  5  2 -1</clus>
</clustering>
</event>
<event>
10    3  0.5078224E-005  0.2128222E+03  0.7546771E-02  0.1175250E+00
          1   -1    0    0  503    0 -0.00000000000E+00  0.00000000000E+00  0.50879210320E+03  0.50879210320E+03  0.00000000000E+00 0. -1.
         21   -1    0    0  501  502  0.00000000000E+00 -0.00000000000E+00 -0.30931532791E+03  0.30931532791E+03  0.00000000000E+00 0. -1.
        -24    2    1    2    0    0  0.26292450127E+02  0.35020050046E+02  0.12922861082E+03  0.15864468986E+03  0.80934584255E+02 0.  0.
         23    2    1    2    0    0  0.16282536286E+03 -0.73880189548E+01  0.22906344134E+03  0.29538372743E+03  0.90635559564E+02 0.  0.
         11    1    3    3    0    0  0.32647743867E+02  0.26510277285E+01  0.89946787771E+01  0.33967740194E+02  0.00000000000E+00 0. -1.
        -12    1    3    3    0    0 -0.63552937399E+01  0.32369022317E+02  0.12023393204E+03  0.12467694967E+03  0.00000000000E+00 0.  1.
        -13    1    4    4    0    0  0.14754077802E+03  0.16980708079E+02  0.14928137658E+03  0.21057434559E+03  0.00000000000E+00 0. -1.
         13    1    4    4    0    0  0.15284584834E+02 -0.24368727033E+02  0.79782064757E+02  0.84809381838E+02  0.00000000000E+00 0.  1.
         21    1    1    2  503  502  0.52981653957E+02 -0.50422272986E+02  0.90540249949E+00  0.73145615199E+02  0.00000000000E+00 0. -1.
          2    1    1    2  501    0 -0.24209946694E+03  0.22790241895E+02 -0.15972067936E+03  0.29093339862E+03  0.00000000000E+00 0. -1.
<scales pt_clust_5="13000.00000" pt_clust_6="13000.00000" pt_clust_7="13000.00000" pt_clust_8="13000.00000" pt_clust_9="73.14001" pt_clust_10="192.55778"></scales>
<clustering>
<clus scale="   73.140">  2  9  1 -1</clus>
<clus scale="   80.935">  5  6 -1 -1</clus>
<clus scale="   90.636">  7  8 -1 -1</clus>
<clus scale="   91.888">  1  5  2 -1</clus>
<clus scale="  192.558">  2 10  1 -1</clus>
<clus scale="   73.140">  2  5  1 -1</clus>
</clustering>
</event>
<event>
10    3  0.5078224E-005  0.1113640E+03  0.7546771E-02  0.1262816E+00
         21   -1    0    0  503  502  0.00000000000E+00  0.00000000000E+00  0.13819288793E+03  0.13819288793E+03  0.00000000000E+00 0.  1.
         -4   -1    0    0    0  501 -0.00000000000E+00 -0.00000000000E+00 -0.36588760064E+03  0.36588760064E+03  0.00000000000E+00 0.  1.
        -24    2    1    2    0    0 -0.71739169497E+02  0.99158999603E+01 -0.26207517983E+03  0.28285621079E+03  0.77970523853E+02 0.  0.
         23    2    1    2    0    0  0.31750188594E+02 -0.11464388236E+02 -0.92574624416E+01  0.97036342272E+02  0.90503284124E+02 0.  0.
         13    1    3    3    0    0 -0.50441777112E+02 -0.27046753270E+02 -0.19617273229E+03  0.20435175711E+03  0.00000000000E+00 0. -1.
        -14    1    3    3    0    0 -0.21297392385E+02  0.36962653230E+02 -0.65902447541E+02  0.78504453683E+02  0.00000000000E+00 0.  1.
        -11    1    4    4    0    0  0.34073614968E+02  0.27458969742E+02 -0.29819065319E+02  0.52954536282E+02  0.00000000000E+00 0.  1.
         11    1    4    4    0    0 -0.23234263739E+01 -0.38923357979E+02  0.20561602878E+02  0.44081805990E+02  0.00000000000E+00 0. -1.
         21    1    1    2  503  501 -0.34839658572E+02 -0.11444028355E+02  0.29206986623E+02  0.46880866694E+02  0.00000000000E+00 0.  1.
         -3    1    1    2    0  502  0.74828639475E+02  0.12992516631E+02  0.14430942945E+02  0.77307068812E+02  0.00000000000E+00 0.  1.
<scales pt_clust_5="13000.00000" pt_clust_6="13000.00000" pt_clust_7="13000.00000" pt_clust_8="13000.00000" pt_clust_9="36.67107" pt_clust_10="59.37986"></scales>
<clustering>
<clus scale="   36.671">  1  9  2 -1</clus>
<clus scale="   59.380">  1 10  2 -1</clus>
<clus scale="   77.971">  5  6 -1 -1</clus>
<clus scale="   90.503">  7  8 -1 -1</clus>
<clus scale="  101.442">  2  5  1 -1</clus>
<clus scale="   36.671">  1  5  2 -1</clus>
</clustering>
</event>
<event>
10    3  0.5078224E-005  0.1003550E+03  0.7546771E-02  0.1285100E+00
          1   -1    0    0  502    0 -0.00000000000E+00  0.00000000000E+00  0.13025644838E+04  0.13025644838E+04  0.00000000000E+00 0. -1.
         21   -1    0    0  503  502  0.00000000000E+00 -0.00000000000E+00 -0.19560985734E+02  0.19560985734E+02  0.00000000000E+00 0. -1.
        -24    2    1    2    0    0  0.66843942525E+02  0.17304760496E+02  0.47894629664E+03  0.49043183245E+03  0.79788845274E+02 0.  0.
         23    2    1    2    0    0 -0.30578776505E+00  0.86042709009E+01  0.21162976881E+03  0.23051802148E+03  0.90979515254E+02 0.  0.
         11    1    3    3    0    0  0.56533587870E+02 -0.23932534586E+02  0.23956474031E+03  0.24730563594E+03  0.00000000000E+00 0. -1.
        -12    1    3    3    0    0  0.10310354655E+02  0.41237295082E+02  0.23938155633E+03  0.24312619651E+03  0.00000000000E+00 0.  1.
        -13    1    4    4    0    0  0.20614248242E+02  0.42227158927E+02  0.77195797963E+02  0.90372957265E+02  0.00000000000E+00 0. -1.
         13    1    4    4    0    0 -0.20920036007E+02 -0.33622888026E+02  0.13443397085E+03  0.14014506422E+03  0.00000000000E+00 0.  1.
         21    1    1    2  503  501 -0.21720289447E+02  0.20541522722E+02  0.95398073254E+02  0.99972583792E+02  0.00000000000E+00 0.  1.
          2    1    1    2  501    0 -0.44817865312E+02 -0.46450554119E+02  0.49702935939E+03  0.50120303183E+03  0.00000000000E+00 0. -1.
<scales pt_clust_5="13000.00000" pt_clust_6="13000.00000" pt_clust_7="13000.00000" pt_clust_8="13000.00000" pt_clust_9="29.89524" pt_clust_10="64.68388"></scales>
<clustering>
<clus scale="   29.895">  2  9  1 -1</clus>
<clus scale="   64.684">  2 10  1 -1</clus>
<clus scale="   79.789">  5  6 -1 -1</clus>
<clus scale="   90.333">  1  5  2 -1</clus>
<clus scale="   90.980">  7  8 -1 -1</clus>
<clus scale="   29.895">  2  5  1 -1</clus>
</clustering>
</event>
<event>
10    3  0.5078224E-005  0.1177243E+03  0.7546771E-02  0.1251174E+00
         21   -1    0    0  501  502  0.00000000000E+00  0.00000000000E+00  0.97419181464E+03  0.97419181464E+03  0.00000000000E+00 0. -1.
          1   -1    0    0  503    0 -0.00000000000E+00 -0.00000000000E+00 -0.38219982404E+02  0.38219982404E+02  0.00000000000E+00 0. -1.
         23    2    1    2    0    0 -0.58247602703E+02  0.56819097113E+02  0.16897203405E+03  0.20918452480E+03  0.92657563679E+02 0.  0.
        -24    2    1    2    0    0  0.10825648429E+02 -0.52091976144E+02  0.57945054529E+03  0.58736688134E+03  0.80038429609E+02 0.  0.
         13    1    4    4    0    0 -0.85363733928E+01 -0.59731123502E+02  0.24691082670E+03  0.25417638192E+03  0.00000000000E+00 0. -1.
        -14    1    4    4    0    0  0.19362021822E+02  0.76391473579E+01  0.33253971859E+03  0.33319049942E+03  0.00000000000E+00 0.  1.
        -13    1    3    3    0    0 -0.42100309299E+02  0.19365665083E+02  0.16111718946E+03  0.16764907923E+03  0.00000000000E+00 0. -1.
         13    1    3    3    0    0 -0.16147293404E+02  0.37453432030E+02  0.78548445913E+01  0.41535445569E+02  0.00000000000E+00 0.  1.
         21    1    1    2  503  502  0.26872681383E+02 -0.28236760585E+02  0.17940536294E+03  0.18359123047E+03  0.00000000000E+00 0. -1.
          2    1    1    2  501    0  0.20549272891E+02  0.23509639616E+02  0.81438899423E+01  0.32269160426E+02  0.00000000000E+00 0. -1.
<scales pt_clust_5="13000.00000" pt_clust_6="13000.00000" pt_clust_7="13000.00000" pt_clust_8="13000.00000" pt_clust_9="38.88796" pt_clust_10="31.22462"></scales>
<clustering>
<clus scale="   31.225">  1 10  2 -1</clus>
<clus scale="   38.888">  1  9  2 -1</clus>
<clus scale="   80.038">  5  6 -1 -1</clus>
<clus scale="   92.658">  7  8 -1 -1</clus>
<clus scale="  108.073">  1  5  2 -1</clus>
<clus scale="   31.225">  1  5  2 -1</clus>
</clustering>
</event>
<event>
10    3  0.5078224E-005  0.2878669E+03  0.7546771E-02  0.1129188E+00
         21   -1    0    0  501  502  0.00000000000E+00  0.00000000000E+00  0.97231480753E+03  0.97231480753E+03  0.00000000000E+00 0. -1.
          1   -1    0    0  503    0 -0.00000000000E+00 -0.00000000000E+00 -0.56048390026E+03  0.56048390026E+03  0.00000000000E+00 0. -1.
         23    2    1    2    0    0  0.37797876370E+02  0.46647220685E+02 -0.46013858969E+03  0.47313255357E+03  0.92316027136E+02 0.  0.
        -24    2    1    2    0    0 -0.18006990623E+03 -0.25605181999E+03  0.45967759806E+03  0.56258120243E+03  0.84890573755E+02 0.  0.
         11    1    4    4    0    0 -0.13907746748E+03 -0.23942298374E+03  0.42059156146E+03  0.50355056219E+03  0.00000000000E+00 0. -1.
        -12    1    4    4    0    0 -0.40992438757E+02 -0.16628836247E+02  0.39086036600E+02  0.59030640242E+02  0.00000000000E+00 0.  1.
        -13    1    3    3    0    0  0.65999271518E+02  0.44508379538E+02 -0.37707226700E+03  0.38538343793E+03  0.00000000000E+00 0. -1.
         13    1    3    3    0    0 -0.28201395147E+02  0.21388411473E+01 -0.83066322689E+02  0.87749115635E+02  0.00000000000E+00 0.  1.
         21    1    1    2  503  502  0.25390150691E+02 -0.55117821930E+01  0.82268850947E+02  0.86274001479E+02  0.00000000000E+00 0. -1.
          2    1    1    2  501    0  0.11688187917E+03  0.21491638150E+03  0.33002304796E+03  0.41081095032E+03  0.00000000000E+00 0. -1.
<scales pt_clust_5="13000.00000" pt_clust_6="13000.00000" pt_clust_7="13000.00000" pt_clust_8="13000.00000" pt_clust_9="25.98152" pt_clust_10="275.06531"></scales>
<clustering>
<clus scale="   25.982">  1  9  2 -1</clus>
<clus scale="   84.891">  5  6 -1 -1</clus>
<clus scale="   92.316">  7  8 -1 -1</clus>
<clus scale="  110.169">  2  7  1 -1</clus>
<clus scale="  275.065">  1 10  2 -1</clus>
<clus scale="   25.982">  1  5  2 -1</clus>
</clustering>
</event>
<event>
10    3  0.5078224E-005  0.3454181E+03  0.7546771E-02  0.1064511E+00
         21   -1    0    0  503  502  0.00000000000E+00  0.00000000000E+00  0.44970782168E+03  0.44970782168E+03  0.00000000000E+00 0. -1.
          1   -1    0    0  502    0 -0.00000000000E+00 -0.00000000000E+00 -0.42631161260E+03  0.42631161260E+03  0.00000000000E+00 0. -1.
        -24    2    1    2    0    0 -0.59162797334E+02 -0.17201105890E+03  0.58530444774E+01  0.19871039686E+03  0.79771691196E+02 0.  0.
         23    2    1    2    0    0  0.29864404717E+02 -0.38275187527E+02  0.17416910600E+02  0.13095876695E+03  0.12037432125E+03 0.  0.
         11    1    3    3    0    0 -0.62113337241E+02 -0.17583554025E+03 -0.52970219941E+01  0.18655900493E+03  0.00000000000E+00 0. -1.
        -12    1    3    3    0    0  0.29505399069E+01  0.38244813522E+01  0.11150066471E+02  0.12151391923E+02  0.00000000000E+00 0.  1.
        -13    1    4    4    0    0  0.43676603755E+01  0.41782265781E+02  0.20787470311E+02  0.46871666419E+02  0.00000000000E+00 0.  1.
         13    1    4    4    0    0  0.25496744341E+02 -0.80057453308E+02 -0.33705597109E+01  0.84087100526E+02  0.00000000000E+00 0. -1.
         21    1    1    2  503  501  0.74023524912E+02 -0.33763153544E+02  0.20756727677E+03  0.22294305811E+03  0.00000000000E+00 0. -1.
          2    1    1    2  501    0 -0.44725132294E+02  0.24404939997E+03 -0.20744102276E+03  0.32340721237E+03  0.00000000000E+00 0. -1.
<scales pt_clust_5="13000.00000" pt_clust_6="13000.00000" pt_clust_7="13000.00000" pt_clust_8="13000.00000" pt_clust_9="81.35990" pt_clust_10="237.17538"></scales>
<clustering>
<clus scale="   79.772">  5  6 -1 -1</clus>
<clus scale="   81.360">  1  9  2 -1</clus>
<clus scale="  120.374">  7  8 -1 -1</clus>
<clus scale="  139.965">  5  7 -1 -1</clus>
<clus scale="  237.175">  1 10  2 -1</clus>
<clus scale="   81.360">  1  5  2 -1</clus>
</clustering>
</event>
<event>
10    3  0.5078224E-005  0.1193830E+03  0.7546771E-02  0.1247951E+00
          1   -1    0    0  503    0 -0.00000000000E+00  0.00000000000E+00  0.85460069799E+03  0.85460069799E+03  0.00000000000E+00 0. -1.
         21   -1    0    0  501  502  0.00000000000E+00 -0.00000000000E+00 -0.21027976034E+03  0.21027976034E+03  0.00000000000E+00 0. -1.
         23    2    1    2    0    0 -0.46986293027E+02  0.72493682963E+02  0.18760468010E+03  0.22544600124E+03  0.90373323927E+02 0.  0.
        -24    2    1    2    0    0 -0.10161881631E+02 -0.78953756494E+02  0.13842248694E+03  0.17784570904E+03  0.78302949056E+02 0.  0.
         13    1    4    4    0    0  0.22570372700E+02 -0.74811367655E+02  0.10495109742E+03  0.13084683911E+03  0.00000000000E+00 0. -1.
        -14    1    4    4    0    0 -0.32732254330E+02 -0.41423888394E+01  0.33471389517E+02  0.46998869933E+02  0.00000000000E+00 0.  1.
        -11    1    3    3    0    0 -0.26674266376E+02  0.37882265459E+02  0.17833878866E+03  0.18425880186E+03  0.00000000000E+00 0.  1.
         11    1    3    3    0    0 -0.20312026652E+02  0.34611417504E+02  0.92658914394E+01  0.41187199377E+02  0.00000000000E+00 0. -1.
         21    1    1    2  503  502  0.10040359237E+03 -0.36855802307E+02 -0.15281185617E+03  0.18652263914E+03  0.00000000000E+00 0. -1.
          2    1    1    2  501    0 -0.43255417714E+02  0.43315875838E+02  0.47110562677E+03  0.47506610891E+03  0.00000000000E+00 0. -1.
<scales pt_clust_5="13000.00000" pt_clust_6="13000.00000" pt_clust_7="13000.00000" pt_clust_8="13000.00000" pt_clust_9="65.18953" pt_clust_10="61.21519"></scales>
<clustering>
<clus scale="   61.215">  2 10  1 -1</clus>
<clus scale="   65.190">  2  9  1 -1</clus>
<clus scale="   78.303">  5  6 -1 -1</clus>
<clus scale="   90.373">  7  8 -1 -1</clus>
<clus scale="  110.527">  2  5  1 -1</clus>
<clus scale="   61.215">  2  5  1 -1</clus>
</clustering>
</event>
<event>
10    3  0.5078224E-005  0.2409107E+03  0.7546771E-02  0.1150931E+00
         21   -1    0    0  501  502  0.00000000000E+00  0.00000000000E+00  0.15867831515E+03  0.15867831515E+03  0.00000000000E+00 0. -1.
          1   -1    0    0  503    0 -0.00000000000E+00 -0.00000000000E+00 -0.15501152514E+04  0.15501152514E+04  0.00000000000E+00 0. -1.
        -24    2    1    2    0    0  0.69529849723E+02 -0.26719679620E+02 -0.17923939289E+03  0.21013899600E+03  0.80518919486E+02 0.  0.
         23    2    1    2    0    0  0.97270391101E+02 -0.17526931310E+03 -0.60463149026E+03  0.64347908296E+03  0.91133035163E+02 0.  0.
         11    1    3    3    0    0  0.18756043021E+02  0.19616461039E+02 -0.10713570458E+03  0.11051992531E+03  0.00000000000E+00 0. -1.
        -12    1    3    3    0    0  0.50773806701E+02 -0.46336140660E+02 -0.72103688305E+02  0.99619070691E+02  0.00000000000E+00 0.  1.
        -13    1    4    4    0    0 -0.12960615955E+02 -0.34351403227E+02 -0.16093592587E+03  0.16507079907E+03  0.00000000000E+00 0.  1.
         13    1    4    4    0    0  0.11023100706E+03 -0.14091790987E+03 -0.44369556438E+03  0.47840828389E+03  0.00000000000E+00 0. -1.
         21    1    1    2  503  502  0.16524587832E+02  0.23150225662E+02  0.99326600704E+02  0.10331877157E+03  0.00000000000E+00 0. -1.
          2    1    1    2  501    0 -0.18332482866E+03  0.17883876706E+03 -0.70689265381E+03  0.75185671601E+03  0.00000000000E+00 0. -1.
<scales pt_clust_5="13000.00000" pt_clust_6="13000.00000" pt_clust_7="13000.00000" pt_clust_8="13000.00000" pt_clust_9="28.44284" pt_clust_10="223.00845"></scales>
<clustering>
<clus scale="   28.443">  1  9  2 -1</clus>
<clus scale="   80.519">  5  6 -1 -1</clus>
<clus scale="   91.133">  7  8 -1 -1</clus>
<clus scale="  111.248">  2  5  1 -1</clus>
<clus scale="  223.008">  1 10  2 -1</clus>
<clus scale="   28.443">  1  5  2 -1</clus>
</clustering>
</event>
<event>
10    3  0.5078224E-005  0.1291438E+03  0.7546771E-02  0.1244636E+00
          1   -1    0    0  503    0 -0.00000000000E+00  0.00000000000E+00  0.38850123260E+03  0.38850123260E+03  0.00000000000E+00 0. -1.
         21   -1    0    0  501  502  0.00000000000E+00 -0.00000000000E+00 -0.10117507801E+03  0.10117507801E+03  0.00000000000E+00 0.  1.
         23    2    1    2    0    0  0.10458653178E+02 -0.35601479632E+02  0.12011097988E+03  0.15138326807E+03  0.84340960310E+02 0.  0.
        -24    2    1    2    0    0  0.69618976535E+02  0.28961129849E+02  0.86409703587E+00  0.12144173794E+03  0.95193487776E+02 0.  0.
         13    1    4    4    0    0  0.17679771505E+02  0.58422985145E+02  0.68806024269E+01  0.61426071040E+02  0.00000000000E+00 0. -1.
        -14    1    4    4    0    0  0.51939205031E+02 -0.29461855295E+02 -0.60165053910E+01  0.60015666903E+02  0.00000000000E+00 0.  1.
        -11    1    3    3    0    0 -0.13669459894E+02 -0.50842650919E+02  0.10845047157E+03  0.12055427852E+03  0.00000000000E+00 0.  1.
         11    1    3    3    0    0  0.24128113072E+02  0.15241171287E+02  0.11660508310E+02  0.30828989549E+02  0.00000000000E+00 0. -1.
         21    1    1    2  503  502  0.19139771427E+02 -0.10969656715E+02 -0.34686169385E+00  0.22063194052E+02  0.00000000000E+00 0.  1.
          2    1    1    2  501    0 -0.99217401140E+02  0.17610006498E+02  0.16669793937E+03  0.19478811054E+03  0.00000000000E+00 0. -1.
<scales pt_clust_5="13000.00000" pt_clust_6="13000.00000" pt_clust_7="13000.00000" pt_clust_8="13000.00000" pt_clust_9="22.06047" pt_clust_10="87.27165"></scales>
<clustering>
<clus scale="   22.060">  2  9  1 -1</clus>
<clus scale="   84.341">  7  8 -1 -1</clus>
<clus scale="   93.329">  1  7  2 -1</clus>
<clus scale="   87.272">  2 10  1 -1</clus>
<clus scale="   95.193">  5  6 -1 -1</clus>
<clus scale="   22.060">  2  5  1 -1</clus>
</clustering>
</event>
<event>
10    3  0.5078224E-005  0.1167284E+03  0.7546771E-02  0.1255705E+00
         -2   -1    0    0    0  501 -0.00000000000E+00  0.00000000000E+00  0.29530529459E+03  0.29530529459E+03  0.00000000000E+00 0.  1.
         21   -1    0    0  501  502  0.00000000000E+00 -0.00000000000E+00 -0.10336432749E+03  0.10336432749E+03  0.00000000000E+00 0.  1.
        -24    2    1    2    0    0 -0.33803291275E+02 -0.41650007833E+02  0.11629701068E+03  0.15144186200E+03  0.80822380690E+02 0.  0.
         23    2    1    2    0    0  0.84743108698E+02  0.39326323703E+02  0.15111848310E+02  0.13729018434E+03  0.99459904230E+02 0.  0.
         13    1    3    3    0    0 -0.49843342800E+02 -0.40318246243E+02  0.44937805846E+02  0.78290013385E+02  0.00000000000E+00 0. -1.
        -14    1    3    3    0    0  0.16040051525E+02 -0.13317615897E+01  0.71359204830E+02  0.73151848616E+02  0.00000000000E+00 0.  1.
        -11    1    4    4    0    0  0.10358048247E+03  0.14741106935E+02  0.51326362831E+01  0.10474999063E+03  0.00000000000E+00 0. -1.
         11    1    4    4    0    0 -0.18837373770E+02  0.24585216768E+02  0.99792120267E+01  0.32540193711E+02  0.00000000000E+00 0.  1.
         21    1    1    2  503  502  0.12017157511E+02  0.20497505862E+02  0.55532655488E+01  0.24400790550E+02  0.00000000000E+00 0. -1.
         -1    1    1    2    0  503 -0.62956974934E+02 -0.18173821732E+02  0.54978842567E+02  0.85536785182E+02  0.00000000000E+00 0.  1.
<scales pt_clust_5="13000.00000" pt_clust_6="13000.00000" pt_clust_7="13000.00000" pt_clust_8="13000.00000" pt_clust_9="23.76047" pt_clust_10="62.78159"></scales>
<clustering>
<clus scale="   23.760">  2  9  1 -1</clus>
<clus scale="   62.782">  2 10  1 -1</clus>
<clus scale="   80.822">  5  6 -1 -1</clus>
<clus scale="   99.460">  7  8 -1 -1</clus>
<clus scale="  101.319">  1  5  2 -1</clus>
<clus scale="   23.760">  2  5  1 -1</clus>
</clustering>
</event>
<event>
10    3  0.5078224E-005  0.1019046E+03  0.7546771E-02  0.1279520E+00
          1   -1    0    0  503    0 -0.00000000000E+00  0.00000000000E+00  0.40141498737E+03  0.40141498737E+03  0.00000000000E+00 0. -1.
         21   -1    0    0  501  502  0.00000000000E+00 -0.00000000000E+00 -0.27055844610E+03  0.27055844610E+03  0.00000000000E+00 0. -1.
         23    2    1    2    0    0 -0.47410190013E+02  0.33989946488E+02  0.25300827766E+03  0.27462965543E+03  0.89471875451E+02 0.  0.
        -24    2    1    2    0    0  0.12481876873E+00 -0.39736669200E+02  0.58000313757E+02  0.10844855508E+03  0.82571388770E+02 0.  0.
         13    1    4    4    0    0 -0.15027724913E+02 -0.59546813559E+02  0.56520557950E+02  0.83463938273E+02  0.00000000000E+00 0. -1.
        -14    1    4    4    0    0  0.15152543682E+02  0.19810144359E+02  0.14797558066E+01  0.24984616803E+02  0.00000000000E+00 0.  1.
        -13    1    3    3    0    0  0.20693131488E+02 -0.31953534438E+01  0.10953268556E+03  0.11151603105E+03  0.00000000000E+00 0.  1.
         13    1    3    3    0    0 -0.68103321501E+02  0.37185299931E+02  0.14347559210E+03  0.16311362438E+03  0.00000000000E+00 0. -1.
         21    1    1    2  503  502 -0.13446788684E+02  0.57968935312E+02 -0.19807186052E+03  0.20681797677E+03  0.00000000000E+00 0. -1.
          2    1    1    2  501    0  0.60732159928E+02 -0.52222212600E+02  0.17919810376E+02  0.82077246191E+02  0.00000000000E+00 0. -1.
<scales pt_clust_5="13000.00000" pt_clust_6="13000.00000" pt_clust_7="13000.00000" pt_clust_8="13000.00000" pt_clust_9="59.50810" pt_clust_10="59.83599"></scales>
<clustering>
<clus scale="   59.508">  2  9  1 -1</clus>
<clus scale="   59.836">  2 10  1 -1</clus>
<clus scale="   82.571">  5  6 -1 -1</clus>
<clus scale="   89.472">  7  8 -1 -1</clus>
<clus scale="   95.903">  2  5  1 -1</clus>
<clus scale="   59.508">  2  5  1 -1</clus>
</clustering>
</event>
<event>
10    3  0.5078224E-005  0.1257037E+03  0.7546771E-02  0.1236015E+00
         -2   -1    0    0    0  501 -0.00000000000E+00  0.00000000000E+00  0.24378670494E+03  0.24378670494E+03  0.00000000000E+00 0.  1.
         21   -1    0    0  501  502  0.00000000000E+00 -0.00000000000E+00 -0.24054491555E+03  0.24054491555E+03  0.00000000000E+00 0.  1.
         23    2    1    2    0    0  0.82619137043E+02 -0.16085440015E+02  0.54846405334E+02  0.13578360400E+03  0.91347664173E+02 0.  0.
        -24    2    1    2    0    0 -0.92029001872E+02 -0.17703120034E+02  0.37083985074E+00  0.12593604359E+03  0.84124977905E+02 0.  0.
         11    1    4    4    0    0 -0.65797284439E+01  0.19366623706E+02 -0.22107804780E+02  0.30118332829E+02  0.00000000000E+00 0. -1.
        -12    1    4    4    0    0 -0.85449273428E+02 -0.37069743741E+02  0.22478644631E+02  0.95817710758E+02  0.00000000000E+00 0.  1.
        -13    1    3    3    0    0  0.15816935265E+02  0.35104654861E+02  0.27412643920E+02  0.47264841910E+02  0.00000000000E+00 0.  1.
         13    1    3    3    0    0  0.66802201778E+02 -0.51190094877E+02  0.27433761415E+02  0.88518762086E+02  0.00000000000E+00 0. -1.
         21    1    1    2  503  502 -0.36450533387E+02 -0.76108774138E+02 -0.59559274452E+02  0.10328840234E+03  0.00000000000E+00 0.  1.
         -1    1    1    2    0  503  0.45860398216E+02  0.10989733419E+03  0.75838186584E+01  0.11932357056E+03  0.00000000000E+00 0.  1.
<scales pt_clust_5="13000.00000" pt_clust_6="13000.00000" pt_clust_7="13000.00000" pt_clust_8="13000.00000" pt_clust_9="84.38713" pt_clust_10="89.50460"></scales>
<clustering>
<clus scale="   84.125">  5  6 -1 -1</clus>
<clus scale="   84.387">  2  9  1 -1</clus>
<clus scale="   89.505">  2 10  1 -1</clus>
<clus scale="   91.348">  7  8 -1 -1</clus>
<clus scale="  120.557">  2  5  1 -1</clus>
<clus scale="   84.387">  2  5  1 -1</clus>
</clustering>
</event>
<event>
10    3  0.5078224E-005  0.9182709E+02  0.7546771E-02  0.1301700E+00
         21   -1    0    0  503  502  0.00000000000E+00  0.00000000000E+00  0.13865100832E+03  0.13865100832E+03  0.00000000000E+00 0. -1.
          1   -1    0    0  502    0 -0.00000000000E+00 -0.00000000000E+00 -0.28443178087E+03  0.28443178087E+03  0.00000000000E+00 0. -1.
         23    2    1    2    0    0  0.36252689030E+02  0.56074857153E+01 -0.18023591437E+03  0.20411896030E+03  0.88509116855E+02 0.  0.
        -24    2    1    2    0    0  0.37463839644E+02  0.19246195553E+02  0.27645979275E+02  0.97108350311E+02  0.83016722447E+02 0.  0.
         13    1    4    4    0    0  0.54616965890E+02 -0.91261654696E+01  0.23824265311E+01  0.55425407670E+02  0.00000000000E+00 0. -1.
        -14    1    4    4    0    0 -0.17153126246E+02  0.28372361023E+02  0.25263552744E+02  0.41682942641E+02  0.00000000000E+00 0.  1.
        -13    1    3    3    0    0  0.54057658774E+02  0.19454287567E+02 -0.16981921152E+03  0.17927427138E+03  0.00000000000E+00 0. -1.
         13    1    3    3    0    0 -0.17804969744E+02 -0.13846801851E+02 -0.10416702844E+02  0.24844688914E+02  0.00000000000E+00 0.  1.
         21    1    1    2  503  501 -0.16024075115E+02 -0.43507726995E+02  0.31854667128E+02  0.56253116442E+02  0.00000000000E+00 0. -1.
          2    1    1    2  501    0 -0.57692453559E+02  0.18654045727E+02 -0.25045504582E+02  0.65602362148E+02  0.00000000000E+00 0. -1.
<scales pt_clust_5="13000.00000" pt_clust_6="13000.00000" pt_clust_7="13000.00000" pt_clust_8="13000.00000" pt_clust_9="46.36479" pt_clust_10="61.83502"></scales>
<clustering>
<clus scale="   46.365">  1  9  2 -1</clus>
<clus scale="   61.835">  1 10  2 -1</clus>
<clus scale="   83.017">  5  6 -1 -1</clus>
<clus scale="   86.546">  1  5  2 -1</clus>
<clus scale="   88.509">  7  8 -1 -1</clus>
<clus scale="   46.365">  1  5  2 -1</clus>
</clustering>
</event>
<event>
10    3  0.5078224E-005  0.9664606E+02  0.7546771E-02  0.1296234E+00
         21   -1    0    0  503  502  0.00000000000E+00  0.00000000000E+00  0.22475727071E+02  0.22475727071E+02  0.00000000000E+00 0.  1.
          1   -1    0    0  502    0 -0.00000000000E+00 -0.00000000000E+00 -0.94572881272E+03  0.94572881272E+03  0.00000000000E+00 0. -1.
        -24    2    1    2    0    0 -0.49431657355E+01  0.77531961002E+01 -0.54438617828E+03  0.55035598676E+03  0.80317209402E+02 0.  0.
         23    2    1    2    0    0  0.50446364994E+02 -0.25084217939E+02 -0.21295775232E+03  0.23994374520E+03  0.95120675219E+02 0.  0.
         11    1    3    3    0    0 -0.13327775456E+02 -0.34209636285E+02 -0.20239765048E+03  0.20570060217E+03  0.00000000000E+00 0. -1.
        -12    1    3    3    0    0  0.83846097204E+01  0.41962832385E+02 -0.34198852780E+03  0.34465538460E+03  0.00000000000E+00 0.  1.
        -11    1    4    4    0    0  0.89426035462E+01 -0.31300306985E+02 -0.12068575122E+02  0.34717861123E+02  0.00000000000E+00 0.  1.
         11    1    4    4    0    0  0.41503761448E+02  0.62160890458E+01 -0.20088917720E+03  0.20522588407E+03  0.00000000000E+00 0. -1.
         21    1    1    2  503  501 -0.26021142579E+02 -0.77931704522E+01 -0.42284054840E+02  0.50257085674E+02  0.00000000000E+00 0.  1.
          2    1    1    2  501    0 -0.19482056680E+02  0.25124192291E+02 -0.12362510021E+03  0.12764772216E+03  0.00000000000E+00 0. -1.
<scales pt_clust_5="13000.00000" pt_clust_6="13000.00000" pt_clust_7="13000.00000" pt_clust_8="13000.00000" pt_clust_9="27.16309" pt_clust_10="32.97276"></scales>
<clustering>
<clus scale="   27.163">  1  9  2 -1</clus>
<clus scale="   32.973">  1 10  2 -1</clus>
<clus scale="   80.317">  5  6 -1 -1</clus>
<clus scale="   82.118">  2  5  1 -1</clus>
<clus scale="   95.121">  7  8 -1 -1</clus>
<clus scale="   27.163">  1  5  2 -1</clus>
</clustering>
</event>
<event>
10    3  0.5078224E-005  0.3704637E+03  0.7546771E-02  0.1090121E+00
          1   -1    0    0  502    0 -0.00000000000E+00  0.00000000000E+00  0.10512554208E+04  0.10512554208E+04  0.00000000000E+00 0. -1.
         21   -1    0    0  503  502  0.00000000000E+00 -0.00000000000E+00 -0.28216517476E+03  0.28216517476E+03  0.00000000000E+00 0. -1.
         23    2    1    2    0    0 -0.35155724730E+02 -0.89104576270E+02  0.80405303450E+02  0.15843810055E+03  0.97273163767E+02 0.  0.
        -24    2    1    2    0    0 -0.11110063023E+03  0.41391815611E+03  0.65410082698E+03  0.78627133280E+03  0.81872626310E+02 0.  0.
         13    1    4    4    0    0 -0.43591100648E+02  0.27072656173E+03  0.46307349401E+03  0.53817294258E+03  0.00000000000E+00 0. -1.
        -14    1    4    4    0    0 -0.67509529579E+02  0.14319159438E+03  0.19102733298E+03  0.24809839022E+03  0.00000000000E+00 0.  1.
        -13    1    3    3    0    0 -0.58746483553E+02 -0.22770859393E+02  0.21283676006E+02  0.66503054304E+02  0.00000000000E+00 0. -1.
         13    1    3    3    0    0  0.23590758823E+02 -0.66333716877E+02  0.59121627444E+02  0.91935046245E+02  0.00000000000E+00 0.  1.
         21    1    1    2  503  501  0.91891626367E+00 -0.31468535100E+02 -0.42008410776E+02  0.52495901596E+02  0.00000000000E+00 0. -1.
          2    1    1    2  501    0  0.14533743869E+03 -0.29334504474E+03  0.76592526345E+02  0.33621526058E+03  0.00000000000E+00 0. -1.
<scales pt_clust_5="13000.00000" pt_clust_6="13000.00000" pt_clust_7="13000.00000" pt_clust_8="13000.00000" pt_clust_9="31.48195" pt_clust_10="361.30350"></scales>
<clustering>
<clus scale="   31.482">  2  9  1 -1</clus>
<clus scale="   81.873">  5  6 -1 -1</clus>
<clus scale="   97.273">  7  8 -1 -1</clus>
<clus scale="  139.949">  1  7  2 -1</clus>
<clus scale="  361.303">  2 10  1 -1</clus>
<clus scale="   31.482">  2  5  1 -1</clus>
</clustering>
</event>
<event>
10    3  0.5078224E-005  0.1635733E+03  0.7546771E-02  0.1185264E+00
          1   -1    0    0  503    0 -0.00000000000E+00  0.00000000000E+00  0.94866569599E+03  0.94866569599E+03  0.00000000000E+00 0. -1.
         21   -1    0    0  501  502  0.00000000000E+00 -0.00000000000E+00 -0.72921294608E+02  0.72921294608E+02  0.00000000000E+00 0. -1.
        -24    2    1    2    0    0  0.24057810246E+02  0.14782010734E+03  0.46924534306E+03  0.49924039589E+03  0.81364725341E+02 0.  0.
         23    2    1    2    0    0 -0.64638124453E+02 -0.10969594859E+03  0.19054900675E+03  0.24450083435E+03  0.85208249313E+02 0.  0.
         13    1    3    3    0    0  0.44578553511E+02  0.12594715364E+03  0.31592171027E+03  0.34301087441E+03  0.00000000000E+00 0. -1.
        -14    1    3    3    0    0 -0.20520743265E+02  0.21872953698E+02  0.15332363279E+03  0.15622952147E+03  0.00000000000E+00 0.  1.
        -13    1    4    4    0    0 -0.16603685315E+02 -0.99834440908E+02  0.10459361943E+03  0.14554182623E+03  0.00000000000E+00 0. -1.
         13    1    4    4    0    0 -0.48034439139E+02 -0.98615076832E+01  0.85955387319E+02  0.98959008111E+02  0.00000000000E+00 0.  1.
         21    1    1    2  503  502  0.57462513096E+02 -0.92163046006E+02  0.94973450408E+02  0.14427724610E+03  0.00000000000E+00 0. -1.
          2    1    1    2  501    0 -0.16882198889E+02  0.54038887254E+02  0.12097660116E+03  0.13356851427E+03  0.00000000000E+00 0. -1.
<scales pt_clust_5="13000.00000" pt_clust_6="13000.00000" pt_clust_7="13000.00000" pt_clust_8="13000.00000" pt_clust_9="88.49480" pt_clust_10="56.61460"></scales>
<clustering>
<clus scale="   56.615">  2 10  1 -1</clus>
<clus scale="   81.365">  5  6 -1 -1</clus>
<clus scale="   85.208">  7  8 -1 -1</clus>
<clus scale="   88.495">  2  9  1 -1</clus>
<clus scale="  161.604">  1  5  2 -1</clus>
<clus scale="   56.615">  2  5  1 -1</clus>
</clustering>
</event>
<event>
10    3  0.5078224E-005  0.1361792E+03  0.7546771E-02  0.1218835E+00
         21   -1    0    0  501  502  0.00000000000E+00  0.00000000000E+00  0.12883447065E+03  0.12883447065E+03  0.00000000000E+00 0. -1.
          1   -1    0    0  503    0 -0.00000000000E+00 -0.00000000000E+00 -0.84435002732E+03  0.84435002732E+03  0.00000000000E+00 0. -1.
        -24    2    1    2    0    0  0.13482380883E+02 -0.11892205254E+03 -0.75926720524E+02  0.15924597126E+03  0.72596028113E+02 0.  0.
         23    2    1    2    0    0  0.38286437243E+02  0.10732041335E+03 -0.26082279239E+02  0.13836069020E+03  0.74026163652E+02 0.  0.
         11    1    3    3    0    0  0.11989150166E+02 -0.12903399812E+03 -0.72338568646E+02  0.14841287312E+03  0.00000000000E+00 0. -1.
        -12    1    3    3    0    0  0.14932307171E+01  0.10111945582E+02 -0.35881518777E+01  0.10833098141E+02  0.00000000000E+00 0.  1.
        -11    1    4    4    0    0  0.55839677029E+02  0.55685782800E+02 -0.28284875805E+02  0.83779532918E+02  0.00000000000E+00 0. -1.
         11    1    4    4    0    0 -0.17553239785E+02  0.51634630550E+02  0.22025965656E+01  0.54581157286E+02  0.00000000000E+00 0.  1.
         21    1    1    2  503  502  0.25382579692E+02  0.22004419388E+02  0.18800880414E+02  0.38496011855E+02  0.00000000000E+00 0. -1.
          2    1    1    2  501    0 -0.77151397818E+02 -0.10402780198E+02 -0.63230743732E+03  0.63708182466E+03  0.00000000000E+00 0. -1.
<scales pt_clust_5="13000.00000" pt_clust_6="13000.00000" pt_clust_7="13000.00000" pt_clust_8="13000.00000" pt_clust_9="33.59270" pt_clust_10="77.18141"></scales>
<clustering>
<clus scale="   33.593">  1  9  2 -1</clus>
<clus scale="   72.596">  5  6 -1 -1</clus>
<clus scale="   74.026">  7  8 -1 -1</clus>
<clus scale="   77.181">  1 10  2 -1</clus>
<clus scale="  135.407">  2  5  1 -1</clus>
<clus scale="   33.593">  1  5  2 -1</clus>
</clustering>
</event>
<event>
10    3  0.5078224E-005  0.1319351E+03  0.7546771E-02  0.1243998E+00
         21   -1    0    0  503  502  0.00000000000E+00  0.00000000000E+00  0.73486944212E+02  0.73486944212E+02  0.00000000000E+00 0.  1.
          1   -1    0    0  502    0 -0.00000000000E+00 -0.00000000000E+00 -0.70086581498E+03  0.70086581498E+03  0.00000000000E+00 0. -1.
        -24    2    1    2    0    0 -0.35179496609E+02 -0.13504740604E+02 -0.48771568524E+03  0.49570934185E+03  0.80257005710E+02 0.  0.
         23    2    1    2    0    0 -0.47623547502E+02 -0.53164985205E+02 -0.12122782369E+03  0.16768893453E+03  0.91262673641E+02 0.  0.
         13    1    3    3    0    0 -0.41347605826E+02  0.14371828812E+02 -0.13677292827E+03  0.14360713032E+03  0.00000000000E+00 0. -1.
        -14    1    3    3    0    0  0.61681092170E+01 -0.27876569415E+02 -0.35094275697E+03  0.35210221153E+03  0.00000000000E+00 0.  1.
        -13    1    4    4    0    0 -0.40013535015E+02 -0.77041668449E+02 -0.73360725796E+02  0.11365868973E+03  0.00000000000E+00 0.  1.
         13    1    4    4    0    0 -0.76100124872E+01  0.23876683245E+02 -0.47867097891E+02  0.54030244802E+02  0.00000000000E+00 0. -1.
         21    1    1    2  503  501  0.34721639819E+02  0.26352409493E+02  0.52088920186E+01  0.43899593550E+02  0.00000000000E+00 0. -1.
          2    1    1    2  501    0  0.48081404292E+02  0.40317316315E+02 -0.23644253861E+02  0.67054889264E+02  0.00000000000E+00 0. -1.
<scales pt_clust_5="13000.00000" pt_clust_6="13000.00000" pt_clust_7="13000.00000" pt_clust_8="13000.00000" pt_clust_9="21.57128" pt_clust_10="98.73111"></scales>
<clustering>
<clus scale="   21.571">  9 10 -1 -1</clus>
<clus scale="   80.257">  5  6 -1 -1</clus>
<clus scale="   88.663">  2  5  1 -1</clus>
<clus scale="   91.263">  7  8 -1 -1</clus>
<clus scale="   98.731">  1  9  2 -1</clus>
<clus scale="   98.731">  1  5  2 -1</clus>
</clustering>
</event>
<event>
10    3  0.5078224E-005  0.1397307E+03  0.7546771E-02  0.1223602E+00
         21   -1    0    0  501  502  0.00000000000E+00  0.00000000000E+00  0.67148232915E+02  0.67148232915E+02  0.00000000000E+00 0.  1.
         -2   -1    0    0    0  501 -0.00000000000E+00 -0.00000000000E+00 -0.11491609923E+04  0.11491609923E+04  0.00000000000E+00 0.  1.
         23    2    1    2    0    0 -0.21753573706E+01 -0.54473988888E+02 -0.12201908371E+03  0.16252942341E+03  0.92493291873E+02 0.  0.
        -24    2    1    2    0    0  0.85415575638E+02 -0.37435946665E+02 -0.39419525567E+03  0.41298372517E+03  0.80426283037E+02 0.  0.
         13    1    4    4    0    0  0.62421010299E+02  0.13414167876E+02 -0.16085494383E+03  0.17306251871E+03  0.00000000000E+00 0. -1.
        -14    1    4    4    0    0  0.22994565338E+02 -0.50850114541E+02 -0.23334031184E+03  0.23992120647E+03  0.00000000000E+00 0.  1.
        -11    1    3    3    0    0  0.90213707159E+01 -0.78870670195E+02 -0.80266673690E+02  0.11289245613E+03  0.00000000000E+00 0.  1.
         11    1    3    3    0    0 -0.11196728086E+02  0.24396681306E+02 -0.41752410017E+02  0.49636967281E+02  0.00000000000E+00 0. -1.
         21    1    1    2  503  502  0.10553988458E+02 -0.21178840898E+02  0.23565079988E+02  0.33395253690E+02  0.00000000000E+00 0. -1.
         -1    1    1    2    0  503 -0.93794206726E+02  0.11308877645E+03 -0.58936350003E+03  0.60740082296E+03  0.00000000000E+00 0.  1.
<scales pt_clust_5="13000.00000" pt_clust_6="13000.00000" pt_clust_7="13000.00000" pt_clust_8="13000.00000" pt_clust_9="23.66284" pt_clust_10="114.26418"></scales>
<clustering>
<clus scale="   23.663">  1  9  2 -1</clus>
<clus scale="   80.426">  5  6 -1 -1</clus>
<clus scale="   92.493">  7  8 -1 -1</clus>
<clus scale="  113.426">  2  7  1 -1</clus>
<clus scale="  114.264">  1 10  2 -1</clus>
<clus scale="   23.663">  1  5  2 -1</clus>
</clustering>
</event>
<event>
10    3  0.5078224E-005  0.9465724E+02  0.7546771E-02  0.1296610E+00
         -4   -1    0    0    0  501 -0.00000000000E+00  0.00000000000E+00  0.31031491656E+02  0.31031491656E+02  0.00000000000E+00 0.  1.
         21   -1    0    0  503  502  0.00000000000E+00 -0.00000000000E+00 -0.15382375114E+04  0.15382375114E+04  0.00000000000E+00 0.  1.
         23    2    1    2    0    0  0.20690882987E+02  0.29529011783E+01 -0.92907441388E+02  0.13131402187E+03  0.90414309761E+02 0.  0.
        -24    2    1    2    0    0 -0.64576855831E+02  0.60870978976E+02 -0.63336205822E+03  0.64480341708E+03  0.82149275702E+02 0.  0.
         11    1    4    4    0    0 -0.27846594060E+02 -0.16366346254E+02 -0.11571027882E+03  0.12013391992E+03  0.00000000000E+00 0. -1.
        -12    1    4    4    0    0 -0.36730261772E+02  0.77237325230E+02 -0.51765177940E+03  0.52466949717E+03  0.00000000000E+00 0.  1.
        -11    1    3    3    0    0 -0.18897852642E+02 -0.15101291612E+02  0.45226071367E+01  0.24609587931E+02  0.00000000000E+00 0.  1.
         11    1    3    3    0    0  0.39588735630E+02  0.18054192790E+02 -0.97430048524E+02  0.10670443394E+03  0.00000000000E+00 0. -1.
         21    1    1    2  503  501  0.42027523073E+02 -0.83913620221E+02 -0.75224403920E+03  0.75807578965E+03  0.00000000000E+00 0.  1.
         -3    1    1    2    0  502  0.18584497714E+01  0.20089740067E+02 -0.28692480988E+02  0.35075774500E+02  0.00000000000E+00 0.  1.
<scales pt_clust_5="13000.00000" pt_clust_6="13000.00000" pt_clust_7="13000.00000" pt_clust_8="13000.00000" pt_clust_9="85.42937" pt_clust_10="20.17553"></scales>
<clustering>
<clus scale="   20.176">  2 10  1 -1</clus>
<clus scale="   82.149">  5  6 -1 -1</clus>
<clus scale="   85.429">  2  9  1 -1</clus>
<clus scale="   86.797">  2  5  1 -1</clus>
<clus scale="   90.414">  7  8 -1 -1</clus>
<clus scale="   20.176">  2  5  1 -1</clus>
</clustering>
</event>
<event>
10    3  0.5078224E-005  0.2461987E+03  0.7546771E-02  0.1116413E+00
         -4   -1    0    0    0  501 -0.00000000000E+00  0.00000000000E+00  0.40092504883E+03  0.40092504883E+03  0.00000000000E+00 0.  1.
         21   -1    0    0  503  502  0.00000000000E+00 -0.00000000000E+00 -0.77964084960E+03  0.77964084960E+03  0.00000000000E+00 0.  1.
        -24    2    1    2    0    0 -0.29285152295E+02 -0.20085380760E+03  0.31398291128E+03  0.38232959803E+03  0.79942359128E+02 0.  0.
         23    2    1    2    0    0  0.72194182224E+02  0.12090004366E+03 -0.34235938133E+03  0.38141473385E+03  0.91860942219E+02 0.  0.
         11    1    3    3    0    0 -0.25378353671E+02 -0.10084632696E+02  0.41616628627E+02  0.49776544978E+02  0.00000000000E+00 0. -1.
        -12    1    3    3    0    0 -0.39067986241E+01 -0.19076917491E+03  0.27236628265E+03  0.33255305306E+03  0.00000000000E+00 0.  1.
        -11    1    4    4    0    0  0.67975997484E+01  0.81800793413E+02 -0.24110896699E+03  0.25469807837E+03  0.00000000000E+00 0.  1.
         11    1    4    4    0    0  0.65396582476E+02  0.39099250251E+02 -0.10125041434E+03  0.12671665547E+03  0.00000000000E+00 0. -1.
         21    1    1    2  503  501 -0.14888440538E+02 -0.49412647769E+02 -0.11258539730E+02  0.52820735872E+02  0.00000000000E+00 0. -1.
         -3    1    1    2    0  502 -0.28020589391E+02  0.12936641171E+03 -0.33908079099E+03  0.36400083067E+03  0.00000000000E+00 0.  1.
<scales pt_clust_5="13000.00000" pt_clust_6="13000.00000" pt_clust_7="13000.00000" pt_clust_8="13000.00000" pt_clust_9="51.60693" pt_clust_10="130.88922"></scales>
<clustering>
<clus scale="   51.607">  1  9  2 -1</clus>
<clus scale="   79.942">  5  6 -1 -1</clus>
<clus scale="   91.861">  7  8 -1 -1</clus>
<clus scale="  130.889">  2 10  1 -1</clus>
<clus scale="  242.004">  1  5  2 -1</clus>
<clus scale="  130.889">  2  5  1 -1</clus>
</clustering>
</event>
<event>
10    3  0.5078224E-005  0.1921064E+03  0.7546771E-02  0.1185656E+00
         21   -1    0    0  501  502  0.00000000000E+00  0.00000000000E+00  0.14086018074E+03  0.14086018074E+03  0.00000000000E+00 0. -1.
          3   -1    0    0  503    0 -0.00000000000E+00 -0.00000000000E+00 -0.68816392602E+03  0.68816392602E+03  0.00000000000E+00 0. -1.
        -24    2    1    2    0    0 -0.52618347087E+02 -0.26860368053E+02 -0.23971049606E+03  0.25990520360E+03  0.81236833494E+02 0.  0.
         23    2    1    2    0    0 -0.37873540128E+02  0.16568469564E+03 -0.18679479469E+03  0.26811577813E+03  0.90044165541E+02 0.  0.
         13    1    3    3    0    0 -0.51358326196E+02 -0.33310349420E+02 -0.83388630359E+02  0.10344525471E+03  0.00000000000E+00 0. -1.
        -14    1    3    3    0    0 -0.12600208911E+01  0.64499813668E+01 -0.15632186570E+03  0.15645994890E+03  0.00000000000E+00 0.  1.
        -11    1    4    4    0    0 -0.34183185343E+02  0.11894964184E+03 -0.69827702002E+02  0.14210353768E+03  0.00000000000E+00 0. -1.
         11    1    4    4    0    0 -0.36903547850E+01  0.46735053808E+02 -0.11696709269E+03  0.12601224046E+03  0.00000000000E+00 0.  1.
         21    1    1    2  503  502  0.17408366516E+02  0.16217892026E+02  0.52264686292E+02  0.57425331342E+02  0.00000000000E+00 0. -1.
          4    1    1    2  501    0  0.73083520699E+02 -0.15504221962E+03 -0.17306314083E+03  0.24357779368E+03  0.00000000000E+00 0. -1.
<scales pt_clust_5="13000.00000" pt_clust_6="13000.00000" pt_clust_7="13000.00000" pt_clust_8="13000.00000" pt_clust_9="23.79225" pt_clust_10="169.69652"></scales>
<clustering>
<clus scale="   23.792">  1  9  2 -1</clus>
<clus scale="   81.237">  5  6 -1 -1</clus>
<clus scale="   90.044">  7  8 -1 -1</clus>
<clus scale="   98.894">  2  5  1 -1</clus>
<clus scale="  169.697">  1 10  2 -1</clus>
<clus scale="   23.792">  1  5  2 -1</clus>
</clustering>
</event>
<event>
10    3  0.5078224E-005  0.2278481E+03  0.7546771E-02  0.1128822E+00
         21   -1    0    0  503  502  0.00000000000E+00  0.00000000000E+00  0.41295941438E+03  0.41295941438E+03  0.00000000000E+00 0.  1.
          1   -1    0    0  502    0 -0.00000000000E+00 -0.00000000000E+00 -0.23115455488E+04  0.23115455488E+04  0.00000000000E+00 0. -1.
        -24    2    1    2    0    0  0.19503113831E+03  0.77762392601E+02 -0.92894227818E+03  0.95583792755E+03  0.81291161544E+02 0.  0.
         23    2    1    2    0    0 -0.10419744558E+03 -0.23272986197E+03 -0.57462877957E+03  0.63520246115E+03  0.90904543429E+02 0.  0.
         11    1    3    3    0    0  0.19261372421E+03  0.56594176104E+02 -0.78194930316E+03  0.80730890013E+03  0.00000000000E+00 0. -1.
        -12    1    3    3    0    0  0.24174140952E+01  0.21168216497E+02 -0.14699297502E+03  0.14852902742E+03  0.00000000000E+00 0.  1.
        -13    1    4    4    0    0  0.84368555581E+01 -0.23641022296E+02 -0.20801334181E+02  0.32600214273E+02  0.00000000000E+00 0.  1.
         13    1    4    4    0    0 -0.11263430114E+03 -0.20908883967E+03 -0.55382744539E+03  0.60260224687E+03  0.00000000000E+00 0. -1.
         21    1    1    2  503  501  0.38804333371E+02  0.46083453617E+02  0.35729607327E+03  0.36233954375E+03  0.00000000000E+00 0.  1.
          2    1    1    2  501    0 -0.12963802610E+03  0.10888401575E+03 -0.75231114992E+03  0.77112503071E+03  0.00000000000E+00 0. -1.
<scales pt_clust_5="13000.00000" pt_clust_6="13000.00000" pt_clust_7="13000.00000" pt_clust_8="13000.00000" pt_clust_9="60.24501" pt_clust_10="169.62012"></scales>
<clustering>
<clus scale="   60.245">  1  9  2 -1</clus>
<clus scale="   81.291">  5  6 -1 -1</clus>
<clus scale="   90.905">  7  8 -1 -1</clus>
<clus scale="  169.620">  1 10  2 -1</clus>
<clus scale="  224.186">  2  5  1 -1</clus>
<clus scale="   60.245">  1  5  2 -1</clus>
</clustering>
</event>
<event>
10    3  0.5078224E-005  0.1413751E+03  0.7546771E-02  0.1213641E+00
         21   -1    0    0  503  502  0.00000000000E+00  0.00000000000E+00  0.48360816721E+02  0.48360816721E+02  0.00000000000E+00 0.  1.
          1   -1    0    0  502    0 -0.00000000000E+00 -0.00000000000E+00 -0.93903386120E+03  0.93903386120E+03  0.00000000000E+00 0. -1.
         23    2    1    2    0    0  0.76408338156E+02  0.92864488859E+02 -0.58380956249E+03  0.60290871656E+03  0.90571893092E+02 0.  0.
        -24    2    1    2    0    0 -0.35281773387E+02 -0.65610225007E+02 -0.75687935296E+02  0.13317109833E+03  0.80351557070E+02 0.  0.
         13    1    4    4    0    0  0.21545785750E+02  0.93006353313E+00 -0.20255401278E+02  0.29586604785E+02  0.00000000000E+00 0. -1.
        -14    1    4    4    0    0 -0.56827559137E+02 -0.66540288540E+02 -0.55432534018E+02  0.10358449355E+03  0.00000000000E+00 0.  1.
        -11    1    3    3    0    0  0.53376039079E+01  0.77372571803E+02 -0.28373436325E+03  0.29414315184E+03  0.00000000000E+00 0.  1.
         11    1    3    3    0    0  0.71070734248E+02  0.15491917056E+02 -0.30007519924E+03  0.30876556472E+03  0.00000000000E+00 0. -1.
         21    1    1    2  503  501  0.86508299434E+00  0.28100128583E+02 -0.51506270686E+02  0.58679310791E+02  0.00000000000E+00 0.  1.
          2    1    1    2  501    0 -0.41991647763E+02 -0.55354392436E+02 -0.17966927600E+03  0.19263555223E+03  0.00000000000E+00 0. -1.
<scales pt_clust_5="13000.00000" pt_clust_6="13000.00000" pt_clust_7="13000.00000" pt_clust_8="13000.00000" pt_clust_9="28.11344" pt_clust_10="66.20432"></scales>
<clustering>
<clus scale="   28.113">  1  9  2 -1</clus>
<clus scale="   66.204">  1 10  2 -1</clus>
<clus scale="   80.352">  5  6 -1 -1</clus>
<clus scale="   90.572">  7  8 -1 -1</clus>
<clus scale="  135.056">  1  5  2 -1</clus>
<clus scale="   28.113">  1  5  2 -1</clus>
</clustering>
</event>
<event>
10    3  0.5078224E-005  0.2575290E+03  0.7546771E-02  0.1109195E+00
          1   -1    0    0  503    0 -0.00000000000E+00  0.00000000000E+00  0.12445431213E+04  0.12445431213E+04  0.00000000000E+00 0. -1.
         21   -1    0    0  501  502  0.00000000000E+00 -0.00000000000E+00 -0.42979116762E+03  0.42979116762E+03  0.00000000000E+00 0. -1.
         23    2    1    2    0    0 -0.41826029962E+02 -0.20940897096E+03  0.50245825753E+03  0.55376549982E+03  0.92684380167E+02 0.  0.
        -24    2    1    2    0    0  0.11995599272E+03  0.28440686039E+03  0.35026948048E+03  0.47401770361E+03  0.82020558128E+02 0.  0.
         13    1    4    4    0    0  0.12623947718E+03  0.25189852931E+03  0.33446708827E+03  0.43732997588E+03  0.00000000000E+00 0. -1.
        -14    1    4    4    0    0 -0.62834844596E+01  0.32508331074E+02  0.15802392203E+02  0.36687727724E+02  0.00000000000E+00 0.  1.
        -11    1    3    3    0    0  0.24321876365E+02 -0.20824686449E+02  0.53749953847E+02  0.62564197223E+02  0.00000000000E+00 0.  1.
         11    1    3    3    0    0 -0.66147906328E+02 -0.18858428451E+03  0.44870830369E+03  0.49120130260E+03  0.00000000000E+00 0. -1.
         21    1    1    2  503  502 -0.37879327839E+02 -0.19582591221E+03 -0.29708790722E+03  0.35783216175E+03  0.00000000000E+00 0. -1.
          2    1    1    2  501    0 -0.40250634919E+02  0.12082802278E+03  0.25911212284E+03  0.28871892370E+03  0.00000000000E+00 0. -1.
<scales pt_clust_5="13000.00000" pt_clust_6="13000.00000" pt_clust_7="13000.00000" pt_clust_8="13000.00000" pt_clust_9="122.25598" pt_clust_10="127.35596"></scales>
<clustering>
<clus scale="   82.021">  5  6 -1 -1</clus>
<clus scale="   92.684">  7  8 -1 -1</clus>
<clus scale="  127.356">  2 10  1 -1</clus>
<clus scale="  122.256">  2  9  1 -1</clus>
<clus scale="  253.886">  2  5  1 -1</clus>
<clus scale="  127.356">  2  5  1 -1</clus>
</clustering>
</event>
<event>
10    3  0.6061825E-005  0.3137456E+03  0.7546771E-02  0.1129004E+00
         21   -1    0    0  503  502  0.00000000000E+00  0.00000000000E+00  0.41293977884E+03  0.41293977884E+03  0.00000000000E+00 0. -1.
         -4   -1    0    0    0  501 -0.00000000000E+00 -0.00000000000E+00 -0.65632457328E+03  0.65632457328E+03  0.00000000000E+00 0.  1.
        -24    2    1    2    0    0  0.22201455431E+02 -0.31462655263E+01 -0.83439811786E+02  0.11957701443E+03  0.82665933604E+02 0.  0.
         23    2    1    2    0    0 -0.26760665457E+03  0.13638469803E+03  0.20229191443E+03  0.37350686558E+03  0.91494549368E+02 0.  0.
         11    1    3    3    0    0  0.43731052975E+02 -0.21514639633E+02 -0.25293821801E+02  0.54909581442E+02  0.00000000000E+00 0. -1.
        -12    1    3    3    0    0 -0.21529597543E+02  0.18368374107E+02 -0.58145989985E+02  0.64667432986E+02  0.00000000000E+00 0.  1.
        -13    1    4    4    0    0 -0.11815330583E+03  0.35893192761E+02  0.36624095184E+02  0.12880158894E+03  0.00000000000E+00 0.  1.
         13    1    4    4    0    0 -0.14945334873E+03  0.10049150527E+03  0.16566781925E+03  0.24470527664E+03  0.00000000000E+00 0. -1.
         21    1    1    2  503  501 -0.19445894829E+02 -0.33696519801E+02  0.57837678566E+02  0.69705059603E+02  0.00000000000E+00 0.  1.
         -3    1    1    2    0  502  0.26485109396E+03 -0.99541912702E+02 -0.42007457566E+03  0.50647541250E+03  0.00000000000E+00 0.  1.
<scales pt_clust_5="13000.00000" pt_clust_6="13000.00000" pt_clust_7="13000.00000" pt_clust_8="13000.00000" pt_clust_9="38.90499" pt_clust_10="300.10858"></scales>
<clustering>
<clus scale="   38.905">  1  9  2 -1</clus>
<clus scale="   82.666">  5  6 -1 -1</clus>
<clus scale="   85.480">  2  5  1 -1</clus>
<clus scale="   91.495">  7  8 -1 -1</clus>
<clus scale="  300.109">  1 10  2 -1</clus>
<clus scale="   38.905">  1  5  2 -1</clus>
</clustering>
</event>
<event>
10    3  0.5078224E-005  0.3142076E+03  0.7546771E-02  0.1092230E+00
         21   -1    0    0  503  502  0.00000000000E+00  0.00000000000E+00  0.83797447664E+03  0.83797447664E+03  0.00000000000E+00 0.  1.
         -2   -1    0    0    0  501 -0.00000000000E+00 -0.00000000000E+00 -0.63338996012E+03  0.63338996012E+03  0.00000000000E+00 0.  1.
         23    2    1    2    0    0  0.14076150773E+03 -0.13945839849E+03 -0.32499634720E+03  0.39076688892E+03  0.88395072333E+02 0.  0.
        -24    2    1    2    0    0 -0.25479960159E+03 -0.99183134017E+02  0.11413666743E+03  0.30769164144E+03  0.82986964748E+02 0.  0.
         13    1    4    4    0    0 -0.23825988316E+03 -0.79499870606E+02  0.12405054038E+03  0.28013664151E+03  0.00000000000E+00 0. -1.
        -14    1    4    4    0    0 -0.16539718435E+02 -0.19683263411E+02 -0.99138729522E+01  0.27554999933E+02  0.00000000000E+00 0.  1.
        -11    1    3    3    0    0  0.81164814545E+02 -0.29295110294E+02 -0.91317506602E+02  0.12563764412E+03  0.00000000000E+00 0.  1.
         11    1    3    3    0    0  0.59596693182E+02 -0.11016328820E+03 -0.23367884060E+03  0.26512924480E+03  0.00000000000E+00 0. -1.
         21    1    1    2  503  501 -0.20442645541E+03  0.11906786758E+03  0.35621209126E+03  0.42761476439E+03  0.00000000000E+00 0.  1.
         -1    1    1    2    0  502  0.31846454927E+03  0.11957366493E+03  0.59232105025E+02  0.34529114202E+03  0.00000000000E+00 0.  1.
<scales pt_clust_5="13000.00000" pt_clust_6="13000.00000" pt_clust_7="13000.00000" pt_clust_8="13000.00000" pt_clust_9="211.81483" pt_clust_10="303.05051"></scales>
<clustering>
<clus scale="   82.987">  5  6 -1 -1</clus>
<clus scale="   88.395">  7  8 -1 -1</clus>
<clus scale="  216.970">  2  7  1 -1</clus>
<clus scale="  211.815">  1  9  2 -1</clus>
<clus scale="  303.051">  1 10  2 -1</clus>
<clus scale="  211.815">  1  5  2 -1</clus>
</clustering>
</event>
<event>
10    3  0.5078224E-005  0.5952269E+03  0.7546771E-02  0.1052181E+00
         21   -1    0    0  501  502  0.00000000000E+00  0.00000000000E+00  0.26110353333E+04  0.26110353333E+04  0.00000000000E+00 0.  1.
         -4   -1    0    0    0  501 -0.00000000000E+00 -0.00000000000E+00 -0.37182943028E+03  0.37182943028E+03  0.00000000000E+00 0.  1.
         23    2    1    2    0    0  0.47202021127E+02 -0.18295642907E+02 -0.13961069856E+03  0.16910891190E+03  0.80894471905E+02 0.  0.
        -24    2    1    2    0    0 -0.54150037321E+02  0.49083429728E+03  0.16960012577E+04  0.17682372575E+04  0.79951227879E+02 0.  0.
         13    1    4    4    0    0  0.11107315079E+02  0.32391402751E+02  0.17458772728E+03  0.17791416452E+03  0.00000000000E+00 0. -1.
        -14    1    4    4    0    0 -0.65257352399E+02  0.45844289453E+03  0.15214135304E+04  0.15903230930E+04  0.00000000000E+00 0.  1.
        -11    1    3    3    0    0  0.62426639875E+02 -0.93981406299E+00 -0.12977849030E+03  0.14401536432E+03  0.00000000000E+00 0.  1.
         11    1    3    3    0    0 -0.15224618748E+02 -0.17355828844E+02 -0.98322082597E+01  0.25093547580E+02  0.00000000000E+00 0. -1.
         21    1    1    2  503  502  0.10842510268E+02  0.13784248885E+03  0.28546016839E+03  0.31718388909E+03  0.00000000000E+00 0. -1.
         -3    1    1    2    0  503 -0.38944940744E+01 -0.61038114322E+03  0.39735517546E+03  0.72833470503E+03  0.00000000000E+00 0.  1.
<scales pt_clust_5="13000.00000" pt_clust_6="13000.00000" pt_clust_7="13000.00000" pt_clust_8="13000.00000" pt_clust_9="137.25347" pt_clust_10="589.83325"></scales>
<clustering>
<clus scale="   79.951">  5  6 -1 -1</clus>
<clus scale="   80.894">  7  8 -1 -1</clus>
<clus scale="   95.429">  2  7  1 -1</clus>
<clus scale="  137.253">  1  9  2 -1</clus>
<clus scale="  589.833">  1 10  2 -1</clus>
<clus scale="  137.253">  1  5  2 -1</clus>
</clustering>
</event>
<event>
10    3  0.5078224E-005  0.3315786E+03  0.7546771E-02  0.1102026E+00
         21   -1    0    0  501  502  0.00000000000E+00  0.00000000000E+00  0.24132701083E+03  0.24132701083E+03  0.00000000000E+00 0.  1.
          1   -1    0    0  503    0 -0.00000000000E+00 -0.00000000000E+00 -0.10467320489E+04  0.10467320489E+04  0.00000000000E+00 0. -1.
        -24    2    1    2    0    0  0.47195557094E+02 -0.11956245770E+03 -0.33696177821E+03  0.36705214425E+03  0.68274700459E+02 0.  0.
         23    2    1    2    0    0 -0.13460284068E+03  0.29792773352E+03 -0.24584355883E+02  0.34069825435E+03  0.92693316066E+02 0.  0.
         11    1    3    3    0    0  0.61051080951E+02 -0.85373257761E+02 -0.20891909090E+03  0.23380122790E+03  0.00000000000E+00 0. -1.
        -12    1    3    3    0    0 -0.13855523857E+02 -0.34189199941E+02 -0.12804268731E+03  0.13325091635E+03  0.00000000000E+00 0.  1.
        -11    1    4    4    0    0 -0.12319930600E+03  0.24989952056E+03 -0.53184050326E+02  0.28364834317E+03  0.00000000000E+00 0.  1.
         11    1    4    4    0    0 -0.11403534687E+02  0.48028212960E+02  0.28599694443E+02  0.57049911181E+02  0.00000000000E+00 0. -1.
         21    1    1    2  503  502 -0.30781590758E+02  0.29741138932E+02  0.28055187080E+02  0.51177487205E+02  0.00000000000E+00 0.  1.
          2    1    1    2  501    0  0.11818887435E+03 -0.20810641475E+03 -0.47191409102E+03  0.52913117389E+03  0.00000000000E+00 0. -1.
<scales pt_clust_5="13000.00000" pt_clust_6="13000.00000" pt_clust_7="13000.00000" pt_clust_8="13000.00000" pt_clust_9="42.80236" pt_clust_10="318.35894"></scales>
<clustering>
<clus scale="   42.802">  1  9  2 -1</clus>
<clus scale="   68.275">  5  6 -1 -1</clus>
<clus scale="   92.693">  7  8 -1 -1</clus>
<clus scale="  142.993">  2  5  1 -1</clus>
<clus scale="  318.359">  1 10  2 -1</clus>
<clus scale="   42.802">  1  5  2 -1</clus>
</clustering>
</event>
<event>
10    3  0.5078224E-005  0.2304207E+03  0.7546771E-02  0.1138881E+00
         21   -1    0    0  501  502  0.00000000000E+00  0.00000000000E+00  0.96917225078E+02  0.96917225078E+02  0.00000000000E+00 0.  1.
         -2   -1    0    0    0  501 -0.00000000000E+00 -0.00000000000E+00 -0.13739190284E+04  0.13739190284E+04  0.00000000000E+00 0.  1.
        -24    2    1    2    0    0  0.14642445207E+03 -0.15097669619E+02 -0.32739185869E+03  0.36762732935E+03  0.79349633648E+02 0.  0.
         23    2    1    2    0    0 -0.16023748195E+03  0.23378991300E+03 -0.67834049196E+03  0.74067139416E+03  0.90080614220E+02 0.  0.
         13    1    3    3    0    0  0.41500443732E+02 -0.40287463240E+02 -0.13841122967E+03  0.15001011640E+03  0.00000000000E+00 0. -1.
        -14    1    3    3    0    0  0.10492400834E+03  0.25189793621E+02 -0.18898062902E+03  0.21761721295E+03  0.00000000000E+00 0.  1.
        -13    1    4    4    0    0 -0.15955957628E+03  0.17173175756E+03 -0.51134368977E+03  0.56251526557E+03  0.00000000000E+00 0.  1.
         13    1    4    4    0    0 -0.67790567561E+00  0.62058155438E+02 -0.16699680219E+03  0.17815612859E+03  0.00000000000E+00 0. -1.
         21    1    1    2  503  502  0.55860275450E+01 -0.37613614169E+02 -0.21783379090E+01  0.38088486851E+02  0.00000000000E+00 0.  1.
         -1    1    1    2    0  503  0.82270023388E+01 -0.18107862921E+03 -0.26909111471E+03  0.32444904306E+03  0.00000000000E+00 0.  1.
<scales pt_clust_5="13000.00000" pt_clust_6="13000.00000" pt_clust_7="13000.00000" pt_clust_8="13000.00000" pt_clust_9="38.02614" pt_clust_10="212.08300"></scales>
<clustering>
<clus scale="   38.026">  1  9  2 -1</clus>
<clus scale="   79.350">  5  6 -1 -1</clus>
<clus scale="   90.081">  7  8 -1 -1</clus>
<clus scale="  169.601">  2  5  1 -1</clus>
<clus scale="  212.083">  1 10  2 -1</clus>
<clus scale="   38.026">  1  5  2 -1</clus>
</clustering>
</event>
<event>
10    3  0.5078224E-005  0.2508230E+03  0.7546771E-02  0.1113565E+00
         21   -1    0    0  503  502  0.00000000000E+00  0.00000000000E+00  0.85561510165E+03  0.85561510165E+03  0.00000000000E+00 0. -1.
         -2   -1    0    0    0  501 -0.00000000000E+00 -0.00000000000E+00 -0.12070777231E+03  0.12070777231E+03  0.00000000000E+00 0.  1.
         23    2    1    2    0    0  0.19254310356E+03  0.17282209624E+03  0.24860811392E+03  0.37071498018E+03  0.93184110995E+02 0.  0.
        -24    2    1    2    0    0 -0.90211588679E+02 -0.19011399447E+03  0.35576857777E+03  0.42083534309E+03  0.79054686422E+02 0.  0.
         13    1    4    4    0    0 -0.25868070828E+02 -0.21090100031E+01  0.36735739154E+02  0.44979101177E+02  0.00000000000E+00 0. -1.
        -14    1    4    4    0    0 -0.64343517851E+02 -0.18800498447E+03  0.31903283861E+03  0.37585624192E+03  0.00000000000E+00 0.  1.
        -13    1    3    3    0    0  0.18658135328E+02 -0.11087250640E+02  0.16006561824E+02  0.26967817155E+02  0.00000000000E+00 0.  1.
         13    1    3    3    0    0  0.17388496823E+03  0.18390934688E+03  0.23260155210E+03  0.34374716302E+03  0.00000000000E+00 0. -1.
         21    1    1    2  503  501 -0.58332697846E+01  0.23157366920E+02  0.61519202544E+02  0.65991688572E+02  0.00000000000E+00 0.  1.
         -1    1    1    2    0  502 -0.96498245096E+02 -0.58654686859E+01  0.69011435110E+02  0.11878086212E+03  0.00000000000E+00 0.  1.
<scales pt_clust_5="13000.00000" pt_clust_6="13000.00000" pt_clust_7="13000.00000" pt_clust_8="13000.00000" pt_clust_9="23.88076" pt_clust_10="97.24004"></scales>
<clustering>
<clus scale="   23.881">  1  9  2 -1</clus>
<clus scale="   79.055">  5  6 -1 -1</clus>
<clus scale="   93.184">  7  8 -1 -1</clus>
<clus scale="   97.240">  1 10  2 -1</clus>
<clus scale="  245.924">  1  5  2 -1</clus>
<clus scale="   23.881">  1  5  2 -1</clus>
</clustering>
</event>
<event>
10    3  0.5078224E-005  0.1583685E+03  0.7546771E-02  0.1210759E+00
          1   -1    0    0  503    0 -0.00000000000E+00  0.00000000000E+00  0.77321742152E+03  0.77321742152E+03  0.00000000000E+00 0. -1.
         21   -1    0    0  501  502  0.00000000000E+00 -0.00000000000E+00 -0.17595551515E+03  0.17595551515E+03  0.00000000000E+00 0. -1.
        -24    2    1    2    0    0 -0.58004965596E+02  0.33375524380E+02  0.61615577153E+02  0.11929722075E+03  0.77180605524E+02 0.  0.
         23    2    1    2    0    0 -0.45071161229E+02 -0.65568292475E+02  0.35457185197E+02  0.12481439908E+03  0.89391340087E+02 0.  0.
         13    1    3    3    0    0 -0.73315671008E+02  0.40580237760E+02  0.43160959255E+02  0.94259279203E+02  0.00000000000E+00 0. -1.
        -14    1    3    3    0    0  0.15310705412E+02 -0.72047133800E+01  0.18454617897E+02  0.25037941546E+02  0.00000000000E+00 0.  1.
        -13    1    4    4    0    0  0.12733561146E+02 -0.54091191977E+02 -0.88469294653E+00  0.55576823502E+02  0.00000000000E+00 0. -1.
         13    1    4    4    0    0 -0.57804722375E+02 -0.11477100498E+02  0.36341878143E+02  0.69237575576E+02  0.00000000000E+00 0.  1.
         21    1    1    2  503  502 -0.14528750080E+03  0.17388718951E+02 -0.94050415361E-01  0.14632441451E+03  0.00000000000E+00 0. -1.
          2    1    1    2  501    0  0.24836362762E+03  0.14804049144E+02  0.50028319443E+03  0.55873690234E+03  0.00000000000E+00 0. -1.
<scales pt_clust_5="13000.00000" pt_clust_6="13000.00000" pt_clust_7="13000.00000" pt_clust_8="13000.00000" pt_clust_9="158.36848" pt_clust_10="13000.00000"></scales>
<clustering>
<clus scale="   77.181">  5  6 -1 -1</clus>
<clus scale="   89.391">  7  8 -1 -1</clus>
<clus scale="  102.154">  1  5  2 -1</clus>
<clus scale="  120.346">  1  7  2 -1</clus>
<clus scale="  158.368">  2  9  1 -1</clus>
<clus scale="  158.368">  2  5  1 -1</clus>
</clustering>
</event>
<event>
10    3  0.5078224E-005  0.1330676E+03  0.7546771E-02  0.1225630E+00
          1   -1    0    0  503    0 -0.00000000000E+00  0.00000000000E+00  0.51641982053E+03  0.51641982053E+03  0.00000000000E+00 0. -1.
         21   -1    0    0  501  502  0.00000000000E+00 -0.00000000000E+00 -0.59463522264E+02  0.59463522264E+02  0.00000000000E+00 0.  1.
        -24    2    1    2    0    0 -0.12462421562E+02 -0.94377029518E+02  0.27258456984E+03  0.29975903759E+03  0.80565484234E+02 0.  0.
         23    2    1    2    0    0  0.41296073867E+01  0.10058596404E+03  0.11300414740E+03  0.17678075278E+03  0.91361410916E+02 0.  0.
         13    1    3    3    0    0  0.34317005948E+02 -0.33925925342E+02  0.10294139596E+03  0.11369061663E+03  0.00000000000E+00 0. -1.
        -14    1    3    3    0    0 -0.46779427509E+02 -0.60451104175E+02  0.16964317388E+03  0.18606842096E+03  0.00000000000E+00 0.  1.
        -13    1    4    4    0    0  0.28171145512E+02 -0.18129852621E+01  0.39117454188E+02  0.48239771736E+02  0.00000000000E+00 0. -1.
         13    1    4    4    0    0 -0.24041538125E+02  0.10239894930E+03  0.73886693207E+02  0.12854098104E+03  0.00000000000E+00 0.  1.
         21    1    1    2  503  502  0.25071565454E+02 -0.23925219171E+02  0.14676430905E+02  0.37635051890E+02  0.00000000000E+00 0. -1.
          2    1    1    2  501    0 -0.16738751279E+02  0.17716284649E+02  0.56691150118E+02  0.61708500532E+02  0.00000000000E+00 0. -1.
<scales pt_clust_5="13000.00000" pt_clust_6="13000.00000" pt_clust_7="13000.00000" pt_clust_8="13000.00000" pt_clust_9="29.75066" pt_clust_10="24.37321"></scales>
<clustering>
<clus scale="   24.373">  2 10  1 -1</clus>
<clus scale="   29.751">  2  9  1 -1</clus>
<clus scale="   80.565">  5  6 -1 -1</clus>
<clus scale="   91.361">  7  8 -1 -1</clus>
<clus scale="  125.900">  1  5  2 -1</clus>
<clus scale="   24.373">  2  5  1 -1</clus>
</clustering>
</event>
<event>
10    3  0.5078224E-005  0.3970117E+03  0.7546771E-02  0.1044819E+00
         21   -1    0    0  501  502  0.00000000000E+00  0.00000000000E+00  0.35420259089E+03  0.35420259089E+03  0.00000000000E+00 0. -1.
          1   -1    0    0  503    0 -0.00000000000E+00 -0.00000000000E+00 -0.63604332473E+03  0.63604332473E+03  0.00000000000E+00 0. -1.
        -24    2    1    2    0    0  0.57323988645E+02  0.43928164608E+01 -0.84434558686E+02  0.12891931758E+03  0.78648962071E+02 0.  0.
         23    2    1    2    0    0  0.28039071258E+03 -0.54877159016E+02 -0.35663109364E+03  0.46585398396E+03  0.90574517007E+02 0.  0.
         13    1    3    3    0    0  0.34282439377E+02  0.41446878140E+02 -0.46669649552E+02  0.71212256996E+02  0.00000000000E+00 0. -1.
        -14    1    3    3    0    0  0.23041549268E+02 -0.37054061679E+02 -0.37764909134E+02  0.57707060586E+02  0.00000000000E+00 0.  1.
        -13    1    4    4    0    0  0.67581843375E+02 -0.54137270795E+02 -0.11308766950E+03  0.14243233704E+03  0.00000000000E+00 0.  1.
         13    1    4    4    0    0  0.21280886921E+03 -0.73988822098E+00 -0.24354342415E+03  0.32342164692E+03  0.00000000000E+00 0. -1.
         21    1    1    2  503  502 -0.12962064316E+02 -0.19776642147E+02  0.31760354574E+02  0.39596095876E+02  0.00000000000E+00 0. -1.
          2    1    1    2  501    0 -0.32475263691E+03  0.70260984702E+02  0.12746456392E+03  0.35587651820E+03  0.00000000000E+00 0. -1.
<scales pt_clust_5="13000.00000" pt_clust_6="13000.00000" pt_clust_7="13000.00000" pt_clust_8="13000.00000" pt_clust_9="23.64594" pt_clust_10="339.11920"></scales>
<clustering>
<clus scale="   23.646">  1  9  2 -1</clus>
<clus scale="   78.649">  5  6 -1 -1</clus>
<clus scale="   90.575">  7  8 -1 -1</clus>
<clus scale="   91.756">  5  7 -1 -1</clus>
<clus scale="  339.119">  1 10  2 -1</clus>
<clus scale="   23.646">  1  5  2 -1</clus>
</clustering>
</event>
<event>
10    3  0.5078224E-005  0.1274686E+03  0.7546771E-02  0.1233643E+00
         21   -1    0    0  503  502  0.00000000000E+00  0.00000000000E+00  0.92125160298E+02  0.92125160298E+02  0.00000000000E+00 0.  1.
         -4   -1    0    0    0  501 -0.00000000000E+00 -0.00000000000E+00 -0.60270561758E+03  0.60270561758E+03  0.00000000000E+00 0.  1.
         23    2    1    2    0    0 -0.16243943237E+02 -0.73073450966E+02 -0.13363726438E+03  0.17765068549E+03  0.89984735918E+02 0.  0.
        -24    2    1    2    0    0  0.78926200357E+02  0.10112651980E+03 -0.84968563584E+02  0.17394432206E+03  0.81123684996E+02 0.  0.
         11    1    4    4    0    0  0.68574733136E+02  0.24704017768E+02 -0.28074694450E+02  0.78108712619E+02  0.00000000000E+00 0. -1.
        -12    1    4    4    0    0  0.10351467221E+02  0.76422502036E+02 -0.56893869134E+02  0.95835609437E+02  0.00000000000E+00 0.  1.
        -13    1    3    3    0    0  0.35999473992E+02 -0.37021611521E+02 -0.44165127468E+02  0.67949395373E+02  0.00000000000E+00 0.  1.
         13    1    3    3    0    0 -0.52243417229E+02 -0.36051839445E+02 -0.89472136909E+02  0.10970129012E+03  0.00000000000E+00 0. -1.
         21    1    1    2  503  501  0.52852668977E+02 -0.79699430484E+01 -0.45139260632E+02  0.69960542169E+02  0.00000000000E+00 0.  1.
         -3    1    1    2    0  502 -0.11553492610E+03 -0.20083125790E+02 -0.24683536869E+03  0.27327522816E+03  0.00000000000E+00 0.  1.
<scales pt_clust_5="13000.00000" pt_clust_6="13000.00000" pt_clust_7="13000.00000" pt_clust_8="13000.00000" pt_clust_9="53.45021" pt_clust_10="108.89430"></scales>
<clustering>
<clus scale="   53.450">  1  9  2 -1</clus>
<clus scale="   81.124">  5  6 -1 -1</clus>
<clus scale="   89.985">  7  8 -1 -1</clus>
<clus scale="  108.894">  1 10  2 -1</clus>
<clus scale="  121.376">  1  5  2 -1</clus>
<clus scale="   53.450">  1  5  2 -1</clus>
</clustering>
</event>
<event>
10    3  0.5078224E-005  0.5734017E+03  0.7546771E-02  0.1026187E+00
          1   -1    0    0  502    0 -0.00000000000E+00  0.00000000000E+00  0.22028064562E+04  0.22028064562E+04  0.00000000000E+00 0. -1.
         21   -1    0    0  503  502  0.00000000000E+00 -0.00000000000E+00 -0.53051121290E+03  0.53051121290E+03  0.00000000000E+00 0. -1.
        -24    2    1    2    0    0 -0.14634202012E+03 -0.18396606888E+03  0.46547090620E+03  0.52752022604E+03  0.79717770963E+02 0.  0.
         23    2    1    2    0    0 -0.57379249836E+03 -0.18571836571E+03  0.44123722045E+03  0.75277801029E+03  0.90858711919E+02 0.  0.
         13    1    3    3    0    0 -0.15645604428E+03 -0.17447586634E+03  0.43892816155E+03  0.49757235929E+03  0.00000000000E+00 0. -1.
        -14    1    3    3    0    0  0.10114024166E+02 -0.94902025373E+01  0.26542744650E+02  0.29947866745E+02  0.00000000000E+00 0.  1.
        -13    1    4    4    0    0 -0.94511929523E+02 -0.31205682249E+02  0.11809319598E+03  0.15444190611E+03  0.00000000000E+00 0.  1.
         13    1    4    4    0    0 -0.47928056883E+03 -0.15451268346E+03  0.32314402448E+03  0.59833610418E+03  0.00000000000E+00 0. -1.
         21    1    1    2  503  501  0.11452261737E+03  0.16238505836E+03 -0.20812433487E+03  0.28775002317E+03  0.00000000000E+00 0. -1.
          2    1    1    2  501    0  0.60561190110E+03  0.20729937623E+03  0.97371145147E+03  0.11652694096E+04  0.00000000000E+00 0. -1.
<scales pt_clust_5="13000.00000" pt_clust_6="13000.00000" pt_clust_7="13000.00000" pt_clust_8="13000.00000" pt_clust_9="198.70666" pt_clust_10="566.15768"></scales>
<clustering>
<clus scale="   79.718">  5  6 -1 -1</clus>
<clus scale="   90.859">  7  8 -1 -1</clus>
<clus scale="  198.707">  2  9  1 -1</clus>
<clus scale="  227.707">  1  5  2 -1</clus>
<clus scale="  566.158">  2 10  1 -1</clus>
<clus scale="  198.707">  2  5  1 -1</clus>
</clustering>
</event>
<event>
10    3  0.5078224E-005  0.1092737E+03  0.7546771E-02  0.1265702E+00
         21   -1    0    0  503  502  0.00000000000E+00  0.00000000000E+00  0.72988779206E+02  0.72988779206E+02  0.00000000000E+00 0. -1.
         -4   -1    0    0    0  501 -0.00000000000E+00 -0.00000000000E+00 -0.37295655291E+03  0.37295655291E+03  0.00000000000E+00 0.  1.
         23    2    1    2    0    0 -0.60594702149E+02 -0.41324240139E+02 -0.27326069567E+03  0.29717099917E+03  0.90883354899E+02 0.  0.
        -24    2    1    2    0    0  0.21897485394E+02  0.21916897449E+02 -0.38187011481E+02  0.95069180205E+02  0.81363695335E+02 0.  0.
         11    1    4    4    0    0  0.22001644357E+02 -0.19616741006E+02  0.10300571894E+02  0.31224840487E+02  0.00000000000E+00 0. -1.
        -12    1    4    4    0    0 -0.10415896314E+00  0.41533638454E+02 -0.48487583375E+02  0.63844339717E+02  0.00000000000E+00 0.  1.
        -13    1    3    3    0    0 -0.15850230904E+02  0.24851885556E+02 -0.12844499999E+03  0.13178377767E+03  0.00000000000E+00 0.  1.
         13    1    3    3    0    0 -0.44744471245E+02 -0.66176125695E+02 -0.14481569568E+03  0.16538722149E+03  0.00000000000E+00 0. -1.
         21    1    1    2  503  501  0.24880649595E+02  0.20770067442E+01  0.17794253912E+02  0.30659356705E+02  0.00000000000E+00 0. -1.
         -3    1    1    2    0  502  0.13816567160E+02  0.17330335946E+02 -0.63143204661E+01  0.23045796038E+02  0.00000000000E+00 0.  1.
<scales pt_clust_5="13000.00000" pt_clust_6="13000.00000" pt_clust_7="13000.00000" pt_clust_8="13000.00000" pt_clust_9="31.25927" pt_clust_10="22.16389"></scales>
<clustering>
<clus scale="   22.164">  1 10  2 -1</clus>
<clus scale="   31.259">  1  9  2 -1</clus>
<clus scale="   81.364">  5  6 -1 -1</clus>
<clus scale="   90.883">  7  8 -1 -1</clus>
<clus scale="  101.494">  1  5  2 -1</clus>
<clus scale="   22.164">  1  5  2 -1</clus>
</clustering>
</event>
<event>
10    3  0.5078224E-005  0.1819513E+03  0.7546771E-02  0.1167341E+00
          1   -1    0    0  502    0 -0.00000000000E+00  0.00000000000E+00  0.52437648148E+03  0.52437648148E+03  0.00000000000E+00 0. -1.
         21   -1    0    0  503  502  0.00000000000E+00 -0.00000000000E+00 -0.21569970086E+03  0.21569970086E+03  0.00000000000E+00 0. -1.
         23    2    1    2    0    0 -0.64453639823E+01 -0.16023975556E+03  0.29069474365E+03  0.34345574515E+03  0.87977797821E+02 0.  0.
        -24    2    1    2    0    0  0.83972405960E+02  0.14708006166E+03  0.14008851962E+03  0.23230351780E+03  0.75207855641E+02 0.  0.
         13    1    4    4    0    0 -0.12998634344E+02  0.17656627469E+02  0.27873640907E+02  0.35463514290E+02  0.00000000000E+00 0. -1.
        -14    1    4    4    0    0  0.96971040304E+02  0.12942343419E+03  0.11221487871E+03  0.19684000351E+03  0.00000000000E+00 0.  1.
        -11    1    3    3    0    0 -0.36723346560E+02 -0.35422092993E+02  0.54892904306E+02  0.74943710862E+02  0.00000000000E+00 0.  1.
         11    1    3    3    0    0  0.30277982578E+02 -0.12481766256E+03  0.23580183935E+03  0.26851203428E+03  0.00000000000E+00 0. -1.
         21    1    1    2  503  501 -0.48377485931E+01  0.28058464554E+02 -0.64082282413E+02  0.70122893293E+02  0.00000000000E+00 0. -1.
          2    1    1    2  501    0 -0.72689293385E+02 -0.14898770663E+02 -0.58024200241E+02  0.94194026104E+02  0.00000000000E+00 0. -1.
<scales pt_clust_5="13000.00000" pt_clust_6="13000.00000" pt_clust_7="13000.00000" pt_clust_8="13000.00000" pt_clust_9="28.47246" pt_clust_10="75.16896"></scales>
<clustering>
<clus scale="   28.472">  2  9  1 -1</clus>
<clus scale="   75.169">  2 10  1 -1</clus>
<clus scale="   75.208">  5  6 -1 -1</clus>
<clus scale="   87.978">  7  8 -1 -1</clus>
<clus scale="  176.132">  2  5  1 -1</clus>
<clus scale="   28.472">  2  5  1 -1</clus>
</clustering>
</event>
<event>
10    3  0.5078224E-005  0.3432236E+03  0.7546771E-02  0.1103756E+00
         21   -1    0    0  501  502  0.00000000000E+00  0.00000000000E+00  0.31272065025E+03  0.31272065025E+03  0.00000000000E+00 0. -1.
          1   -1    0    0  503    0 -0.00000000000E+00 -0.00000000000E+00 -0.11167208459E+04  0.11167208459E+04  0.00000000000E+00 0. -1.
         23    2    1    2    0    0  0.10502605361E+02 -0.74443818243E+02 -0.45782563035E+02  0.12651034626E+03  0.90866043380E+02 0.  0.
        -24    2    1    2    0    0  0.30557523412E+03  0.52600644658E+02 -0.75011170020E+03  0.81583587125E+03  0.82325904262E+02 0.  0.
         11    1    4    4    0    0  0.29093022302E+03  0.33190157347E+02 -0.71907162759E+03  0.77640581323E+03  0.00000000000E+00 0. -1.
        -12    1    4    4    0    0  0.14645011094E+02  0.19410487311E+02 -0.31040072613E+02  0.39430058020E+02  0.00000000000E+00 0.  1.
        -13    1    3    3    0    0 -0.37910956985E+02 -0.18467460125E+02 -0.27279595979E+02  0.50224138617E+02  0.00000000000E+00 0.  1.
         13    1    3    3    0    0  0.48413562346E+02 -0.55976358118E+02 -0.18502967056E+02  0.76286207647E+02  0.00000000000E+00 0. -1.
         21    1    1    2  503  502  0.77409225654E+02 -0.40788207442E+02 -0.14003008906E+02  0.88611231462E+02  0.00000000000E+00 0. -1.
          2    1    1    2  501    0 -0.39348706513E+03  0.62631381027E+02  0.58970765287E+01  0.39848404714E+03  0.00000000000E+00 0. -1.
<scales pt_clust_5="13000.00000" pt_clust_6="13000.00000" pt_clust_7="13000.00000" pt_clust_8="13000.00000" pt_clust_9="87.49781" pt_clust_10="333.20396"></scales>
<clustering>
<clus scale="   82.326">  5  6 -1 -1</clus>
<clus scale="   87.498">  1  9  2 -1</clus>
<clus scale="   90.866">  7  8 -1 -1</clus>
<clus scale="  123.295">  2  7  1 -1</clus>
<clus scale="  333.204">  1 10  2 -1</clus>
<clus scale="   87.498">  1  5  2 -1</clus>
</clustering>
</event>
<event>
10    3  0.5078224E-005  0.1025029E+03  0.7546771E-02  0.1279178E+00
          1   -1    0    0  503    0 -0.00000000000E+00  0.00000000000E+00  0.54939642872E+03  0.54939642872E+03  0.00000000000E+00 0. -1.
         21   -1    0    0  501  502  0.00000000000E+00 -0.00000000000E+00 -0.37693418417E+02  0.37693418417E+02  0.00000000000E+00 0. -1.
         23    2    1    2    0    0  0.20822951760E+02  0.50526076671E+02  0.35520202895E+03  0.37053523548E+03  0.90229704768E+02 0.  0.
        -24    2    1    2    0    0 -0.12746020339E+02 -0.35211729252E+02  0.12615534419E+03  0.15475264543E+03  0.81430236943E+02 0.  0.
         11    1    4    4    0    0 -0.38511841602E+02 -0.12944730305E+02  0.24268505052E+02  0.47325345469E+02  0.00000000000E+00 0. -1.
        -12    1    4    4    0    0  0.25765821264E+02 -0.22266998947E+02  0.10188683914E+03  0.10742729996E+03  0.00000000000E+00 0.  1.
        -11    1    3    3    0    0 -0.59286841455E+01  0.54396539062E+02  0.32671361831E+03  0.33126412595E+03  0.00000000000E+00 0. -1.
         11    1    3    3    0    0  0.26751635905E+02 -0.38704623911E+01  0.28488410639E+02  0.39271109527E+02  0.00000000000E+00 0.  1.
         21    1    1    2  503  502 -0.25794858283E+02  0.52479559429E+01  0.11313927264E+02  0.28651713832E+02  0.00000000000E+00 0. -1.
          2    1    1    2  501    0  0.17717926862E+02 -0.20562303362E+02  0.19031709902E+02  0.33150252392E+02  0.00000000000E+00 0. -1.
<scales pt_clust_5="13000.00000" pt_clust_6="13000.00000" pt_clust_7="13000.00000" pt_clust_8="13000.00000" pt_clust_9="26.32329" pt_clust_10="22.42577"></scales>
<clustering>
<clus scale="   26.323">  2  9  1 -1</clus>
<clus scale="   22.426">  2 10  1 -1</clus>
<clus scale="   81.430">  5  6 -1 -1</clus>
<clus scale="   90.230">  7  8 -1 -1</clus>
<clus scale="   94.849">  2  5  1 -1</clus>
<clus scale="   26.323">  2  5  1 -1</clus>
</clustering>
</event>
<event>
10    3  0.5078224E-005  0.2381878E+03  0.7546771E-02  0.1130354E+00
          1   -1    0    0  502    0 -0.00000000000E+00  0.00000000000E+00  0.36777823486E+04  0.36777823486E+04  0.00000000000E+00 0. -1.
         21   -1    0    0  503  502  0.00000000000E+00 -0.00000000000E+00 -0.11896350544E+03  0.11896350544E+03  0.00000000000E+00 0. -1.
        -24    2    1    2    0    0  0.15634898501E+03 -0.94538804136E+01  0.68084427923E+03  0.70689523990E+03  0.10778481645E+03 0.  0.
         23    2    1    2    0    0  0.17490391107E+03 -0.11838443155E+03  0.61932848434E+02  0.23828603202E+03  0.91314312139E+02 0.  0.
         13    1    3    3    0    0  0.16484332345E+02  0.34219844541E+02  0.22192814540E+03  0.22515513029E+03  0.00000000000E+00 0. -1.
        -14    1    3    3    0    0  0.13986465267E+03 -0.43673724955E+02  0.45891613383E+03  0.48174010961E+03  0.00000000000E+00 0.  1.
        -13    1    4    4    0    0  0.15370604106E+03 -0.12909470445E+03  0.70928902793E+02  0.21288940562E+03  0.00000000000E+00 0. -1.
         13    1    4    4    0    0  0.21197870008E+02  0.10710272899E+02 -0.89960543584E+01  0.25396626399E+02  0.00000000000E+00 0.  1.
         21    1    1    2  503  501 -0.13528772652E+02 -0.21107264756E+02  0.16267227755E+02  0.29885899916E+02  0.00000000000E+00 0. -1.
          2    1    1    2  501    0 -0.31772412343E+03  0.14894557672E+03  0.27997744878E+04  0.28216786822E+04  0.00000000000E+00 0. -1.
<scales pt_clust_5="13000.00000" pt_clust_6="13000.00000" pt_clust_7="13000.00000" pt_clust_8="13000.00000" pt_clust_9="25.07079" pt_clust_10="219.98907"></scales>
<clustering>
<clus scale="   25.071">  2  9  1 -1</clus>
<clus scale="   91.314">  7  8 -1 -1</clus>
<clus scale="  107.785">  5  6 -1 -1</clus>
<clus scale="  188.985">  1  5  2 -1</clus>
<clus scale="  219.989">  2 10  1 -1</clus>
<clus scale="   25.071">  2  5  1 -1</clus>
</clustering>
</event>
<event>
10    3  0.5078224E-005  0.1385671E+03  0.7546771E-02  0.1219099E+00
          1   -1    0    0  503    0 -0.00000000000E+00  0.00000000000E+00  0.57116675124E+03  0.57116675124E+03  0.00000000000E+00 0. -1.
         21   -1    0    0  501  502  0.00000000000E+00 -0.00000000000E+00 -0.33900877761E+03  0.33900877761E+03  0.00000000000E+00 0.  1.
         23    2    1    2    0    0  0.74416333646E+02 -0.11522941160E+03  0.42951130386E+03  0.45958974857E+03  0.89034649610E+02 0.  0.
        -24    2    1    2    0    0 -0.47476074294E+02  0.36777970183E+02  0.67848530765E+02  0.11520781873E+03  0.71153507630E+02 0.  0.
         13    1    4    4    0    0 -0.45943049532E+02  0.38849686470E+02  0.14621058049E+02  0.61917988320E+02  0.00000000000E+00 0. -1.
        -14    1    4    4    0    0 -0.15330247623E+01 -0.20717162860E+01  0.53227472716E+02  0.53289830409E+02  0.00000000000E+00 0.  1.
        -13    1    3    3    0    0  0.42173333609E+02 -0.26416089725E+02  0.58821700226E+02  0.77047986876E+02  0.00000000000E+00 0.  1.
         13    1    3    3    0    0  0.32243000037E+02 -0.88813321874E+02  0.37068960364E+03  0.38254176169E+03  0.00000000000E+00 0. -1.
         21    1    1    2  503  502 -0.29896941553E+02  0.11077669905E+03 -0.27779666162E+03  0.30055995970E+03  0.00000000000E+00 0.  1.
          2    1    1    2  501    0  0.29566822017E+01 -0.32325257631E+02  0.12594800615E+02  0.34818001853E+02  0.00000000000E+00 0. -1.
<scales pt_clust_5="13000.00000" pt_clust_6="13000.00000" pt_clust_7="13000.00000" pt_clust_8="13000.00000" pt_clust_9="86.67649" pt_clust_10="32.46021"></scales>
<clustering>
<clus scale="   32.460">  2 10  1 -1</clus>
<clus scale="   71.154">  5  6 -1 -1</clus>
<clus scale="   86.676">  2  9  1 -1</clus>
<clus scale="   89.035">  7  8 -1 -1</clus>
<clus scale="  127.814">  2  5  1 -1</clus>
<clus scale="   32.460">  2  5  1 -1</clus>
</clustering>
</event>
<event>
10    3  0.5078224E-005  0.1955244E+03  0.7546771E-02  0.1154742E+00
          1   -1    0    0  502    0 -0.00000000000E+00  0.00000000000E+00  0.17972889971E+04  0.17972889971E+04  0.00000000000E+00 0. -1.
         21   -1    0    0  503  502  0.00000000000E+00 -0.00000000000E+00 -0.71747807362E+02  0.71747807362E+02  0.00000000000E+00 0. -1.
        -24    2    1    2    0    0 -0.88621751163E+02 -0.12051491831E+03  0.41430494389E+03  0.44731211199E+03  0.77858067538E+02 0.  0.
         23    2    1    2    0    0  0.10367800328E+03  0.17267662188E+03  0.62441129565E+03  0.66224352386E+03  0.90059284058E+02 0.  0.
         11    1    3    3    0    0 -0.89056497818E+02 -0.61281343426E+02  0.24017865714E+03  0.26338612378E+03  0.00000000000E+00 0. -1.
        -12    1    3    3    0    0  0.43474665529E+00 -0.59233574880E+02  0.17412628676E+03  0.18392598821E+03  0.00000000000E+00 0.  1.
        -13    1    4    4    0    0 -0.14975865856E+02  0.22936128308E+02  0.51739317441E+02  0.58543142290E+02  0.00000000000E+00 0.  1.
         13    1    4    4    0    0  0.11865386914E+03  0.14974049357E+03  0.57267197821E+03  0.60370038157E+03  0.00000000000E+00 0. -1.
         21    1    1    2  503  501 -0.44733197567E+01  0.36349995063E+02 -0.23545225579E+02  0.43539756296E+02  0.00000000000E+00 0. -1.
          2    1    1    2  501    0 -0.10582932364E+02 -0.88511698634E+02  0.71037017574E+03  0.71594141229E+03  0.00000000000E+00 0. -1.
<scales pt_clust_5="13000.00000" pt_clust_6="13000.00000" pt_clust_7="13000.00000" pt_clust_8="13000.00000" pt_clust_9="36.62421" pt_clust_10="86.55165"></scales>
<clustering>
<clus scale="   36.624">  2  9  1 -1</clus>
<clus scale="   77.858">  5  6 -1 -1</clus>
<clus scale="   86.552">  2 10  1 -1</clus>
<clus scale="   90.059">  7  8 -1 -1</clus>
<clus scale="  190.213">  1  5  2 -1</clus>
<clus scale="   36.624">  2  5  1 -1</clus>
</clustering>
</event>
<event>
10    3  0.5078224E-005  0.1081196E+03  0.7546771E-02  0.1267745E+00
         21   -1    0    0  503  502  0.00000000000E+00  0.00000000000E+00  0.86430009601E+02  0.86430009601E+02  0.00000000000E+00 0.  1.
          1   -1    0    0  502    0 -0.00000000000E+00 -0.00000000000E+00 -0.47809123341E+03  0.47809123341E+03  0.00000000000E+00 0. -1.
         23    2    1    2    0    0  0.43830164929E+02  0.19038995413E+02 -0.12754395448E+03  0.16256980331E+03  0.88757613314E+02 0.  0.
        -24    2    1    2    0    0 -0.93939409776E+02  0.45368398413E+02 -0.10345206115E+03  0.16707338623E+03  0.79550506885E+02 0.  0.
         13    1    4    4    0    0 -0.25335732603E+02 -0.18271035806E+02 -0.57010916155E+01  0.31752677707E+02  0.00000000000E+00 0. -1.
        -14    1    4    4    0    0 -0.68603677173E+02  0.63639434220E+02 -0.97750969535E+02  0.13532070852E+03  0.00000000000E+00 0.  1.
        -13    1    3    3    0    0  0.70413394302E+02  0.12135669449E+02 -0.76990473800E+02  0.10503739156E+03  0.00000000000E+00 0. -1.
         13    1    3    3    0    0 -0.26583229373E+02  0.69033259643E+01 -0.50553480680E+02  0.57532411753E+02  0.00000000000E+00 0.  1.
         21    1    1    2  503  501  0.49847875965E+02 -0.99176434453E+01  0.13335033219E+02  0.52545156776E+02  0.00000000000E+00 0. -1.
          2    1    1    2  501    0  0.26136888206E+00 -0.54489750381E+02 -0.17400024139E+03  0.18233289669E+03  0.00000000000E+00 0. -1.
<scales pt_clust_5="13000.00000" pt_clust_6="13000.00000" pt_clust_7="13000.00000" pt_clust_8="13000.00000" pt_clust_9="50.82490" pt_clust_10="55.41742"></scales>
<clustering>
<clus scale="   50.825">  1  9  2 -1</clus>
<clus scale="   55.417">  1 10  2 -1</clus>
<clus scale="   79.551">  5  6 -1 -1</clus>
<clus scale="   88.758">  7  8 -1 -1</clus>
<clus scale="  100.699">  1  5  2 -1</clus>
<clus scale="   50.825">  1  5  2 -1</clus>
</clustering>
</event>
<event>
10    3  0.5078224E-005  0.2336272E+03  0.7546771E-02  0.1165592E+00
         21   -1    0    0  501  502  0.00000000000E+00  0.00000000000E+00  0.14904495187E+03  0.14904495187E+03  0.00000000000E+00 0. -1.
          1   -1    0    0  503    0 -0.00000000000E+00 -0.00000000000E+00 -0.11319496235E+04  0.11319496235E+04  0.00000000000E+00 0. -1.
        -24    2    1    2    0    0  0.23007446219E+02 -0.28044703605E+02 -0.12728666877E+03  0.15456084716E+03  0.79820495148E+02 0.  0.
         23    2    1    2    0    0 -0.88178019986E+02 -0.17951573257E+03 -0.82709103665E+03  0.85582096851E+03  0.91371143077E+02 0.  0.
         13    1    3    3    0    0 -0.25704565192E+02 -0.91201170521E+01 -0.78367595382E+02  0.82978197213E+02  0.00000000000E+00 0. -1.
        -14    1    3    3    0    0  0.48712011412E+02 -0.18924586553E+02 -0.48919073390E+02  0.71582649946E+02  0.00000000000E+00 0.  1.
        -13    1    4    4    0    0 -0.53253079358E+02 -0.84877762754E+02 -0.58554729962E+03  0.59405872199E+03  0.00000000000E+00 0.  1.
         13    1    4    4    0    0 -0.34924940628E+02 -0.94637969817E+02 -0.24154373702E+03  0.26176224652E+03  0.00000000000E+00 0. -1.
         21    1    1    2  503  502 -0.25581352619E+02  0.74143449199E+01  0.32995398538E+02  0.42403707823E+02  0.00000000000E+00 0.  1.
          2    1    1    2  501    0  0.90751926386E+02  0.20014609126E+03 -0.61522364715E+02  0.22820905185E+03  0.00000000000E+00 0. -1.
<scales pt_clust_5="13000.00000" pt_clust_6="13000.00000" pt_clust_7="13000.00000" pt_clust_8="13000.00000" pt_clust_9="26.63415" pt_clust_10="215.01854"></scales>
<clustering>
<clus scale="   26.634">  1  9  2 -1</clus>
<clus scale="   79.820">  5  6 -1 -1</clus>
<clus scale="   86.618">  2  5  1 -1</clus>
<clus scale="   91.371">  7  8 -1 -1</clus>
<clus scale="  215.019">  1 10  2 -1</clus>
<clus scale="   26.634">  1  5  2 -1</clus>
</clustering>
</event>
<event>
10    3  0.5078224E-005  0.2731556E+03  0.7546771E-02  0.1135080E+00
          1   -1    0    0  503    0 -0.00000000000E+00  0.00000000000E+00  0.15387963314E+04  0.15387963314E+04  0.00000000000E+00 0. -1.
         21   -1    0    0  501  502  0.00000000000E+00 -0.00000000000E+00 -0.14655170000E+03  0.14655170000E+03  0.00000000000E+00 0. -1.
        -24    2    1    2    0    0  0.26943503500E+02 -0.62881021138E+02  0.50605667004E+03  0.51788101657E+03  0.86182474031E+02 0.  0.
         23    2    1    2    0    0  0.10487416695E+03  0.29533899074E+03  0.49000151090E+03  0.58893584072E+03  0.92305110668E+02 0.  0.
         11    1    3    3    0    0  0.44146690987E+02 -0.71608075385E+02  0.46462175878E+03  0.47217584173E+03  0.00000000000E+00 0. -1.
        -12    1    3    3    0    0 -0.17203187487E+02  0.87270542476E+01  0.41434911260E+02  0.45705174835E+02  0.00000000000E+00 0.  1.
        -11    1    4    4    0    0  0.17783952701E+01  0.41059454721E+02  0.22479964694E+02  0.46844320086E+02  0.00000000000E+00 0.  1.
         11    1    4    4    0    0  0.10309577168E+03  0.25427953602E+03  0.46752154620E+03  0.54209152063E+03  0.00000000000E+00 0. -1.
         21    1    1    2  503  502 -0.24595804938E+02 -0.46818184721E+02 -0.56658288595E+02  0.77505210842E+02  0.00000000000E+00 0. -1.
          2    1    1    2  501    0 -0.10722186551E+03 -0.18563978488E+03  0.45284473909E+03  0.50102596330E+03  0.00000000000E+00 0. -1.
<scales pt_clust_5="13000.00000" pt_clust_6="13000.00000" pt_clust_7="13000.00000" pt_clust_8="13000.00000" pt_clust_9="52.88569" pt_clust_10="257.08714"></scales>
<clustering>
<clus scale="   52.886">  2  9  1 -1</clus>
<clus scale="   86.182">  5  6 -1 -1</clus>
<clus scale="   92.305">  7  8 -1 -1</clus>
<clus scale="  111.635">  1  5  2 -1</clus>
<clus scale="  257.087">  2 10  1 -1</clus>
<clus scale="   52.886">  2  5  1 -1</clus>
</clustering>
</event>
<event>
10    3  0.5078224E-005  0.1548750E+03  0.7546771E-02  0.1196758E+00
          1   -1    0    0  502    0 -0.00000000000E+00  0.00000000000E+00  0.31646049202E+03  0.31646049202E+03  0.00000000000E+00 0. -1.
         21   -1    0    0  503  502  0.00000000000E+00 -0.00000000000E+00 -0.14490434210E+03  0.14490434210E+03  0.00000000000E+00 0.  1.
         23    2    1    2    0    0  0.91707929092E+02  0.80278073970E+02  0.16940026441E+03  0.22776606541E+03  0.91247013943E+02 0.  0.
        -24    2    1    2    0    0 -0.12006988280E+03 -0.62432597055E+02  0.22609353669E+02  0.15810586514E+03  0.78560013929E+02 0.  0.
         11    1    4    4    0    0 -0.32950291899E+02  0.31901287821E+00  0.37264139002E+02  0.49743738913E+02  0.00000000000E+00 0. -1.
        -12    1    4    4    0    0 -0.87119590896E+02 -0.62751609933E+02 -0.14654785333E+02  0.10836212623E+03  0.00000000000E+00 0.  1.
        -13    1    3    3    0    0  0.15414253284E+02  0.74118390150E+02  0.85299687241E+02  0.11404898775E+03  0.00000000000E+00 0.  1.
         13    1    3    3    0    0  0.76293675808E+02  0.61596838201E+01  0.84100577169E+02  0.11371707767E+03  0.00000000000E+00 0. -1.
         21    1    1    2  503  501 -0.10106829184E+01  0.21319092129E+02 -0.15313881074E+02  0.26268614785E+02  0.00000000000E+00 0. -1.
          2    1    1    2  501    0  0.29372636622E+02 -0.39164569044E+02 -0.51395870893E+01  0.49224288780E+02  0.00000000000E+00 0. -1.
<scales pt_clust_5="13000.00000" pt_clust_6="13000.00000" pt_clust_7="13000.00000" pt_clust_8="13000.00000" pt_clust_9="21.34304" pt_clust_10="45.16344"></scales>
<clustering>
<clus scale="   21.343">  2  9  1 -1</clus>
<clus scale="   45.163">  2 10  1 -1</clus>
<clus scale="   78.560">  5  6 -1 -1</clus>
<clus scale="   91.247">  7  8 -1 -1</clus>
<clus scale="  147.756">  2  5  1 -1</clus>
<clus scale="   21.343">  2  5  1 -1</clus>
</clustering>
</event>
<event>
10    3  0.5078224E-005  0.1784191E+03  0.7546771E-02  0.1170396E+00
          3   -1    0    0  502    0 -0.00000000000E+00  0.00000000000E+00  0.90224776312E+03  0.90224776312E+03  0.00000000000E+00 0. -1.
         21   -1    0    0  503  502  0.00000000000E+00 -0.00000000000E+00 -0.10576224016E+03  0.10576224016E+03  0.00000000000E+00 0.  1.
         23    2    1    2    0    0 -0.15842366521E+03 -0.88011963830E+02  0.42999640535E+03  0.47550240244E+03  0.91441033665E+02 0.  0.
        -24    2    1    2    0    0  0.11246201259E+03  0.54493157989E+02  0.22111535991E+03  0.26715485207E+03  0.82840232102E+02 0.  0.
         13    1    4    4    0    0  0.42385100623E+02  0.40582960739E+02  0.16850357003E+03  0.17842905192E+03  0.00000000000E+00 0. -1.
        -14    1    4    4    0    0  0.70076911964E+02  0.13910197250E+02  0.52611789883E+02  0.88725800152E+02  0.00000000000E+00 0.  1.
        -11    1    3    3    0    0 -0.23932805292E+02  0.18621391173E+02  0.83289682979E+02  0.88638065576E+02  0.00000000000E+00 0.  1.
         11    1    3    3    0    0 -0.13449085992E+03 -0.10663335500E+03  0.34670672237E+03  0.38686433687E+03  0.00000000000E+00 0. -1.
         21    1    1    2  503  501  0.81874461991E+01  0.35703729419E+02 -0.52432251623E+02  0.63960390711E+02  0.00000000000E+00 0.  1.
          4    1    1    2  501    0  0.37774206428E+02 -0.21849235777E+01  0.19780600932E+03  0.20139235806E+03  0.00000000000E+00 0. -1.
<scales pt_clust_5="13000.00000" pt_clust_6="13000.00000" pt_clust_7="13000.00000" pt_clust_8="13000.00000" pt_clust_9="36.63046" pt_clust_10="38.09212"></scales>
<clustering>
<clus scale="   36.630">  2  9  1 -1</clus>
<clus scale="   38.092">  2 10  1 -1</clus>
<clus scale="   82.840">  5  6 -1 -1</clus>
<clus scale="   91.441">  7  8 -1 -1</clus>
<clus scale="  174.168">  2  5  1 -1</clus>
<clus scale="   36.630">  2  5  1 -1</clus>
</clustering>
</event>
<event>
10    3  0.5078224E-005  0.1586110E+03  0.7546771E-02  0.1207848E+00
          1   -1    0    0  502    0 -0.00000000000E+00  0.00000000000E+00  0.14305152612E+03  0.14305152612E+03  0.00000000000E+00 0. -1.
         21   -1    0    0  503  502  0.00000000000E+00 -0.00000000000E+00 -0.60436801701E+03  0.60436801701E+03  0.00000000000E+00 0. -1.
        -24    2    1    2    0    0 -0.61947830703E+02  0.37855162828E+02 -0.63187188159E+02  0.12531319210E+03  0.80251032924E+02 0.  0.
         23    2    1    2    0    0  0.13922828926E+03  0.61621328860E+02  0.22575516372E+02  0.18097160370E+03  0.95180684515E+02 0.  0.
         11    1    3    3    0    0 -0.74890127975E+02  0.26462382888E+02 -0.24764387482E+02  0.83198941481E+02  0.00000000000E+00 0. -1.
        -12    1    3    3    0    0  0.12942297271E+02  0.11392779940E+02 -0.38422800676E+02  0.42114250619E+02  0.00000000000E+00 0.  1.
        -13    1    4    4    0    0  0.34270181061E+02 -0.54941000361E+01  0.42430106078E+02  0.54817372674E+02  0.00000000000E+00 0.  1.
         13    1    4    4    0    0  0.10495810820E+03  0.67115428896E+02 -0.19854589706E+02  0.12615423102E+03  0.00000000000E+00 0. -1.
         21    1    1    2  503  501 -0.24706997285E+02 -0.60392464143E+01 -0.85323146174E+02  0.89033406568E+02  0.00000000000E+00 0.  1.
          2    1    1    2  501    0 -0.52573461271E+02 -0.93437245274E+02 -0.33538167293E+03  0.35210134077E+03  0.00000000000E+00 0. -1.
<scales pt_clust_5="13000.00000" pt_clust_6="13000.00000" pt_clust_7="13000.00000" pt_clust_8="13000.00000" pt_clust_9="20.31411" pt_clust_10="133.55730"></scales>
<clustering>
<clus scale="   20.314">  9 10 -1 -1</clus>
<clus scale="   80.251">  5  6 -1 -1</clus>
<clus scale="   95.181">  7  8 -1 -1</clus>
<clus scale="  108.216">  1  5  2 -1</clus>
<clus scale="  133.557">  2  9  1 -1</clus>
<clus scale="  133.557">  2  5  1 -1</clus>
</clustering>
</event>
<event>
10    3  0.5078224E-005  0.1211120E+03  0.7546771E-02  0.1253277E+00
         21   -1    0    0  501  502  0.00000000000E+00  0.00000000000E+00  0.86436081173E+02  0.86436081173E+02  0.00000000000E+00 0. -1.
         -4   -1    0    0    0  501 -0.00000000000E+00 -0.00000000000E+00 -0.29280562937E+03  0.29280562937E+03  0.00000000000E+00 0.  1.
         23    2    1    2    0    0 -0.36938960656E+02  0.38723575581E+02 -0.14469838749E+03  0.18974529222E+03  0.11046108118E+03 0.  0.
        -24    2    1    2    0    0 -0.95917262901E+01 -0.57309330524E+02 -0.41365550002E+02  0.10807999301E+03  0.81202312679E+02 0.  0.
         11    1    4    4    0    0 -0.54997803423E+01 -0.35741747087E+02  0.21100925473E+02  0.41868474112E+02  0.00000000000E+00 0. -1.
        -12    1    4    4    0    0 -0.40919459478E+01 -0.21567583437E+02 -0.62466475475E+02  0.66211518901E+02  0.00000000000E+00 0.  1.
        -11    1    3    3    0    0 -0.16830379966E+02  0.76431770068E+02 -0.10824959219E+03  0.13357788505E+03  0.00000000000E+00 0.  1.
         11    1    3    3    0    0 -0.20108580691E+02 -0.37708194487E+02 -0.36448795308E+02  0.56167407170E+02  0.00000000000E+00 0. -1.
         21    1    1    2  503  502  0.18717834941E+02  0.13458102664E+02  0.21114590090E+02  0.31261858340E+02  0.00000000000E+00 0. -1.
         -3    1    1    2    0  503  0.27812852005E+02  0.51276522788E+01 -0.41420200788E+02  0.50154566970E+02  0.00000000000E+00 0.  1.
<scales pt_clust_5="13000.00000" pt_clust_6="13000.00000" pt_clust_7="13000.00000" pt_clust_8="13000.00000" pt_clust_9="23.05380" pt_clust_10="29.80131"></scales>
<clustering>
<clus scale="   23.054">  1  9  2 -1</clus>
<clus scale="   29.801">  1 10  2 -1</clus>
<clus scale="   81.202">  5  6 -1 -1</clus>
<clus scale="   95.186">  1  5  2 -1</clus>
<clus scale="  110.461">  7  8 -1 -1</clus>
<clus scale="   23.054">  1  5  2 -1</clus>
</clustering>
</event>
<event>
10    3  0.5078224E-005  0.1434502E+03  0.7546771E-02  0.1210940E+00
         21   -1    0    0  501  502  0.00000000000E+00  0.00000000000E+00  0.15689629463E+03  0.15689629463E+03  0.00000000000E+00 0. -1.
          1   -1    0    0  503    0 -0.00000000000E+00 -0.00000000000E+00 -0.54031548191E+03  0.54031548191E+03  0.00000000000E+00 0. -1.
         23    2    1    2    0    0  0.97712712129E+02 -0.59089240652E+02 -0.32994003821E+03  0.36073508688E+03  0.90719687047E+02 0.  0.
        -24    2    1    2    0    0 -0.14926959561E+02  0.14314733638E+03 -0.10025339127E+03  0.19278317232E+03  0.80003968872E+02 0.  0.
         13    1    4    4    0    0 -0.35461163084E+02  0.13247889403E+03 -0.67967953056E+02  0.15306140628E+03  0.00000000000E+00 0. -1.
        -14    1    4    4    0    0  0.20534203523E+02  0.10668442348E+02 -0.32285438217E+02  0.39721766040E+02  0.00000000000E+00 0.  1.
        -13    1    3    3    0    0  0.58875739538E+01 -0.37215650438E+02 -0.36392922869E+02  0.52384281989E+02  0.00000000000E+00 0.  1.
         13    1    3    3    0    0  0.91825138175E+02 -0.21873590214E+02 -0.29354711535E+03  0.30835080489E+03  0.00000000000E+00 0. -1.
         21    1    1    2  503  502  0.10505048970E+02 -0.17664551349E+02  0.12973390486E+02  0.24304347120E+02  0.00000000000E+00 0.  1.
          2    1    1    2  501    0 -0.93290801538E+02 -0.66393544376E+02  0.33800851722E+02  0.11938917021E+03  0.00000000000E+00 0. -1.
<scales pt_clust_5="13000.00000" pt_clust_6="13000.00000" pt_clust_7="13000.00000" pt_clust_8="13000.00000" pt_clust_9="20.55219" pt_clust_10="115.99365"></scales>
<clustering>
<clus scale="   20.552">  1  9  2 -1</clus>
<clus scale="   80.004">  5  6 -1 -1</clus>
<clus scale="   90.720">  7  8 -1 -1</clus>
<clus scale="  115.994">  1 10  2 -1</clus>
<clus scale="  136.925">  1  5  2 -1</clus>
<clus scale="   20.552">  1  5  2 -1</clus>
</clustering>
</event>
<event>
10    3  0.5078224E-005  0.4978113E+03  0.7546771E-02  0.1014352E+00
         21   -1    0    0  501  502  0.00000000000E+00  0.00000000000E+00  0.18635316233E+03  0.18635316233E+03  0.00000000000E+00 0. -1.
          1   -1    0    0  503    0 -0.00000000000E+00 -0.00000000000E+00 -0.12811225037E+04  0.12811225037E+04  0.00000000000E+00 0. -1.
        -24    2    1    2    0    0 -0.37712530199E+02  0.14480643128E+03 -0.15420176456E+03  0.23034676901E+03  0.83007905211E+02 0.  0.
         23    2    1    2    0    0  0.12635317256E+02  0.29545659409E+03 -0.43648818237E+03  0.53513428642E+03  0.91610703088E+02 0.  0.
         11    1    3    3    0    0  0.15797674379E+02  0.51899757343E+02 -0.18320101115E+02  0.57260609785E+02  0.00000000000E+00 0. -1.
        -12    1    3    3    0    0 -0.53510204578E+02  0.92906673935E+02 -0.13588166345E+03  0.17308615923E+03  0.00000000000E+00 0.  1.
        -11    1    4    4    0    0 -0.36880880881E+02  0.12857581091E+03 -0.21822444654E+03  0.25595672993E+03  0.00000000000E+00 0. -1.
         11    1    4    4    0    0  0.49516198137E+02  0.16688078317E+03 -0.21826373583E+03  0.27917755649E+03  0.00000000000E+00 0.  1.
         21    1    1    2  503  502  0.10174422151E+02  0.22616309393E+02 -0.34225483840E+02  0.42265826157E+02  0.00000000000E+00 0.  1.
          2    1    1    2  501    0  0.14902790793E+02 -0.46287933476E+03 -0.46985391065E+03  0.65972878448E+03  0.00000000000E+00 0. -1.
<scales pt_clust_5="13000.00000" pt_clust_6="13000.00000" pt_clust_7="13000.00000" pt_clust_8="13000.00000" pt_clust_9="24.79952" pt_clust_10="453.02298"></scales>
<clustering>
<clus scale="   24.800">  2  9  1 -1</clus>
<clus scale="   83.008">  5  6 -1 -1</clus>
<clus scale="   91.611">  7  8 -1 -1</clus>
<clus scale="  115.287">  5  7 -1 -1</clus>
<clus scale="  453.023">  1 10  2 -1</clus>
<clus scale="  453.023">  1  5  2 -1</clus>
</clustering>
</event>
<event>
10    3  0.9198455E-005  0.1467501E+03  0.7546771E-02  0.1221248E+00
          1   -1    0    0  502    0 -0.00000000000E+00  0.00000000000E+00  0.61895029546E+03  0.61895029546E+03  0.00000000000E+00 0. -1.
         21   -1    0    0  503  502  0.00000000000E+00 -0.00000000000E+00 -0.22756267640E+03  0.22756267640E+03  0.00000000000E+00 0.  1.
         23    2    1    2    0    0  0.41284267579E+02 -0.30730055044E+02  0.11836010959E+03  0.15701378790E+03  0.89417487191E+02 0.  0.
        -24    2    1    2    0    0 -0.90619295533E+02 -0.12435961781E+03 -0.13578109965E+03  0.22046990652E+03  0.80581023778E+02 0.  0.
         11    1    4    4    0    0 -0.52310671852E+01 -0.22449648797E+02  0.82241641361E+01  0.24474224620E+02  0.00000000000E+00 0. -1.
        -12    1    4    4    0    0 -0.85388228348E+02 -0.10190996902E+03 -0.14400526378E+03  0.19599568190E+03  0.00000000000E+00 0.  1.
        -13    1    3    3    0    0  0.26754682925E+02 -0.61560425986E+02  0.92218396077E+02  0.11406021077E+03  0.00000000000E+00 0. -1.
         13    1    3    3    0    0  0.14529584654E+02  0.30830370943E+02  0.26141713511E+02  0.42953577126E+02  0.00000000000E+00 0.  1.
         21    1    1    2  503  501  0.15068960951E+02  0.33524291428E+02 -0.43357162916E+01  0.37010135580E+02  0.00000000000E+00 0.  1.
          2    1    1    2  501    0  0.34266067004E+02  0.12156538143E+03  0.41314432541E+03  0.43201914186E+03  0.00000000000E+00 0. -1.
<scales pt_clust_5="13000.00000" pt_clust_6="13000.00000" pt_clust_7="13000.00000" pt_clust_8="13000.00000" pt_clust_9="36.75529" pt_clust_10="122.64712"></scales>
<clustering>
<clus scale="   36.755">  2  9  1 -1</clus>
<clus scale="   80.581">  5  6 -1 -1</clus>
<clus scale="   89.417">  7  8 -1 -1</clus>
<clus scale="  102.858">  1  7  2 -1</clus>
<clus scale="  122.647">  2 10  1 -1</clus>
<clus scale="   36.755">  2  5  1 -1</clus>
</clustering>
</event>
<event>
10    3  0.5078224E-005  0.1725369E+03  0.7546771E-02  0.1200327E+00
         21   -1    0    0  501  502  0.00000000000E+00  0.00000000000E+00  0.47152172514E+03  0.47152172514E+03  0.00000000000E+00 0. -1.
          3   -1    0    0  503    0 -0.00000000000E+00 -0.00000000000E+00 -0.43219758031E+03  0.43219758031E+03  0.00000000000E+00 0. -1.
         23    2    1    2    0    0 -0.18264090195E+02 -0.14330900605E+02 -0.50875227239E+02  0.11127313482E+03  0.96200156360E+02 0.  0.
        -24    2    1    2    0    0  0.36874142591E+01  0.17676197914E+03  0.67467591715E+02  0.20550175437E+03  0.80129275698E+02 0.  0.
         11    1    4    4    0    0  0.62456393944E+01  0.17110944670E+03  0.81892232404E+02  0.18979933743E+03  0.00000000000E+00 0. -1.
        -12    1    4    4    0    0 -0.25582251353E+01  0.56525324466E+01 -0.14424640688E+02  0.15702416944E+02  0.00000000000E+00 0.  1.
        -13    1    3    3    0    0 -0.39454848161E+02 -0.27891501009E+02  0.63771758146E+01  0.48736939208E+02  0.00000000000E+00 0.  1.
         13    1    3    3    0    0  0.21190757966E+02  0.13560600404E+02 -0.57252403054E+02  0.62536195615E+02  0.00000000000E+00 0. -1.
         21    1    1    2  503  502  0.39152831684E+02 -0.31724318418E+02  0.28684355178E+03  0.29123632982E+03  0.00000000000E+00 0. -1.
          4    1    1    2  501    0 -0.24576155748E+02 -0.13070676012E+03 -0.26411177143E+03  0.29570808643E+03  0.00000000000E+00 0. -1.
<scales pt_clust_5="13000.00000" pt_clust_6="13000.00000" pt_clust_7="13000.00000" pt_clust_8="13000.00000" pt_clust_9="50.39223" pt_clust_10="152.80150"></scales>
<clustering>
<clus scale="   50.392">  1  9  2 -1</clus>
<clus scale="   80.129">  5  6 -1 -1</clus>
<clus scale="   96.200">  7  8 -1 -1</clus>
<clus scale="   98.878">  2  7  1 -1</clus>
<clus scale="  152.802">  1 10  2 -1</clus>
<clus scale="   50.392">  1  5  2 -1</clus>
</clustering>
</event>
<event>
10    3  0.7596872E-005  0.3828431E+03  0.7546771E-02  0.1069657E+00
         21   -1    0    0  501  502  0.00000000000E+00  0.00000000000E+00  0.59928878886E+03  0.59928878886E+03  0.00000000000E+00 0. -1.
          1   -1    0    0  503    0 -0.00000000000E+00 -0.00000000000E+00 -0.66645275296E+03  0.66645275296E+03  0.00000000000E+00 0. -1.
        -24    2    1    2    0    0  0.13623369214E+03  0.13656052431E+03  0.24750942641E+03  0.32390254062E+03  0.80271688556E+02 0.  0.
         23    2    1    2    0    0  0.21703847564E+03 -0.30611775184E+03 -0.74681439483E+02  0.39331904273E+03  0.91152477060E+02 0.  0.
         13    1    3    3    0    0  0.13938106896E+03  0.12524782794E+03  0.24945859098E+03  0.31199950224E+03  0.00000000000E+00 0. -1.
        -14    1    3    3    0    0 -0.31473768128E+01  0.11312696376E+02 -0.19491645709E+01  0.11903038378E+02  0.00000000000E+00 0.  1.
        -13    1    4    4    0    0  0.41517361900E+02 -0.18662039223E+02  0.87054393534E+01  0.46343799169E+02  0.00000000000E+00 0.  1.
         13    1    4    4    0    0  0.17552111374E+03 -0.28745571262E+03 -0.83386878837E+02  0.34697524356E+03  0.00000000000E+00 0. -1.
         21    1    1    2  503  502  0.18393743310E+02  0.14319132048E+02  0.48006056288E+02  0.53366176329E+02  0.00000000000E+00 0.  1.
          2    1    1    2  501    0 -0.37166591109E+03  0.15523809548E+03 -0.28799800732E+03  0.49515378214E+03  0.00000000000E+00 0. -1.
<scales pt_clust_5="13000.00000" pt_clust_6="13000.00000" pt_clust_7="13000.00000" pt_clust_8="13000.00000" pt_clust_9="23.31024" pt_clust_10="371.83353"></scales>
<clustering>
<clus scale="   23.310">  1  9  2 -1</clus>
<clus scale="   80.272">  5  6 -1 -1</clus>
<clus scale="   91.152">  7  8 -1 -1</clus>
<clus scale="  220.105">  2  5  1 -1</clus>
<clus scale="  371.834">  1 10  2 -1</clus>
<clus scale="   23.310">  1  5  2 -1</clus>
</clustering>
</event>
<event>
10    3  0.5078224E-005  0.1121752E+03  0.7546771E-02  0.1262701E+00
         21   -1    0    0  501  502  0.00000000000E+00  0.00000000000E+00  0.23023517076E+03  0.23023517076E+03  0.00000000000E+00 0.  1.
          1   -1    0    0  503    0 -0.00000000000E+00 -0.00000000000E+00 -0.31301359047E+03  0.31301359047E+03  0.00000000000E+00 0. -1.
        -24    2    1    2    0    0  0.71955473495E+02  0.29769076049E+01 -0.22290420869E+03  0.24649708910E+03  0.76733803093E+02 0.  0.
         23    2    1    2    0    0 -0.48168423371E+01 -0.67689194029E+01  0.51413350486E+02  0.10624176088E+03  0.92601074006E+02 0.  0.
         13    1    3    3    0    0  0.73108840064E+02 -0.10129772125E+02 -0.10781536193E+03  0.13065858964E+03  0.00000000000E+00 0. -1.
        -14    1    3    3    0    0 -0.11533665688E+01  0.13106679729E+02 -0.11508884676E+03  0.11583849946E+03  0.00000000000E+00 0.  1.
        -11    1    4    4    0    0  0.25113220285E+02 -0.35380595236E+02  0.47988913829E+02  0.64694638130E+02  0.00000000000E+00 0.  1.
         11    1    4    4    0    0 -0.29930062622E+02  0.28611675833E+02  0.34244366570E+01  0.41547122751E+02  0.00000000000E+00 0. -1.
         21    1    1    2  503  502 -0.43215543071E+02 -0.23764121174E+01  0.13296295543E+03  0.13982981804E+03  0.00000000000E+00 0.  1.
          2    1    1    2  501    0 -0.23923088087E+02  0.61684239154E+01 -0.44250516943E+02  0.50680093202E+02  0.00000000000E+00 0. -1.
<scales pt_clust_5="13000.00000" pt_clust_6="13000.00000" pt_clust_7="13000.00000" pt_clust_8="13000.00000" pt_clust_9="57.60415" pt_clust_10="24.70555"></scales>
<clustering>
<clus scale="   24.706">  1 10  2 -1</clus>
<clus scale="   57.604">  1  9  2 -1</clus>
<clus scale="   76.734">  5  6 -1 -1</clus>
<clus scale="   92.601">  7  8 -1 -1</clus>
<clus scale="   99.481">  2  5  1 -1</clus>
<clus scale="   24.706">  1  5  2 -1</clus>
</clustering>
</event>
<event>
10    3  0.5078224E-005  0.9368503E+02  0.7546771E-02  0.1300136E+00
         21   -1    0    0  501  502  0.00000000000E+00  0.00000000000E+00  0.19298766036E+03  0.19298766036E+03  0.00000000000E+00 0. -1.
          1   -1    0    0  503    0 -0.00000000000E+00 -0.00000000000E+00 -0.53710290998E+03  0.53710290998E+03  0.00000000000E+00 0. -1.
         23    2    1    2    0    0  0.11814120821E+02  0.13891898116E+02 -0.45929576057E+03  0.46881672715E+03  0.92216970763E+02 0.  0.
        -24    2    1    2    0    0  0.33211239055E+02 -0.21834545075E+02  0.31601736836E+01  0.91391655307E+02  0.82235723404E+02 0.  0.
         13    1    4    4    0    0  0.54716254134E+02 -0.64215588785E+01  0.21564681093E+02  0.59161984040E+02  0.00000000000E+00 0. -1.
        -14    1    4    4    0    0 -0.21505015078E+02 -0.15412986197E+02 -0.18404507409E+02  0.32229671267E+02  0.00000000000E+00 0.  1.
        -13    1    3    3    0    0 -0.19597505062E+02 -0.32259329858E+02 -0.20766792652E+03  0.21107035385E+03  0.00000000000E+00 0.  1.
         13    1    3    3    0    0  0.31411625883E+02  0.46151227974E+02 -0.25162783405E+03  0.25774637331E+03  0.00000000000E+00 0. -1.
         21    1    1    2  503  502  0.34282097037E+01  0.51498420597E+02  0.84800508198E+02  0.99272182087E+02  0.00000000000E+00 0. -1.
          2    1    1    2  501    0 -0.48453569580E+02 -0.43555773637E+02  0.27219829072E+02  0.70610005785E+02  0.00000000000E+00 0. -1.
<scales pt_clust_5="13000.00000" pt_clust_6="13000.00000" pt_clust_7="13000.00000" pt_clust_8="13000.00000" pt_clust_9="51.61240" pt_clust_10="50.35471"></scales>
<clustering>
<clus scale="   51.612">  1  9  2 -1</clus>
<clus scale="   50.355">  1 10  2 -1</clus>
<clus scale="   82.236">  5  6 -1 -1</clus>
<clus scale="   83.879">  1  5  2 -1</clus>
<clus scale="   92.217">  7  8 -1 -1</clus>
<clus scale="   51.612">  1  5  2 -1</clus>
</clustering>
</event>
<event>
10    3  0.5078224E-005  0.3013374E+03  0.7546771E-02  0.1130949E+00
         21   -1    0    0  503  502  0.00000000000E+00  0.00000000000E+00  0.13253189353E+03  0.13253189353E+03  0.00000000000E+00 0. -1.
          1   -1    0    0  502    0 -0.00000000000E+00 -0.00000000000E+00 -0.13870673374E+04  0.13870673374E+04  0.00000000000E+00 0. -1.
        -24    2    1    2    0    0  0.22956056111E+02 -0.43942957638E+02 -0.20908847276E+03  0.22853360378E+03  0.77792381234E+02 0.  0.
         23    2    1    2    0    0 -0.29349646741E+03 -0.18822708144E+02 -0.86322001384E+03  0.91645904313E+03  0.90851057949E+02 0.  0.
         13    1    3    3    0    0 -0.11782125008E+02 -0.54024293206E+02 -0.11150791140E+03  0.12446468186E+03  0.00000000000E+00 0. -1.
        -14    1    3    3    0    0  0.34738181118E+02  0.10081335568E+02 -0.97580561358E+02  0.10406892192E+03  0.00000000000E+00 0.  1.
        -13    1    4    4    0    0 -0.19560204624E+03 -0.49941420633E+02 -0.63171629067E+03  0.66318909663E+03  0.00000000000E+00 0. -1.
         13    1    4    4    0    0 -0.97894421174E+02  0.31118712489E+02 -0.23150372316E+03  0.25326994651E+03  0.00000000000E+00 0.  1.
         21    1    1    2  503  501 -0.24281494795E+02 -0.49035097630E+01 -0.12313763819E+02  0.27663408627E+02  0.00000000000E+00 0.  1.
          2    1    1    2  501    0  0.29482190609E+03  0.67669175545E+02 -0.16991319343E+03  0.34694317537E+03  0.00000000000E+00 0. -1.
<scales pt_clust_5="13000.00000" pt_clust_6="13000.00000" pt_clust_7="13000.00000" pt_clust_8="13000.00000" pt_clust_9="24.77167" pt_clust_10="287.31566"></scales>
<clustering>
<clus scale="   24.772">  1  9  2 -1</clus>
<clus scale="   77.792">  5  6 -1 -1</clus>
<clus scale="   90.851">  7  8 -1 -1</clus>
<clus scale="   91.979">  2  5  1 -1</clus>
<clus scale="  287.316">  1 10  2 -1</clus>
<clus scale="   24.772">  1  5  2 -1</clus>
</clustering>
</event>
<event>
10    3  0.5078224E-005  0.9803152E+02  0.7546771E-02  0.1290512E+00
         21   -1    0    0  501  502  0.00000000000E+00  0.00000000000E+00  0.56298992585E+03  0.56298992585E+03  0.00000000000E+00 0. -1.
          1   -1    0    0  503    0 -0.00000000000E+00 -0.00000000000E+00 -0.41184981842E+03  0.41184981842E+03  0.00000000000E+00 0. -1.
         23    2    1    2    0    0  0.39130471338E+02  0.74336187325E+01 -0.23333056521E+03  0.25361283648E+03  0.91048699566E+02 0.  0.
        -24    2    1    2    0    0  0.96048161504E+01 -0.59356093029E+02  0.56023023169E+02  0.11443984459E+03  0.79639818130E+02 0.  0.
         11    1    4    4    0    0  0.24422235845E+02 -0.38196275712E+02 -0.74197092121E+01  0.45939668771E+02  0.00000000000E+00 0. -1.
        -12    1    4    4    0    0 -0.14817419694E+02 -0.21159817316E+02  0.63442732381E+02  0.68500175819E+02  0.00000000000E+00 0.  1.
        -13    1    3    3    0    0  0.47125802584E+02  0.40847733147E+02 -0.17661270948E+03  0.18730036765E+03  0.00000000000E+00 0.  1.
         13    1    3    3    0    0 -0.79953312458E+01 -0.33414114414E+02 -0.56717855730E+02  0.66312468831E+02  0.00000000000E+00 0. -1.
         21    1    1    2  503  502  0.31873503447E+02  0.53769510637E+02  0.45361298368E+03  0.45789935516E+03  0.00000000000E+00 0. -1.
          2    1    1    2  501    0 -0.80608790935E+02 -0.18470363408E+01 -0.12516533421E+03  0.14888770804E+03  0.00000000000E+00 0. -1.
<scales pt_clust_5="13000.00000" pt_clust_6="13000.00000" pt_clust_7="13000.00000" pt_clust_8="13000.00000" pt_clust_9="62.50664" pt_clust_10="77.19227"></scales>
<clustering>
<clus scale="   62.507">  1  9  2 -1</clus>
<clus scale="   77.192">  1 10  2 -1</clus>
<clus scale="   79.640">  5  6 -1 -1</clus>
<clus scale="   87.538">  1  5  2 -1</clus>
<clus scale="   91.049">  7  8 -1 -1</clus>
<clus scale="   62.507">  1  5  2 -1</clus>
</clustering>
</event>
<event>
10    3  0.5188530E-005  0.2686170E+03  0.7546771E-02  0.1139113E+00
         21   -1    0    0  501  502  0.00000000000E+00  0.00000000000E+00  0.34253236754E+03  0.34253236754E+03  0.00000000000E+00 0. -1.
         -4   -1    0    0    0  501 -0.00000000000E+00 -0.00000000000E+00 -0.61877637234E+03  0.61877637234E+03  0.00000000000E+00 0.  1.
         23    2    1    2    0    0 -0.11474029167E+02  0.55323320487E+02 -0.22302936127E+02  0.10940917266E+03  0.90997928369E+02 0.  0.
        -24    2    1    2    0    0 -0.11195976502E+03 -0.25596740058E+03  0.15227770801E+03  0.32864779546E+03  0.82259187678E+02 0.  0.
         13    1    4    4    0    0 -0.74532157987E+02 -0.23861414990E+03  0.13029330727E+03  0.28190087092E+03  0.00000000000E+00 0. -1.
        -14    1    4    4    0    0 -0.37427607034E+02 -0.17353250680E+02  0.21984400739E+02  0.46746924533E+02  0.00000000000E+00 0.  1.
        -13    1    3    3    0    0  0.28378894028E+02  0.15905039319E+02 -0.39127055479E+02  0.50884755796E+02  0.00000000000E+00 0.  1.
         13    1    3    3    0    0 -0.39852923195E+02  0.39418281167E+02  0.16824119352E+02  0.58524416865E+02  0.00000000000E+00 0. -1.
         21    1    1    2  503  502  0.58530253554E+02 -0.12454559843E+01  0.68340128625E+01  0.58941033869E+02  0.00000000000E+00 0.  1.
         -3    1    1    2    0  503  0.64903540634E+02  0.20188953608E+03 -0.41305278955E+03  0.46431073789E+03  0.00000000000E+00 0.  1.
<scales pt_clust_5="13000.00000" pt_clust_6="13000.00000" pt_clust_7="13000.00000" pt_clust_8="13000.00000" pt_clust_9="58.54350" pt_clust_10="255.71195"></scales>
<clustering>
<clus scale="   58.544">  1  9  2 -1</clus>
<clus scale="   82.259">  5  6 -1 -1</clus>
<clus scale="   90.998">  7  8 -1 -1</clus>
<clus scale="  106.454">  2  7  1 -1</clus>
<clus scale="  255.712">  1 10  2 -1</clus>
<clus scale="   58.544">  1  5  2 -1</clus>
</clustering>
</event>
<event>
10    3  0.5078224E-005  0.9880999E+02  0.7546771E-02  0.1289219E+00
         21   -1    0    0  501  502  0.00000000000E+00  0.00000000000E+00  0.94334096773E+02  0.94334096773E+02  0.00000000000E+00 0. -1.
          1   -1    0    0  503    0 -0.00000000000E+00 -0.00000000000E+00 -0.42772322449E+03  0.42772322449E+03  0.00000000000E+00 0. -1.
        -24    2    1    2    0    0 -0.42995504645E+02  0.33567637068E+02 -0.17638934768E+03  0.20119277226E+03  0.79937037450E+02 0.  0.
         23    2    1    2    0    0  0.19138793505E+02  0.63746522516E+02 -0.88916437273E+02  0.14428805361E+03  0.92103186962E+02 0.  0.
         11    1    3    3    0    0 -0.39772554158E+02  0.49649686102E+02 -0.74383631433E+02  0.97876820644E+02  0.00000000000E+00 0. -1.
        -12    1    3    3    0    0 -0.32229504866E+01 -0.16082049034E+02 -0.10200571624E+03  0.10331595161E+03  0.00000000000E+00 0.  1.
        -11    1    4    4    0    0 -0.15824836019E+02  0.20253352489E+02 -0.84484945691E+02  0.88308152344E+02  0.00000000000E+00 0.  1.
         11    1    4    4    0    0  0.34963629524E+02  0.43493170027E+02 -0.44314915825E+01  0.55979901269E+02  0.00000000000E+00 0. -1.
         21    1    1    2  503  502  0.36972489500E+02 -0.60577529170E+02  0.25323552062E+02  0.75351737268E+02  0.00000000000E+00 0. -1.
          2    1    1    2  501    0 -0.13115778360E+02 -0.36736630413E+02 -0.93406894825E+02  0.10122475812E+03  0.00000000000E+00 0. -1.
<scales pt_clust_5="13000.00000" pt_clust_6="13000.00000" pt_clust_7="13000.00000" pt_clust_8="13000.00000" pt_clust_9="86.28972" pt_clust_10="39.00776"></scales>
<clustering>
<clus scale="   39.008">  1 10  2 -1</clus>
<clus scale="   79.937">  5  6 -1 -1</clus>
<clus scale="   86.290">  1  9  2 -1</clus>
<clus scale="   87.581">  2  5  1 -1</clus>
<clus scale="   92.103">  7  8 -1 -1</clus>
<clus scale="   39.008">  1  5  2 -1</clus>
</clustering>
</event>
<event>
10    3  0.5078224E-005  0.1667672E+03  0.7546771E-02  0.1195622E+00
          1   -1    0    0  503    0 -0.00000000000E+00  0.00000000000E+00  0.13981602180E+04  0.13981602180E+04  0.00000000000E+00 0. -1.
         21   -1    0    0  501  502  0.00000000000E+00 -0.00000000000E+00 -0.14703733813E+03  0.14703733813E+03  0.00000000000E+00 0. -1.
         23    2    1    2    0    0  0.52641124989E+01  0.83644296583E+02 -0.35811132722E+02  0.12756414667E+03  0.89252983460E+02 0.  0.
        -24    2    1    2    0    0  0.86404038149E+02  0.76552290572E+02  0.11438209943E+04  0.11524919338E+04  0.81149734903E+02 0.  0.
         13    1    4    4    0    0  0.83515112229E+02  0.55910961482E+02  0.60680589295E+03  0.61507251711E+03  0.00000000000E+00 0. -1.
        -14    1    4    4    0    0  0.28889259199E+01  0.20641329091E+02  0.53701510131E+03  0.53741941666E+03  0.00000000000E+00 0.  1.
        -11    1    3    3    0    0 -0.41260425005E+02  0.28303278401E+02 -0.17190235447E+02  0.52905599274E+02  0.00000000000E+00 0.  1.
         11    1    3    3    0    0  0.46524537504E+02  0.55341018182E+02 -0.18620897276E+02  0.74658547392E+02  0.00000000000E+00 0. -1.
         21    1    1    2  503  502  0.34706882659E+01 -0.46318842070E+02  0.10056271681E+03  0.11077157045E+03  0.00000000000E+00 0. -1.
          2    1    1    2  501    0 -0.95138838914E+02 -0.11387774509E+03  0.42550301548E+02  0.15436990528E+03  0.00000000000E+00 0. -1.
<scales pt_clust_5="13000.00000" pt_clust_6="13000.00000" pt_clust_7="13000.00000" pt_clust_8="13000.00000" pt_clust_9="46.44869" pt_clust_10="145.69147"></scales>
<clustering>
<clus scale="   46.449">  1  9  2 -1</clus>
<clus scale="   81.150">  5  6 -1 -1</clus>
<clus scale="   89.253">  7  8 -1 -1</clus>
<clus scale="  121.323">  1  7  2 -1</clus>
<clus scale="  145.691">  2 10  1 -1</clus>
<clus scale="  145.691">  2  5  1 -1</clus>
</clustering>
</event>
<event>
10    3  0.5078224E-005  0.1109486E+03  0.7546771E-02  0.1268944E+00
          3   -1    0    0  502    0 -0.00000000000E+00  0.00000000000E+00  0.17009403563E+03  0.17009403563E+03  0.00000000000E+00 0. -1.
         21   -1    0    0  503  502  0.00000000000E+00 -0.00000000000E+00 -0.14114245626E+03  0.14114245626E+03  0.00000000000E+00 0. -1.
         23    2    1    2    0    0 -0.74201504014E+02  0.15933616420E+02  0.54392557915E+02  0.13822563992E+03  0.10192170448E+03 0.  0.
        -24    2    1    2    0    0  0.15039674657E+02 -0.43862748872E+01  0.79618317415E+01  0.81713252629E+02  0.79801213457E+02 0.  0.
         13    1    4    4    0    0  0.11538507984E+02 -0.34814101052E+02 -0.18643482230E+02  0.41142900095E+02  0.00000000000E+00 0. -1.
        -14    1    4    4    0    0  0.35011666733E+01  0.30427826164E+02  0.26605313972E+02  0.40570352534E+02  0.00000000000E+00 0.  1.
        -11    1    3    3    0    0 -0.36652140764E+02 -0.35789403895E+02 -0.43553861728E+01  0.51412354959E+02  0.00000000000E+00 0.  1.
         11    1    3    3    0    0 -0.37549363250E+02  0.51723020315E+02  0.58747944088E+02  0.86813284960E+02  0.00000000000E+00 0. -1.
         21    1    1    2  503  501  0.23925655326E+02 -0.18823566471E+02 -0.44257070035E+02  0.53716402388E+02  0.00000000000E+00 0. -1.
          4    1    1    2  501    0  0.35236174031E+02  0.72762249380E+01  0.10854259747E+02  0.37581196952E+02  0.00000000000E+00 0. -1.
<scales pt_clust_5="13000.00000" pt_clust_6="13000.00000" pt_clust_7="13000.00000" pt_clust_8="13000.00000" pt_clust_9="30.44279" pt_clust_10="38.97177"></scales>
<clustering>
<clus scale="   30.443">  2  9  1 -1</clus>
<clus scale="   38.972">  2 10  1 -1</clus>
<clus scale="   79.801">  5  6 -1 -1</clus>
<clus scale="   91.048">  2  5  1 -1</clus>
<clus scale="  101.922">  7  8 -1 -1</clus>
<clus scale="   30.443">  2  5  1 -1</clus>
</clustering>
</event>
<event>
10    3  0.5078224E-005  0.1340537E+03  0.7546771E-02  0.1224568E+00
         -4   -1    0    0    0  501 -0.00000000000E+00  0.00000000000E+00  0.19633171373E+03  0.19633171373E+03  0.00000000000E+00 0.  1.
         21   -1    0    0  503  502  0.00000000000E+00 -0.00000000000E+00 -0.21664509061E+03  0.21664509061E+03  0.00000000000E+00 0.  1.
         23    2    1    2    0    0  0.67700510662E+02  0.80461926520E+02  0.34370739033E+02  0.14302240981E+03  0.90645359741E+02 0.  0.
        -24    2    1    2    0    0 -0.87901248136E+02 -0.32256118027E+02 -0.88216537276E+02  0.15048119565E+03  0.78072698311E+02 0.  0.
         11    1    4    4    0    0 -0.20594930115E+02  0.24983572653E+02 -0.14777698907E+02  0.35590875712E+02  0.00000000000E+00 0. -1.
        -12    1    4    4    0    0 -0.67306318021E+02 -0.57239690681E+02 -0.73438838369E+02  0.11489031994E+03  0.00000000000E+00 0.  1.
        -11    1    3    3    0    0  0.56731855810E+02  0.99026531061E+02  0.39659123033E+02  0.12082054195E+03  0.00000000000E+00 0.  1.
         11    1    3    3    0    0  0.10968654852E+02 -0.18564604541E+02 -0.52883839999E+01  0.22201867857E+02  0.00000000000E+00 0. -1.
         21    1    1    2  503  501  0.15802816631E+02  0.15329860743E+02 -0.24762085102E+02  0.33134491130E+02  0.00000000000E+00 0.  1.
         -3    1    1    2    0  502  0.43979208424E+01 -0.63535669236E+02  0.58294506461E+02  0.86338707754E+02  0.00000000000E+00 0.  1.
<scales pt_clust_5="13000.00000" pt_clust_6="13000.00000" pt_clust_7="13000.00000" pt_clust_8="13000.00000" pt_clust_9="22.01667" pt_clust_10="62.63936"></scales>
<clustering>
<clus scale="   22.017">  2  9  1 -1</clus>
<clus scale="   62.639">  2 10  1 -1</clus>
<clus scale="   78.073">  5  6 -1 -1</clus>
<clus scale="   90.645">  7  8 -1 -1</clus>
<clus scale="  125.893">  2  5  1 -1</clus>
<clus scale="   22.017">  2  5  1 -1</clus>
</clustering>
</event>
<event>
10    3  0.5078224E-005  0.1514030E+03  0.7546771E-02  0.1221403E+00
          1   -1    0    0  502    0 -0.00000000000E+00  0.00000000000E+00  0.40464234524E+03  0.40464234524E+03  0.00000000000E+00 0. -1.
         21   -1    0    0  503  502  0.00000000000E+00 -0.00000000000E+00 -0.18247357820E+03  0.18247357820E+03  0.00000000000E+00 0. -1.
         23    2    1    2    0    0 -0.79867615742E+01  0.83795309644E+01  0.22296929691E+03  0.24173865280E+03  0.92672887049E+02 0.  0.
        -24    2    1    2    0    0 -0.14864820369E+03 -0.18018674626E+02 -0.95916755727E+01  0.17022389651E+03  0.80394114244E+02 0.  0.
         13    1    4    4    0    0 -0.10635592848E+03 -0.16660844739E+02  0.30544598933E+02  0.11190236724E+03  0.00000000000E+00 0. -1.
        -14    1    4    4    0    0 -0.42292275218E+02 -0.13578298871E+01 -0.40136274506E+02  0.58321529270E+02  0.00000000000E+00 0.  1.
        -11    1    3    3    0    0  0.39730253202E+02 -0.26826681213E+01  0.13833085917E+03  0.14394831130E+03  0.00000000000E+00 0.  1.
         11    1    3    3    0    0 -0.47717014776E+02  0.11062199086E+02  0.84638437747E+02  0.97790341506E+02  0.00000000000E+00 0. -1.
         21    1    1    2  503  501  0.36581899020E+02  0.21872918259E+02 -0.25541982664E+02  0.49689563969E+02  0.00000000000E+00 0. -1.
          2    1    1    2  501    0  0.12005306625E+03 -0.12233774597E+02  0.34333128360E+02  0.12546381016E+03  0.00000000000E+00 0. -1.
<scales pt_clust_5="13000.00000" pt_clust_6="13000.00000" pt_clust_7="13000.00000" pt_clust_8="13000.00000" pt_clust_9="42.62229" pt_clust_10="128.29528"></scales>
<clustering>
<clus scale="   42.622">  2  9  1 -1</clus>
<clus scale="   80.394">  5  6 -1 -1</clus>
<clus scale="   92.673">  7  8 -1 -1</clus>
<clus scale="   93.358">  1  7  2 -1</clus>
<clus scale="  128.295">  2 10  1 -1</clus>
<clus scale="   42.622">  2  5  1 -1</clus>
</clustering>
</event>
<event>
10    3  0.5078224E-005  0.6518369E+03  0.7546771E-02  0.9803338E-01
         -4   -1    0    0    0  501 -0.00000000000E+00  0.00000000000E+00  0.84012954465E+03  0.84012954465E+03  0.00000000000E+00 0.  1.
         21   -1    0    0  503  502  0.00000000000E+00 -0.00000000000E+00 -0.66134605952E+03  0.66134605952E+03  0.00000000000E+00 0.  1.
        -24    2    1    2    0    0  0.17897076058E+03  0.59716723192E+02  0.10899469212E+03  0.23166682804E+03  0.78695972777E+02 0.  0.
         23    2    1    2    0    0  0.38614242872E+03  0.21790045678E+03 -0.10194961114E+03  0.46369033411E+03  0.89601442003E+02 0.  0.
         13    1    3    3    0    0  0.31297980649E+02  0.44691108301E+02  0.17499417504E+02  0.57298240521E+02  0.00000000000E+00 0. -1.
        -14    1    3    3    0    0  0.14767277993E+03  0.15025614892E+02  0.91495274618E+02  0.17436858752E+03  0.00000000000E+00 0.  1.
        -11    1    4    4    0    0  0.20256284041E+03  0.16263288760E+03 -0.72707516653E+02  0.26975459852E+03  0.00000000000E+00 0.  1.
         11    1    4    4    0    0  0.18357958831E+03  0.55267569174E+02 -0.29242094483E+02  0.19393573558E+03  0.00000000000E+00 0. -1.
         21    1    1    2  503  501 -0.99949648917E+02  0.33454931843E+02 -0.13238955913E+03  0.16922222120E+03  0.00000000000E+00 0.  1.
         -3    1    1    2    0  502 -0.46516354038E+03 -0.31107211181E+03  0.30412796327E+03  0.63689622082E+03  0.00000000000E+00 0.  1.
<scales pt_clust_5="13000.00000" pt_clust_6="13000.00000" pt_clust_7="13000.00000" pt_clust_8="13000.00000" pt_clust_9="105.40002" pt_clust_10="581.24347"></scales>
<clustering>
<clus scale="   78.696">  5  6 -1 -1</clus>
<clus scale="   89.601">  7  8 -1 -1</clus>
<clus scale="  105.400">  2  9  1 -1</clus>
<clus scale="  178.591">  5  7 -1 -1</clus>
<clus scale="  581.243">  2 10  1 -1</clus>
<clus scale="  105.400">  2  5  1 -1</clus>
</clustering>
</event>
<event>
10    3  0.5078224E-005  0.2189465E+03  0.7546771E-02  0.1163521E+00
          1   -1    0    0  502    0 -0.00000000000E+00  0.00000000000E+00  0.23097885639E+04  0.23097885639E+04  0.00000000000E+00 0. -1.
         21   -1    0    0  503  502  0.00000000000E+00 -0.00000000000E+00 -0.70794846161E+02  0.70794846161E+02  0.00000000000E+00 0. -1.
        -24    2    1    2    0    0 -0.73025155831E+02  0.29969868025E+02  0.56844521881E+03  0.57951036317E+03  0.80445185453E+02 0.  0.
         23    2    1    2    0    0  0.15061661993E+02  0.19719284973E+03  0.65941021733E+03  0.69466855328E+03  0.92901509932E+02 0.  0.
         11    1    3    3    0    0 -0.42253376416E+02  0.74707556562E+01  0.91688481720E+02  0.10123209811E+03  0.00000000000E+00 0. -1.
        -12    1    3    3    0    0 -0.30771779415E+02  0.22499112369E+02  0.47675673709E+03  0.47827826506E+03  0.00000000000E+00 0.  1.
        -11    1    4    4    0    0  0.40235337177E+02  0.47343912310E+02  0.26028586200E+03  0.26759868898E+03  0.00000000000E+00 0.  1.
         11    1    4    4    0    0 -0.25173675184E+02  0.14984893742E+03  0.39912435534E+03  0.42706986430E+03  0.00000000000E+00 0. -1.
         21    1    1    2  503  501  0.15345892005E+02 -0.17023498993E+02 -0.33166298446E+02  0.40315000583E+02  0.00000000000E+00 0. -1.
          2    1    1    2  501    0  0.42617601832E+02 -0.21013921876E+03  0.10443045801E+04  0.10660894931E+04  0.00000000000E+00 0. -1.
<scales pt_clust_5="13000.00000" pt_clust_6="13000.00000" pt_clust_7="13000.00000" pt_clust_8="13000.00000" pt_clust_9="22.91934" pt_clust_10="198.25969"></scales>
<clustering>
<clus scale="   22.919">  2  9  1 -1</clus>
<clus scale="   80.445">  5  6 -1 -1</clus>
<clus scale="   92.902">  7  8 -1 -1</clus>
<clus scale="  110.391">  1  5  2 -1</clus>
<clus scale="  198.260">  2 10  1 -1</clus>
<clus scale="   22.919">  2  5  1 -1</clus>
</clustering>
</event>
<event>
10    3  0.5078224E-005  0.1554353E+03  0.7546771E-02  0.1221195E+00
         21   -1    0    0  501  502  0.00000000000E+00  0.00000000000E+00  0.11148082448E+03  0.11148082448E+03  0.00000000000E+00 0.  1.
          1   -1    0    0  503    0 -0.00000000000E+00 -0.00000000000E+00 -0.88820285395E+03  0.88820285395E+03  0.00000000000E+00 0. -1.
        -24    2    1    2    0    0  0.17984444004E+02 -0.25874457072E+02 -0.11135254937E+03  0.14109898877E+03  0.80725501700E+02 0.  0.
         23    2    1    2    0    0 -0.29267933856E+02  0.24986489620E+02 -0.11589488302E+03  0.17176681242E+03  0.12079435964E+03 0.  0.
         11    1    3    3    0    0  0.46606365594E+01 -0.40621014253E+02 -0.11394268217E+03  0.12105669396E+03  0.00000000000E+00 0. -1.
        -12    1    3    3    0    0  0.13323807444E+02  0.14746557181E+02  0.25901327932E+01  0.20042294814E+02  0.00000000000E+00 0.  1.
        -11    1    4    4    0    0  0.17048670754E+02 -0.41989999882E+02 -0.43103378242E+02  0.62543732543E+02  0.00000000000E+00 0. -1.
         11    1    4    4    0    0 -0.46316604610E+02  0.66976489501E+02 -0.72791504781E+02  0.10922307987E+03  0.00000000000E+00 0.  1.
         21    1    1    2  503  502 -0.66290618342E+02  0.13981179985E+03 -0.49996774107E+02  0.16260831122E+03  0.00000000000E+00 0. -1.
          2    1    1    2  501    0  0.77574108195E+02 -0.13892383239E+03 -0.49947782297E+03  0.52420956602E+03  0.00000000000E+00 0. -1.
<scales pt_clust_5="13000.00000" pt_clust_6="13000.00000" pt_clust_7="13000.00000" pt_clust_8="13000.00000" pt_clust_9="13000.00000" pt_clust_10="155.43532"></scales>
<clustering>
<clus scale="   80.726">  5  6 -1 -1</clus>
<clus scale="   86.658">  2  5  1 -1</clus>
<clus scale="  120.794">  7  8 -1 -1</clus>
<clus scale="  125.159">  2  7  1 -1</clus>
<clus scale="  155.435">  2 10  1 -1</clus>
<clus scale="  155.435">  1  5  2 -1</clus>
</clustering>
</event>
<event>
10    3  0.5078224E-005  0.2622598E+03  0.7546771E-02  0.1106402E+00
          1   -1    0    0  503    0 -0.00000000000E+00  0.00000000000E+00  0.72036047519E+02  0.72036047519E+02  0.00000000000E+00 0. -1.
         21   -1    0    0  501  502  0.00000000000E+00 -0.00000000000E+00 -0.13598610966E+04  0.13598610966E+04  0.00000000000E+00 0. -1.
        -24    2    1    2    0    0 -0.17682902593E+03  0.19594024533E+03 -0.49646380716E+03  0.56785239775E+03  0.79491821341E+02 0.  0.
         23    2    1    2    0    0  0.19264468845E+03 -0.13111178371E+03 -0.69751067747E+03  0.74111961461E+03  0.91841505718E+02 0.  0.
         11    1    3    3    0    0 -0.14271761845E+03  0.18422062305E+03 -0.37838902944E+03  0.44439151001E+03  0.00000000000E+00 0. -1.
        -12    1    3    3    0    0 -0.34111407479E+02  0.11719622277E+02 -0.11807477772E+03  0.12346088773E+03  0.00000000000E+00 0.  1.
        -13    1    4    4    0    0  0.12752603323E+03 -0.38994707815E+02 -0.30865683609E+03  0.33623283429E+03  0.00000000000E+00 0.  1.
         13    1    4    4    0    0  0.65118655212E+02 -0.92117075893E+02 -0.38885384137E+03  0.40488678032E+03  0.00000000000E+00 0. -1.
         21    1    1    2  503  502  0.12656890031E+02 -0.20451590639E+02 -0.45115808400E+02  0.51126319959E+02  0.00000000000E+00 0.  1.
          2    1    1    2  501    0 -0.28472552544E+02 -0.44376870982E+02 -0.48734756035E+02  0.71798811775E+02  0.00000000000E+00 0. -1.
<scales pt_clust_5="13000.00000" pt_clust_6="13000.00000" pt_clust_7="13000.00000" pt_clust_8="13000.00000" pt_clust_9="24.05129" pt_clust_10="54.57992"></scales>
<clustering>
<clus scale="   24.051">  1  9  2 -1</clus>
<clus scale="   54.580">  2 10  1 -1</clus>
<clus scale="   79.492">  5  6 -1 -1</clus>
<clus scale="   91.842">  7  8 -1 -1</clus>
<clus scale="  258.194">  1  5  2 -1</clus>
<clus scale="   54.580">  2  5  1 -1</clus>
</clustering>
</event>
<event>
10    3  0.5078224E-005  0.1754113E+03  0.7546771E-02  0.1172964E+00
          1   -1    0    0  503    0 -0.00000000000E+00  0.00000000000E+00  0.11149827632E+04  0.11149827632E+04  0.00000000000E+00 0. -1.
         21   -1    0    0  501  502  0.00000000000E+00 -0.00000000000E+00 -0.83027573565E+02  0.83027573565E+02  0.00000000000E+00 0.  1.
         23    2    1    2    0    0 -0.89075134734E+02  0.11338824836E+03  0.79739314226E+03  0.81551835405E+03  0.91886277428E+02 0.  0.
        -24    2    1    2    0    0  0.88539805271E+02 -0.12540083030E+03  0.26132157949E+03  0.31809888873E+03  0.96608849210E+02 0.  0.
         13    1    4    4    0    0  0.23230091694E+02  0.13540470971E+02  0.51644073596E+02  0.58224495290E+02  0.00000000000E+00 0. -1.
        -14    1    4    4    0    0  0.65309713577E+02 -0.13894130127E+03  0.20967750589E+03  0.25987439344E+03  0.00000000000E+00 0.  1.
        -11    1    3    3    0    0 -0.37994122314E+02  0.11367377126E+03  0.55059922789E+03  0.56349338004E+03  0.00000000000E+00 0.  1.
         11    1    3    3    0    0 -0.51081012420E+02 -0.28552289649E+00  0.24679391437E+03  0.25202497401E+03  0.00000000000E+00 0. -1.
         21    1    1    2  503  502  0.16009665242E+02  0.26110619457E+02 -0.26815255081E+00  0.30629164784E+02  0.00000000000E+00 0. -1.
          2    1    1    2  501    0 -0.15474335778E+02 -0.14098037515E+02 -0.26491379515E+02  0.33763929247E+02  0.00000000000E+00 0. -1.
<scales pt_clust_5="13000.00000" pt_clust_6="13000.00000" pt_clust_7="13000.00000" pt_clust_8="13000.00000" pt_clust_9="24.81426" pt_clust_10="20.93346"></scales>
<clustering>
<clus scale="   20.933">  2 10  1 -1</clus>
<clus scale="   24.814">  2  9  1 -1</clus>
<clus scale="   91.886">  7  8 -1 -1</clus>
<clus scale="   96.609">  5  6 -1 -1</clus>
<clus scale="  172.855">  1  7  2 -1</clus>
<clus scale="   20.933">  2  5  1 -1</clus>
</clustering>
</event>
<event>
10    3  0.5078224E-005  0.1234092E+03  0.7546771E-02  0.1241050E+00
         21   -1    0    0  503  502  0.00000000000E+00  0.00000000000E+00  0.87524866977E+02  0.87524866977E+02  0.00000000000E+00 0.  1.
          3   -1    0    0  502    0 -0.00000000000E+00 -0.00000000000E+00 -0.59425747956E+03  0.59425747956E+03  0.00000000000E+00 0. -1.
        -24    2    1    2    0    0 -0.12623258518E+02 -0.86068395376E+02 -0.16577613815E+03  0.20377166497E+03  0.80461469840E+02 0.  0.
         23    2    1    2    0    0 -0.14523434582E+02  0.70763877876E+02 -0.13551460000E+02  0.11782263024E+03  0.92087314892E+02 0.  0.
         11    1    3    3    0    0  0.27392128597E+02 -0.57378654069E+01 -0.49820517209E+02  0.57143116326E+02  0.00000000000E+00 0. -1.
        -12    1    3    3    0    0 -0.40015387115E+02 -0.80330529969E+02 -0.11595562094E+03  0.14662854865E+03  0.00000000000E+00 0.  1.
        -11    1    4    4    0    0 -0.18524121163E+02  0.91365938204E+02 -0.72728287909E+00  0.93227714062E+02  0.00000000000E+00 0.  1.
         11    1    4    4    0    0  0.40006865808E+01 -0.20602060329E+02 -0.12824177121E+02  0.24594916176E+02  0.00000000000E+00 0. -1.
         21    1    1    2  503  501 -0.42680552352E+02 -0.26433373156E+01 -0.25487939701E+02  0.49782043464E+02  0.00000000000E+00 0.  1.
          4    1    1    2  501    0  0.69827245452E+02  0.17947854816E+02 -0.30191707474E+03  0.31040600787E+03  0.00000000000E+00 0. -1.
<scales pt_clust_5="13000.00000" pt_clust_6="13000.00000" pt_clust_7="13000.00000" pt_clust_8="13000.00000" pt_clust_9="42.76233" pt_clust_10="69.73376"></scales>
<clustering>
<clus scale="   42.762">  1  9  2 -1</clus>
<clus scale="   69.734">  1 10  2 -1</clus>
<clus scale="   80.461">  5  6 -1 -1</clus>
<clus scale="   92.087">  7  8 -1 -1</clus>
<clus scale="  114.995">  2  5  1 -1</clus>
<clus scale="   42.762">  1  5  2 -1</clus>
</clustering>
</event>
<event>
10    3  0.5078224E-005  0.2222635E+03  0.7546771E-02  0.1163460E+00
         21   -1    0    0  501  502  0.00000000000E+00  0.00000000000E+00  0.23964173431E+03  0.23964173431E+03  0.00000000000E+00 0.  1.
         -2   -1    0    0    0  501 -0.00000000000E+00 -0.00000000000E+00 -0.82806698289E+03  0.82806698289E+03  0.00000000000E+00 0.  1.
        -24    2    1    2    0    0 -0.57307469663E+01 -0.75413593390E+02 -0.20979597287E+03  0.23746754025E+03  0.81586953087E+02 0.  0.
         23    2    1    2    0    0  0.40446123781E+02  0.19995701371E+03 -0.19125598912E+03  0.29519577690E+03  0.94567420733E+02 0.  0.
         13    1    3    3    0    0 -0.40784218178E+02 -0.60931913665E+02 -0.13779775959E+03  0.15609059262E+03  0.00000000000E+00 0. -1.
        -14    1    3    3    0    0  0.35053471212E+02 -0.14481679725E+02 -0.71998213274E+02  0.81376947635E+02  0.00000000000E+00 0.  1.
        -11    1    4    4    0    0 -0.18068800007E+02  0.13261671367E+03 -0.13275208408E+03  0.18851204234E+03  0.00000000000E+00 0.  1.
         11    1    4    4    0    0  0.58514923788E+02  0.67340300040E+02 -0.58503905045E+02  0.10668373457E+03  0.00000000000E+00 0. -1.
         21    1    1    2  503  502 -0.92604802471E+01  0.55613594497E+02  0.14530691833E+03  0.15586124888E+03  0.00000000000E+00 0.  1.
         -1    1    1    2    0  503 -0.25454896567E+02 -0.18015701482E+03 -0.33268020492E+03  0.37918415116E+03  0.00000000000E+00 0.  1.
<scales pt_clust_5="13000.00000" pt_clust_6="13000.00000" pt_clust_7="13000.00000" pt_clust_8="13000.00000" pt_clust_9="56.37933" pt_clust_10="201.14204"></scales>
<clustering>
<clus scale="   56.379">  1  9  2 -1</clus>
<clus scale="   81.587">  5  6 -1 -1</clus>
<clus scale="   94.567">  7  8 -1 -1</clus>
<clus scale="  105.672">  2  5  1 -1</clus>
<clus scale="  201.142">  1 10  2 -1</clus>
<clus scale="   56.379">  1  5  2 -1</clus>
</clustering>
</event>
<event>
10    3  0.5078224E-005  0.1357042E+03  0.7546771E-02  0.1236255E+00
         -2   -1    0    0    0  501 -0.00000000000E+00  0.00000000000E+00  0.46424805304E+03  0.46424805304E+03  0.00000000000E+00 0.  1.
         21   -1    0    0  501  502  0.00000000000E+00 -0.00000000000E+00 -0.99956509560E+02  0.99956509560E+02  0.00000000000E+00 0.  1.
        -24    2    1    2    0    0  0.14891304416E+02  0.83198540479E+01  0.68411604464E+02  0.11448467948E+03  0.90197690056E+02 0.  0.
         23    2    1    2    0    0  0.54614828971E+02 -0.65106271797E+02  0.47065595702E+02  0.13578140559E+03  0.94867347568E+02 0.  0.
         13    1    3    3    0    0 -0.14734967342E+02 -0.26831784573E+02  0.60547198297E+02  0.67845612589E+02  0.00000000000E+00 0. -1.
        -14    1    3    3    0    0  0.29626271758E+02  0.35151638621E+02  0.78644061671E+01  0.46639066890E+02  0.00000000000E+00 0.  1.
        -13    1    4    4    0    0  0.29993145569E+02 -0.58294947519E+02 -0.16219259114E+02  0.67534835852E+02  0.00000000000E+00 0.  1.
         13    1    4    4    0    0  0.24621683402E+02 -0.68113242784E+01  0.63284854817E+02  0.68246569739E+02  0.00000000000E+00 0. -1.
         21    1    1    2  503  502  0.40489492207E+02  0.26531023159E+02  0.10221575262E+02  0.49474991358E+02  0.00000000000E+00 0.  1.
         -1    1    1    2    0  503 -0.10999562559E+03  0.30255394591E+02  0.23859276805E+03  0.26446348617E+03  0.00000000000E+00 0.  1.
<scales pt_clust_5="13000.00000" pt_clust_6="13000.00000" pt_clust_7="13000.00000" pt_clust_8="13000.00000" pt_clust_9="48.40758" pt_clust_10="97.03519"></scales>
<clustering>
<clus scale="   48.408">  2  9  1 -1</clus>
<clus scale="   90.198">  5  6 -1 -1</clus>
<clus scale="   94.867">  7  8 -1 -1</clus>
<clus scale="   95.351">  1  5  2 -1</clus>
<clus scale="   97.035">  2 10  1 -1</clus>
<clus scale="   48.408">  2  5  1 -1</clus>
</clustering>
</event>
<event>
10    3  0.5078224E-005  0.1016595E+03  0.7546771E-02  0.1282580E+00
          1   -1    0    0  503    0 -0.00000000000E+00  0.00000000000E+00  0.51172345240E+03  0.51172345240E+03  0.00000000000E+00 0. -1.
         21   -1    0    0  501  502  0.00000000000E+00 -0.00000000000E+00 -0.50419538303E+02  0.50419538303E+02  0.00000000000E+00 0. -1.
         23    2    1    2    0    0 -0.83662884854E+01  0.40538639889E+02  0.14509057536E+03  0.17689574935E+03  0.92344220028E+02 0.  0.
        -24    2    1    2    0    0 -0.38802683453E+02 -0.40354945893E+02  0.10695677059E+03  0.14516803523E+03  0.80621571404E+02 0.  0.
         11    1    4    4    0    0 -0.62305868623E+02 -0.33867905828E+02  0.93396910561E+02  0.11726908890E+03  0.00000000000E+00 0. -1.
        -12    1    4    4    0    0  0.23503185170E+02 -0.64870400660E+01  0.13559860028E+02  0.27898946323E+02  0.00000000000E+00 0.  1.
        -13    1    3    3    0    0 -0.32711875925E+02  0.60684668865E+02  0.89786769478E+02  0.11320052931E+03  0.00000000000E+00 0.  1.
         13    1    3    3    0    0  0.24345587440E+02 -0.20146028977E+02  0.55303805880E+02  0.63695220041E+02  0.00000000000E+00 0. -1.
         21    1    1    2  503  502  0.26699296766E+02 -0.23934977910E+02  0.84499092893E+01  0.36839334716E+02  0.00000000000E+00 0. -1.
          2    1    1    2  501    0  0.20469675172E+02  0.23751283915E+02  0.20080665886E+03  0.20323987141E+03  0.00000000000E+00 0. -1.
<scales pt_clust_5="13000.00000" pt_clust_6="13000.00000" pt_clust_7="13000.00000" pt_clust_8="13000.00000" pt_clust_9="36.80882" pt_clust_10="31.35494"></scales>
<clustering>
<clus scale="   31.355">  2 10  1 -1</clus>
<clus scale="   36.809">  2  9  1 -1</clus>
<clus scale="   80.622">  5  6 -1 -1</clus>
<clus scale="   91.143">  2  5  1 -1</clus>
<clus scale="   92.344">  7  8 -1 -1</clus>
<clus scale="   31.355">  2  5  1 -1</clus>
</clustering>
</event>
<event>
10    3  0.5078224E-005  0.2389477E+03  0.7546771E-02  0.1163235E+00
          1   -1    0    0  503    0 -0.00000000000E+00  0.00000000000E+00  0.20760104773E+04  0.20760104773E+04  0.00000000000E+00 0. -1.
         21   -1    0    0  501  502  0.00000000000E+00 -0.00000000000E+00 -0.69592409464E+02  0.69592409464E+02  0.00000000000E+00 0. -1.
        -24    2    1    2    0    0  0.15178549618E+01  0.23451734200E+02  0.17198247597E+03  0.19018262277E+03  0.77712098433E+02 0.  0.
         23    2    1    2    0    0  0.75308517362E+02 -0.25159578693E+03  0.69755987663E+03  0.75096731933E+03  0.91598692297E+02 0.  0.
         11    1    3    3    0    0 -0.27451847013E+02  0.38617029454E+02  0.85926357232E+02  0.98123482080E+02  0.00000000000E+00 0. -1.
        -12    1    3    3    0    0  0.28969701975E+02 -0.15165295254E+02  0.86056118739E+02  0.92059140692E+02  0.00000000000E+00 0.  1.
        -11    1    4    4    0    0  0.47068559163E+02 -0.73769105513E+02  0.33386854735E+03  0.34514567519E+03  0.00000000000E+00 0.  1.
         11    1    4    4    0    0  0.28239958199E+02 -0.17782668142E+03  0.36369132928E+03  0.40582164415E+03  0.00000000000E+00 0. -1.
         21    1    1    2  503  502  0.95189964532E+01  0.57811703160E+02  0.75264135464E+01  0.59071577062E+02  0.00000000000E+00 0. -1.
          2    1    1    2  501    0 -0.86345368777E+02  0.17033234957E+03  0.11293493017E+04  0.11453813676E+04  0.00000000000E+00 0. -1.
<scales pt_clust_5="13000.00000" pt_clust_6="13000.00000" pt_clust_7="13000.00000" pt_clust_8="13000.00000" pt_clust_9="58.59014" pt_clust_10="220.69374"></scales>
<clustering>
<clus scale="   58.590">  2  9  1 -1</clus>
<clus scale="   77.712">  5  6 -1 -1</clus>
<clus scale="   85.490">  1  5  2 -1</clus>
<clus scale="   91.599">  7  8 -1 -1</clus>
<clus scale="  220.694">  2 10  1 -1</clus>
<clus scale="   58.590">  2  5  1 -1</clus>
</clustering>
</event>
<event>
10    3  0.5078224E-005  0.1330297E+03  0.7546771E-02  0.1226770E+00
         21   -1    0    0  501  502  0.00000000000E+00  0.00000000000E+00  0.18186342387E+03  0.18186342387E+03  0.00000000000E+00 0. -1.
          3   -1    0    0  503    0 -0.00000000000E+00 -0.00000000000E+00 -0.46477700922E+03  0.46477700922E+03  0.00000000000E+00 0. -1.
         23    2    1    2    0    0  0.39307415866E+02  0.21224370777E+02  0.16047230060E+02  0.10925103964E+03  0.98400859817E+02 0.  0.
        -24    2    1    2    0    0 -0.90336355191E+02  0.63864542620E+02 -0.18573822463E+03  0.22684860416E+03  0.68718732890E+02 0.  0.
         11    1    4    4    0    0 -0.83483829732E+02  0.67506059581E+02 -0.12147967359E+03  0.16212319083E+03  0.00000000000E+00 0. -1.
        -12    1    4    4    0    0 -0.68525254593E+01 -0.36415169615E+01 -0.64258551032E+02  0.64725413337E+02  0.00000000000E+00 0.  1.
        -13    1    3    3    0    0  0.57092920521E+02 -0.96263384488E+01 -0.17337472327E+02  0.60438860944E+02  0.00000000000E+00 0. -1.
         13    1    3    3    0    0 -0.17785504654E+02  0.30850709226E+02  0.33384702387E+02  0.48812178695E+02  0.00000000000E+00 0.  1.
         21    1    1    2  503  502  0.26773478696E+02  0.46953692553E+02  0.66826739888E+02  0.85949296506E+02  0.00000000000E+00 0. -1.
          4    1    1    2  501    0  0.24255460628E+02 -0.13204260595E+03 -0.18004933067E+03  0.22459149278E+03  0.00000000000E+00 0. -1.
<scales pt_clust_5="13000.00000" pt_clust_6="13000.00000" pt_clust_7="13000.00000" pt_clust_8="13000.00000" pt_clust_9="54.05061" pt_clust_10="113.90624"></scales>
<clustering>
<clus scale="   54.051">  1  9  2 -1</clus>
<clus scale="   68.719">  5  6 -1 -1</clus>
<clus scale="   98.401">  7  8 -1 -1</clus>
<clus scale="  123.057">  2  7  1 -1</clus>
<clus scale="  113.906">  1 10  2 -1</clus>
<clus scale="   54.051">  1  5  2 -1</clus>
</clustering>
</event>
<event>
10    3  0.5078224E-005  0.1951984E+03  0.7546771E-02  0.1180910E+00
          3   -1    0    0  503    0 -0.00000000000E+00  0.00000000000E+00  0.29059925151E+03  0.29059925151E+03  0.00000000000E+00 0. -1.
         21   -1    0    0  501  502  0.00000000000E+00 -0.00000000000E+00 -0.30432197563E+03  0.30432197563E+03  0.00000000000E+00 0.  1.
        -24    2    1    2    0    0 -0.60370897469E+01 -0.68610851231E+02  0.12193295727E+03  0.16188842629E+03  0.81217739052E+02 0.  0.
         23    2    1    2    0    0  0.14062329459E+03  0.12402027198E+03 -0.11348161851E+03  0.23676331403E+03  0.89570364996E+02 0.  0.
         13    1    3    3    0    0 -0.11053317987E+02  0.16800372276E+02  0.15869518368E+02  0.25617766498E+02  0.00000000000E+00 0. -1.
        -14    1    3    3    0    0  0.50162282399E+01 -0.85411223507E+02  0.10606343890E+03  0.13627065979E+03  0.00000000000E+00 0.  1.
        -11    1    4    4    0    0  0.11414619904E+03  0.13637728668E+03 -0.10412606658E+03  0.20608337347E+03  0.00000000000E+00 0.  1.
         11    1    4    4    0    0  0.26477095547E+02 -0.12357014697E+02 -0.93555519271E+01  0.30679940559E+02  0.00000000000E+00 0. -1.
         21    1    1    2  503  502 -0.99494120643E+01  0.37981655114E+02 -0.50617974449E+01  0.39588113355E+02  0.00000000000E+00 0.  1.
          4    1    1    2  501    0 -0.12463679278E+03 -0.93391075867E+02 -0.17112265436E+02  0.15668137347E+03  0.00000000000E+00 0. -1.
<scales pt_clust_5="13000.00000" pt_clust_6="13000.00000" pt_clust_7="13000.00000" pt_clust_8="13000.00000" pt_clust_9="39.26318" pt_clust_10="173.43475"></scales>
<clustering>
<clus scale="   39.263">  2  9  1 -1</clus>
<clus scale="   81.218">  5  6 -1 -1</clus>
<clus scale="   89.570">  7  8 -1 -1</clus>
<clus scale="  104.820">  1  5  2 -1</clus>
<clus scale="  173.435">  2 10  1 -1</clus>
<clus scale="   39.263">  2  5  1 -1</clus>
</clustering>
</event>
<event>
10    3  0.5078224E-005  0.1351321E+03  0.7546771E-02  0.1235835E+00
          1   -1    0    0  503    0 -0.00000000000E+00  0.00000000000E+00  0.85241174734E+03  0.85241174734E+03  0.00000000000E+00 0. -1.
         21   -1    0    0  501  502  0.00000000000E+00 -0.00000000000E+00 -0.43661923561E+02  0.43661923561E+02  0.00000000000E+00 0. -1.
        -24    2    1    2    0    0 -0.67435692837E+02  0.29664829261E+02  0.24681162696E+03  0.26806183989E+03  0.74253592779E+02 0.  0.
         23    2    1    2    0    0  0.50229808535E+02  0.80653370835E+02  0.20404493893E+03  0.24331581113E+03  0.92413456537E+02 0.  0.
         11    1    3    3    0    0  0.78389511579E+01  0.26984730509E+02  0.86214937030E+02  0.90678774821E+02  0.00000000000E+00 0. -1.
        -12    1    3    3    0    0 -0.75274643995E+02  0.26800987525E+01  0.16059668993E+03  0.17738306507E+03  0.00000000000E+00 0.  1.
        -11    1    4    4    0    0  0.30826689531E+02  0.26859046904E+02  0.17395632082E+03  0.17869665565E+03  0.00000000000E+00 0.  1.
         11    1    4    4    0    0  0.19403119004E+02  0.53794323932E+02  0.30088618106E+02  0.64619155472E+02  0.00000000000E+00 0. -1.
         21    1    1    2  503  502  0.33038319618E+02 -0.36878008706E+01  0.88126987415E+02  0.94188621125E+02  0.00000000000E+00 0. -1.
          2    1    1    2  501    0 -0.15832435316E+02 -0.10663039923E+03  0.26976627048E+03  0.29050739876E+03  0.00000000000E+00 0. -1.
<scales pt_clust_5="13000.00000" pt_clust_6="13000.00000" pt_clust_7="13000.00000" pt_clust_8="13000.00000" pt_clust_9="33.24350" pt_clust_10="98.59226"></scales>
<clustering>
<clus scale="   33.244">  1  9  2 -1</clus>
<clus scale="   74.254">  5  6 -1 -1</clus>
<clus scale="   92.413">  7  8 -1 -1</clus>
<clus scale="   97.400">  1  5  2 -1</clus>
<clus scale="   98.592">  2 10  1 -1</clus>
<clus scale="   98.592">  2  5  1 -1</clus>
</clustering>
</event>
<event>
10    3  0.7585393E-005  0.1755263E+03  0.7546771E-02  0.1195235E+00
          1   -1    0    0  503    0 -0.00000000000E+00  0.00000000000E+00  0.32329353117E+03  0.32329353117E+03  0.00000000000E+00 0. -1.
         21   -1    0    0  501  502  0.00000000000E+00 -0.00000000000E+00 -0.12701590589E+04  0.12701590589E+04  0.00000000000E+00 0. -1.
        -24    2    1    2    0    0  0.29686223057E+02  0.63273530904E+02  0.50084788602E+02  0.11744309673E+03  0.79997396012E+02 0.  0.
         23    2    1    2    0    0  0.11911059446E+03 -0.97615540098E+02  0.95376388930E+02  0.20352035070E+03  0.92777961830E+02 0.  0.
         13    1    3    3    0    0  0.36276350449E+02  0.73903631213E+02  0.19795849324E+02  0.84673466675E+02  0.00000000000E+00 0. -1.
        -14    1    3    3    0    0 -0.65901273917E+01 -0.10630100309E+02  0.30288939277E+02  0.32769630059E+02  0.00000000000E+00 0.  1.
        -13    1    4    4    0    0  0.12317927211E+03 -0.71176392303E+02  0.10307918849E+03  0.17568304129E+03  0.00000000000E+00 0. -1.
         13    1    4    4    0    0 -0.40686776430E+01 -0.26439147795E+02 -0.77027995616E+01  0.27837309406E+02  0.00000000000E+00 0.  1.
         21    1    1    2  503  502 -0.11273624117E+03  0.98826073321E+02 -0.11615856289E+04  0.11712204003E+04  0.00000000000E+00 0. -1.
          2    1    1    2  501    0 -0.36060576351E+02 -0.64484064126E+02  0.69258923568E+02  0.10126874240E+03  0.00000000000E+00 0. -1.
<scales pt_clust_5="13000.00000" pt_clust_6="13000.00000" pt_clust_7="13000.00000" pt_clust_8="13000.00000" pt_clust_9="149.00242" pt_clust_10="73.88210"></scales>
<clustering>
<clus scale="   73.882">  2 10  1 -1</clus>
<clus scale="   79.997">  5  6 -1 -1</clus>
<clus scale="   92.778">  7  8 -1 -1</clus>
<clus scale="  104.937">  1  5  2 -1</clus>
<clus scale="  149.002">  2  9  1 -1</clus>
<clus scale="   73.882">  2  5  1 -1</clus>
</clustering>
</event>
<event>
10    3  0.5078224E-005  0.1251590E+03  0.7546771E-02  0.1238081E+00
          1   -1    0    0  502    0 -0.00000000000E+00  0.00000000000E+00  0.42113560688E+03  0.42113560688E+03  0.00000000000E+00 0. -1.
         21   -1    0    0  503  502  0.00000000000E+00 -0.00000000000E+00 -0.15262379728E+03  0.15262379728E+03  0.00000000000E+00 0. -1.
        -24    2    1    2    0    0 -0.20669495079E+01  0.72775520421E+02  0.66200366008E+02  0.12801885291E+03  0.81888885614E+02 0.  0.
         23    2    1    2    0    0 -0.72890084642E+02 -0.11026455186E+03 -0.24392937375E+02  0.16348000294E+03  0.93056220283E+02 0.  0.
         13    1    3    3    0    0 -0.33249376543E+02  0.33110847326E+01  0.21241820803E+02  0.39594182321E+02  0.00000000000E+00 0. -1.
        -14    1    3    3    0    0  0.31182427035E+02  0.69464435688E+02  0.44958545205E+02  0.88424670586E+02  0.00000000000E+00 0.  1.
        -11    1    4    4    0    0 -0.54061900626E+02 -0.96135376573E+02  0.21066238445E+02  0.11228751547E+03  0.00000000000E+00 0.  1.
         11    1    4    4    0    0 -0.18828184016E+02 -0.14129175283E+02 -0.45459175820E+02  0.51192487474E+02  0.00000000000E+00 0. -1.
         21    1    1    2  503  501  0.51836350633E+02 -0.24734035737E+02  0.13553161964E+02  0.59012439112E+02  0.00000000000E+00 0.  1.
          2    1    1    2  501    0  0.23120683518E+02  0.62223067172E+02  0.21315121900E+03  0.22324810919E+03  0.00000000000E+00 0. -1.
<scales pt_clust_5="13000.00000" pt_clust_6="13000.00000" pt_clust_7="13000.00000" pt_clust_8="13000.00000" pt_clust_9="57.43500" pt_clust_10="66.21777"></scales>
<clustering>
<clus scale="   57.435">  2  9  1 -1</clus>
<clus scale="   66.218">  2 10  1 -1</clus>
<clus scale="   81.889">  5  6 -1 -1</clus>
<clus scale="   93.056">  7  8 -1 -1</clus>
<clus scale="  117.094">  1  5  2 -1</clus>
<clus scale="   57.435">  2  5  1 -1</clus>
</clustering>
</event>
<event>
10    3  0.5078224E-005  0.2323658E+03  0.7546771E-02  0.1166530E+00
         21   -1    0    0  501  502  0.00000000000E+00  0.00000000000E+00  0.37882244049E+03  0.37882244049E+03  0.00000000000E+00 0.  1.
         -2   -1    0    0    0  501 -0.00000000000E+00 -0.00000000000E+00 -0.40150023012E+03  0.40150023012E+03  0.00000000000E+00 0.  1.
        -24    2    1    2    0    0 -0.50038223759E+00 -0.44618515458E+02  0.78312203009E+02  0.12160813315E+03  0.81637458337E+02 0.  0.
         23    2    1    2    0    0 -0.20489194470E+03  0.81742763506E+02 -0.99601702875E+02  0.25896163373E+03  0.92076273475E+02 0.  0.
         11    1    3    3    0    0  0.11203834658E+02 -0.48385236932E+02  0.80928989135E+01  0.50320493607E+02  0.00000000000E+00 0. -1.
        -12    1    3    3    0    0 -0.11704216895E+02  0.37667214738E+01  0.70219304095E+02  0.71287639542E+02  0.00000000000E+00 0.  1.
        -11    1    4    4    0    0 -0.14935634378E+03  0.25077707318E+02 -0.32147673704E+02  0.15482145121E+03  0.00000000000E+00 0. -1.
         11    1    4    4    0    0 -0.55535600928E+02  0.56665056188E+02 -0.67454029171E+02  0.10414018252E+03  0.00000000000E+00 0.  1.
         21    1    1    2  503  502  0.15789724681E+02  0.41515669566E+02  0.14238057614E+03  0.14914789535E+03  0.00000000000E+00 0.  1.
         -1    1    1    2    0  503  0.18960260226E+03 -0.78639917614E+02 -0.14376886591E+03  0.25060500839E+03  0.00000000000E+00 0.  1.
<scales pt_clust_5="13000.00000" pt_clust_6="13000.00000" pt_clust_7="13000.00000" pt_clust_8="13000.00000" pt_clust_9="44.41696" pt_clust_10="213.34450"></scales>
<clustering>
<clus scale="   44.417">  1  9  2 -1</clus>
<clus scale="   81.637">  5  6 -1 -1</clus>
<clus scale="   86.156">  2  5  1 -1</clus>
<clus scale="   92.076">  7  8 -1 -1</clus>
<clus scale="  213.345">  1 10  2 -1</clus>
<clus scale="   44.417">  1  5  2 -1</clus>
</clustering>
</event>
<event>
10    3  0.5078224E-005  0.2753552E+03  0.7546771E-02  0.1117735E+00
         21   -1    0    0  501  502  0.00000000000E+00  0.00000000000E+00  0.11108850503E+03  0.11108850503E+03  0.00000000000E+00 0. -1.
          1   -1    0    0  503    0 -0.00000000000E+00 -0.00000000000E+00 -0.19492270362E+04  0.19492270362E+04  0.00000000000E+00 0. -1.
        -24    2    1    2    0    0 -0.15654161287E+03  0.17103645319E+02 -0.11193537283E+03  0.20913825572E+03  0.80071662107E+02 0.  0.
         23    2    1    2    0    0 -0.22795545549E+03 -0.18601493096E+02 -0.47298702148E+03  0.53253669933E+03  0.86999473633E+02 0.  0.
         11    1    3    3    0    0 -0.14697900206E+03  0.35982861913E+02 -0.11151488965E+03  0.18797117867E+03  0.00000000000E+00 0. -1.
        -12    1    3    3    0    0 -0.95626108094E+01 -0.18879216594E+02 -0.42048318117E+00  0.21167077049E+02  0.00000000000E+00 0.  1.
        -13    1    4    4    0    0 -0.68549235503E+02 -0.45224255607E+02 -0.13764366429E+03  0.16028103226E+03  0.00000000000E+00 0. -1.
         13    1    4    4    0    0 -0.15940621999E+03  0.26622762512E+02 -0.33534335719E+03  0.37225566707E+03  0.00000000000E+00 0.  1.
         21    1    1    2  503  502  0.22852030773E+02  0.78500723755E+00 -0.12021905938E+02  0.25833268651E+02  0.00000000000E+00 0.  1.
          2    1    1    2  501    0  0.36164503759E+03  0.71284053916E+00 -0.12411942310E+04  0.12928073176E+04  0.00000000000E+00 0. -1.
<scales pt_clust_5="13000.00000" pt_clust_6="13000.00000" pt_clust_7="13000.00000" pt_clust_8="13000.00000" pt_clust_9="22.86551" pt_clust_10="261.25013"></scales>
<clustering>
<clus scale="   22.866">  1  9  2 -1</clus>
<clus scale="   80.072">  5  6 -1 -1</clus>
<clus scale="   86.999">  7  8 -1 -1</clus>
<clus scale="  167.326">  2  5  1 -1</clus>
<clus scale="  261.250">  1 10  2 -1</clus>
<clus scale="   22.866">  1  5  2 -1</clus>
</clustering>
</event>
<event>
10    3  0.5078224E-005  0.1031367E+03  0.7546771E-02  0.1278909E+00
         21   -1    0    0  503  502  0.00000000000E+00  0.00000000000E+00  0.30983924152E+03  0.30983924152E+03  0.00000000000E+00 0.  1.
         -2   -1    0    0    0  501 -0.00000000000E+00 -0.00000000000E+00 -0.36043197508E+03  0.36043197508E+03  0.00000000000E+00 0.  1.
        -24    2    1    2    0    0 -0.45633642253E+02  0.22448666761E+02 -0.28644557258E+03  0.30167154274E+03  0.79801514446E+02 0.  0.
         23    2    1    2    0    0  0.48910263089E+02  0.21930285410E+02 -0.10447679273E+02  0.10596465176E+03  0.90808601838E+02 0.  0.
         13    1    3    3    0    0 -0.30684409661E+02  0.10849842760E+02 -0.29182210700E+02  0.43713310393E+02  0.00000000000E+00 0. -1.
        -14    1    3    3    0    0 -0.14949232592E+02  0.11598824001E+02 -0.25726336188E+03  0.25795823235E+03  0.00000000000E+00 0.  1.
        -13    1    4    4    0    0  0.37525420225E+01  0.48551222736E+02  0.99737951184E+01  0.49706935028E+02  0.00000000000E+00 0.  1.
         13    1    4    4    0    0  0.45157721067E+02 -0.26620937327E+02 -0.20421474392E+02  0.56257716737E+02  0.00000000000E+00 0. -1.
         21    1    1    2  503  501 -0.39436108598E+02 -0.14488651482E+02  0.14564020399E+03  0.15157901141E+03  0.00000000000E+00 0.  1.
         -1    1    1    2    0  502  0.36159487762E+02 -0.29890300688E+02  0.10066031431E+03  0.11105601067E+03  0.00000000000E+00 0.  1.
<scales pt_clust_5="13000.00000" pt_clust_6="13000.00000" pt_clust_7="13000.00000" pt_clust_8="13000.00000" pt_clust_9="42.01342" pt_clust_10="40.71872"></scales>
<clustering>
<clus scale="   42.013">  1  9  2 -1</clus>
<clus scale="   40.719">  1 10  2 -1</clus>
<clus scale="   79.802">  5  6 -1 -1</clus>
<clus scale="   90.809">  7  8 -1 -1</clus>
<clus scale="   93.591">  2  5  1 -1</clus>
<clus scale="   42.013">  1  5  2 -1</clus>
</clustering>
</event>
<event>
10    3  0.5078224E-005  0.1570608E+03  0.7546771E-02  0.1203901E+00
         21   -1    0    0  503  502  0.00000000000E+00  0.00000000000E+00  0.46756439656E+02  0.46756439656E+02  0.00000000000E+00 0. -1.
          1   -1    0    0  502    0 -0.00000000000E+00 -0.00000000000E+00 -0.19225592196E+04  0.19225592196E+04  0.00000000000E+00 0. -1.
         23    2    1    2    0    0  0.45419693269E+02 -0.44015427437E+02 -0.25837368423E+03  0.28143523030E+03  0.91915840662E+02 0.  0.
        -24    2    1    2    0    0  0.70336580652E+02 -0.55274755583E+02 -0.73215236207E+03  0.74200474735E+03  0.80755375223E+02 0.  0.
         13    1    4    4    0    0  0.41755605495E+02 -0.71775824368E+02 -0.42129887212E+03  0.42940428410E+03  0.00000000000E+00 0. -1.
        -14    1    4    4    0    0  0.28580975157E+02  0.16501068785E+02 -0.31085348995E+03  0.31260046325E+03  0.00000000000E+00 0.  1.
        -13    1    3    3    0    0 -0.28066325824E+02 -0.16806756272E+02 -0.64436843140E+02  0.72265430570E+02  0.00000000000E+00 0.  1.
         13    1    3    3    0    0  0.73486019094E+02 -0.27208671165E+02 -0.19393684109E+03  0.20916979973E+03  0.00000000000E+00 0. -1.
         21    1    1    2  503  501 -0.31737874502E+01 -0.49759107787E+02 -0.99532051298E+01  0.50843957624E+02  0.00000000000E+00 0. -1.
          2    1    1    2  501    0 -0.11258248647E+03  0.14904929081E+03 -0.87532352851E+03  0.89503172397E+03  0.00000000000E+00 0. -1.
<scales pt_clust_5="13000.00000" pt_clust_6="13000.00000" pt_clust_7="13000.00000" pt_clust_8="13000.00000" pt_clust_9="49.86022" pt_clust_10="134.70958"></scales>
<clustering>
<clus scale="   49.860">  1  9  2 -1</clus>
<clus scale="   80.755">  5  6 -1 -1</clus>
<clus scale="   91.916">  7  8 -1 -1</clus>
<clus scale="  121.325">  2  7  1 -1</clus>
<clus scale="  134.710">  1 10  2 -1</clus>
<clus scale="   49.860">  1  5  2 -1</clus>
</clustering>
</event>
<event>
10    3  0.5078224E-005  0.1567438E+03  0.7546771E-02  0.1192955E+00
         21   -1    0    0  501  502  0.00000000000E+00  0.00000000000E+00  0.17140535655E+03  0.17140535655E+03  0.00000000000E+00 0. -1.
         -4   -1    0    0    0  501 -0.00000000000E+00 -0.00000000000E+00 -0.43586678820E+03  0.43586678820E+03  0.00000000000E+00 0.  1.
        -24    2    1    2    0    0  0.34721553884E+02 -0.12650842627E+03 -0.34728618590E+03  0.38191045183E+03  0.89654503946E+02 0.  0.
         23    2    1    2    0    0  0.18023239757E+02  0.10244934978E+03  0.68252939981E+02  0.15519491557E+03  0.92770100582E+02 0.  0.
         13    1    3    3    0    0 -0.15460407966E+02 -0.91540418440E+02 -0.25327986147E+03  0.26975796679E+03  0.00000000000E+00 0. -1.
        -14    1    3    3    0    0  0.50181961850E+02 -0.34968007825E+02 -0.94006324433E+02  0.11215248504E+03  0.00000000000E+00 0.  1.
        -13    1    4    4    0    0  0.13295619415E+02  0.19903699334E+02  0.68449358935E+02  0.72513760635E+02  0.00000000000E+00 0. -1.
         13    1    4    4    0    0  0.47276203418E+01  0.82545650443E+02 -0.19641895416E+00  0.82681154936E+02  0.00000000000E+00 0.  1.
         21    1    1    2  503  502 -0.25888604861E+02  0.62851659508E+01  0.24778861927E+02  0.36382896683E+02  0.00000000000E+00 0. -1.
         -3    1    1    2    0  503 -0.26856188780E+02  0.17773910537E+02 -0.10207047661E+02  0.33783880676E+02  0.00000000000E+00 0.  1.
<scales pt_clust_5="13000.00000" pt_clust_6="13000.00000" pt_clust_7="13000.00000" pt_clust_8="13000.00000" pt_clust_9="26.64063" pt_clust_10="34.31100"></scales>
<clustering>
<clus scale="   26.641">  1  9  2 -1</clus>
<clus scale="   34.311">  1 10  2 -1</clus>
<clus scale="   89.655">  5  6 -1 -1</clus>
<clus scale="   92.770">  7  8 -1 -1</clus>
<clus scale="  154.920">  2  5  1 -1</clus>
<clus scale="   26.641">  1  5  2 -1</clus>
</clustering>
</event>
<event>
10    3  0.5078224E-005  0.2254611E+03  0.7546771E-02  0.1130549E+00
         21   -1    0    0  501  502  0.00000000000E+00  0.00000000000E+00  0.15286750613E+03  0.15286750613E+03  0.00000000000E+00 0.  1.
          1   -1    0    0  503    0 -0.00000000000E+00 -0.00000000000E+00 -0.98287433192E+03  0.98287433192E+03  0.00000000000E+00 0. -1.
         23    2    1    2    0    0  0.19810103101E+03  0.65311337514E+02 -0.63763469928E+03  0.67690447870E+03  0.90067054270E+02 0.  0.
        -24    2    1    2    0    0 -0.17393407440E+03 -0.99768449801E+02 -0.18029166028E+02  0.21677693516E+03  0.80376507624E+02 0.  0.
         11    1    4    4    0    0 -0.13502977992E+03 -0.33673360502E+02 -0.15684673051E+02  0.14004622680E+03  0.00000000000E+00 0. -1.
        -12    1    4    4    0    0 -0.38904294481E+02 -0.66095089299E+02 -0.23444929777E+01  0.76730708362E+02  0.00000000000E+00 0.  1.
        -11    1    3    3    0    0  0.36101301016E+02  0.30317399799E+02 -0.62011878430E+02  0.77896865996E+02  0.00000000000E+00 0.  1.
         11    1    3    3    0    0  0.16199972999E+03  0.34993937715E+02 -0.57562282085E+03  0.59900761271E+03  0.00000000000E+00 0. -1.
         21    1    1    2  503  502 -0.40033718988E+01 -0.41991508129E+02  0.83436863290E+01  0.42999195842E+02  0.00000000000E+00 0.  1.
          2    1    1    2  501    0 -0.20163584711E+02  0.76448620416E+02 -0.18268664681E+03  0.19906122835E+03  0.00000000000E+00 0. -1.
<scales pt_clust_5="13000.00000" pt_clust_6="13000.00000" pt_clust_7="13000.00000" pt_clust_8="13000.00000" pt_clust_9="42.18191" pt_clust_10="76.52103"></scales>
<clustering>
<clus scale="   42.182">  1  9  2 -1</clus>
<clus scale="   76.521">  1 10  2 -1</clus>
<clus scale="   80.377">  5  6 -1 -1</clus>
<clus scale="   90.067">  7  8 -1 -1</clus>
<clus scale="  221.768">  1  5  2 -1</clus>
<clus scale="   42.182">  1  5  2 -1</clus>
</clustering>
</event>
<event>
10    3  0.5078224E-005  0.1340506E+03  0.7546771E-02  0.1224477E+00
         21   -1    0    0  501  502  0.00000000000E+00  0.00000000000E+00  0.35525441071E+03  0.35525441071E+03  0.00000000000E+00 0.  1.
         -2   -1    0    0    0  501 -0.00000000000E+00 -0.00000000000E+00 -0.94103848920E+02  0.94103848920E+02  0.00000000000E+00 0.  1.
        -24    2    1    2    0    0 -0.60536667033E+02 -0.47423523083E+02  0.49258769292E+02  0.12231240816E+03  0.81364735860E+02 0.  0.
         23    2    1    2    0    0  0.11763239221E+03  0.74036662223E+02  0.14803726391E+03  0.22340972320E+03  0.93156137013E+02 0.  0.
         11    1    3    3    0    0  0.14269876725E+01  0.20065528235E+02  0.59913154082E+01  0.20989463487E+02  0.00000000000E+00 0. -1.
        -12    1    3    3    0    0 -0.61963654706E+02 -0.67489051318E+02  0.43267453884E+02  0.10132294468E+03  0.00000000000E+00 0.  1.
        -13    1    4    4    0    0 -0.11733810135E+02  0.23724601299E+02  0.12014447489E+02  0.29066922017E+02  0.00000000000E+00 0. -1.
         13    1    4    4    0    0  0.12936620235E+03  0.50312060924E+02  0.13602281642E+03  0.19434280118E+03  0.00000000000E+00 0.  1.
         21    1    1    2  503  502  0.15892327188E+01 -0.22404335681E+02  0.21931829846E+02  0.31392436642E+02  0.00000000000E+00 0. -1.
         -1    1    1    2    0  503 -0.58684957898E+02 -0.42088034588E+01  0.41922698747E+02  0.72243691629E+02  0.00000000000E+00 0.  1.
<scales pt_clust_5="13000.00000" pt_clust_6="13000.00000" pt_clust_7="13000.00000" pt_clust_8="13000.00000" pt_clust_9="22.46063" pt_clust_10="58.96797"></scales>
<clustering>
<clus scale="   22.461">  1  9  2 -1</clus>
<clus scale="   58.968">  1 10  2 -1</clus>
<clus scale="   81.365">  5  6 -1 -1</clus>
<clus scale="   93.156">  7  8 -1 -1</clus>
<clus scale="  126.142">  2  5  1 -1</clus>
<clus scale="   22.461">  1  5  2 -1</clus>
</clustering>
</event>
<event>
10    3  0.5078224E-005  0.2204095E+03  0.7546771E-02  0.1171716E+00
          1   -1    0    0  503    0 -0.00000000000E+00  0.00000000000E+00  0.35100213650E+03  0.35100213650E+03  0.00000000000E+00 0. -1.
         21   -1    0    0  501  502  0.00000000000E+00 -0.00000000000E+00 -0.38922503174E+03  0.38922503174E+03  0.00000000000E+00 0. -1.
        -24    2    1    2    0    0 -0.49283847585E+02  0.11645580212E+02 -0.66902593497E+02  0.11608683222E+03  0.80222680257E+02 0.  0.
         23    2    1    2    0    0  0.59499359825E+02  0.20423323650E+03 -0.45103414256E+02  0.23797968867E+03  0.96688290570E+02 0.  0.
         13    1    3    3    0    0 -0.63465685794E+02  0.86146224720E+01 -0.75673079618E+02  0.99138892330E+02  0.00000000000E+00 0. -1.
        -14    1    3    3    0    0  0.14181838209E+02  0.30309577403E+01  0.87704861201E+01  0.16947939893E+02  0.00000000000E+00 0.  1.
        -11    1    4    4    0    0 -0.13407281756E+02  0.29967252438E+02 -0.36197590884E+02  0.48867750190E+02  0.00000000000E+00 0.  1.
         11    1    4    4    0    0  0.72906641581E+02  0.17426598406E+03 -0.89058233719E+01  0.18911193848E+03  0.00000000000E+00 0. -1.
         21    1    1    2  503  502  0.27628352820E+02 -0.31932490170E+02 -0.11340092060E+03  0.12100734937E+03  0.00000000000E+00 0. -1.
          2    1    1    2  501    0 -0.37843865060E+02 -0.18394632654E+03  0.18718403312E+03  0.26515329797E+03  0.00000000000E+00 0. -1.
<scales pt_clust_5="13000.00000" pt_clust_6="13000.00000" pt_clust_7="13000.00000" pt_clust_8="13000.00000" pt_clust_9="42.22570" pt_clust_10="198.07006"></scales>
<clustering>
<clus scale="   42.226">  2  9  1 -1</clus>
<clus scale="   80.223">  5  6 -1 -1</clus>
<clus scale="   89.643">  1  5  2 -1</clus>
<clus scale="   96.688">  7  8 -1 -1</clus>
<clus scale="  198.070">  2 10  1 -1</clus>
<clus scale="   42.226">  2  5  1 -1</clus>
</clustering>
</event>
<event>
10    3  0.5078224E-005  0.1538828E+03  0.7546771E-02  0.1197680E+00
         -4   -1    0    0    0  501 -0.00000000000E+00  0.00000000000E+00  0.19037709941E+03  0.19037709941E+03  0.00000000000E+00 0.  1.
         21   -1    0    0  503  502  0.00000000000E+00 -0.00000000000E+00 -0.28233670467E+03  0.28233670467E+03  0.00000000000E+00 0. -1.
        -24    2    1    2    0    0  0.11416824227E+03 -0.80387507156E+01  0.25333582877E+02  0.14245143796E+03  0.80942032957E+02 0.  0.
         23    2    1    2    0    0 -0.14941779336E+03 -0.36364693049E+02 -0.11603951616E+03  0.21342326502E+03  0.91849076577E+02 0.  0.
         11    1    3    3    0    0  0.11965453390E+03 -0.17222978275E+02  0.68333244703E+01  0.12108068709E+03  0.00000000000E+00 0. -1.
        -12    1    3    3    0    0 -0.54862916255E+01  0.91842275595E+01  0.18500258406E+02  0.21370750871E+02  0.00000000000E+00 0.  1.
        -11    1    4    4    0    0 -0.12916774550E+02  0.18622177362E+02  0.46102942720E+01  0.23127545649E+02  0.00000000000E+00 0.  1.
         11    1    4    4    0    0 -0.13650101881E+03 -0.54986870411E+02 -0.12064981043E+03  0.19029571937E+03  0.00000000000E+00 0. -1.
         21    1    1    2  503  501  0.23636757932E+02  0.20972939778E+02 -0.51369567439E+02  0.60310803239E+02  0.00000000000E+00 0. -1.
         -3    1    1    2    0  502  0.11612793156E+02  0.23430503987E+02  0.50115895459E+02  0.56528297866E+02  0.00000000000E+00 0.  1.
<scales pt_clust_5="13000.00000" pt_clust_6="13000.00000" pt_clust_7="13000.00000" pt_clust_8="13000.00000" pt_clust_9="36.50156" pt_clust_10="26.15045"></scales>
<clustering>
<clus scale="   26.150">  2 10  1 -1</clus>
<clus scale="   36.502">  2  9  1 -1</clus>
<clus scale="   80.942">  5  6 -1 -1</clus>
<clus scale="   91.849">  7  8 -1 -1</clus>
<clus scale="  147.632">  1  5  2 -1</clus>
<clus scale="   26.150">  2  5  1 -1</clus>
</clustering>
</event>
<event>
10    3  0.5078224E-005  0.4971152E+03  0.7546771E-02  0.1014535E+00
          1   -1    0    0  503    0 -0.00000000000E+00  0.00000000000E+00  0.28132869281E+04  0.28132869281E+04  0.00000000000E+00 0. -1.
         21   -1    0    0  501  502  0.00000000000E+00 -0.00000000000E+00 -0.72685694604E+03  0.72685694604E+03  0.00000000000E+00 0.  1.
        -24    2    1    2    0    0 -0.65094553538E+02 -0.13353324533E+03  0.69581026115E+03  0.71621975170E+03  0.82160724734E+02 0.  0.
         23    2    1    2    0    0 -0.11514444053E+03 -0.28794569733E+03  0.12412268686E+04  0.12857341485E+04  0.12766046535E+03 0.  0.
         11    1    3    3    0    0  0.65935336076E+01 -0.47202557018E+02  0.11194087555E+03  0.12166476767E+03  0.00000000000E+00 0. -1.
        -12    1    3    3    0    0 -0.71688087145E+02 -0.86330688317E+02  0.58386938561E+03  0.59455498403E+03  0.00000000000E+00 0.  1.
        -13    1    4    4    0    0 -0.66611833417E+02 -0.30716484684E+02  0.29240158763E+03  0.30146198306E+03  0.00000000000E+00 0.  1.
         13    1    4    4    0    0 -0.48532607109E+02 -0.25722921264E+03  0.94882528097E+03  0.98427216541E+03  0.00000000000E+00 0. -1.
         21    1    1    2  503  502 -0.16393201684E+03  0.34605049598E+03 -0.59904123234E+03  0.71096768559E+03  0.00000000000E+00 0.  1.
          2    1    1    2  501    0  0.34417101091E+03  0.75428446686E+02  0.74843408460E+03  0.82722228833E+03  0.00000000000E+00 0. -1.
<scales pt_clust_5="13000.00000" pt_clust_6="13000.00000" pt_clust_7="13000.00000" pt_clust_8="13000.00000" pt_clust_9="448.94046" pt_clust_10="352.33969"></scales>
<clustering>
<clus scale="   82.161">  5  6 -1 -1</clus>
<clus scale="  127.660">  7  8 -1 -1</clus>
<clus scale="  130.068">  5  7 -1 -1</clus>
<clus scale="  352.340">  2 10  1 -1</clus>
<clus scale="  448.940">  2  9  1 -1</clus>
<clus scale="  352.340">  2  5  1 -1</clus>
</clustering>
</event>
<event>
10    3  0.5078224E-005  0.1858522E+03  0.7546771E-02  0.1191804E+00
         -2   -1    0    0    0  501 -0.00000000000E+00  0.00000000000E+00  0.52678159378E+03  0.52678159378E+03  0.00000000000E+00 0.  1.
         21   -1    0    0  503  502  0.00000000000E+00 -0.00000000000E+00 -0.16622014464E+03  0.16622014464E+03  0.00000000000E+00 0. -1.
        -24    2    1    2    0    0  0.42847975595E+02  0.25660810615E+02  0.16068365274E+03  0.18606855909E+03  0.79421950424E+02 0.  0.
         23    2    1    2    0    0  0.11031256523E+03 -0.96589061468E+02 -0.37450620421E+02  0.17704168394E+03  0.91885254732E+02 0.  0.
         11    1    3    3    0    0 -0.19327744092E+02 -0.71070946962E+01  0.58745695147E+02  0.62250535620E+02  0.00000000000E+00 0. -1.
        -12    1    3    3    0    0  0.62175719687E+02  0.32767905312E+02  0.10193795759E+03  0.12381802347E+03  0.00000000000E+00 0.  1.
        -13    1    4    4    0    0 -0.72604816171E+01 -0.42442054955E+02 -0.15429157149E+02  0.45739496198E+02  0.00000000000E+00 0.  1.
         13    1    4    4    0    0  0.11757304685E+03 -0.54147006513E+02 -0.22021463272E+02  0.13130218774E+03  0.00000000000E+00 0. -1.
         21    1    1    2  503  501  0.28228149041E+02  0.18122201388E+02  0.11498375256E+02  0.35460614983E+02  0.00000000000E+00 0.  1.
         -1    1    1    2    0  502 -0.18138868987E+03  0.52806049465E+02  0.22583004156E+03  0.29443088042E+03  0.00000000000E+00 0.  1.
<scales pt_clust_5="13000.00000" pt_clust_6="13000.00000" pt_clust_7="13000.00000" pt_clust_8="13000.00000" pt_clust_9="33.54464" pt_clust_10="161.54928"></scales>
<clustering>
<clus scale="   33.545">  2  9  1 -1</clus>
<clus scale="   79.422">  5  6 -1 -1</clus>
<clus scale="   91.885">  7  8 -1 -1</clus>
<clus scale="   95.318">  1  5  2 -1</clus>
<clus scale="  161.549">  2 10  1 -1</clus>
<clus scale="   33.545">  2  5  1 -1</clus>
</clustering>
</event>
<event>
10    3  0.5078224E-005  0.2122312E+03  0.7546771E-02  0.1140568E+00
          1   -1    0    0  503    0 -0.00000000000E+00  0.00000000000E+00  0.50851203294E+03  0.50851203294E+03  0.00000000000E+00 0. -1.
         21   -1    0    0  501  502  0.00000000000E+00 -0.00000000000E+00 -0.34925889647E+03  0.34925889647E+03  0.00000000000E+00 0. -1.
        -24    2    1    2    0    0  0.77877085226E+02 -0.14250455849E+03  0.73544164621E+02  0.19595190510E+03  0.81338892100E+02 0.  0.
         23    2    1    2    0    0 -0.59173491383E+02  0.21902457022E+03  0.15595948356E+03  0.28987499547E+03  0.90724241781E+02 0.  0.
         13    1    3    3    0    0  0.88700336328E+02 -0.12576523155E+03  0.43555943802E+02  0.15994300038E+03  0.00000000000E+00 0. -1.
        -14    1    3    3    0    0 -0.10823251102E+02 -0.16739326942E+02  0.29988220819E+02  0.36008904715E+02  0.00000000000E+00 0.  1.
        -13    1    4    4    0    0 -0.32575636154E+02  0.11209639928E+02  0.27864557203E+02  0.44308708470E+02  0.00000000000E+00 0.  1.
         13    1    4    4    0    0 -0.26597855229E+02  0.20781493029E+03  0.12809492636E+03  0.24556628700E+03  0.00000000000E+00 0. -1.
         21    1    1    2  503  502  0.13375139932E+02 -0.36844076058E+02 -0.21495941197E+03  0.21850384231E+03  0.00000000000E+00 0. -1.
          2    1    1    2  501    0 -0.32078733775E+02 -0.39675935669E+02  0.14470890026E+03  0.15344018654E+03  0.00000000000E+00 0. -1.
<scales pt_clust_5="13000.00000" pt_clust_6="13000.00000" pt_clust_7="13000.00000" pt_clust_8="13000.00000" pt_clust_9="39.19669" pt_clust_10="51.70045"></scales>
<clustering>
<clus scale="   39.197">  2  9  1 -1</clus>
<clus scale="   51.700">  2 10  1 -1</clus>
<clus scale="   81.339">  5  6 -1 -1</clus>
<clus scale="   90.724">  7  8 -1 -1</clus>
<clus scale="  208.392">  1  5  2 -1</clus>
<clus scale="   39.197">  2  5  1 -1</clus>
</clustering>
</event>
<event>
10    3  0.5078224E-005  0.1635228E+03  0.7546771E-02  0.1198620E+00
         21   -1    0    0  503  502  0.00000000000E+00  0.00000000000E+00  0.13556621500E+03  0.13556621500E+03  0.00000000000E+00 0.  1.
          1   -1    0    0  502    0 -0.00000000000E+00 -0.00000000000E+00 -0.12378442999E+04  0.12378442999E+04  0.00000000000E+00 0. -1.
         23    2    1    2    0    0 -0.44965469863E+02  0.25564247890E+01 -0.65109764190E+02  0.12191690724E+03  0.92714735018E+02 0.  0.
        -24    2    1    2    0    0 -0.94660898712E+02  0.51523862650E+02 -0.24896198362E+03  0.28275512397E+03  0.79705687878E+02 0.  0.
         13    1    4    4    0    0 -0.95352991140E+02  0.63462584342E+02 -0.24448409341E+03  0.26998548936E+03  0.00000000000E+00 0. -1.
        -14    1    4    4    0    0  0.69209242820E+00 -0.11938721693E+02 -0.44778902019E+01  0.12769634617E+02  0.00000000000E+00 0.  1.
        -11    1    3    3    0    0 -0.47086744245E+02 -0.33822435528E+02 -0.14868206974E+02  0.59851334215E+02  0.00000000000E+00 0. -1.
         11    1    3    3    0    0  0.21212743822E+01  0.36378860317E+02 -0.50241557216E+02  0.62065573021E+02  0.00000000000E+00 0.  1.
         21    1    1    2  503  501 -0.64032448368E+02 -0.22617656442E+02  0.63187654859E+02  0.92759864994E+02  0.00000000000E+00 0.  1.
          2    1    1    2  501    0  0.20365881694E+03 -0.31462630996E+02 -0.85139399201E+03  0.87597861874E+03  0.00000000000E+00 0. -1.
<scales pt_clust_5="13000.00000" pt_clust_6="13000.00000" pt_clust_7="13000.00000" pt_clust_8="13000.00000" pt_clust_9="67.90959" pt_clust_10="142.78209"></scales>
<clustering>
<clus scale="   67.910">  1  9  2 -1</clus>
<clus scale="   79.706">  5  6 -1 -1</clus>
<clus scale="   92.715">  7  8 -1 -1</clus>
<clus scale="  120.537">  2  7  1 -1</clus>
<clus scale="  142.782">  1 10  2 -1</clus>
<clus scale="   67.910">  1  5  2 -1</clus>
</clustering>
</event>
<event>
10    3  0.5078224E-005  0.1343199E+03  0.7546771E-02  0.1227751E+00
          1   -1    0    0  502    0 -0.00000000000E+00  0.00000000000E+00  0.11028726310E+04  0.11028726310E+04  0.00000000000E+00 0. -1.
         21   -1    0    0  503  502  0.00000000000E+00 -0.00000000000E+00 -0.87096973632E+02  0.87096973632E+02  0.00000000000E+00 0. -1.
        -24    2    1    2    0    0 -0.14274066429E+02 -0.78949767253E+02  0.44045702334E+03  0.45486313845E+03  0.80382029019E+02 0.  0.
         23    2    1    2    0    0  0.12948751817E+02 -0.56998585826E+02  0.36317611104E+02  0.11349021614E+03  0.90247167949E+02 0.  0.
         11    1    3    3    0    0 -0.54225441364E+01 -0.89716134920E+02  0.28628747729E+03  0.30006484050E+03  0.00000000000E+00 0. -1.
        -12    1    3    3    0    0 -0.88515222923E+01  0.10766367667E+02  0.15416954605E+03  0.15479829795E+03  0.00000000000E+00 0.  1.
        -13    1    4    4    0    0  0.28778614362E+02 -0.42137270488E+02  0.61714022555E+02  0.80077330055E+02  0.00000000000E+00 0.  1.
         13    1    4    4    0    0 -0.15829862545E+02 -0.14861315338E+02 -0.25396411451E+02  0.33412886083E+02  0.00000000000E+00 0. -1.
         21    1    1    2  503  501 -0.41206319390E+01 -0.41150185921E+02 -0.11809827115E+02  0.43009178386E+02  0.00000000000E+00 0. -1.
          2    1    1    2  501    0  0.54459465504E+01  0.17709853900E+03  0.55081084999E+03  0.57860707161E+03  0.00000000000E+00 0. -1.
<scales pt_clust_5="13000.00000" pt_clust_6="13000.00000" pt_clust_7="13000.00000" pt_clust_8="13000.00000" pt_clust_9="41.35598" pt_clust_10="99.48511"></scales>
<clustering>
<clus scale="   41.356">  2  9  1 -1</clus>
<clus scale="   80.382">  5  6 -1 -1</clus>
<clus scale="   90.247">  7  8 -1 -1</clus>
<clus scale="  117.138">  1  5  2 -1</clus>
<clus scale="   99.485">  2 10  1 -1</clus>
<clus scale="   41.356">  2  5  1 -1</clus>
</clustering>
</event>
<event>
10    3  0.5078224E-005  0.3227114E+03  0.7546771E-02  0.1074577E+00
         21   -1    0    0  503  502  0.00000000000E+00  0.00000000000E+00  0.10441797975E+04  0.10441797975E+04  0.00000000000E+00 0.  1.
         -4   -1    0    0    0  501 -0.00000000000E+00 -0.00000000000E+00 -0.39276918582E+03  0.39276918582E+03  0.00000000000E+00 0.  1.
        -24    2    1    2    0    0  0.29295202143E+03  0.20876361100E+03 -0.14566899312E+03  0.39678056967E+03  0.82536251262E+02 0.  0.
         23    2    1    2    0    0 -0.27247035656E+03  0.29304344695E+02  0.12409953812E+03  0.31347609070E+03  0.88134693807E+02 0.  0.
         11    1    3    3    0    0  0.72141555115E+02  0.16071053608E+02 -0.46826047040E+02  0.87494922252E+02  0.00000000000E+00 0. -1.
        -12    1    3    3    0    0  0.22081046631E+03  0.19269255739E+03 -0.98842946083E+02  0.30928564742E+03  0.00000000000E+00 0.  1.
        -11    1    4    4    0    0 -0.12799443199E+03  0.50599177633E+02  0.86916151558E+02  0.16277981693E+03  0.00000000000E+00 0. -1.
         11    1    4    4    0    0 -0.14447592457E+03 -0.21294832938E+02  0.37183386564E+02  0.15069627377E+03  0.00000000000E+00 0.  1.
         21    1    1    2  503  501 -0.22631234096E+02 -0.34893448441E+01  0.17188945702E+03  0.17340799785E+03  0.00000000000E+00 0.  1.
         -3    1    1    2    0  502  0.21495692301E+01 -0.23457861085E+03  0.50109060966E+03  0.55328432510E+03  0.00000000000E+00 0.  1.
<scales pt_clust_5="13000.00000" pt_clust_6="13000.00000" pt_clust_7="13000.00000" pt_clust_8="13000.00000" pt_clust_9="22.89865" pt_clust_10="236.97046"></scales>
<clustering>
<clus scale="   22.899">  1  9  2 -1</clus>
<clus scale="   82.536">  5  6 -1 -1</clus>
<clus scale="   88.135">  7  8 -1 -1</clus>
<clus scale="  236.970">  1 10  2 -1</clus>
<clus scale="  321.228">  2  5  1 -1</clus>
<clus scale="   22.899">  1  5  2 -1</clus>
</clustering>
</event>
<event>
10    3  0.5078224E-005  0.1998541E+03  0.7546771E-02  0.1177355E+00
         21   -1    0    0  501  502  0.00000000000E+00  0.00000000000E+00  0.35591844835E+03  0.35591844835E+03  0.00000000000E+00 0. -1.
          3   -1    0    0  503    0 -0.00000000000E+00 -0.00000000000E+00 -0.20287286755E+03  0.20287286755E+03  0.00000000000E+00 0. -1.
         23    2    1    2    0    0  0.39354455607E+02 -0.48208581326E+02  0.40583705494E+02  0.11686156955E+03  0.90203928944E+02 0.  0.
        -24    2    1    2    0    0 -0.12368944551E+03  0.15836719748E+03  0.62842026157E+02  0.22508884875E+03  0.79602898259E+02 0.  0.
         13    1    4    4    0    0 -0.10667098758E+03  0.10556244762E+03  0.13218862853E+02  0.15065479838E+03  0.00000000000E+00 0. -1.
        -14    1    4    4    0    0 -0.17018457923E+02  0.52804749857E+02  0.49623163303E+02  0.74434050365E+02  0.00000000000E+00 0.  1.
        -13    1    3    3    0    0 -0.27367212437E+02 -0.29032080451E+02  0.18769807965E+02  0.44092308887E+02  0.00000000000E+00 0.  1.
         13    1    3    3    0    0  0.66721668044E+02 -0.19176500874E+02  0.21813897528E+02  0.72769260665E+02  0.00000000000E+00 0. -1.
         21    1    1    2  503  502 -0.57116941691E+01  0.31795032582E+02  0.35722312277E+02  0.48162549160E+02  0.00000000000E+00 0.  1.
          4    1    1    2  501    0  0.90046684068E+02 -0.14195364874E+03  0.13897536871E+02  0.16867834844E+03  0.00000000000E+00 0. -1.
<scales pt_clust_5="13000.00000" pt_clust_6="13000.00000" pt_clust_7="13000.00000" pt_clust_8="13000.00000" pt_clust_9="32.30399" pt_clust_10="183.31680"></scales>
<clustering>
<clus scale="   32.304">  1  9  2 -1</clus>
<clus scale="   79.603">  5  6 -1 -1</clus>
<clus scale="   90.204">  7  8 -1 -1</clus>
<clus scale="  105.801">  2  7  1 -1</clus>
<clus scale="  183.317">  1 10  2 -1</clus>
<clus scale="   32.304">  1  5  2 -1</clus>
</clustering>
</event>
<event>
10    3  0.5078224E-005  0.1765795E+03  0.7546771E-02  0.1171964E+00
         21   -1    0    0  503  502  0.00000000000E+00  0.00000000000E+00  0.10547753576E+03  0.10547753576E+03  0.00000000000E+00 0. -1.
          1   -1    0    0  502    0 -0.00000000000E+00 -0.00000000000E+00 -0.55480739013E+03  0.55480739013E+03  0.00000000000E+00 0. -1.
         23    2    1    2    0    0  0.12199326787E+03 -0.55780933109E+02 -0.16731407705E+03  0.23160096663E+03  0.87470780607E+02 0.  0.
        -24    2    1    2    0    0 -0.17642667625E+03  0.68386821374E+02 -0.11831964954E+03  0.23732815237E+03  0.80758795229E+02 0.  0.
         11    1    4    4    0    0 -0.17862430345E+03  0.67512653789E+02 -0.12633883390E+03  0.22896746746E+03  0.00000000000E+00 0. -1.
        -12    1    4    4    0    0  0.21976271970E+01  0.87416758565E+00  0.80191843601E+01  0.83606849042E+01  0.00000000000E+00 0.  1.
        -13    1    3    3    0    0  0.67531774449E+00 -0.27480793421E+02 -0.66203194540E+01  0.28275054213E+02  0.00000000000E+00 0.  1.
         13    1    3    3    0    0  0.12131795013E+03 -0.28300139688E+02 -0.16069375760E+03  0.20332591242E+03  0.00000000000E+00 0. -1.
         21    1    1    2  503  501  0.18796572631E+02  0.18060714842E+02 -0.59299262054E+01  0.26733211331E+02  0.00000000000E+00 0. -1.
          2    1    1    2  501    0  0.35636835752E+02 -0.30666603107E+02 -0.15776620157E+03  0.16462259556E+03  0.00000000000E+00 0. -1.
<scales pt_clust_5="13000.00000" pt_clust_6="13000.00000" pt_clust_7="13000.00000" pt_clust_8="13000.00000" pt_clust_9="26.06723" pt_clust_10="47.11343"></scales>
<clustering>
<clus scale="   26.067">  1  9  2 -1</clus>
<clus scale="   47.113">  1 10  2 -1</clus>
<clus scale="   80.759">  5  6 -1 -1</clus>
<clus scale="   87.471">  7  8 -1 -1</clus>
<clus scale="  173.353">  1  5  2 -1</clus>
<clus scale="   26.067">  1  5  2 -1</clus>
</clustering>
</event>
<event>
10    3  0.5078224E-005  0.1038412E+03  0.7546771E-02  0.1276713E+00
         21   -1    0    0  503  502  0.00000000000E+00  0.00000000000E+00  0.12417894335E+03  0.12417894335E+03  0.00000000000E+00 0. -1.
          1   -1    0    0  502    0 -0.00000000000E+00 -0.00000000000E+00 -0.65782855359E+03  0.65782855359E+03  0.00000000000E+00 0. -1.
         23    2    1    2    0    0 -0.11194656837E+01  0.37213918335E+02 -0.21006071205E+03  0.23171169505E+03  0.90436043442E+02 0.  0.
        -24    2    1    2    0    0 -0.85518352528E+01 -0.69935332427E+02 -0.17719268991E+03  0.20712613445E+03  0.80869658128E+02 0.  0.
         13    1    4    4    0    0 -0.17120724727E+02 -0.76330046930E+02 -0.89852013437E+02  0.11913345289E+03  0.00000000000E+00 0. -1.
        -14    1    4    4    0    0  0.85688894747E+01  0.63947145027E+01 -0.87340676472E+02  0.87992681554E+02  0.00000000000E+00 0.  1.
        -11    1    3    3    0    0  0.24753685989E+02 -0.11361805745E+02 -0.13996978229E+03  0.14259514562E+03  0.00000000000E+00 0.  1.
         11    1    3    3    0    0 -0.25873151673E+02  0.48575724080E+02 -0.70090929762E+02  0.89116549429E+02  0.00000000000E+00 0. -1.
         21    1    1    2  503  501  0.19659524696E+02 -0.91355210333E+02  0.53504929387E+02  0.10768030848E+03  0.00000000000E+00 0. -1.
          2    1    1    2  501    0 -0.99882237593E+01  0.12407662443E+03 -0.19990113767E+03  0.23548935896E+03  0.00000000000E+00 0. -1.
<scales pt_clust_5="13000.00000" pt_clust_6="13000.00000" pt_clust_7="13000.00000" pt_clust_8="13000.00000" pt_clust_9="93.44662" pt_clust_10="86.80305"></scales>
<clustering>
<clus scale="   80.870">  5  6 -1 -1</clus>
<clus scale="   90.436">  7  8 -1 -1</clus>
<clus scale="   93.447">  1  9  2 -1</clus>
<clus scale="   86.803">  1 10  2 -1</clus>
<clus scale="   95.625">  1  5  2 -1</clus>
<clus scale="   93.447">  1  5  2 -1</clus>
</clustering>
</event>
<event>
10    3  0.5078224E-005  0.1160746E+03  0.7546771E-02  0.1251787E+00
          1   -1    0    0  503    0 -0.00000000000E+00  0.00000000000E+00  0.29970237876E+03  0.29970237876E+03  0.00000000000E+00 0. -1.
         21   -1    0    0  501  502  0.00000000000E+00 -0.00000000000E+00 -0.30751726094E+03  0.30751726094E+03  0.00000000000E+00 0.  1.
         23    2    1    2    0    0 -0.14977475148E+02  0.92256587366E+02  0.14564229537E+03  0.19166218815E+03  0.82383939527E+02 0.  0.
        -24    2    1    2    0    0  0.68867306218E+02 -0.41144164860E+02  0.27033855373E+02  0.11351312313E+03  0.75623089191E+02 0.  0.
         11    1    4    4    0    0  0.23189548036E+02  0.21963317104E+02  0.12311562371E+02  0.34230352092E+02  0.00000000000E+00 0. -1.
        -12    1    4    4    0    0  0.45677758181E+02 -0.63107481964E+02  0.14722293001E+02  0.79282771038E+02  0.00000000000E+00 0.  1.
        -13    1    3    3    0    0 -0.22042125146E+02 -0.70065997668E+01  0.15540863099E+02  0.27865142151E+02  0.00000000000E+00 0.  1.
         13    1    3    3    0    0  0.70646499978E+01  0.99263187133E+02  0.13010143227E+03  0.16379704600E+03  0.00000000000E+00 0. -1.
         21    1    1    2  503  502 -0.37433046922E+02 -0.21297622215E+02 -0.23437596001E+03  0.23830004688E+03  0.00000000000E+00 0.  1.
          2    1    1    2  501    0 -0.16456784148E+02 -0.29814800291E+02  0.53884927097E+02  0.63744281541E+02  0.00000000000E+00 0. -1.
<scales pt_clust_5="13000.00000" pt_clust_6="13000.00000" pt_clust_7="13000.00000" pt_clust_8="13000.00000" pt_clust_9="67.20526" pt_clust_10="34.05509"></scales>
<clustering>
<clus scale="   34.055">  2 10  1 -1</clus>
<clus scale="   67.205">  2  9  1 -1</clus>
<clus scale="   75.623">  5  6 -1 -1</clus>
<clus scale="   82.384">  7  8 -1 -1</clus>
<clus scale="  111.378">  2  5  1 -1</clus>
<clus scale="   34.055">  2  5  1 -1</clus>
</clustering>
</event>
<event>
10    3  0.5078224E-005  0.1565613E+03  0.7546771E-02  0.1194174E+00
         -2   -1    0    0    0  501 -0.00000000000E+00  0.00000000000E+00  0.14549976453E+04  0.14549976453E+04  0.00000000000E+00 0.  1.
         21   -1    0    0  503  502  0.00000000000E+00 -0.00000000000E+00 -0.12226000307E+03  0.12226000307E+03  0.00000000000E+00 0.  1.
        -24    2    1    2    0    0  0.98919591781E+01 -0.11853006225E+03  0.26702795966E+03  0.30313903155E+03  0.80262785225E+02 0.  0.
         23    2    1    2    0    0 -0.56891391415E+02  0.21711368095E+03  0.60567935171E+02  0.24917515509E+03  0.89692821738E+02 0.  0.
         13    1    3    3    0    0  0.41918261262E+02 -0.94724298816E+02  0.19291753415E+03  0.21896805337E+03  0.00000000000E+00 0. -1.
        -14    1    3    3    0    0 -0.32026302084E+02 -0.23805763435E+02  0.74110425513E+02  0.84170978179E+02  0.00000000000E+00 0.  1.
        -11    1    4    4    0    0  0.73151779910E+01  0.13532050078E+03  0.17570706697E+02  0.13665240391E+03  0.00000000000E+00 0.  1.
         11    1    4    4    0    0 -0.64206569406E+02  0.81793180169E+02  0.42997228474E+02  0.11252275118E+03  0.00000000000E+00 0. -1.
         21    1    1    2  503  501 -0.30730637391E+02  0.33010816702E+02  0.16712356784E+03  0.17310220398E+03  0.00000000000E+00 0. -1.
         -1    1    1    2    0  502  0.77730069628E+02 -0.13159443540E+03  0.83801817958E+03  0.85184125778E+03  0.00000000000E+00 0.  1.
<scales pt_clust_5="13000.00000" pt_clust_6="13000.00000" pt_clust_7="13000.00000" pt_clust_8="13000.00000" pt_clust_9="45.10084" pt_clust_10="124.03179"></scales>
<clustering>
<clus scale="   45.101">  1  9  2 -1</clus>
<clus scale="   80.263">  5  6 -1 -1</clus>
<clus scale="   89.693">  7  8 -1 -1</clus>
<clus scale="  124.032">  2 10  1 -1</clus>
<clus scale="  151.356">  1  5  2 -1</clus>
<clus scale="  124.032">  2  5  1 -1</clus>
</clustering>
</event>
<event>
10    3  0.5078224E-005  0.2165199E+03  0.7546771E-02  0.1169693E+00
          3   -1    0    0  503    0 -0.00000000000E+00  0.00000000000E+00  0.76066304325E+03  0.76066304325E+03  0.00000000000E+00 0. -1.
         21   -1    0    0  501  502  0.00000000000E+00 -0.00000000000E+00 -0.22881367411E+03  0.22881367411E+03  0.00000000000E+00 0. -1.
        -24    2    1    2    0    0 -0.17462537181E+02 -0.52793069934E+02  0.28247406314E+03  0.29933115519E+03  0.81948127982E+02 0.  0.
         23    2    1    2    0    0  0.99151240777E+01 -0.11166066692E+03  0.14823535207E+03  0.20812063262E+03  0.93669973289E+02 0.  0.
         13    1    3    3    0    0 -0.40068165327E+02 -0.58744624610E+02  0.24547072552E+03  0.25556264571E+03  0.00000000000E+00 0. -1.
        -14    1    3    3    0    0  0.22605628146E+02  0.59515546762E+01  0.37003337620E+02  0.43768509478E+02  0.00000000000E+00 0.  1.
        -13    1    4    4    0    0  0.44190042482E+02 -0.92966341025E+02  0.83587643258E+02  0.13259862188E+03  0.00000000000E+00 0. -1.
         13    1    4    4    0    0 -0.34274918404E+02 -0.18694325899E+02  0.64647708807E+02  0.75522010742E+02  0.00000000000E+00 0.  1.
         21    1    1    2  503  502  0.21270244652E+03  0.15782773127E+03  0.73789608102E+02  0.27494877665E+03  0.00000000000E+00 0. -1.
          4    1    1    2  501    0 -0.20515503342E+03  0.66260055854E+01  0.27350345841E+02  0.20707615291E+03  0.00000000000E+00 0. -1.
<scales pt_clust_5="13000.00000" pt_clust_6="13000.00000" pt_clust_7="13000.00000" pt_clust_8="13000.00000" pt_clust_9="216.51990" pt_clust_10="13000.00000"></scales>
<clustering>
<clus scale="   81.948">  5  6 -1 -1</clus>
<clus scale="   93.670">  7  8 -1 -1</clus>
<clus scale="   99.033">  1  5  2 -1</clus>
<clus scale="  161.635">  1  7  2 -1</clus>
<clus scale="  216.520">  1  9  2 -1</clus>
<clus scale="  216.520">  2  5  1 -1</clus>
</clustering>
</event>
<event>
10    3  0.5078224E-005  0.1969379E+03  0.7546771E-02  0.1153395E+00
         21   -1    0    0  503  502  0.00000000000E+00  0.00000000000E+00  0.26154390129E+03  0.26154390129E+03  0.00000000000E+00 0.  1.
         -2   -1    0    0    0  501 -0.00000000000E+00 -0.00000000000E+00 -0.35771382119E+03  0.35771382119E+03  0.00000000000E+00 0.  1.
        -24    2    1    2    0    0  0.14070768820E+03 -0.99952020137E+02 -0.20685042439E+03  0.28094358630E+03  0.79706591723E+02 0.  0.
         23    2    1    2    0    0 -0.16001097944E+03  0.12671388599E+03  0.11639541585E+03  0.25184965505E+03  0.90666606158E+02 0.  0.
         13    1    3    3    0    0  0.93001069258E+02 -0.67833080154E+02 -0.75793156172E+02  0.13782281440E+03  0.00000000000E+00 0. -1.
        -14    1    3    3    0    0  0.47706618945E+02 -0.32118939983E+02 -0.13105726822E+03  0.14312077190E+03  0.00000000000E+00 0.  1.
        -13    1    4    4    0    0 -0.16303525292E+03  0.90550894324E+02  0.90668768150E+02  0.20736630313E+03  0.00000000000E+00 0. -1.
         13    1    4    4    0    0  0.30242734709E+01  0.36162991661E+02  0.25726647699E+02  0.44483351916E+02  0.00000000000E+00 0.  1.
         21    1    1    2  503  501  0.10241793427E+02  0.27765013109E+02 -0.94440697743E+01  0.31064139122E+02  0.00000000000E+00 0. -1.
         -1    1    1    2    0  502  0.90614978144E+01 -0.54526878957E+02  0.37291584207E+01  0.55400342002E+02  0.00000000000E+00 0.  1.
<scales pt_clust_5="13000.00000" pt_clust_6="13000.00000" pt_clust_7="13000.00000" pt_clust_8="13000.00000" pt_clust_9="29.59375" pt_clust_10="53.31813"></scales>
<clustering>
<clus scale="   29.594">  2  9  1 -1</clus>
<clus scale="   53.318">  1 10  2 -1</clus>
<clus scale="   79.707">  5  6 -1 -1</clus>
<clus scale="   90.667">  7  8 -1 -1</clus>
<clus scale="  192.139">  2  5  1 -1</clus>
<clus scale="   53.318">  1  5  2 -1</clus>
</clustering>
</event>
<event>
10    3  0.5078224E-005  0.1016037E+03  0.7546771E-02  0.1283445E+00
         21   -1    0    0  501  502  0.00000000000E+00  0.00000000000E+00  0.13357934365E+03  0.13357934365E+03  0.00000000000E+00 0. -1.
          1   -1    0    0  503    0 -0.00000000000E+00 -0.00000000000E+00 -0.38878306812E+03  0.38878306812E+03  0.00000000000E+00 0. -1.
        -24    2    1    2    0    0  0.22235103037E+02 -0.21400358826E+02 -0.13431209004E+02  0.85984314711E+02  0.79123510009E+02 0.  0.
         23    2    1    2    0    0 -0.56977520633E+02 -0.93870821997E+02 -0.10675344691E+02  0.14384072950E+03  0.92293138417E+02 0.  0.
         13    1    3    3    0    0  0.18014653080E+02 -0.45078592121E+02  0.12992629322E+02  0.50253513409E+02  0.00000000000E+00 0. -1.
        -14    1    3    3    0    0  0.42204499570E+01  0.23678233295E+02 -0.26423838326E+02  0.35730801303E+02  0.00000000000E+00 0.  1.
        -11    1    4    4    0    0 -0.60764301396E+02 -0.45662908134E+02 -0.41396359149E+02  0.86550910187E+02  0.00000000000E+00 0. -1.
         11    1    4    4    0    0  0.37867807631E+01 -0.48207913863E+02  0.30721014457E+02  0.57289819312E+02  0.00000000000E+00 0.  1.
         21    1    1    2  503  502 -0.72776547388E+01  0.67138387484E+02 -0.17746356172E+02  0.69824497778E+02  0.00000000000E+00 0. -1.
          2    1    1    2  501    0  0.42020072335E+02  0.48132793339E+02 -0.21335081461E+03  0.22271286978E+03  0.00000000000E+00 0. -1.
<scales pt_clust_5="13000.00000" pt_clust_6="13000.00000" pt_clust_7="13000.00000" pt_clust_8="13000.00000" pt_clust_9="76.87135" pt_clust_10="63.89410"></scales>
<clustering>
<clus scale="   63.894">  1 10  2 -1</clus>
<clus scale="   76.871">  2  9  1 -1</clus>
<clus scale="   79.124">  5  6 -1 -1</clus>
<clus scale="   89.810">  2  5  1 -1</clus>
<clus scale="   92.293">  7  8 -1 -1</clus>
<clus scale="   63.894">  1  5  2 -1</clus>
</clustering>
</event>
<event>
10    3  0.5078224E-005  0.1576250E+03  0.7546771E-02  0.1191424E+00
         -4   -1    0    0    0  501 -0.00000000000E+00  0.00000000000E+00  0.88003402442E+03  0.88003402442E+03  0.00000000000E+00 0.  1.
         21   -1    0    0  503  502  0.00000000000E+00 -0.00000000000E+00 -0.53076562148E+02  0.53076562148E+02  0.00000000000E+00 0. -1.
         23    2    1    2    0    0  0.83637617188E+02  0.75277435893E+02  0.33984936757E+03  0.36718900477E+03  0.81659226174E+02 0.  0.
        -24    2    1    2    0    0 -0.14550388862E+03 -0.10004521090E+03  0.34993394173E+03  0.40040383400E+03  0.81786556868E+02 0.  0.
         13    1    4    4    0    0 -0.13961546812E+03 -0.80927855729E+02  0.24359051666E+03  0.29219537399E+03  0.00000000000E+00 0. -1.
        -14    1    4    4    0    0 -0.58884204991E+01 -0.19117355174E+02  0.10634342507E+03  0.10820846002E+03  0.00000000000E+00 0.  1.
        -11    1    3    3    0    0 -0.52484056724E+01  0.43144387796E+02  0.12899472918E+03  0.13611988876E+03  0.00000000000E+00 0. -1.
         11    1    3    3    0    0  0.88886022861E+02  0.32133048097E+02  0.21085463839E+03  0.23106911600E+03  0.00000000000E+00 0.  1.
         21    1    1    2  503  501  0.19252607042E+02  0.82030461110E+01  0.24492689122E-02  0.20927323035E+02  0.00000000000E+00 0.  1.
         -3    1    1    2    0  502  0.42613664387E+02  0.16564728899E+02  0.13717170371E+03  0.14459042476E+03  0.00000000000E+00 0.  1.
<scales pt_clust_5="13000.00000" pt_clust_6="13000.00000" pt_clust_7="13000.00000" pt_clust_8="13000.00000" pt_clust_9="20.92732" pt_clust_10="47.54071"></scales>
<clustering>
<clus scale="   20.927">  2  9  1 -1</clus>
<clus scale="   47.541">  2 10  1 -1</clus>
<clus scale="   81.659">  7  8 -1 -1</clus>
<clus scale="   81.787">  5  6 -1 -1</clus>
<clus scale="  157.559">  1  7  2 -1</clus>
<clus scale="   20.927">  2  5  1 -1</clus>
</clustering>
</event>
<event>
10    3  0.5078224E-005  0.2900776E+03  0.7546771E-02  0.1090309E+00
          1   -1    0    0  503    0 -0.00000000000E+00  0.00000000000E+00  0.14751301878E+04  0.14751301878E+04  0.00000000000E+00 0. -1.
         21   -1    0    0  501  502  0.00000000000E+00 -0.00000000000E+00 -0.75246946380E+02  0.75246946380E+02  0.00000000000E+00 0. -1.
        -24    2    1    2    0    0  0.91246535220E+02  0.13596487690E+03  0.82260140883E+03  0.84217212185E+03  0.75950161788E+02 0.  0.
         23    2    1    2    0    0  0.47892786473E+02  0.37242442525E+02  0.36892987887E+03  0.38609533381E+03  0.96330850430E+02 0.  0.
         11    1    3    3    0    0  0.79933325935E+02  0.11904664417E+03  0.53600114077E+03  0.55485012660E+03  0.00000000000E+00 0. -1.
        -12    1    3    3    0    0  0.11313209285E+02  0.16918232735E+02  0.28660026806E+03  0.28732199525E+03  0.00000000000E+00 0.  1.
        -13    1    4    4    0    0  0.73950079545E+02  0.12712436481E+02  0.28784632411E+03  0.29746550490E+03  0.00000000000E+00 0.  1.
         13    1    4    4    0    0 -0.26057293071E+02  0.24530006044E+02  0.81083554769E+02  0.88629828911E+02  0.00000000000E+00 0. -1.
         21    1    1    2  503  502  0.86775180476E+01 -0.54707700305E+02  0.36580082941E+02  0.66380224918E+02  0.00000000000E+00 0.  1.
          2    1    1    2  501    0 -0.14781683974E+03 -0.11849961912E+03  0.17177187075E+03  0.25572945357E+03  0.00000000000E+00 0. -1.
<scales pt_clust_5="13000.00000" pt_clust_6="13000.00000" pt_clust_7="13000.00000" pt_clust_8="13000.00000" pt_clust_9="55.39162" pt_clust_10="211.21410"></scales>
<clustering>
<clus scale="   55.392">  2  9  1 -1</clus>
<clus scale="   75.950">  5  6 -1 -1</clus>
<clus scale="   96.331">  7  8 -1 -1</clus>
<clus scale="   99.179">  5  7 -1 -1</clus>
<clus scale="  211.214">  2 10  1 -1</clus>
<clus scale="   55.392">  2  5  1 -1</clus>
</clustering>
</event>
<event>
10    3  0.5078224E-005  0.1230758E+03  0.7546771E-02  0.1242931E+00
         -2   -1    0    0    0  501 -0.00000000000E+00  0.00000000000E+00  0.32517927264E+03  0.32517927264E+03  0.00000000000E+00 0.  1.
         21   -1    0    0  503  502  0.00000000000E+00 -0.00000000000E+00 -0.37467426566E+03  0.37467426566E+03  0.00000000000E+00 0. -1.
         23    2    1    2    0    0  0.87311010297E+02  0.18479428656E+02  0.27360310251E+03  0.30152384088E+03  0.89962587286E+02 0.  0.
        -24    2    1    2    0    0 -0.40628039831E+02  0.23748472819E+01 -0.10378702390E+03  0.13352220097E+03  0.73485742164E+02 0.  0.
         11    1    4    4    0    0 -0.40416254702E+02  0.19857053859E+02 -0.10668584403E+03  0.11580002396E+03  0.00000000000E+00 0. -1.
        -12    1    4    4    0    0 -0.21178512902E+00 -0.17482206577E+02  0.28988201339E+01  0.17722177009E+02  0.00000000000E+00 0.  1.
        -13    1    3    3    0    0  0.10511558494E+03  0.73042452231E+01  0.23573579251E+03  0.25821309430E+03  0.00000000000E+00 0.  1.
         13    1    3    3    0    0 -0.17804574639E+02  0.11175183433E+02  0.37867310002E+02  0.43310746584E+02  0.00000000000E+00 0. -1.
         21    1    1    2  503  501 -0.27769709495E+02 -0.28415285310E+02 -0.23547572333E+03  0.23880410692E+03  0.00000000000E+00 0. -1.
         -1    1    1    2    0  502 -0.18913260970E+02  0.75610093721E+01  0.16164651685E+02  0.26003389536E+02  0.00000000000E+00 0.  1.
<scales pt_clust_5="13000.00000" pt_clust_6="13000.00000" pt_clust_7="13000.00000" pt_clust_8="13000.00000" pt_clust_9="46.33939" pt_clust_10="20.36862"></scales>
<clustering>
<clus scale="   20.369">  2 10  1 -1</clus>
<clus scale="   46.339">  2  9  1 -1</clus>
<clus scale="   73.486">  5  6 -1 -1</clus>
<clus scale="   89.963">  7  8 -1 -1</clus>
<clus scale="  111.600">  2  5  1 -1</clus>
<clus scale="   20.369">  2  5  1 -1</clus>
</clustering>
</event>
<event>
10    3  0.5078224E-005  0.1601003E+03  0.7546771E-02  0.1193358E+00
          1   -1    0    0  503    0 -0.00000000000E+00  0.00000000000E+00  0.23416573660E+03  0.23416573660E+03  0.00000000000E+00 0. -1.
         21   -1    0    0  501  502  0.00000000000E+00 -0.00000000000E+00 -0.19137846689E+03  0.19137846689E+03  0.00000000000E+00 0. -1.
         23    2    1    2    0    0  0.45376257738E+02  0.11300218081E+03  0.14193345818E+01  0.15237609038E+03  0.91585810989E+02 0.  0.
        -24    2    1    2    0    0 -0.25466230660E+02 -0.14307098013E+03 -0.35267583791E+02  0.16087626532E+03  0.59325677545E+02 0.  0.
         13    1    4    4    0    0 -0.30742850159E+02 -0.74741642640E+02  0.57241260790E+01  0.81019760551E+02  0.00000000000E+00 0. -1.
        -14    1    4    4    0    0  0.52766194990E+01 -0.68329337491E+02 -0.40991709870E+02  0.79856504765E+02  0.00000000000E+00 0.  1.
        -11    1    3    3    0    0  0.33033581978E+02  0.37867203490E+02  0.42540647814E+02  0.65839572864E+02  0.00000000000E+00 0.  1.
         11    1    3    3    0    0  0.12342675760E+02  0.75134977321E+02 -0.41121313232E+02  0.86536517517E+02  0.00000000000E+00 0. -1.
         21    1    1    2  503  502  0.15138580939E+02  0.16616481402E+02 -0.44704651647E+01  0.22918750965E+02  0.00000000000E+00 0.  1.
          2    1    1    2  501    0 -0.35048608016E+02  0.13452317918E+02  0.81105984085E+02  0.89373096823E+02  0.00000000000E+00 0. -1.
<scales pt_clust_5="13000.00000" pt_clust_6="13000.00000" pt_clust_7="13000.00000" pt_clust_8="13000.00000" pt_clust_9="22.47853" pt_clust_10="37.35449"></scales>
<clustering>
<clus scale="   22.479">  2  9  1 -1</clus>
<clus scale="   37.354">  2 10  1 -1</clus>
<clus scale="   59.326">  5  6 -1 -1</clus>
<clus scale="   91.586">  7  8 -1 -1</clus>
<clus scale="  144.096">  2  5  1 -1</clus>
<clus scale="   22.479">  2  5  1 -1</clus>
</clustering>
</event>
<event>
10    3  0.5078224E-005  0.1186062E+03  0.7546771E-02  0.1249410E+00
          1   -1    0    0  503    0 -0.00000000000E+00  0.00000000000E+00  0.26492283381E+03  0.26492283381E+03  0.00000000000E+00 0. -1.
         21   -1    0    0  501  502  0.00000000000E+00 -0.00000000000E+00 -0.15868654960E+03  0.15868654960E+03  0.00000000000E+00 0. -1.
         23    2    1    2    0    0  0.76845909905E+02  0.38823856649E+02  0.74462067984E+02  0.14614288102E+03  0.91654549203E+02 0.  0.
        -24    2    1    2    0    0 -0.67257368961E+02  0.58943845677E+01  0.10489783147E+02  0.10480842161E+03  0.79476236955E+02 0.  0.
         13    1    4    4    0    0 -0.78893211078E+02  0.24136540333E+02  0.60809050691E+01  0.82726590283E+02  0.00000000000E+00 0. -1.
        -14    1    4    4    0    0  0.11635842117E+02 -0.18242155765E+02  0.44088780780E+01  0.22081831325E+02  0.00000000000E+00 0.  1.
        -11    1    3    3    0    0  0.84713701301E+02  0.11383810126E+02  0.25036853678E+02  0.89066527737E+02  0.00000000000E+00 0. -1.
         11    1    3    3    0    0 -0.78677913962E+01  0.27440046523E+02  0.49425214306E+02  0.57076353281E+02  0.00000000000E+00 0.  1.
         21    1    1    2  503  502 -0.79765826222E+02  0.12559810672E+02  0.92180415996E+01  0.81273046995E+02  0.00000000000E+00 0. -1.
          2    1    1    2  501    0  0.70177285277E+02 -0.57278051889E+02  0.12066391479E+02  0.91385033788E+02  0.00000000000E+00 0. -1.
<scales pt_clust_5="13000.00000" pt_clust_6="13000.00000" pt_clust_7="13000.00000" pt_clust_8="13000.00000" pt_clust_9="80.74860" pt_clust_10="69.29813"></scales>
<clustering>
<clus scale="   79.476">  5  6 -1 -1</clus>
<clus scale="   80.749">  2  9  1 -1</clus>
<clus scale="   69.298">  2 10  1 -1</clus>
<clus scale="   91.655">  7  8 -1 -1</clus>
<clus scale="  109.468">  2  5  1 -1</clus>
<clus scale="   80.749">  2  5  1 -1</clus>
</clustering>
</event>
<event>
10    3  0.5078224E-005  0.3275885E+03  0.7546771E-02  0.1119405E+00
         -2   -1    0    0    0  501 -0.00000000000E+00  0.00000000000E+00  0.54198102017E+03  0.54198102017E+03  0.00000000000E+00 0.  1.
         21   -1    0    0  501  502  0.00000000000E+00 -0.00000000000E+00 -0.32687520111E+03  0.32687520111E+03  0.00000000000E+00 0. -1.
         23    2    1    2    0    0  0.29688187952E+02 -0.20148138863E+02 -0.57215728685E+02  0.11360407134E+03  0.91350475710E+02 0.  0.
        -24    2    1    2    0    0  0.11778906657E+03 -0.28846274397E+03  0.15654556715E+03  0.35829344471E+03  0.82356900542E+02 0.  0.
         11    1    4    4    0    0  0.64139361417E+02 -0.95088218157E+02  0.93394591234E+02  0.14791273301E+03  0.00000000000E+00 0. -1.
        -12    1    4    4    0    0  0.53649705148E+02 -0.19337452581E+03  0.63150975918E+02  0.21038071170E+03  0.00000000000E+00 0.  1.
        -11    1    3    3    0    0  0.27999136328E+02  0.87685000153E+01 -0.74363965735E+02  0.79942714662E+02  0.00000000000E+00 0.  1.
         11    1    3    3    0    0  0.16890516238E+01 -0.28916638879E+02  0.17148237051E+02  0.33661356678E+02  0.00000000000E+00 0. -1.
         21    1    1    2  503  502 -0.32255534870E+02  0.70026491880E+01 -0.28229228516E+02  0.43432084546E+02  0.00000000000E+00 0. -1.
         -1    1    1    2    0  503 -0.11522171965E+03  0.30160823364E+03  0.14400520911E+03  0.35352662068E+03  0.00000000000E+00 0.  1.
<scales pt_clust_5="13000.00000" pt_clust_6="13000.00000" pt_clust_7="13000.00000" pt_clust_8="13000.00000" pt_clust_9="33.00692" pt_clust_10="317.06730"></scales>
<clustering>
<clus scale="   33.007">  2  9  1 -1</clus>
<clus scale="   82.357">  5  6 -1 -1</clus>
<clus scale="   91.350">  7  8 -1 -1</clus>
<clus scale="   95.295">  1  7  2 -1</clus>
<clus scale="  317.067">  2 10  1 -1</clus>
<clus scale="   33.007">  2  5  1 -1</clus>
</clustering>
</event>
<event>
10    3  0.5078224E-005  0.3885885E+03  0.7546771E-02  0.1088335E+00
          1   -1    0    0  503    0 -0.00000000000E+00  0.00000000000E+00  0.32073842734E+04  0.32073842734E+04  0.00000000000E+00 0. -1.
         21   -1    0    0  501  502  0.00000000000E+00 -0.00000000000E+00 -0.77427151884E+02  0.77427151884E+02  0.00000000000E+00 0. -1.
         23    2    1    2    0    0  0.49849710570E+02 -0.67821900009E+02  0.48625470042E+03  0.50156271920E+03  0.89647776595E+02 0.  0.
        -24    2    1    2    0    0  0.30343756063E+03  0.13917121304E+03  0.10152984137E+04  0.10717441565E+04  0.79760192394E+02 0.  0.
         13    1    4    4    0    0  0.19848797503E+03  0.78961247830E+02  0.52632178372E+03  0.56802022403E+03  0.00000000000E+00 0. -1.
        -14    1    4    4    0    0  0.10494958560E+03  0.60209965208E+02  0.48897662998E+03  0.50372393243E+03  0.00000000000E+00 0.  1.
        -11    1    3    3    0    0 -0.23137961667E+02 -0.85238996718E+01  0.56615928108E+02  0.61752614935E+02  0.00000000000E+00 0.  1.
         11    1    3    3    0    0  0.72987672236E+02 -0.59298000337E+02  0.42963877231E+03  0.43981010427E+03  0.00000000000E+00 0. -1.
         21    1    1    2  503  502  0.80162811856E+02 -0.39689382105E+01  0.16033746016E+03  0.17930401558E+03  0.00000000000E+00 0. -1.
          2    1    1    2  501    0 -0.43345008305E+03 -0.67380374818E+02  0.14680665473E+04  0.15322005341E+04  0.00000000000E+00 0. -1.
<scales pt_clust_5="13000.00000" pt_clust_6="13000.00000" pt_clust_7="13000.00000" pt_clust_8="13000.00000" pt_clust_9="80.26100" pt_clust_10="380.31497"></scales>
<clustering>
<clus scale="   79.760">  5  6 -1 -1</clus>
<clus scale="   80.261">  2  9  1 -1</clus>
<clus scale="   89.648">  7  8 -1 -1</clus>
<clus scale="  127.139">  1  7  2 -1</clus>
<clus scale="  380.315">  2 10  1 -1</clus>
<clus scale="   80.261">  2  5  1 -1</clus>
</clustering>
</event>
<event>
10    3  0.5078224E-005  0.1796017E+03  0.7546771E-02  0.1197444E+00
          1   -1    0    0  502    0 -0.00000000000E+00  0.00000000000E+00  0.11815263071E+04  0.11815263071E+04  0.00000000000E+00 0. -1.
         21   -1    0    0  503  502  0.00000000000E+00 -0.00000000000E+00 -0.13428197528E+03  0.13428197528E+03  0.00000000000E+00 0. -1.
        -24    2    1    2    0    0  0.23974536971E+02  0.49358621262E+02  0.13312176768E+03  0.16415502201E+03  0.78831556531E+02 0.  0.
         23    2    1    2    0    0 -0.16140697523E+03  0.71772766693E+01  0.56355976717E+01  0.18575062842E+03  0.91475740202E+02 0.  0.
         11    1    3    3    0    0  0.46212489863E+02  0.55565735785E+02  0.10883465646E+03  0.13064504453E+03  0.00000000000E+00 0. -1.
        -12    1    3    3    0    0 -0.22237952891E+02 -0.62071145231E+01  0.24287111217E+02  0.33509977481E+02  0.00000000000E+00 0.  1.
        -13    1    4    4    0    0 -0.57017266468E+02 -0.26820019992E+02 -0.30721875537E+02  0.70100754521E+02  0.00000000000E+00 0. -1.
         13    1    4    4    0    0 -0.10438970876E+03  0.33997296662E+02  0.36357473209E+02  0.11564987390E+03  0.00000000000E+00 0.  1.
         21    1    1    2  503  501  0.72752075162E+01 -0.43225067428E+02 -0.40631662106E+01  0.44020954308E+02  0.00000000000E+00 0. -1.
          2    1    1    2  501    0  0.13015723074E+03 -0.13310830503E+02  0.91255013267E+03  0.92188167764E+03  0.00000000000E+00 0. -1.
<scales pt_clust_5="13000.00000" pt_clust_6="13000.00000" pt_clust_7="13000.00000" pt_clust_8="13000.00000" pt_clust_9="43.83304" pt_clust_10="154.56061"></scales>
<clustering>
<clus scale="   43.833">  2  9  1 -1</clus>
<clus scale="   78.832">  5  6 -1 -1</clus>
<clus scale="   91.476">  7  8 -1 -1</clus>
<clus scale="   93.338">  1  5  2 -1</clus>
<clus scale="  154.561">  2 10  1 -1</clus>
<clus scale="   43.833">  2  5  1 -1</clus>
</clustering>
</event>
<event>
10    3  0.5078224E-005  0.9982232E+02  0.7546771E-02  0.1292023E+00
         21   -1    0    0  501  502  0.00000000000E+00  0.00000000000E+00  0.89241343132E+02  0.89241343132E+02  0.00000000000E+00 0. -1.
          1   -1    0    0  503    0 -0.00000000000E+00 -0.00000000000E+00 -0.53044908249E+03  0.53044908249E+03  0.00000000000E+00 0. -1.
         23    2    1    2    0    0 -0.10859963890E+02  0.16635395483E+02 -0.31925217320E+03  0.33481628725E+03  0.98920781013E+02 0.  0.
        -24    2    1    2    0    0 -0.21975233379E+02 -0.81210281173E+01 -0.16883255460E+03  0.18807072763E+03  0.79481476580E+02 0.  0.
         13    1    4    4    0    0 -0.42355486388E+02 -0.26961903531E+02 -0.75278036047E+02  0.90485988861E+02  0.00000000000E+00 0. -1.
        -14    1    4    4    0    0  0.20380253009E+02  0.18840875414E+02 -0.93554518555E+02  0.97584738771E+02  0.00000000000E+00 0.  1.
        -13    1    3    3    0    0 -0.71102420747E+01 -0.41241894314E+02 -0.11059848816E+03  0.11825174406E+03  0.00000000000E+00 0.  1.
         13    1    3    3    0    0 -0.37497218150E+01  0.57877289797E+02 -0.20865368504E+03  0.21656454320E+03  0.00000000000E+00 0. -1.
         21    1    1    2  503  502  0.35905735377E+02  0.22946385906E+02  0.49224476614E+02  0.65106125342E+02  0.00000000000E+00 0. -1.
          2    1    1    2  501    0 -0.30705381082E+01 -0.31460753272E+02 -0.23474881686E+01  0.31697285395E+02  0.00000000000E+00 0. -1.
<scales pt_clust_5="13000.00000" pt_clust_6="13000.00000" pt_clust_7="13000.00000" pt_clust_8="13000.00000" pt_clust_9="33.57223" pt_clust_10="31.61024"></scales>
<clustering>
<clus scale="   31.610">  1 10  2 -1</clus>
<clus scale="   33.572">  1  9  2 -1</clus>
<clus scale="   79.481">  5  6 -1 -1</clus>
<clus scale="   80.601">  1  5  2 -1</clus>
<clus scale="   98.921">  7  8 -1 -1</clus>
<clus scale="   31.610">  1  5  2 -1</clus>
</clustering>
</event>
<event>
10    3  0.5078224E-005  0.1228414E+03  0.7546771E-02  0.1255646E+00
         21   -1    0    0  503  502  0.00000000000E+00  0.00000000000E+00  0.21956414559E+03  0.21956414559E+03  0.00000000000E+00 0.  1.
         -2   -1    0    0    0  501 -0.00000000000E+00 -0.00000000000E+00 -0.49890423462E+03  0.49890423462E+03  0.00000000000E+00 0.  1.
        -24    2    1    2    0    0 -0.33010936120E+02  0.13075773637E+02 -0.29039402714E+03  0.30315637614E+03  0.79463196720E+02 0.  0.
         23    2    1    2    0    0 -0.43524874052E+02  0.13357270061E+02 -0.66740221379E+02  0.13325366216E+03  0.10596909929E+03 0.  0.
         13    1    3    3    0    0  0.74127389462E+01 -0.21706774262E+02 -0.32333173299E+02  0.39642992358E+02  0.00000000000E+00 0. -1.
        -14    1    3    3    0    0 -0.40423675066E+02  0.34782547899E+02 -0.25806085385E+03  0.26351338378E+03  0.00000000000E+00 0.  1.
        -13    1    4    4    0    0  0.13378728649E+02  0.22732256085E+02 -0.70687080595E+02  0.75448056370E+02  0.00000000000E+00 0. -1.
         13    1    4    4    0    0 -0.56903602701E+02 -0.93749860247E+01  0.39468592156E+01  0.57805605792E+02  0.00000000000E+00 0.  1.
         21    1    1    2  503  501  0.71533158537E+02  0.91923436760E+02  0.10903294599E+03  0.15954652709E+03  0.00000000000E+00 0.  1.
         -1    1    1    2    0  502  0.50026516348E+01 -0.11835648046E+03 -0.31238786490E+02  0.12251181482E+03  0.00000000000E+00 0.  1.
<scales pt_clust_5="13000.00000" pt_clust_6="13000.00000" pt_clust_7="13000.00000" pt_clust_8="13000.00000" pt_clust_9="62.13335" pt_clust_10="113.63470"></scales>
<clustering>
<clus scale="   79.463">  5  6 -1 -1</clus>
<clus scale="   87.035">  2  5  1 -1</clus>
<clus scale="  105.969">  7  8 -1 -1</clus>
<clus scale="  113.635">  1 10  2 -1</clus>
<clus scale="   62.133">  1  9  2 -1</clus>
<clus scale="  113.635">  1  5  2 -1</clus>
</clustering>
</event>
<event>
10    3  0.5078224E-005  0.2230947E+03  0.7546771E-02  0.1132641E+00
         21   -1    0    0  501  502  0.00000000000E+00  0.00000000000E+00  0.14922097233E+04  0.14922097233E+04  0.00000000000E+00 0.  1.
         -2   -1    0    0    0  501 -0.00000000000E+00 -0.00000000000E+00 -0.69383533069E+02  0.69383533069E+02  0.00000000000E+00 0.  1.
        -24    2    1    2    0    0  0.57876311490E+02  0.19698313516E+03  0.27563250658E+03  0.35223417870E+03  0.77094844167E+02 0.  0.
         23    2    1    2    0    0 -0.91596030511E+02 -0.17725418125E+03  0.10517562473E+04  0.10744403662E+04  0.91771560700E+02 0.  0.
         13    1    3    3    0    0 -0.19255900732E+02  0.40338303598E+02  0.56962926247E+02  0.72406791234E+02  0.00000000000E+00 0. -1.
        -14    1    3    3    0    0  0.77132212222E+02  0.15664483156E+03  0.21866958033E+03  0.27982738747E+03  0.00000000000E+00 0.  1.
        -13    1    4    4    0    0 -0.95106648401E+01 -0.11113145990E+03  0.62390805838E+03  0.63379958933E+03  0.00000000000E+00 0.  1.
         13    1    4    4    0    0 -0.82085365671E+02 -0.66122721351E+02  0.42784818890E+03  0.44064077692E+03  0.00000000000E+00 0. -1.
         21    1    1    2  503  502  0.27403337803E+02  0.22511897371E+02  0.83272025516E+02  0.90509439726E+02  0.00000000000E+00 0.  1.
         -1    1    1    2    0  503  0.63163812180E+01 -0.42240851274E+02  0.12165410816E+02  0.44409271649E+02  0.00000000000E+00 0.  1.
<scales pt_clust_5="13000.00000" pt_clust_6="13000.00000" pt_clust_7="13000.00000" pt_clust_8="13000.00000" pt_clust_9="35.46447" pt_clust_10="42.34836"></scales>
<clustering>
<clus scale="   35.464">  1  9  2 -1</clus>
<clus scale="   42.348">  1 10  2 -1</clus>
<clus scale="   77.095">  5  6 -1 -1</clus>
<clus scale="   91.772">  7  8 -1 -1</clus>
<clus scale="  217.469">  2  5  1 -1</clus>
<clus scale="   35.464">  1  5  2 -1</clus>
</clustering>
</event>
<event>
10    3  0.5078224E-005  0.1252101E+03  0.7546771E-02  0.1256408E+00
         21   -1    0    0  503  502  0.00000000000E+00  0.00000000000E+00  0.22463983033E+03  0.22463983033E+03  0.00000000000E+00 0. -1.
         -2   -1    0    0    0  501 -0.00000000000E+00 -0.00000000000E+00 -0.83367945420E+03  0.83367945420E+03  0.00000000000E+00 0.  1.
         23    2    1    2    0    0  0.30758332266E+01 -0.29617975347E+02 -0.38390821745E+03  0.39235183117E+03  0.75284492315E+02 0.  0.
        -24    2    1    2    0    0 -0.71774630280E+01  0.84154399811E+02 -0.57551692442E+02  0.13274967870E+03  0.84716001498E+02 0.  0.
         11    1    4    4    0    0  0.31023780908E+02  0.72822193072E+02 -0.31788799642E+02  0.85299909545E+02  0.00000000000E+00 0. -1.
        -12    1    4    4    0    0 -0.38201243936E+02  0.11332206739E+02 -0.25762892800E+02  0.47449769159E+02  0.00000000000E+00 0.  1.
        -13    1    3    3    0    0  0.36599969413E+02 -0.28396332206E+02 -0.25351049367E+03  0.25770812918E+03  0.00000000000E+00 0. -1.
         13    1    3    3    0    0 -0.33524136187E+02 -0.12216431413E+01 -0.13039772379E+03  0.13464370200E+03  0.00000000000E+00 0.  1.
         21    1    1    2  503  501 -0.21397567279E+00 -0.16025846545E+03  0.13696637209E+03  0.21081415659E+03  0.00000000000E+00 0. -1.
         -1    1    1    2    0  502  0.43156054742E+01  0.10572204098E+03 -0.30454608607E+03  0.32240361806E+03  0.00000000000E+00 0.  1.
<scales pt_clust_5="13000.00000" pt_clust_6="13000.00000" pt_clust_7="13000.00000" pt_clust_8="13000.00000" pt_clust_9="92.19958" pt_clust_10="85.13074"></scales>
<clustering>
<clus scale="   75.284">  7  8 -1 -1</clus>
<clus scale="   80.959">  2  7  1 -1</clus>
<clus scale="   84.716">  5  6 -1 -1</clus>
<clus scale="   85.131">  1 10  2 -1</clus>
<clus scale="   92.200">  1  9  2 -1</clus>
<clus scale="   85.131">  1  5  2 -1</clus>
</clustering>
</event>
<event>
10    3  0.5078224E-005  0.1011469E+03  0.7546771E-02  0.1283206E+00
         21   -1    0    0  501  502  0.00000000000E+00  0.00000000000E+00  0.24518847374E+03  0.24518847374E+03  0.00000000000E+00 0.  1.
          1   -1    0    0  503    0 -0.00000000000E+00 -0.00000000000E+00 -0.94546934827E+02  0.94546934827E+02  0.00000000000E+00 0. -1.
        -24    2    1    2    0    0 -0.46618262389E+02 -0.27463070203E+01 -0.89519635205E+01  0.93466877581E+02  0.80468099042E+02 0.  0.
         23    2    1    2    0    0  0.24457364281E+02  0.45556763123E+02  0.12737701465E+03  0.16505180364E+03  0.91343377918E+02 0.  0.
         13    1    3    3    0    0 -0.61824749568E+02 -0.22190046844E+02 -0.16364234476E+02  0.67694061837E+02  0.00000000000E+00 0. -1.
        -14    1    3    3    0    0  0.15206487178E+02  0.19443739824E+02  0.74122709551E+01  0.25772815744E+02  0.00000000000E+00 0.  1.
        -13    1    4    4    0    0  0.45451459824E+01  0.71672981646E+02  0.81436459663E+02  0.10857979376E+03  0.00000000000E+00 0.  1.
         13    1    4    4    0    0  0.19912218298E+02 -0.26116218523E+02  0.45940554990E+02  0.56472009883E+02  0.00000000000E+00 0. -1.
         21    1    1    2  503  502 -0.11587589246E+02 -0.29062437324E+02  0.32029649139E+02  0.44774947367E+02  0.00000000000E+00 0. -1.
          2    1    1    2  501    0  0.33748487354E+02 -0.13748018779E+02  0.18683863872E+00  0.36441779975E+02  0.00000000000E+00 0. -1.
<scales pt_clust_5="13000.00000" pt_clust_6="13000.00000" pt_clust_7="13000.00000" pt_clust_8="13000.00000" pt_clust_9="31.28734" pt_clust_10="36.56708"></scales>
<clustering>
<clus scale="   31.287">  1  9  2 -1</clus>
<clus scale="   36.567">  1 10  2 -1</clus>
<clus scale="   80.468">  5  6 -1 -1</clus>
<clus scale="   91.343">  7  8 -1 -1</clus>
<clus scale="   91.445">  2  5  1 -1</clus>
<clus scale="   31.287">  1  5  2 -1</clus>
</clustering>
</event>
<event>
10    3  0.5078224E-005  0.1025968E+03  0.7546771E-02  0.1278299E+00
         21   -1    0    0  503  502  0.00000000000E+00  0.00000000000E+00  0.65253069191E+02  0.65253069191E+02  0.00000000000E+00 0.  1.
         -4   -1    0    0    0  501 -0.00000000000E+00 -0.00000000000E+00 -0.43211465096E+03  0.43211465096E+03  0.00000000000E+00 0.  1.
        -24    2    1    2    0    0  0.51914898546E+02 -0.53002386442E+02 -0.27151992564E+03  0.29271878761E+03  0.80354271434E+02 0.  0.
         23    2    1    2    0    0 -0.19185957102E+02 -0.18285127891E+01 -0.81923845241E+02  0.12171108015E+03  0.87923979687E+02 0.  0.
         11    1    3    3    0    0  0.63283981319E+02 -0.17353600731E+02 -0.21615037442E+03  0.22589155388E+03  0.00000000000E+00 0. -1.
        -12    1    3    3    0    0 -0.11369082772E+02 -0.35648785711E+02 -0.55369551221E+02  0.66827233731E+02  0.00000000000E+00 0.  1.
        -13    1    4    4    0    0 -0.63523629915E+01 -0.38778007229E+02 -0.11147621105E+02  0.40845511583E+02  0.00000000000E+00 0.  1.
         13    1    4    4    0    0 -0.12833594110E+02  0.36949494440E+02 -0.70776224136E+02  0.80865568570E+02  0.00000000000E+00 0. -1.
         21    1    1    2  503  501 -0.66140019001E+01  0.37626068746E+02  0.14650801592E+02  0.40915914480E+02  0.00000000000E+00 0.  1.
         -3    1    1    2    0  502 -0.26114939545E+02  0.17204830485E+02 -0.28068612480E+02  0.42021937913E+02  0.00000000000E+00 0.  1.
<scales pt_clust_5="13000.00000" pt_clust_6="13000.00000" pt_clust_7="13000.00000" pt_clust_8="13000.00000" pt_clust_9="49.63567" pt_clust_10="31.27293"></scales>
<clustering>
<clus scale="   31.273">  1 10  2 -1</clus>
<clus scale="   49.636">  1  9  2 -1</clus>
<clus scale="   80.354">  5  6 -1 -1</clus>
<clus scale="   87.924">  7  8 -1 -1</clus>
<clus scale="   96.189">  2  5  1 -1</clus>
<clus scale="   31.273">  1  5  2 -1</clus>
</clustering>
</event>
<event>
10    3  0.5078224E-005  0.2213816E+03  0.7546771E-02  0.1133663E+00
         21   -1    0    0  501  502  0.00000000000E+00  0.00000000000E+00  0.27462037837E+03  0.27462037837E+03  0.00000000000E+00 0.  1.
         -4   -1    0    0    0  501 -0.00000000000E+00 -0.00000000000E+00 -0.62791435670E+03  0.62791435670E+03  0.00000000000E+00 0.  1.
         23    2    1    2    0    0  0.17086391714E+03 -0.10860890322E+03 -0.40325033682E+03  0.46042082031E+03  0.91575791517E+02 0.  0.
        -24    2    1    2    0    0 -0.92188004591E+02  0.20965282750E+03  0.10671012772E+03  0.26520647601E+03  0.80588381833E+02 0.  0.
         13    1    4    4    0    0 -0.31508800403E+02  0.84851700932E+01  0.15992052059E+02  0.36339349794E+02  0.00000000000E+00 0. -1.
        -14    1    4    4    0    0 -0.60679204188E+02  0.20116765741E+03  0.90718075662E+02  0.22886712621E+03  0.00000000000E+00 0.  1.
        -11    1    3    3    0    0  0.59645101816E+01 -0.19539476916E+02 -0.11361429689E+03  0.11543645437E+03  0.00000000000E+00 0. -1.
         11    1    3    3    0    0  0.16489940696E+03 -0.89069426306E+02 -0.28963603993E+03  0.34498436594E+03  0.00000000000E+00 0.  1.
         21    1    1    2  503  502 -0.41408682319E+02  0.10495054409E+02  0.67638188336E+01  0.43250137383E+02  0.00000000000E+00 0. -1.
         -3    1    1    2    0  503 -0.37267230233E+02 -0.11153897869E+03 -0.63517588062E+02  0.13365730137E+03  0.00000000000E+00 0.  1.
<scales pt_clust_5="13000.00000" pt_clust_6="13000.00000" pt_clust_7="13000.00000" pt_clust_8="13000.00000" pt_clust_9="42.71797" pt_clust_10="118.19694"></scales>
<clustering>
<clus scale="   42.718">  1  9  2 -1</clus>
<clus scale="   80.588">  5  6 -1 -1</clus>
<clus scale="   91.576">  7  8 -1 -1</clus>
<clus scale="  118.197">  1 10  2 -1</clus>
<clus scale="  217.067">  1  5  2 -1</clus>
<clus scale="   42.718">  1  5  2 -1</clus>
</clustering>
</event>
<event>
10    3  0.5078224E-005  0.1229744E+03  0.7546771E-02  0.1248987E+00
         -2   -1    0    0    0  501 -0.00000000000E+00  0.00000000000E+00  0.46388802096E+03  0.46388802096E+03  0.00000000000E+00 0.  1.
         21   -1    0    0  503  502  0.00000000000E+00 -0.00000000000E+00 -0.15704439877E+03  0.15704439877E+03  0.00000000000E+00 0. -1.
         23    2    1    2    0    0 -0.22846665466E+02 -0.28609107447E+02  0.58802864040E+02  0.11548408841E+03  0.92403174749E+02 0.  0.
        -24    2    1    2    0    0  0.29531231270E+02 -0.83271680986E+02  0.19162189032E+03  0.22578407791E+03  0.80332026695E+02 0.  0.
         11    1    4    4    0    0  0.41762641508E+02 -0.93850160604E+02  0.17219740169E+03  0.20050914199E+03  0.00000000000E+00 0. -1.
        -12    1    4    4    0    0 -0.12231410238E+02  0.10578479618E+02  0.19424488635E+02  0.25274935928E+02  0.00000000000E+00 0.  1.
        -11    1    3    3    0    0 -0.61141610667E+01 -0.61852508937E+02  0.37931908938E+02  0.72814459711E+02  0.00000000000E+00 0.  1.
         11    1    3    3    0    0 -0.16732504399E+02  0.33243401489E+02  0.20870955102E+02  0.42669628695E+02  0.00000000000E+00 0. -1.
         21    1    1    2  503  501  0.22495234845E+02  0.74943887346E+02 -0.93852857918E+02  0.12219239248E+03  0.00000000000E+00 0. -1.
         -1    1    1    2    0  502 -0.29179800650E+02  0.36936901087E+02  0.15027172574E+03  0.15747186093E+03  0.00000000000E+00 0.  1.
<scales pt_clust_5="13000.00000" pt_clust_6="13000.00000" pt_clust_7="13000.00000" pt_clust_8="13000.00000" pt_clust_9="93.11000" pt_clust_10="47.07226"></scales>
<clustering>
<clus scale="   47.072">  2 10  1 -1</clus>
<clus scale="   80.332">  5  6 -1 -1</clus>
<clus scale="   92.403">  7  8 -1 -1</clus>
<clus scale="   99.047">  1  7  2 -1</clus>
<clus scale="   93.110">  2  9  1 -1</clus>
<clus scale="   47.072">  2  5  1 -1</clus>
</clustering>
</event>
<event>
10    3  0.5078224E-005  0.3217407E+03  0.7546771E-02  0.1099470E+00
         -4   -1    0    0    0  501 -0.00000000000E+00  0.00000000000E+00  0.14955010258E+04  0.14955010258E+04  0.00000000000E+00 0.  1.
         21   -1    0    0  503  502  0.00000000000E+00 -0.00000000000E+00 -0.15766318922E+03  0.15766318922E+03  0.00000000000E+00 0.  1.
        -24    2    1    2    0    0  0.10029499684E+03  0.11017280554E+03  0.26686402325E+03  0.31613666185E+03  0.80801290758E+02 0.  0.
         23    2    1    2    0    0 -0.28528425664E+03 -0.53969600622E+02  0.16947989611E+03  0.34741531870E+03  0.87602189483E+02 0.  0.
         13    1    3    3    0    0  0.54077304476E+02  0.10125319171E+03  0.14136435605E+03  0.18210009569E+03  0.00000000000E+00 0. -1.
        -14    1    3    3    0    0  0.46217692364E+02  0.89196138273E+01  0.12549966720E+03  0.13403656615E+03  0.00000000000E+00 0.  1.
        -11    1    4    4    0    0 -0.26246741016E+03 -0.53760864257E+02  0.12128309601E+03  0.29409005645E+03  0.00000000000E+00 0.  1.
         11    1    4    4    0    0 -0.22816846480E+02 -0.20873636448E+00  0.48196800105E+02  0.53325262255E+02  0.00000000000E+00 0. -1.
         21    1    1    2  503  501 -0.87646434475E+02  0.51848546584E+02  0.13627032041E+03  0.17011692886E+03  0.00000000000E+00 0. -1.
         -3    1    1    2    0  502  0.27263569428E+03 -0.10805175150E+03  0.76522359680E+03  0.81949530560E+03  0.00000000000E+00 0.  1.
<scales pt_clust_5="13000.00000" pt_clust_6="13000.00000" pt_clust_7="13000.00000" pt_clust_8="13000.00000" pt_clust_9="101.83403" pt_clust_10="309.58521"></scales>
<clustering>
<clus scale="   80.801">  5  6 -1 -1</clus>
<clus scale="   87.602">  7  8 -1 -1</clus>
<clus scale="  101.834">  2  9  1 -1</clus>
<clus scale="  167.231">  1  5  2 -1</clus>
<clus scale="  309.585">  2 10  1 -1</clus>
<clus scale="  101.834">  2  5  1 -1</clus>
</clustering>
</event>
<event>
10    3  0.5078224E-005  0.3015202E+03  0.7546771E-02  0.1130347E+00
          1   -1    0    0  502    0 -0.00000000000E+00  0.00000000000E+00  0.35964638683E+04  0.35964638683E+04  0.00000000000E+00 0. -1.
         21   -1    0    0  503  502  0.00000000000E+00 -0.00000000000E+00 -0.26571080098E+03  0.26571080098E+03  0.00000000000E+00 0. -1.
         23    2    1    2    0    0  0.20216410603E+02 -0.16627167782E+01  0.27580433961E+03  0.29042115088E+03  0.88684515240E+02 0.  0.
        -24    2    1    2    0    0  0.26074656056E+03 -0.80219466927E+01  0.10646336643E+04  0.10989225014E+04  0.78311586163E+02 0.  0.
         11    1    4    4    0    0  0.25643076126E+03 -0.20977400076E+02  0.98084812802E+03  0.10140314773E+04  0.00000000000E+00 0. -1.
        -12    1    4    4    0    0  0.43157993051E+01  0.12955453383E+02  0.83785536271E+02  0.84891024168E+02  0.00000000000E+00 0.  1.
        -13    1    3    3    0    0  0.35467303853E+02  0.34289325098E+02  0.11886265276E+03  0.12869350287E+03  0.00000000000E+00 0.  1.
         13    1    3    3    0    0 -0.15250893250E+02 -0.35952041876E+02  0.15694168685E+03  0.16172764801E+03  0.00000000000E+00 0. -1.
         21    1    1    2  503  501  0.41165390989E+02  0.11588523200E+01 -0.22776887133E+03  0.23146185669E+03  0.00000000000E+00 0. -1.
          2    1    1    2  501    0 -0.32212836216E+03  0.85258111508E+01  0.22180839348E+04  0.22413691603E+04  0.00000000000E+00 0. -1.
<scales pt_clust_5="13000.00000" pt_clust_6="13000.00000" pt_clust_7="13000.00000" pt_clust_8="13000.00000" pt_clust_9="41.18170" pt_clust_10="291.17312"></scales>
<clustering>
<clus scale="   41.182">  2  9  1 -1</clus>
<clus scale="   78.312">  5  6 -1 -1</clus>
<clus scale="   88.685">  7  8 -1 -1</clus>
<clus scale="   93.178">  1  7  2 -1</clus>
<clus scale="  291.173">  2 10  1 -1</clus>
<clus scale="   41.182">  2  5  1 -1</clus>
</clustering>
</event>
<event>
10    3  0.5078224E-005  0.9856454E+02  0.7546771E-02  0.1288869E+00
         21   -1    0    0  501  502  0.00000000000E+00  0.00000000000E+00  0.26968793205E+03  0.26968793205E+03  0.00000000000E+00 0.  1.
          1   -1    0    0  503    0 -0.00000000000E+00 -0.00000000000E+00 -0.14548522208E+03  0.14548522208E+03  0.00000000000E+00 0. -1.
        -24    2    1    2    0    0  0.19299108295E+02 -0.33793941860E+02 -0.87257259540E+02  0.12548260640E+03  0.81348442384E+02 0.  0.
         23    2    1    2    0    0 -0.31596718161E+02  0.70272448139E+01  0.37911629052E+02  0.10454181838E+03  0.91891051819E+02 0.  0.
         13    1    3    3    0    0  0.51270471450E+02 -0.21022662497E+02 -0.48473283886E+02  0.73622502211E+02  0.00000000000E+00 0. -1.
        -14    1    3    3    0    0 -0.31971363155E+02 -0.12771279363E+02 -0.38783975654E+02  0.51860104185E+02  0.00000000000E+00 0.  1.
        -11    1    4    4    0    0 -0.52132715725E+02 -0.25766242631E+02  0.28299465143E+02  0.64672861662E+02  0.00000000000E+00 0.  1.
         11    1    4    4    0    0  0.20535997563E+02  0.32793487445E+02  0.96121639093E+01  0.39868956718E+02  0.00000000000E+00 0. -1.
         21    1    1    2  503  502  0.21162157291E+02  0.71558907978E+00  0.14075767045E+03  0.14234138808E+03  0.00000000000E+00 0.  1.
          2    1    1    2  501    0 -0.88645474251E+01  0.26051107966E+02  0.32790670006E+02  0.42807341272E+02  0.00000000000E+00 0. -1.
<scales pt_clust_5="13000.00000" pt_clust_6="13000.00000" pt_clust_7="13000.00000" pt_clust_8="13000.00000" pt_clust_9="21.17425" pt_clust_10="26.39276"></scales>
<clustering>
<clus scale="   21.174">  1  9  2 -1</clus>
<clus scale="   26.393">  1 10  2 -1</clus>
<clus scale="   81.348">  5  6 -1 -1</clus>
<clus scale="   88.818">  2  5  1 -1</clus>
<clus scale="   91.891">  7  8 -1 -1</clus>
<clus scale="   21.174">  1  5  2 -1</clus>
</clustering>
</event>
<event>
10    3  0.5078224E-005  0.4667511E+03  0.7546771E-02  0.1022933E+00
          1   -1    0    0  503    0 -0.00000000000E+00  0.00000000000E+00  0.11951480031E+04  0.11951480031E+04  0.00000000000E+00 0. -1.
         21   -1    0    0  501  502  0.00000000000E+00 -0.00000000000E+00 -0.50257935371E+03  0.50257935371E+03  0.00000000000E+00 0. -1.
         23    2    1    2    0    0  0.61193601216E+02 -0.48336724936E+03  0.83510890650E+03  0.97121691938E+03  0.92015564976E+02 0.  0.
        -24    2    1    2    0    0 -0.75538359703E+02  0.36182019683E+03 -0.28010969119E+02  0.38035371988E+03  0.85231679661E+02 0.  0.
         11    1    4    4    0    0 -0.44752923267E+02  0.31769486501E+03 -0.25772416454E+01  0.32084185134E+03  0.00000000000E+00 0. -1.
        -12    1    4    4    0    0 -0.30785436436E+02  0.44125331819E+02 -0.25433727473E+02  0.59511868546E+02  0.00000000000E+00 0.  1.
        -13    1    3    3    0    0  0.67610157039E+02 -0.35496571962E+03  0.67735190124E+03  0.76770918553E+03  0.00000000000E+00 0. -1.
         13    1    3    3    0    0 -0.64165558232E+01 -0.12840152974E+03  0.15775700526E+03  0.20350773385E+03  0.00000000000E+00 0.  1.
         21    1    1    2  503  502 -0.64127837148E+02 -0.84374994646E+02 -0.44346902826E+02  0.11488327558E+03  0.00000000000E+00 0. -1.
          2    1    1    2  501    0  0.78472595636E+02  0.20592204717E+03 -0.70182385152E+02  0.23127344198E+03  0.00000000000E+00 0. -1.
<scales pt_clust_5="13000.00000" pt_clust_6="13000.00000" pt_clust_7="13000.00000" pt_clust_8="13000.00000" pt_clust_9="105.97886" pt_clust_10="184.44035"></scales>
<clustering>
<clus scale="   85.232">  5  6 -1 -1</clus>
<clus scale="   92.016">  7  8 -1 -1</clus>
<clus scale="  105.979">  2  9  1 -1</clus>
<clus scale="  184.440">  2 10  1 -1</clus>
<clus scale="  465.461">  2  5  1 -1</clus>
<clus scale="  105.979">  2  5  1 -1</clus>
</clustering>
</event>
<event>
10    3  0.5078224E-005  0.9813347E+02  0.7546771E-02  0.1290989E+00
         21   -1    0    0  501  502  0.00000000000E+00  0.00000000000E+00  0.53751868275E+03  0.53751868275E+03  0.00000000000E+00 0. -1.
          3   -1    0    0  503    0 -0.00000000000E+00 -0.00000000000E+00 -0.17204352790E+03  0.17204352790E+03  0.00000000000E+00 0. -1.
        -24    2    1    2    0    0 -0.52359633183E+02  0.37821664962E+01 -0.10518495868E+03  0.14170784254E+03  0.79129015764E+02 0.  0.
         23    2    1    2    0    0 -0.47719199384E+02  0.11039762512E+02  0.55089539902E+02  0.11766484332E+03  0.91712374309E+02 0.  0.
         13    1    3    3    0    0 -0.50287057237E+01  0.34238828100E+02 -0.61079497713E+02  0.70201782540E+02  0.00000000000E+00 0. -1.
        -14    1    3    3    0    0 -0.47330927460E+02 -0.30456661604E+02 -0.44105460962E+02  0.71506060001E+02  0.00000000000E+00 0.  1.
        -13    1    4    4    0    0  0.12805453395E+02  0.36138480707E+02  0.22955095381E+02  0.44686752270E+02  0.00000000000E+00 0.  1.
         13    1    4    4    0    0 -0.60524652780E+02 -0.25098718195E+02  0.32134444521E+02  0.72978091053E+02  0.00000000000E+00 0. -1.
         21    1    1    2  503  502  0.49103456199E+02  0.39791340295E+02  0.61013138636E+02  0.87847044682E+02  0.00000000000E+00 0.  1.
          4    1    1    2  501    0  0.50975376369E+02 -0.54613269303E+02  0.35455743499E+03  0.36234248011E+03  0.00000000000E+00 0. -1.
<scales pt_clust_5="13000.00000" pt_clust_6="13000.00000" pt_clust_7="13000.00000" pt_clust_8="13000.00000" pt_clust_9="63.20206" pt_clust_10="92.11476"></scales>
<clustering>
<clus scale="   63.202">  1  9  2 -1</clus>
<clus scale="   79.129">  5  6 -1 -1</clus>
<clus scale="   91.712">  7  8 -1 -1</clus>
<clus scale="   92.115">  1 10  2 -1</clus>
<clus scale="   86.489">  2  5  1 -1</clus>
<clus scale="   63.202">  1  5  2 -1</clus>
</clustering>
</event>
<event>
10    3  0.5078224E-005  0.1398879E+03  0.7546771E-02  0.1215611E+00
          1   -1    0    0  503    0 -0.00000000000E+00  0.00000000000E+00  0.21501776609E+03  0.21501776609E+03  0.00000000000E+00 0. -1.
         21   -1    0    0  501  502  0.00000000000E+00 -0.00000000000E+00 -0.44405577068E+03  0.44405577068E+03  0.00000000000E+00 0.  1.
        -24    2    1    2    0    0  0.39044357424E+02  0.63781961313E+02  0.20336866701E+02  0.11105290290E+03  0.79539667205E+02 0.  0.
         23    2    1    2    0    0 -0.54920785875E+02 -0.13706345650E+03  0.81810617977E+02  0.19108138612E+03  0.89534546843E+02 0.  0.
         13    1    3    3    0    0  0.43594941129E+02  0.71388841856E+02 -0.54107275347E+01  0.83822202345E+02  0.00000000000E+00 0. -1.
        -14    1    3    3    0    0 -0.45505837049E+01 -0.76068805428E+01  0.25747594235E+02  0.27230700552E+02  0.00000000000E+00 0.  1.
        -13    1    4    4    0    0  0.18630303848E+02 -0.19282926536E+02  0.35943411730E+02  0.44842483473E+02  0.00000000000E+00 0. -1.
         13    1    4    4    0    0 -0.73551089723E+02 -0.11778052996E+03  0.45867206247E+02  0.14623890264E+03  0.00000000000E+00 0.  1.
         21    1    1    2  503  502 -0.33312509905E+01  0.45643937349E+02 -0.31721326353E+03  0.32049761436E+03  0.00000000000E+00 0.  1.
          2    1    1    2  501    0  0.19207679442E+02  0.27637557835E+02 -0.13972225744E+02  0.36441633400E+02  0.00000000000E+00 0. -1.
<scales pt_clust_5="13000.00000" pt_clust_6="13000.00000" pt_clust_7="13000.00000" pt_clust_8="13000.00000" pt_clust_9="67.63261" pt_clust_10="33.65664"></scales>
<clustering>
<clus scale="   33.657">  2 10  1 -1</clus>
<clus scale="   67.633">  2  9  1 -1</clus>
<clus scale="   79.540">  5  6 -1 -1</clus>
<clus scale="   89.535">  7  8 -1 -1</clus>
<clus scale="  133.711">  1  5  2 -1</clus>
<clus scale="   33.657">  2  5  1 -1</clus>
</clustering>
</event>
<event>
10    3  0.5078224E-005  0.9036446E+02  0.7546771E-02  0.1308652E+00
         21   -1    0    0  501  502  0.00000000000E+00  0.00000000000E+00  0.29899518090E+03  0.29899518090E+03  0.00000000000E+00 0. -1.
          1   -1    0    0  503    0 -0.00000000000E+00 -0.00000000000E+00 -0.28017215949E+03  0.28017215949E+03  0.00000000000E+00 0. -1.
        -24    2    1    2    0    0 -0.65200489328E+01  0.18491963203E+02 -0.80159607846E+02  0.11430543026E+03  0.79093014336E+02 0.  0.
         23    2    1    2    0    0 -0.17052955808E+02  0.80062437989E+02  0.18576195134E+03  0.22188668812E+03  0.89584610981E+02 0.  0.
         11    1    3    3    0    0 -0.35936150333E+01  0.49549734950E+02 -0.55912455093E+02  0.74795006097E+02  0.00000000000E+00 0. -1.
        -12    1    3    3    0    0 -0.29264338995E+01 -0.31057771747E+02 -0.24247152753E+02  0.39510424167E+02  0.00000000000E+00 0.  1.
        -11    1    4    4    0    0  0.72924784596E+00  0.96663521497E+02  0.15492498559E+03  0.18260919843E+03  0.00000000000E+00 0. -1.
         11    1    4    4    0    0 -0.17782203654E+02 -0.16601083508E+02  0.30836965741E+02  0.39277489693E+02  0.00000000000E+00 0.  1.
         21    1    1    2  503  502  0.93907258864E+01 -0.31936449279E+02  0.66985306261E+02  0.74800760558E+02  0.00000000000E+00 0.  1.
          2    1    1    2  501    0  0.14182278854E+02 -0.66617951912E+02 -0.15376462835E+03  0.16817446144E+03  0.00000000000E+00 0. -1.
<scales pt_clust_5="13000.00000" pt_clust_6="13000.00000" pt_clust_7="13000.00000" pt_clust_8="13000.00000" pt_clust_9="33.28847" pt_clust_10="69.15934"></scales>
<clustering>
<clus scale="   33.288">  1  9  2 -1</clus>
<clus scale="   69.159">  1 10  2 -1</clus>
<clus scale="   79.093">  5  6 -1 -1</clus>
<clus scale="   79.975">  2  5  1 -1</clus>
<clus scale="   89.585">  7  8 -1 -1</clus>
<clus scale="   33.288">  1  5  2 -1</clus>
</clustering>
</event>
<event>
10    3  0.5078224E-005  0.2972094E+03  0.7546771E-02  0.1122365E+00
          1   -1    0    0  503    0 -0.00000000000E+00  0.00000000000E+00  0.16175897396E+04  0.16175897396E+04  0.00000000000E+00 0. -1.
         21   -1    0    0  501  502  0.00000000000E+00 -0.00000000000E+00 -0.88625573432E+03  0.88625573432E+03  0.00000000000E+00 0.  1.
        -24    2    1    2    0    0 -0.84691452733E+02 -0.16989850659E+02 -0.50001734038E+02  0.12771346248E+03  0.79682230765E+02 0.  0.
         23    2    1    2    0    0  0.35772232344E+03  0.76191349640E+02  0.14886969748E+04  0.15357248244E+04  0.91987341116E+02 0.  0.
         11    1    3    3    0    0 -0.24753543257E+02 -0.32396622698E+02 -0.51652967923E+02  0.65805077017E+02  0.00000000000E+00 0. -1.
        -12    1    3    3    0    0 -0.59937909475E+02  0.15406772039E+02  0.16512338846E+01  0.61908385460E+02  0.00000000000E+00 0.  1.
        -11    1    4    4    0    0  0.13423186998E+03  0.14560233110E+02  0.38634813155E+03  0.40926162055E+03  0.00000000000E+00 0.  1.
         11    1    4    4    0    0  0.22349045347E+03  0.61631116530E+02  0.11023488432E+04  0.11264632038E+04  0.00000000000E+00 0. -1.
         21    1    1    2  503  502  0.95766375155E+01 -0.58636063476E+02 -0.46302086486E+03  0.46681711753E+03  0.00000000000E+00 0.  1.
          2    1    1    2  501    0 -0.28260750822E+03 -0.56543550431E+00 -0.24434037057E+03  0.37359006961E+03  0.00000000000E+00 0. -1.
<scales pt_clust_5="13000.00000" pt_clust_6="13000.00000" pt_clust_7="13000.00000" pt_clust_8="13000.00000" pt_clust_9="59.41296" pt_clust_10="282.61589"></scales>
<clustering>
<clus scale="   59.413">  2  9  1 -1</clus>
<clus scale="   79.682">  5  6 -1 -1</clus>
<clus scale="   91.987">  7  8 -1 -1</clus>
<clus scale="  118.514">  1  5  2 -1</clus>
<clus scale="  282.616">  2 10  1 -1</clus>
<clus scale="   59.413">  2  5  1 -1</clus>
</clustering>
</event>
<event>
10    3  0.5078224E-005  0.2870159E+03  0.7546771E-02  0.1117922E+00
         21   -1    0    0  501  502  0.00000000000E+00  0.00000000000E+00  0.13467406335E+03  0.13467406335E+03  0.00000000000E+00 0. -1.
          1   -1    0    0  503    0 -0.00000000000E+00 -0.00000000000E+00 -0.12586852017E+04  0.12586852017E+04  0.00000000000E+00 0. -1.
        -24    2    1    2    0    0 -0.59650915989E+02  0.10508667707E+03 -0.35259963404E+03  0.38290307554E+03  0.87674522295E+02 0.  0.
         23    2    1    2    0    0  0.13159986675E+03 -0.27124584144E+03 -0.22010450224E+03  0.38367794103E+03  0.88712677256E+02 0.  0.
         11    1    3    3    0    0 -0.61255161689E+02  0.74656217359E+02 -0.15255849088E+03  0.18055425435E+03  0.00000000000E+00 0. -1.
        -12    1    3    3    0    0  0.16042456998E+01  0.30430459714E+02 -0.20004114316E+03  0.20234882119E+03  0.00000000000E+00 0.  1.
        -11    1    4    4    0    0  0.45687887921E+01 -0.82821036896E+02 -0.87521504881E+02  0.12058280060E+03  0.00000000000E+00 0. -1.
         11    1    4    4    0    0  0.12703107795E+03 -0.18842480454E+03 -0.13258299736E+03  0.26309514043E+03  0.00000000000E+00 0.  1.
         21    1    1    2  503  502  0.68112216646E+01 -0.20216197063E+02  0.14558289063E+02  0.25826946097E+02  0.00000000000E+00 0.  1.
          2    1    1    2  501    0 -0.78760172421E+02  0.18637536143E+03 -0.56586529112E+03  0.60095130235E+03  0.00000000000E+00 0. -1.
<scales pt_clust_5="13000.00000" pt_clust_6="13000.00000" pt_clust_7="13000.00000" pt_clust_8="13000.00000" pt_clust_9="21.33278" pt_clust_10="272.96200"></scales>
<clustering>
<clus scale="   21.333">  1  9  2 -1</clus>
<clus scale="   87.675">  5  6 -1 -1</clus>
<clus scale="   88.713">  7  8 -1 -1</clus>
<clus scale="  147.059">  2  5  1 -1</clus>
<clus scale="  272.962">  1 10  2 -1</clus>
<clus scale="   21.333">  1  5  2 -1</clus>
</clustering>
</event>
<event>
10    3  0.5078224E-005  0.2100223E+03  0.7546771E-02  0.1172616E+00
         21   -1    0    0  501  502  0.00000000000E+00  0.00000000000E+00  0.20218562368E+03  0.20218562368E+03  0.00000000000E+00 0.  1.
          1   -1    0    0  503    0 -0.00000000000E+00 -0.00000000000E+00 -0.15216938878E+04  0.15216938878E+04  0.00000000000E+00 0. -1.
         23    2    1    2    0    0 -0.43339369727E+01 -0.34487784223E+02 -0.80678728814E+02  0.12679943312E+03  0.91437676509E+02 0.  0.
        -24    2    1    2    0    0 -0.21512918541E+01 -0.16817144195E+03 -0.63728366979E+03  0.66388740504E+03  0.79559718733E+02 0.  0.
         11    1    4    4    0    0  0.15856709576E+02 -0.16454278624E+03 -0.59952761555E+03  0.62189961051E+03  0.00000000000E+00 0. -1.
        -12    1    4    4    0    0 -0.18008001430E+02 -0.36286557009E+01 -0.37756054239E+02  0.41987794529E+02  0.00000000000E+00 0.  1.
        -13    1    3    3    0    0  0.30189816675E+02  0.60622792152E+00 -0.70268770579E+02  0.76481976059E+02  0.00000000000E+00 0. -1.
         13    1    3    3    0    0 -0.34523753648E+02 -0.35094012144E+02 -0.10409958236E+02  0.50317457058E+02  0.00000000000E+00 0.  1.
         21    1    1    2  503  502 -0.10314763931E+02 -0.19831013083E+02  0.14875156399E+03  0.15042171128E+03  0.00000000000E+00 0.  1.
          2    1    1    2  501    0  0.16799992758E+02  0.22249023925E+03 -0.75029742950E+03  0.78277096206E+03  0.00000000000E+00 0. -1.
<scales pt_clust_5="13000.00000" pt_clust_6="13000.00000" pt_clust_7="13000.00000" pt_clust_8="13000.00000" pt_clust_9="22.35315" pt_clust_10="194.36986"></scales>
<clustering>
<clus scale="   22.353">  1  9  2 -1</clus>
<clus scale="   79.560">  5  6 -1 -1</clus>
<clus scale="   91.438">  7  8 -1 -1</clus>
<clus scale="  101.509">  2  7  1 -1</clus>
<clus scale="  194.370">  1 10  2 -1</clus>
<clus scale="   22.353">  1  5  2 -1</clus>
</clustering>
</event>
<event>
10    3  0.5078224E-005  0.1161281E+03  0.7546771E-02  0.1266146E+00
         -2   -1    0    0    0  501 -0.00000000000E+00  0.00000000000E+00  0.12559383985E+03  0.12559383985E+03  0.00000000000E+00 0.  1.
         21   -1    0    0  503  502  0.00000000000E+00 -0.00000000000E+00 -0.98861615751E+03  0.98861615751E+03  0.00000000000E+00 0.  1.
        -24    2    1    2    0    0  0.13886958418E+01 -0.58973591796E+01  0.35850535577E+02  0.91177414071E+02  0.83614308669E+02 0.  0.
         23    2    1    2    0    0 -0.35337175815E+02 -0.45357021572E+02 -0.32651023568E+02  0.10706620158E+03  0.84208709646E+02 0.  0.
         11    1    3    3    0    0  0.25028833009E+02  0.30472289266E+02  0.10001606420E+02  0.40682121698E+02  0.00000000000E+00 0. -1.
        -12    1    3    3    0    0 -0.23640137167E+02 -0.36369648445E+02  0.25848929157E+02  0.50495292373E+02  0.00000000000E+00 0.  1.
        -11    1    4    4    0    0 -0.13924722935E+02 -0.18411481388E+02 -0.59237235977E+02  0.63576180145E+02  0.00000000000E+00 0.  1.
         11    1    4    4    0    0 -0.21412452880E+02 -0.26945540184E+02  0.26586212409E+02  0.43490021435E+02  0.00000000000E+00 0. -1.
         21    1    1    2  503  501 -0.86448592432E+02 -0.59154777441E+02 -0.55165322239E+03  0.56151039581E+03  0.00000000000E+00 0.  1.
         -1    1    1    2    0  502  0.12039707241E+03  0.11040915819E+03 -0.31456860728E+03  0.35445598590E+03  0.00000000000E+00 0.  1.
<scales pt_clust_5="13000.00000" pt_clust_6="13000.00000" pt_clust_7="13000.00000" pt_clust_8="13000.00000" pt_clust_9="13000.00000" pt_clust_10="116.12812"></scales>
<clustering>
<clus scale="   83.614">  5  6 -1 -1</clus>
<clus scale="   83.834">  1  5  2 -1</clus>
<clus scale="   84.209">  7  8 -1 -1</clus>
<clus scale="  103.306">  1  7  2 -1</clus>
<clus scale="  116.128">  1 10  2 -1</clus>
<clus scale="  116.128">  2  5  1 -1</clus>
</clustering>
</event>
<event>
10    3  0.5078224E-005  0.1606620E+03  0.7546771E-02  0.1212176E+00
         21   -1    0    0  501  502  0.00000000000E+00  0.00000000000E+00  0.10311989976E+04  0.10311989976E+04  0.00000000000E+00 0. -1.
          3   -1    0    0  503    0 -0.00000000000E+00 -0.00000000000E+00 -0.66608458881E+02  0.66608458881E+02  0.00000000000E+00 0. -1.
        -24    2    1    2    0    0  0.75787677632E+02 -0.15242692556E+02  0.29597366092E+03  0.31632046348E+03  0.80511588607E+02 0.  0.
         23    2    1    2    0    0  0.45046401857E+02 -0.11616620260E+03  0.11183008145E+03  0.18544455965E+03  0.79749311206E+02 0.  0.
         11    1    3    3    0    0  0.89254452982E+02 -0.26089339803E+02  0.22922441527E+03  0.24736783054E+03  0.00000000000E+00 0. -1.
        -12    1    3    3    0    0 -0.13466775350E+02  0.10846647247E+02  0.66749245652E+02  0.68952632944E+02  0.00000000000E+00 0.  1.
        -11    1    4    4    0    0 -0.15714263012E+02 -0.68737010969E+02  0.59720419214E+02  0.92402614736E+02  0.00000000000E+00 0. -1.
         11    1    4    4    0    0  0.60760664869E+02 -0.47429191635E+02  0.52109662235E+02  0.93041944911E+02  0.00000000000E+00 0.  1.
         21    1    1    2  503  502 -0.69655419981E+02  0.30531688696E+01  0.25060525966E+03  0.26012342367E+03  0.00000000000E+00 0. -1.
          4    1    1    2  501    0 -0.51178659509E+02  0.12835572629E+03  0.30618153673E+03  0.33591900972E+03  0.00000000000E+00 0. -1.
<scales pt_clust_5="13000.00000" pt_clust_6="13000.00000" pt_clust_7="13000.00000" pt_clust_8="13000.00000" pt_clust_9="69.72230" pt_clust_10="139.47159"></scales>
<clustering>
<clus scale="   69.722">  1  9  2 -1</clus>
<clus scale="   79.749">  7  8 -1 -1</clus>
<clus scale="   80.512">  5  6 -1 -1</clus>
<clus scale="   94.933">  2  5  1 -1</clus>
<clus scale="  139.472">  1 10  2 -1</clus>
<clus scale="   69.722">  1  5  2 -1</clus>
</clustering>
</event>
<event>
10    3  0.5078224E-005  0.2158116E+03  0.7546771E-02  0.1137734E+00
          1   -1    0    0  503    0 -0.00000000000E+00  0.00000000000E+00  0.74110267744E+03  0.74110267744E+03  0.00000000000E+00 0. -1.
         21   -1    0    0  501  502  0.00000000000E+00 -0.00000000000E+00 -0.65098376392E+03  0.65098376392E+03  0.00000000000E+00 0. -1.
         23    2    1    2    0    0 -0.11493434127E+03 -0.17972792538E+03  0.58528554041E+03  0.62968808457E+03  0.91847101580E+02 0.  0.
        -24    2    1    2    0    0  0.77022465357E+02  0.10199775674E+03  0.37637712639E+02  0.16648797566E+03  0.99828082609E+02 0.  0.
         13    1    4    4    0    0  0.91777134747E+02  0.47558836393E+02  0.37864497699E+02  0.11008453828E+03  0.00000000000E+00 0. -1.
        -14    1    4    4    0    0 -0.14754669390E+02  0.54438920349E+02 -0.22678506054E+00  0.56403437386E+02  0.00000000000E+00 0.  1.
        -13    1    3    3    0    0 -0.11995855115E+03 -0.11433679423E+03  0.44413379346E+03  0.47404407284E+03  0.00000000000E+00 0. -1.
         13    1    3    3    0    0  0.50242098719E+01 -0.65391131148E+02  0.14115174696E+03  0.15564401173E+03  0.00000000000E+00 0.  1.
         21    1    1    2  503  502 -0.29152173266E+02 -0.85273422457E+02 -0.19796816195E+03  0.21751505449E+03  0.00000000000E+00 0. -1.
          2    1    1    2  501    0  0.67064049182E+02  0.16300359109E+03 -0.33483617758E+03  0.37839532664E+03  0.00000000000E+00 0. -1.
<scales pt_clust_5="13000.00000" pt_clust_6="13000.00000" pt_clust_7="13000.00000" pt_clust_8="13000.00000" pt_clust_9="90.11884" pt_clust_10="103.98244"></scales>
<clustering>
<clus scale="   90.119">  2  9  1 -1</clus>
<clus scale="   91.847">  7  8 -1 -1</clus>
<clus scale="   99.828">  5  6 -1 -1</clus>
<clus scale="  103.982">  2 10  1 -1</clus>
<clus scale="  212.238">  1  7  2 -1</clus>
<clus scale="   90.119">  2  5  1 -1</clus>
</clustering>
</event>
<event>
10    3  0.5078224E-005  0.1486930E+03  0.7546771E-02  0.1221357E+00
         21   -1    0    0  501  502  0.00000000000E+00  0.00000000000E+00  0.10543258397E+03  0.10543258397E+03  0.00000000000E+00 0. -1.
          1   -1    0    0  503    0 -0.00000000000E+00 -0.00000000000E+00 -0.61333967564E+03  0.61333967564E+03  0.00000000000E+00 0. -1.
         23    2    1    2    0    0 -0.13827735989E+02  0.33960405839E+02 -0.63580090167E+02  0.11736476058E+03  0.91583534077E+02 0.  0.
        -24    2    1    2    0    0 -0.13339680176E+03 -0.10894533872E+03 -0.25401692362E+03  0.31897439951E+03  0.86926845735E+02 0.  0.
         11    1    4    4    0    0 -0.14519224844E+03 -0.96442609644E+02 -0.21841825439E+03  0.27944319604E+03  0.00000000000E+00 0. -1.
        -12    1    4    4    0    0  0.11795446683E+02 -0.12502729078E+02 -0.35598669237E+02  0.39531203477E+02  0.00000000000E+00 0.  1.
        -13    1    3    3    0    0  0.12561046747E+02  0.20299982150E+02  0.18416343734E+02  0.30150139091E+02  0.00000000000E+00 0.  1.
         13    1    3    3    0    0 -0.26388782736E+02  0.13660423688E+02 -0.81996433901E+02  0.87214621493E+02  0.00000000000E+00 0. -1.
         21    1    1    2  503  502  0.99784144428E+02 -0.18966325576E+02 -0.11234021564E+03  0.15144940090E+03  0.00000000000E+00 0. -1.
          2    1    1    2  501    0  0.47440393321E+02  0.93951258459E+02 -0.77969862239E+02  0.13098369861E+03  0.00000000000E+00 0. -1.
<scales pt_clust_5="13000.00000" pt_clust_6="13000.00000" pt_clust_7="13000.00000" pt_clust_8="13000.00000" pt_clust_9="96.85600" pt_clust_10="120.63718"></scales>
<clustering>
<clus scale="   86.927">  5  6 -1 -1</clus>
<clus scale="   91.584">  7  8 -1 -1</clus>
<clus scale="   98.651">  2  7  1 -1</clus>
<clus scale="   96.856">  2  9  1 -1</clus>
<clus scale="  120.637">  1 10  2 -1</clus>
<clus scale="  120.637">  1  5  2 -1</clus>
</clustering>
</event>
<event>
10    3  0.5078224E-005  0.1175021E+03  0.7546771E-02  0.1251089E+00
          3   -1    0    0  503    0 -0.00000000000E+00  0.00000000000E+00  0.51921350779E+03  0.51921350779E+03  0.00000000000E+00 0. -1.
         21   -1    0    0  501  502  0.00000000000E+00 -0.00000000000E+00 -0.26386903818E+03  0.26386903818E+03  0.00000000000E+00 0.  1.
         23    2    1    2    0    0 -0.77971229019E+02 -0.16385839998E+02  0.47503121822E+03  0.49034408361E+03  0.91840370934E+02 0.  0.
        -24    2    1    2    0    0  0.18988439579E+02  0.30365197274E+01 -0.38524655138E+02  0.91294809957E+02  0.80503490496E+02 0.  0.
         13    1    4    4    0    0  0.12776141465E+02 -0.36877520576E+02 -0.61115607140E+01  0.39503575648E+02  0.00000000000E+00 0. -1.
        -14    1    4    4    0    0  0.62122981136E+01  0.39914040304E+02 -0.32413094424E+02  0.51791234310E+02  0.00000000000E+00 0.  1.
        -13    1    3    3    0    0 -0.83038766684E+02 -0.39797476149E+02  0.42517167496E+03  0.43502899796E+03  0.00000000000E+00 0. -1.
         13    1    3    3    0    0  0.50675376653E+01  0.23411636151E+02  0.49859543264E+02  0.55315085644E+02  0.00000000000E+00 0.  1.
         21    1    1    2  503  502  0.38641789038E+02  0.10626812219E+02 -0.17569185320E+03  0.18020472879E+03  0.00000000000E+00 0.  1.
          4    1    1    2  501    0  0.20341000403E+02  0.27225080517E+01 -0.54702402786E+01  0.21238923612E+02  0.00000000000E+00 0. -1.
<scales pt_clust_5="13000.00000" pt_clust_6="13000.00000" pt_clust_7="13000.00000" pt_clust_8="13000.00000" pt_clust_9="54.55628" pt_clust_10="20.52239"></scales>
<clustering>
<clus scale="   20.522">  2 10  1 -1</clus>
<clus scale="   54.556">  2  9  1 -1</clus>
<clus scale="   80.503">  5  6 -1 -1</clus>
<clus scale="   91.840">  7  8 -1 -1</clus>
<clus scale="  108.871">  2  5  1 -1</clus>
<clus scale="   20.522">  2  5  1 -1</clus>
</clustering>
</event>
<event>
10    3  0.5078224E-005  0.1176390E+03  0.7546771E-02  0.1261949E+00
         -2   -1    0    0    0  501 -0.00000000000E+00  0.00000000000E+00  0.55411348442E+03  0.55411348442E+03  0.00000000000E+00 0.  1.
         21   -1    0    0  503  502  0.00000000000E+00 -0.00000000000E+00 -0.32858419387E+03  0.32858419387E+03  0.00000000000E+00 0.  1.
        -24    2    1    2    0    0  0.11770492144E+02 -0.12252298086E+02 -0.27613776846E+01  0.78829377832E+02  0.76927123363E+02 0.  0.
         23    2    1    2    0    0  0.69859296343E+02 -0.46734444891E+00  0.77106292235E+02  0.13901931534E+03  0.92197885222E+02 0.  0.
         13    1    3    3    0    0 -0.12880982763E+02 -0.19618877324E+02  0.29415450865E+02  0.37630955528E+02  0.00000000000E+00 0. -1.
        -14    1    3    3    0    0  0.24651474907E+02  0.73665792380E+01 -0.32176828550E+02  0.41198422303E+02  0.00000000000E+00 0.  1.
        -13    1    4    4    0    0  0.27292690468E+02 -0.34467730133E+02 -0.77876584744E+00  0.43971830184E+02  0.00000000000E+00 0.  1.
         13    1    4    4    0    0  0.42566605876E+02  0.34000385684E+02  0.77885058082E+02  0.95047485158E+02  0.00000000000E+00 0. -1.
         21    1    1    2  503  501 -0.13138937437E+02 -0.55540426685E+02 -0.24781354138E+03  0.25430084932E+03  0.00000000000E+00 0.  1.
         -1    1    1    2    0  502 -0.68490851051E+02  0.68260069219E+02  0.39899791739E+03  0.41054813580E+03  0.00000000000E+00 0.  1.
<scales pt_clust_5="13000.00000" pt_clust_6="13000.00000" pt_clust_7="13000.00000" pt_clust_8="13000.00000" pt_clust_9="57.07338" pt_clust_10="73.06492"></scales>
<clustering>
<clus scale="   57.073">  2  9  1 -1</clus>
<clus scale="   76.927">  5  6 -1 -1</clus>
<clus scale="   87.532">  1  5  2 -1</clus>
<clus scale="   73.065">  2 10  1 -1</clus>
<clus scale="   92.198">  7  8 -1 -1</clus>
<clus scale="   57.073">  2  5  1 -1</clus>
</clustering>
</event>
<event>
10    3  0.5078224E-005  0.2631803E+03  0.7546771E-02  0.1122019E+00
          1   -1    0    0  503    0 -0.00000000000E+00  0.00000000000E+00  0.14389393624E+04  0.14389393624E+04  0.00000000000E+00 0. -1.
         21   -1    0    0  501  502  0.00000000000E+00 -0.00000000000E+00 -0.12543267692E+03  0.12543267692E+03  0.00000000000E+00 0. -1.
        -24    2    1    2    0    0  0.13933197726E+03  0.22899316756E+02  0.30704906007E+03  0.34628672858E+03  0.75482411890E+02 0.  0.
         23    2    1    2    0    0 -0.31857395239E+02  0.26170067814E+03  0.35051723955E+03  0.44827588930E+03  0.92664983323E+02 0.  0.
         13    1    3    3    0    0  0.14163655616E+03  0.15215712023E+02  0.24252882078E+03  0.28126972969E+03  0.00000000000E+00 0. -1.
        -14    1    3    3    0    0 -0.23045789039E+01  0.76836047337E+01  0.64520239296E+02  0.65016998888E+02  0.00000000000E+00 0.  1.
        -11    1    4    4    0    0 -0.36340994773E+02  0.44013002790E+02  0.42914425695E+02  0.71410505168E+02  0.00000000000E+00 0.  1.
         11    1    4    4    0    0  0.44835995337E+01  0.21768767535E+03  0.30760281385E+03  0.37686538413E+03  0.00000000000E+00 0. -1.
         21    1    1    2  503  502  0.79640524484E+02 -0.60740766226E+02  0.97680920313E+02  0.13990573975E+03  0.00000000000E+00 0.  1.
          2    1    1    2  501    0 -0.18711510650E+03 -0.22385922867E+03  0.55825946556E+03  0.62990368171E+03  0.00000000000E+00 0. -1.
<scales pt_clust_5="13000.00000" pt_clust_6="13000.00000" pt_clust_7="13000.00000" pt_clust_8="13000.00000" pt_clust_9="100.16014" pt_clust_10="246.32725"></scales>
<clustering>
<clus scale="   75.482">  5  6 -1 -1</clus>
<clus scale="   92.665">  7  8 -1 -1</clus>
<clus scale="  100.160">  2  9  1 -1</clus>
<clus scale="  172.165">  1  5  2 -1</clus>
<clus scale="  246.327">  2 10  1 -1</clus>
<clus scale="  100.160">  2  5  1 -1</clus>
</clustering>
</event>
<event>
10    3  0.5078224E-005  0.1135743E+03  0.7546771E-02  0.1258290E+00
         21   -1    0    0  503  502  0.00000000000E+00  0.00000000000E+00  0.34931241407E+02  0.34931241407E+02  0.00000000000E+00 0. -1.
          1   -1    0    0  502    0 -0.00000000000E+00 -0.00000000000E+00 -0.11808460339E+04  0.11808460339E+04  0.00000000000E+00 0. -1.
        -24    2    1    2    0    0  0.63765999579E+02 -0.60160838583E+02 -0.74148384652E+03  0.75099741400E+03  0.80705588283E+02 0.  0.
         23    2    1    2    0    0 -0.19575339068E+02  0.87982766161E+01 -0.20677973233E+03  0.22738933850E+03  0.92127357445E+02 0.  0.
         11    1    3    3    0    0  0.51521854758E+02 -0.53516631206E+02 -0.29212020949E+03  0.30141789616E+03  0.00000000000E+00 0. -1.
        -12    1    3    3    0    0  0.12244144820E+02 -0.66442073768E+01 -0.44936363703E+03  0.44957951783E+03  0.00000000000E+00 0.  1.
        -11    1    4    4    0    0 -0.24058614890E+02  0.44182172947E+02 -0.16478019619E+03  0.17228869497E+03  0.00000000000E+00 0.  1.
         11    1    4    4    0    0  0.44832758226E+01 -0.35383896331E+02 -0.41999536133E+02  0.55100643527E+02  0.00000000000E+00 0. -1.
         21    1    1    2  503  501  0.14004464604E+02  0.39965113905E+02 -0.14314233436E+02  0.44701595465E+02  0.00000000000E+00 0. -1.
          2    1    1    2  501    0 -0.58195125115E+02  0.11397448062E+02 -0.18333698018E+03  0.19268892732E+03  0.00000000000E+00 0. -1.
<scales pt_clust_5="13000.00000" pt_clust_6="13000.00000" pt_clust_7="13000.00000" pt_clust_8="13000.00000" pt_clust_9="42.34779" pt_clust_10="58.71025"></scales>
<clustering>
<clus scale="   42.348">  1  9  2 -1</clus>
<clus scale="   58.710">  1 10  2 -1</clus>
<clus scale="   80.706">  5  6 -1 -1</clus>
<clus scale="   92.127">  7  8 -1 -1</clus>
<clus scale="  104.523">  2  5  1 -1</clus>
<clus scale="   42.348">  1  5  2 -1</clus>
</clustering>
</event>
<event>
10    3  0.5078224E-005  0.1815240E+03  0.7546771E-02  0.1190922E+00
          1   -1    0    0  502    0 -0.00000000000E+00  0.00000000000E+00  0.76910893745E+03  0.76910893745E+03  0.00000000000E+00 0. -1.
         21   -1    0    0  503  502  0.00000000000E+00 -0.00000000000E+00 -0.11178614500E+03  0.11178614500E+03  0.00000000000E+00 0. -1.
        -24    2    1    2    0    0 -0.74098855039E+01  0.85415067320E+02  0.69605924862E+02  0.13636312361E+03  0.79995478479E+02 0.  0.
         23    2    1    2    0    0  0.65383739300E+02  0.12159044455E+03  0.38670184650E+03  0.42076223826E+03  0.91887286906E+02 0.  0.
         11    1    3    3    0    0 -0.31766937398E+02  0.23614971819E+02 -0.76775464910E+00  0.39590335347E+02  0.00000000000E+00 0. -1.
        -12    1    3    3    0    0  0.24357051894E+02  0.61800095501E+02  0.70373679511E+02  0.96772788266E+02  0.00000000000E+00 0.  1.
        -13    1    4    4    0    0  0.43773180104E+02  0.21273170398E+02  0.54480435711E+02  0.73053110478E+02  0.00000000000E+00 0.  1.
         13    1    4    4    0    0  0.21610559196E+02  0.10031727415E+03  0.33222141079E+03  0.34770912779E+03  0.00000000000E+00 0. -1.
         21    1    1    2  503  501 -0.17004806569E+02 -0.47176091051E+02 -0.14635008669E+02  0.52239166265E+02  0.00000000000E+00 0. -1.
          2    1    1    2  501    0 -0.40969047227E+02 -0.15982942081E+03  0.21565002976E+03  0.27153055431E+03  0.00000000000E+00 0. -1.
<scales pt_clust_5="13000.00000" pt_clust_6="13000.00000" pt_clust_7="13000.00000" pt_clust_8="13000.00000" pt_clust_9="50.14725" pt_clust_10="156.54928"></scales>
<clustering>
<clus scale="   50.147">  2  9  1 -1</clus>
<clus scale="   79.995">  5  6 -1 -1</clus>
<clus scale="   91.887">  7  8 -1 -1</clus>
<clus scale="  104.309">  1  5  2 -1</clus>
<clus scale="  156.549">  2 10  1 -1</clus>
<clus scale="   50.147">  2  5  1 -1</clus>
</clustering>
</event>
<event>
10    3  0.5078224E-005  0.7506508E+03  0.7546771E-02  0.9634330E-01
         21   -1    0    0  503  502  0.00000000000E+00  0.00000000000E+00  0.23777899214E+03  0.23777899214E+03  0.00000000000E+00 0.  1.
          1   -1    0    0  502    0 -0.00000000000E+00 -0.00000000000E+00 -0.23955570536E+04  0.23955570536E+04  0.00000000000E+00 0. -1.
        -24    2    1    2    0    0  0.24828874829E+03 -0.22448756235E+02 -0.31141707609E+03  0.40708709211E+03  0.81166841133E+02 0.  0.
         23    2    1    2    0    0  0.28531421301E+03 -0.40659829610E+03 -0.59715240812E+03  0.78192425716E+03  0.89934258613E+02 0.  0.
         11    1    3    3    0    0  0.24030166646E+03 -0.15925824187E+02 -0.25900230408E+03  0.35366752225E+03  0.00000000000E+00 0. -1.
        -12    1    3    3    0    0  0.79870818318E+01 -0.65229320479E+01 -0.52414772019E+02  0.53419569864E+02  0.00000000000E+00 0.  1.
        -11    1    4    4    0    0  0.32479750451E+02 -0.72998109478E+02 -0.14643643298E+03  0.16681512845E+03  0.00000000000E+00 0. -1.
         11    1    4    4    0    0  0.25283446256E+03 -0.33360018662E+03 -0.45071597514E+03  0.61510912871E+03  0.00000000000E+00 0.  1.
         21    1    1    2  503  501 -0.12611041296E+02  0.30639792212E+02  0.30945621219E+00  0.33135041761E+02  0.00000000000E+00 0.  1.
          2    1    1    2  501    0 -0.52099192000E+03  0.39840726012E+03 -0.12495180335E+04  0.14111896548E+04  0.00000000000E+00 0. -1.
<scales pt_clust_5="13000.00000" pt_clust_6="13000.00000" pt_clust_7="13000.00000" pt_clust_8="13000.00000" pt_clust_9="33.13360" pt_clust_10="666.36413"></scales>
<clustering>
<clus scale="   33.134">  1  9  2 -1</clus>
<clus scale="   81.167">  5  6 -1 -1</clus>
<clus scale="   89.934">  7  8 -1 -1</clus>
<clus scale="  229.814">  5  7 -1 -1</clus>
<clus scale="  666.364">  1 10  2 -1</clus>
<clus scale="   33.134">  1  5  2 -1</clus>
</clustering>
</event>
<event>
10    3  0.5078224E-005  0.1004258E+03  0.7546771E-02  0.1284180E+00
         21   -1    0    0  501  502  0.00000000000E+00  0.00000000000E+00  0.55047111066E+02  0.55047111066E+02  0.00000000000E+00 0. -1.
          1   -1    0    0  503    0 -0.00000000000E+00 -0.00000000000E+00 -0.63883177720E+03  0.63883177720E+03  0.00000000000E+00 0. -1.
         23    2    1    2    0    0  0.17363011338E+02  0.35818963341E+02 -0.35746337328E+03  0.37111279733E+03  0.91433980576E+02 0.  0.
        -24    2    1    2    0    0  0.55042700211E+01 -0.55803252523E+02 -0.44915259278E+02  0.10885583536E+03  0.81779657590E+02 0.  0.
         13    1    4    4    0    0 -0.14444404857E+02 -0.56989930654E+02  0.97831540253E+00  0.58800086127E+02  0.00000000000E+00 0. -1.
        -14    1    4    4    0    0  0.19948674878E+02  0.11866781308E+01 -0.45893574680E+02  0.50055749233E+02  0.00000000000E+00 0.  1.
        -11    1    3    3    0    0 -0.87950596604E+01 -0.27177525818E+02 -0.68693386093E+02  0.74395915728E+02  0.00000000000E+00 0. -1.
         11    1    3    3    0    0  0.26158070998E+02  0.62996489159E+02 -0.28876998719E+03  0.29671688160E+03  0.00000000000E+00 0.  1.
         21    1    1    2  503  502 -0.19337334528E+02 -0.33918392342E+02 -0.20333094776E+02  0.44020729082E+02  0.00000000000E+00 0. -1.
          2    1    1    2  501    0 -0.35299468312E+01  0.53902681524E+02 -0.16107293879E+03  0.16988952649E+03  0.00000000000E+00 0. -1.
<scales pt_clust_5="13000.00000" pt_clust_6="13000.00000" pt_clust_7="13000.00000" pt_clust_8="13000.00000" pt_clust_9="39.04344" pt_clust_10="50.74110"></scales>
<clustering>
<clus scale="   39.043">  1  9  2 -1</clus>
<clus scale="   50.741">  1 10  2 -1</clus>
<clus scale="   81.780">  5  6 -1 -1</clus>
<clus scale="   91.434">  7  8 -1 -1</clus>
<clus scale="   91.723">  1  5  2 -1</clus>
<clus scale="   39.043">  1  5  2 -1</clus>
</clustering>
</event>
<event>
10    3  0.9163325E-005  0.4241777E+03  0.7546771E-02  0.1094467E+00
         21   -1    0    0  501  502  0.00000000000E+00  0.00000000000E+00  0.39249249668E+03  0.39249249668E+03  0.00000000000E+00 0. -1.
          1   -1    0    0  503    0 -0.00000000000E+00 -0.00000000000E+00 -0.82523567220E+03  0.82523567220E+03  0.00000000000E+00 0. -1.
        -24    2    1    2    0    0  0.46243890850E+00 -0.20613000755E+02 -0.27463031258E+03  0.28693967244E+03  0.80544753921E+02 0.  0.
         23    2    1    2    0    0 -0.33501110672E+03 -0.20637442538E+03  0.71612943000E+02  0.41051259486E+03  0.92570685758E+02 0.  0.
         11    1    3    3    0    0 -0.26729858882E+02  0.18134602670E+02 -0.72996718483E+02  0.79823994382E+02  0.00000000000E+00 0. -1.
        -12    1    3    3    0    0  0.27192297790E+02 -0.38747603425E+02 -0.20163359410E+03  0.20711567806E+03  0.00000000000E+00 0.  1.
        -11    1    4    4    0    0 -0.16831315977E+03 -0.15515729513E+03  0.54280747289E+02  0.23526475620E+03  0.00000000000E+00 0. -1.
         11    1    4    4    0    0 -0.16669794695E+03 -0.51217130250E+02  0.17332195710E+02  0.17524783867E+03  0.00000000000E+00 0.  1.
         21    1    1    2  503  502 -0.28250835847E+02 -0.34633705646E+01  0.73875583113E+01  0.29405453227E+02  0.00000000000E+00 0.  1.
          2    1    1    2  501    0  0.36279950365E+03  0.23045079670E+03 -0.23711336426E+03  0.49087044835E+03  0.00000000000E+00 0. -1.
<scales pt_clust_5="13000.00000" pt_clust_6="13000.00000" pt_clust_7="13000.00000" pt_clust_8="13000.00000" pt_clust_9="28.46234" pt_clust_10="413.95362"></scales>
<clustering>
<clus scale="   28.462">  1  9  2 -1</clus>
<clus scale="   80.545">  5  6 -1 -1</clus>
<clus scale="   83.155">  2  5  1 -1</clus>
<clus scale="   92.571">  7  8 -1 -1</clus>
<clus scale="  413.954">  1 10  2 -1</clus>
<clus scale="   28.462">  1  5  2 -1</clus>
</clustering>
</event>
<event>
10    3  0.5078224E-005  0.1426771E+03  0.7546771E-02  0.1212342E+00
          1   -1    0    0  503    0 -0.00000000000E+00  0.00000000000E+00  0.10943288474E+04  0.10943288474E+04  0.00000000000E+00 0. -1.
         21   -1    0    0  501  502  0.00000000000E+00 -0.00000000000E+00 -0.50959518185E+02  0.50959518185E+02  0.00000000000E+00 0. -1.
        -24    2    1    2    0    0 -0.11802954889E+03 -0.46527936396E+02  0.69004858565E+03  0.70628614128E+03  0.81100182075E+02 0.  0.
         23    2    1    2    0    0  0.65554798381E+02 -0.15332692503E+02  0.12923845270E+03  0.17298858402E+03  0.93219898601E+02 0.  0.
         11    1    3    3    0    0 -0.79441303307E+02 -0.49464278164E+00  0.25438779242E+03  0.26650387291E+03  0.00000000000E+00 0. -1.
        -12    1    3    3    0    0 -0.38588245583E+02 -0.46033293615E+02  0.43566079323E+03  0.43978226837E+03  0.00000000000E+00 0.  1.
        -13    1    4    4    0    0  0.88257741238E+02 -0.12360592086E+02  0.11684713183E+03  0.14695395654E+03  0.00000000000E+00 0. -1.
         13    1    4    4    0    0 -0.22702942857E+02 -0.29721004166E+01  0.12391320866E+02  0.26034627481E+02  0.00000000000E+00 0.  1.
         21    1    1    2  503  502  0.35654289122E+02 -0.31446684170E+02  0.60533655826E+02  0.76970421369E+02  0.00000000000E+00 0.  1.
          2    1    1    2  501    0  0.16820461386E+02  0.93307313069E+02  0.16354863503E+03  0.18904321890E+03  0.00000000000E+00 0. -1.
<scales pt_clust_5="13000.00000" pt_clust_6="13000.00000" pt_clust_7="13000.00000" pt_clust_8="13000.00000" pt_clust_9="47.54074" pt_clust_10="88.30474"></scales>
<clustering>
<clus scale="   47.541">  2  9  1 -1</clus>
<clus scale="   81.100">  5  6 -1 -1</clus>
<clus scale="   88.305">  2 10  1 -1</clus>
<clus scale="   93.220">  7  8 -1 -1</clus>
<clus scale="  135.071">  1  5  2 -1</clus>
<clus scale="   47.541">  2  5  1 -1</clus>
</clustering>
</event>
<event>
10    3  0.5078224E-005  0.4077199E+03  0.7546771E-02  0.1090859E+00
          1   -1    0    0  503    0 -0.00000000000E+00  0.00000000000E+00  0.22767245728E+04  0.22767245728E+04  0.00000000000E+00 0. -1.
         21   -1    0    0  501  502  0.00000000000E+00 -0.00000000000E+00 -0.25678860322E+03  0.25678860322E+03  0.00000000000E+00 0. -1.
        -24    2    1    2    0    0  0.47863817282E+02 -0.43693538156E+02  0.48407071017E+03  0.49489885358E+03  0.80002203405E+02 0.  0.
         23    2    1    2    0    0  0.26847454974E+03 -0.27147624033E+03  0.12170518745E+04  0.12788191148E+04  0.91570356082E+02 0.  0.
         11    1    3    3    0    0  0.69808211495E+02 -0.28310510581E+02  0.32756985769E+03  0.33612004265E+03  0.00000000000E+00 0. -1.
        -12    1    3    3    0    0 -0.21944394213E+02 -0.15383027575E+02  0.15650085248E+03  0.15877881093E+03  0.00000000000E+00 0.  1.
        -13    1    4    4    0    0  0.15541657437E+03 -0.11576582887E+03  0.49549141818E+03  0.53204114898E+03  0.00000000000E+00 0.  1.
         13    1    4    4    0    0  0.11305797537E+03 -0.15571041146E+03  0.72156045637E+03  0.74677796582E+03  0.00000000000E+00 0. -1.
         21    1    1    2  503  502 -0.23660509244E+03  0.13354372687E+03 -0.10546217182E+03  0.29144153177E+03  0.00000000000E+00 0. -1.
          2    1    1    2  501    0 -0.79733274578E+02  0.18162605162E+03  0.42427555666E+03  0.46835367585E+03  0.00000000000E+00 0. -1.
<scales pt_clust_5="13000.00000" pt_clust_6="13000.00000" pt_clust_7="13000.00000" pt_clust_8="13000.00000" pt_clust_9="397.30388" pt_clust_10="183.67846"></scales>
<clustering>
<clus scale="   80.002">  5  6 -1 -1</clus>
<clus scale="   91.570">  7  8 -1 -1</clus>
<clus scale="  102.958">  1  5  2 -1</clus>
<clus scale="  183.678">  2 10  1 -1</clus>
<clus scale="  397.304">  2  9  1 -1</clus>
<clus scale="  183.678">  2  5  1 -1</clus>
</clustering>
</event>
<event>
10    3  0.5078224E-005  0.9959155E+02  0.7546771E-02  0.1287763E+00
          1   -1    0    0  503    0 -0.00000000000E+00  0.00000000000E+00  0.27472433044E+03  0.27472433044E+03  0.00000000000E+00 0. -1.
         21   -1    0    0  501  502  0.00000000000E+00 -0.00000000000E+00 -0.11913072113E+03  0.11913072113E+03  0.00000000000E+00 0. -1.
        -24    2    1    2    0    0 -0.71622687067E+01 -0.35696988015E+02  0.14825753274E+03  0.17142699533E+03  0.77982983183E+02 0.  0.
         23    2    1    2    0    0  0.58450595466E+02  0.55539843925E+02 -0.33862368344E+02  0.12617555381E+03  0.90953086900E+02 0.  0.
         13    1    3    3    0    0 -0.36033164015E+02 -0.18489966428E+02  0.12267825131E+03  0.12919063864E+03  0.00000000000E+00 0. -1.
        -14    1    3    3    0    0  0.28870895308E+02 -0.17207021586E+02  0.25579281431E+02  0.42236356688E+02  0.00000000000E+00 0.  1.
        -11    1    4    4    0    0 -0.22474093362E+02  0.47557562981E+00  0.36420987788E+00  0.22482074936E+02  0.00000000000E+00 0.  1.
         11    1    4    4    0    0  0.80924688828E+02  0.55064268295E+02 -0.34226578221E+02  0.10369347888E+03  0.00000000000E+00 0. -1.
         21    1    1    2  503  502 -0.61623065722E+01  0.20139095186E+02 -0.33016835992E+01  0.21318027390E+02  0.00000000000E+00 0. -1.
          2    1    1    2  501    0 -0.45126020188E+02 -0.39981951096E+02  0.44500128509E+02  0.74934475035E+02  0.00000000000E+00 0. -1.
<scales pt_clust_5="13000.00000" pt_clust_6="13000.00000" pt_clust_7="13000.00000" pt_clust_8="13000.00000" pt_clust_9="21.06080" pt_clust_10="59.10784"></scales>
<clustering>
<clus scale="   21.061">  2  9  1 -1</clus>
<clus scale="   59.108">  2 10  1 -1</clus>
<clus scale="   77.983">  5  6 -1 -1</clus>
<clus scale="   87.905">  1  5  2 -1</clus>
<clus scale="   90.953">  7  8 -1 -1</clus>
<clus scale="   21.061">  2  5  1 -1</clus>
</clustering>
</event>
<event>
10    3  0.5078224E-005  0.2192322E+03  0.7546771E-02  0.1134457E+00
          1   -1    0    0  503    0 -0.00000000000E+00  0.00000000000E+00  0.45749906366E+03  0.45749906366E+03  0.00000000000E+00 0. -1.
         21   -1    0    0  501  502  0.00000000000E+00 -0.00000000000E+00 -0.11483045170E+03  0.11483045170E+03  0.00000000000E+00 0. -1.
        -24    2    1    2    0    0 -0.54533845717E+01  0.48720435680E+02  0.17776825905E+03  0.20117649231E+03  0.80417702505E+02 0.  0.
         23    2    1    2    0    0  0.31046434606E+01  0.86273464508E+02  0.11980784879E+03  0.16670309491E+03  0.77351481770E+02 0.  0.
         11    1    3    3    0    0 -0.30723816757E+02  0.38082883341E+02  0.16268317464E+03  0.16988253069E+03  0.00000000000E+00 0. -1.
        -12    1    3    3    0    0  0.25270432185E+02  0.10637552340E+02  0.15085084404E+02  0.31293961623E+02  0.00000000000E+00 0.  1.
        -11    1    4    4    0    0  0.36214229310E+02  0.37627761070E+02  0.80434696534E+02  0.95901299335E+02  0.00000000000E+00 0.  1.
         11    1    4    4    0    0 -0.33109585850E+02  0.48645703438E+02  0.39373152253E+02  0.70801795574E+02  0.00000000000E+00 0. -1.
         21    1    1    2  503  502  0.45742531950E+02  0.10938598161E+02  0.13858606197E+02  0.49031552338E+02  0.00000000000E+00 0. -1.
          2    1    1    2  501    0 -0.43393790839E+02 -0.14593249835E+03  0.31233897927E+02  0.15541837580E+03  0.00000000000E+00 0. -1.
<scales pt_clust_5="13000.00000" pt_clust_6="13000.00000" pt_clust_7="13000.00000" pt_clust_8="13000.00000" pt_clust_9="47.03225" pt_clust_10="139.67030"></scales>
<clustering>
<clus scale="   47.032">  2  9  1 -1</clus>
<clus scale="   77.351">  7  8 -1 -1</clus>
<clus scale="   80.418">  5  6 -1 -1</clus>
<clus scale="   92.015">  5  7 -1 -1</clus>
<clus scale="  139.670">  2 10  1 -1</clus>
<clus scale="   47.032">  2  5  1 -1</clus>
</clustering>
</event>
<event>
10    3  0.5078224E-005  0.1014004E+03  0.7546771E-02  0.1281955E+00
          1   -1    0    0  503    0 -0.00000000000E+00  0.00000000000E+00  0.29406582427E+03  0.29406582427E+03  0.00000000000E+00 0. -1.
         21   -1    0    0  501  502  0.00000000000E+00 -0.00000000000E+00 -0.14963089520E+03  0.14963089520E+03  0.00000000000E+00 0. -1.
        -24    2    1    2    0    0  0.48973927659E+01 -0.46486720182E+02  0.12528466589E+03  0.15623758283E+03  0.80801826536E+02 0.  0.
         23    2    1    2    0    0  0.41847700064E+02  0.42181798234E+02 -0.66716910179E+02  0.12710269979E+03  0.90406947123E+02 0.  0.
         11    1    3    3    0    0  0.10232315311E+02 -0.24025325392E+02  0.13006588478E+03  0.13266141459E+03  0.00000000000E+00 0. -1.
        -12    1    3    3    0    0 -0.53349225447E+01 -0.22461394790E+02 -0.47812188964E+01  0.23576168234E+02  0.00000000000E+00 0.  1.
        -13    1    4    4    0    0 -0.16411921402E+02  0.46883989332E+02 -0.28506599258E+02  0.57272033498E+02  0.00000000000E+00 0.  1.
         13    1    4    4    0    0  0.58259621466E+02 -0.47021910980E+01 -0.38210310922E+02  0.69830666295E+02  0.00000000000E+00 0. -1.
         21    1    1    2  503  502 -0.24913020423E+02 -0.52132602549E+01 -0.31556400435E+02  0.40541868204E+02  0.00000000000E+00 0. -1.
          2    1    1    2  501    0 -0.21832072407E+02  0.95181822026E+01  0.11742357379E+03  0.11981456865E+03  0.00000000000E+00 0. -1.
<scales pt_clust_5="13000.00000" pt_clust_6="13000.00000" pt_clust_7="13000.00000" pt_clust_8="13000.00000" pt_clust_9="30.35418" pt_clust_10="23.81671"></scales>
<clustering>
<clus scale="   23.817">  2 10  1 -1</clus>
<clus scale="   30.354">  2  9  1 -1</clus>
<clus scale="   80.802">  5  6 -1 -1</clus>
<clus scale="   90.407">  7  8 -1 -1</clus>
<clus scale="   92.938">  1  5  2 -1</clus>
<clus scale="   23.817">  2  5  1 -1</clus>
</clustering>
</event>
<event>
10    3  0.5078224E-005  0.1319716E+03  0.7546771E-02  0.1228557E+00
         21   -1    0    0  501  502  0.00000000000E+00  0.00000000000E+00  0.17881454226E+03  0.17881454226E+03  0.00000000000E+00 0. -1.
          1   -1    0    0  503    0 -0.00000000000E+00 -0.00000000000E+00 -0.49971396874E+03  0.49971396874E+03  0.00000000000E+00 0. -1.
        -24    2    1    2    0    0  0.96287350510E+02 -0.22972637168E+02  0.24740991776E+02  0.12922504851E+03  0.79296913947E+02 0.  0.
         23    2    1    2    0    0  0.34062866346E+02 -0.76748202840E+02 -0.62124443838E+02  0.14242313163E+03  0.96821156775E+02 0.  0.
         13    1    3    3    0    0  0.10512714487E+03 -0.32406220418E+02  0.11318749977E+02  0.11058930242E+03  0.00000000000E+00 0. -1.
        -14    1    3    3    0    0 -0.88397943576E+01  0.94335832500E+01  0.13422241799E+02  0.18635746084E+02  0.00000000000E+00 0.  1.
        -13    1    4    4    0    0  0.39333836048E+02 -0.33374023575E+02 -0.80020928953E+02  0.95206749647E+02  0.00000000000E+00 0.  1.
         13    1    4    4    0    0 -0.52709697016E+01 -0.43374179265E+02  0.17896485114E+02  0.47216381987E+02  0.00000000000E+00 0. -1.
         21    1    1    2  503  502 -0.87740892198E+01  0.18693291909E+02  0.43807001380E+02  0.48430126718E+02  0.00000000000E+00 0. -1.
          2    1    1    2  501    0 -0.12157612764E+03  0.81027548098E+02 -0.32732297579E+03  0.35845020413E+03  0.00000000000E+00 0. -1.
<scales pt_clust_5="13000.00000" pt_clust_6="13000.00000" pt_clust_7="13000.00000" pt_clust_8="13000.00000" pt_clust_9="20.65003" pt_clust_10="89.67822"></scales>
<clustering>
<clus scale="   20.650">  1  9  2 -1</clus>
<clus scale="   79.297">  5  6 -1 -1</clus>
<clus scale="   96.821">  7  8 -1 -1</clus>
<clus scale="  121.458">  2  5  1 -1</clus>
<clus scale="   89.678">  1 10  2 -1</clus>
<clus scale="   20.650">  1  5  2 -1</clus>
</clustering>
</event>
<event>
10    3  0.5078224E-005  0.2012366E+03  0.7546771E-02  0.1150010E+00
          1   -1    0    0  503    0 -0.00000000000E+00  0.00000000000E+00  0.35086518076E+03  0.35086518076E+03  0.00000000000E+00 0. -1.
         21   -1    0    0  501  502  0.00000000000E+00 -0.00000000000E+00 -0.17428894783E+03  0.17428894783E+03  0.00000000000E+00 0.  1.
        -24    2    1    2    0    0  0.30492818824E+01 -0.14802377623E+03  0.39435977701E+02  0.17295426380E+03  0.80234933656E+02 0.  0.
         23    2    1    2    0    0  0.44216631010E+02  0.20985304289E+03  0.10225472626E+03  0.25559212701E+03  0.94222589001E+02 0.  0.
         13    1    3    3    0    0  0.19879753946E+02 -0.76787322469E+01  0.21836358211E+02  0.30512195689E+02  0.00000000000E+00 0. -1.
        -14    1    3    3    0    0 -0.16830472063E+02 -0.14034504398E+03  0.17599619490E+02  0.14244206811E+03  0.00000000000E+00 0.  1.
        -11    1    4    4    0    0 -0.28973256311E+02  0.42242057835E+02  0.25909521763E+02  0.57403347894E+02  0.00000000000E+00 0.  1.
         11    1    4    4    0    0  0.73189887322E+02  0.16761098506E+03  0.76345204496E+02  0.19818877912E+03  0.00000000000E+00 0. -1.
         21    1    1    2  503  502 -0.22212360653E+02 -0.81686354262E+01 -0.62785801252E+01  0.24485427072E+02  0.00000000000E+00 0. -1.
          2    1    1    2  501    0 -0.25053552240E+02 -0.53660631239E+02  0.41164109093E+02  0.72122310710E+02  0.00000000000E+00 0. -1.
<scales pt_clust_5="13000.00000" pt_clust_6="13000.00000" pt_clust_7="13000.00000" pt_clust_8="13000.00000" pt_clust_9="23.66676" pt_clust_10="60.87919"></scales>
<clustering>
<clus scale="   23.667">  2  9  1 -1</clus>
<clus scale="   60.879">  2 10  1 -1</clus>
<clus scale="   80.235">  5  6 -1 -1</clus>
<clus scale="   94.223">  7  8 -1 -1</clus>
<clus scale="  195.079">  1  5  2 -1</clus>
<clus scale="   23.667">  2  5  1 -1</clus>
</clustering>
</event>
<event>
10    3  0.5078224E-005  0.1693205E+03  0.7546771E-02  0.1201091E+00
          1   -1    0    0  502    0 -0.00000000000E+00  0.00000000000E+00  0.20216514350E+03  0.20216514350E+03  0.00000000000E+00 0. -1.
         21   -1    0    0  503  502  0.00000000000E+00 -0.00000000000E+00 -0.10016045021E+04  0.10016045021E+04  0.00000000000E+00 0. -1.
        -24    2    1    2    0    0 -0.58328967923E+01  0.64281599614E+02  0.14656250307E+03  0.17878819241E+03  0.79489016252E+02 0.  0.
         23    2    1    2    0    0 -0.45395937191E+02  0.89293368065E+02 -0.23725373235E+03  0.27227689629E+03  0.88381434950E+02 0.  0.
         11    1    3    3    0    0  0.10138966194E+02  0.67954552803E+02  0.14713828957E+03  0.16238933506E+03  0.00000000000E+00 0. -1.
        -12    1    3    3    0    0 -0.15971862986E+02 -0.36729531885E+01 -0.57578650069E+00  0.16398857353E+02  0.00000000000E+00 0.  1.
        -13    1    4    4    0    0 -0.66356646466E+02  0.89534807227E+02 -0.18497822637E+03  0.21595515846E+03  0.00000000000E+00 0. -1.
         13    1    4    4    0    0  0.20960709275E+02 -0.24143916179E+00 -0.52275505977E+02  0.56321737823E+02  0.00000000000E+00 0.  1.
         21    1    1    2  503  501  0.17899588163E+02  0.38410170256E+02 -0.26065665828E+03  0.26407883282E+03  0.00000000000E+00 0. -1.
          2    1    1    2  501    0  0.33329245820E+02 -0.19198513793E+03 -0.44809147103E+03  0.48862572407E+03  0.00000000000E+00 0. -1.
<scales pt_clust_5="13000.00000" pt_clust_6="13000.00000" pt_clust_7="13000.00000" pt_clust_8="13000.00000" pt_clust_9="42.37613" pt_clust_10="144.42350"></scales>
<clustering>
<clus scale="   42.376">  2  9  1 -1</clus>
<clus scale="   79.489">  5  6 -1 -1</clus>
<clus scale="   88.381">  7  8 -1 -1</clus>
<clus scale="  102.901">  1  5  2 -1</clus>
<clus scale="  144.424">  2 10  1 -1</clus>
<clus scale="   42.376">  2  5  1 -1</clus>
</clustering>
</event>
<event>
10    3  0.5078224E-005  0.1829136E+03  0.7546771E-02  0.1201381E+00
          1   -1    0    0  502    0 -0.00000000000E+00  0.00000000000E+00  0.96618220180E+03  0.96618220180E+03  0.00000000000E+00 0. -1.
         21   -1    0    0  503  502  0.00000000000E+00 -0.00000000000E+00 -0.10374161485E+03  0.10374161485E+03  0.00000000000E+00 0. -1.
        -24    2    1    2    0    0  0.32235281412E+01 -0.78537188595E+01  0.18999281637E+03  0.20654486598E+03  0.80569469147E+02 0.  0.
         23    2    1    2    0    0 -0.91756913463E+02  0.13627994354E+03  0.86455840542E+02  0.20823397974E+03  0.94314493983E+02 0.  0.
         11    1    3    3    0    0 -0.41315986932E+01 -0.38581731126E+02  0.51431841782E+02  0.64427124983E+02  0.00000000000E+00 0. -1.
        -12    1    3    3    0    0  0.73551268344E+01  0.30728012267E+02  0.13856097459E+03  0.14211774100E+03  0.00000000000E+00 0.  1.
        -11    1    4    4    0    0 -0.22485457230E+02  0.77874895639E+02 -0.27231542880E+01  0.81101854029E+02  0.00000000000E+00 0. -1.
         11    1    4    4    0    0 -0.69271456232E+02  0.58405047898E+02  0.89178994830E+02  0.12713212571E+03  0.00000000000E+00 0.  1.
         21    1    1    2  503  501  0.26942132376E+02  0.70658378143E+01 -0.17948664951E+02  0.33135466415E+02  0.00000000000E+00 0. -1.
          2    1    1    2  501    0  0.61591252945E+02 -0.13549206249E+03  0.60394059499E+03  0.62200950452E+03  0.00000000000E+00 0. -1.
<scales pt_clust_5="13000.00000" pt_clust_6="13000.00000" pt_clust_7="13000.00000" pt_clust_8="13000.00000" pt_clust_9="27.85327" pt_clust_10="156.72325"></scales>
<clustering>
<clus scale="   27.853">  2  9  1 -1</clus>
<clus scale="   80.569">  5  6 -1 -1</clus>
<clus scale="   81.110">  1  5  2 -1</clus>
<clus scale="   94.314">  7  8 -1 -1</clus>
<clus scale="  156.723">  2 10  1 -1</clus>
<clus scale="   27.853">  2  5  1 -1</clus>
</clustering>
</event>
<event>
10    3  0.5078224E-005  0.9273866E+02  0.7546771E-02  0.1302723E+00
         -2   -1    0    0    0  501 -0.00000000000E+00  0.00000000000E+00  0.20379315322E+03  0.20379315322E+03  0.00000000000E+00 0.  1.
         21   -1    0    0  501  502  0.00000000000E+00 -0.00000000000E+00 -0.45558941303E+03  0.45558941303E+03  0.00000000000E+00 0. -1.
         23    2    1    2    0    0  0.26189639710E+02  0.14496657091E+02  0.11544003132E+03  0.14876314391E+03  0.88927059211E+02 0.  0.
        -24    2    1    2    0    0 -0.16220952165E+02  0.29360061330E+02 -0.91251020118E+02  0.12473285781E+03  0.78143487599E+02 0.  0.
         13    1    4    4    0    0 -0.23475264920E+02  0.49483550304E+02 -0.87181815857E+02  0.10295814115E+03  0.00000000000E+00 0. -1.
        -14    1    4    4    0    0  0.72543127546E+01 -0.20123488975E+02 -0.40692042606E+01  0.21774716654E+02  0.00000000000E+00 0.  1.
        -13    1    3    3    0    0 -0.28154542763E+02  0.15666501846E+02  0.73021720787E+02  0.79814091895E+02  0.00000000000E+00 0. -1.
         13    1    3    3    0    0  0.54344182473E+02 -0.11698447552E+01  0.42418310537E+02  0.68949052018E+02  0.00000000000E+00 0.  1.
         21    1    1    2  503  502 -0.38671746120E+02  0.20197518793E+02 -0.30632684201E+03  0.30941812786E+03  0.00000000000E+00 0. -1.
         -1    1    1    2    0  503  0.28703058576E+02 -0.64054237213E+02  0.30341570995E+02  0.76468436671E+02  0.00000000000E+00 0.  1.
<scales pt_clust_5="13000.00000" pt_clust_6="13000.00000" pt_clust_7="13000.00000" pt_clust_8="13000.00000" pt_clust_9="43.62847" pt_clust_10="64.98164"></scales>
<clustering>
<clus scale="   43.628">  2  9  1 -1</clus>
<clus scale="   64.982">  2 10  1 -1</clus>
<clus scale="   78.143">  5  6 -1 -1</clus>
<clus scale="   82.455">  2  5  1 -1</clus>
<clus scale="   88.927">  7  8 -1 -1</clus>
<clus scale="   43.628">  2  5  1 -1</clus>
</clustering>
</event>
<event>
10    3  0.5078224E-005  0.2307028E+03  0.7546771E-02  0.1143721E+00
         21   -1    0    0  503  502  0.00000000000E+00  0.00000000000E+00  0.31543406936E+03  0.31543406936E+03  0.00000000000E+00 0. -1.
          1   -1    0    0  502    0 -0.00000000000E+00 -0.00000000000E+00 -0.41429049802E+03  0.41429049802E+03  0.00000000000E+00 0. -1.
        -24    2    1    2    0    0 -0.91336648589E+02 -0.83909511994E+02 -0.12935084740E+03  0.19645033784E+03  0.80485426860E+02 0.  0.
         23    2    1    2    0    0  0.88255050618E+01 -0.17169676070E+03  0.70724516909E+01  0.19566840543E+03  0.93158135103E+02 0.  0.
         11    1    3    3    0    0 -0.94296911292E+02 -0.95545420978E+02 -0.10943827980E+03  0.17319807168E+03  0.00000000000E+00 0. -1.
        -12    1    3    3    0    0  0.29602627029E+01  0.11635908984E+02 -0.19912567601E+02  0.23252266161E+02  0.00000000000E+00 0.  1.
        -11    1    4    4    0    0  0.41547356774E+02 -0.45371510079E+02 -0.14994569726E+02  0.63321354242E+02  0.00000000000E+00 0.  1.
         11    1    4    4    0    0 -0.32721851712E+02 -0.12632525062E+03  0.22067021417E+02  0.13234705119E+03  0.00000000000E+00 0. -1.
         21    1    1    2  503  501 -0.28215673216E+02 -0.44468747822E+01  0.45907072453E+02  0.54068088662E+02  0.00000000000E+00 0. -1.
          2    1    1    2  501    0  0.11072681674E+03  0.26005314748E+03 -0.22485105409E+02  0.28353773545E+03  0.00000000000E+00 0. -1.
<scales pt_clust_5="13000.00000" pt_clust_6="13000.00000" pt_clust_7="13000.00000" pt_clust_8="13000.00000" pt_clust_9="28.56394" pt_clust_10="211.05773"></scales>
<clustering>
<clus scale="   28.564">  1  9  2 -1</clus>
<clus scale="   80.485">  5  6 -1 -1</clus>
<clus scale="   93.158">  7  8 -1 -1</clus>
<clus scale="  150.399">  2  5  1 -1</clus>
<clus scale="  211.058">  1 10  2 -1</clus>
<clus scale="   28.564">  1  5  2 -1</clus>
</clustering>
</event>
<event>
10    3  0.5078224E-005  0.1534550E+03  0.7546771E-02  0.1217580E+00
         21   -1    0    0  501  502  0.00000000000E+00  0.00000000000E+00  0.11778893261E+03  0.11778893261E+03  0.00000000000E+00 0.  1.
         -2   -1    0    0    0  501 -0.00000000000E+00 -0.00000000000E+00 -0.38511610155E+03  0.38511610155E+03  0.00000000000E+00 0.  1.
        -24    2    1    2    0    0 -0.44607374214E+02 -0.18511215393E+02 -0.67967635461E+02  0.11649478269E+03  0.81356941899E+02 0.  0.
         23    2    1    2    0    0 -0.23948453913E+02  0.11925211955E+03 -0.80024332869E+02  0.17175094169E+03  0.91103763138E+02 0.  0.
         11    1    3    3    0    0  0.20705385177E+02 -0.13268396445E+02 -0.39824346327E+01  0.24912308307E+02  0.00000000000E+00 0. -1.
        -12    1    3    3    0    0 -0.65312759392E+02 -0.52428189482E+01 -0.63985200828E+02  0.91582474387E+02  0.00000000000E+00 0.  1.
        -11    1    4    4    0    0  0.23136859758E+01  0.73454424017E+02 -0.91867248322E+02  0.11764564108E+03  0.00000000000E+00 0. -1.
         11    1    4    4    0    0 -0.26262139889E+02  0.45797695534E+02  0.11842915453E+02  0.54105300611E+02  0.00000000000E+00 0.  1.
         21    1    1    2  503  502 -0.20313478463E+02 -0.14342226053E+01  0.15110131398E+02  0.25357651165E+02  0.00000000000E+00 0. -1.
         -1    1    1    2    0  503  0.88869306590E+02 -0.99306681552E+02 -0.13444533201E+03  0.18930165861E+03  0.00000000000E+00 0.  1.
<scales pt_clust_5="13000.00000" pt_clust_6="13000.00000" pt_clust_7="13000.00000" pt_clust_8="13000.00000" pt_clust_9="20.36405" pt_clust_10="123.48506"></scales>
<clustering>
<clus scale="   20.364">  1  9  2 -1</clus>
<clus scale="   81.357">  5  6 -1 -1</clus>
<clus scale="   91.104">  7  8 -1 -1</clus>
<clus scale="   97.165">  2  5  1 -1</clus>
<clus scale="  123.485">  1 10  2 -1</clus>
<clus scale="   20.364">  1  5  2 -1</clus>
</clustering>
</event>
<event>
10    3  0.5078224E-005  0.1215237E+03  0.7546771E-02  0.1244147E+00
         21   -1    0    0  501  502  0.00000000000E+00  0.00000000000E+00  0.15222534174E+03  0.15222534174E+03  0.00000000000E+00 0. -1.
          3   -1    0    0  503    0 -0.00000000000E+00 -0.00000000000E+00 -0.35136898252E+03  0.35136898252E+03  0.00000000000E+00 0. -1.
         23    2    1    2    0    0  0.11319944766E+02  0.84982394635E+02 -0.25216019756E+03  0.28166660695E+03  0.91657862134E+02 0.  0.
        -24    2    1    2    0    0  0.98639130152E+01 -0.64810156861E+02 -0.25836613980E+02  0.10674409993E+03  0.80181787432E+02 0.  0.
         13    1    4    4    0    0 -0.31539944113E+02 -0.21792475167E+02 -0.27228333539E+02  0.47021933136E+02  0.00000000000E+00 0. -1.
        -14    1    4    4    0    0  0.41403857128E+02 -0.43017681694E+02  0.13917195590E+01  0.59722166795E+02  0.00000000000E+00 0.  1.
        -13    1    3    3    0    0 -0.34079391325E+02  0.30181418326E+02 -0.51368061919E+02  0.68636730040E+02  0.00000000000E+00 0. -1.
         13    1    3    3    0    0  0.45399336091E+02  0.54800976310E+02 -0.20079213564E+03  0.21302987691E+03  0.00000000000E+00 0.  1.
         21    1    1    2  503  502  0.15334602355E+02  0.16394463347E+02  0.52661206868E+02  0.57246232773E+02  0.00000000000E+00 0. -1.
          4    1    1    2  501    0 -0.36518460136E+02 -0.36566701122E+02  0.26191963899E+02  0.57937384602E+02  0.00000000000E+00 0. -1.
<scales pt_clust_5="13000.00000" pt_clust_6="13000.00000" pt_clust_7="13000.00000" pt_clust_8="13000.00000" pt_clust_9="22.44835" pt_clust_10="41.97774"></scales>
<clustering>
<clus scale="   22.448">  1  9  2 -1</clus>
<clus scale="   41.978">  1 10  2 -1</clus>
<clus scale="   80.182">  5  6 -1 -1</clus>
<clus scale="   91.658">  7  8 -1 -1</clus>
<clus scale="  113.119">  1  5  2 -1</clus>
<clus scale="   22.448">  1  5  2 -1</clus>
</clustering>
</event>
<event>
10    3  0.5078224E-005  0.1039322E+03  0.7546771E-02  0.1276531E+00
         21   -1    0    0  501  502  0.00000000000E+00  0.00000000000E+00  0.84623693191E+02  0.84623693191E+02  0.00000000000E+00 0. -1.
          1   -1    0    0  503    0 -0.00000000000E+00 -0.00000000000E+00 -0.46320141893E+03  0.46320141893E+03  0.00000000000E+00 0. -1.
         23    2    1    2    0    0  0.47921476097E+02 -0.14382933821E+02 -0.18883238830E+03  0.21328015872E+03  0.85600342161E+02 0.  0.
        -24    2    1    2    0    0 -0.12716260979E+02  0.45712153991E+02 -0.18781576314E+03  0.21562805107E+03  0.94706869910E+02 0.  0.
         13    1    4    4    0    0  0.36179522027E+02  0.27139124603E+02 -0.46157430871E+02  0.64621964710E+02  0.00000000000E+00 0. -1.
        -14    1    4    4    0    0 -0.48895783006E+02  0.18573029388E+02 -0.14165833227E+03  0.15100608636E+03  0.00000000000E+00 0.  1.
        -11    1    3    3    0    0  0.56791577122E+02  0.21781336574E+02 -0.13193979956E+03  0.14528530746E+03  0.00000000000E+00 0.  1.
         11    1    3    3    0    0 -0.88701010256E+01 -0.36164270395E+02 -0.56892588740E+02  0.67994851268E+02  0.00000000000E+00 0. -1.
         21    1    1    2  503  502  0.13152646660E+02 -0.58044962311E+02  0.14541213840E+02  0.61267092829E+02  0.00000000000E+00 0. -1.
          2    1    1    2  501    0 -0.48357861777E+02  0.26715742140E+02 -0.16470788146E+02  0.57649809504E+02  0.00000000000E+00 0. -1.
<scales pt_clust_5="13000.00000" pt_clust_6="13000.00000" pt_clust_7="13000.00000" pt_clust_8="13000.00000" pt_clust_9="44.97599" pt_clust_10="55.24684"></scales>
<clustering>
<clus scale="   55.247">  1 10  2 -1</clus>
<clus scale="   44.976">  1  9  2 -1</clus>
<clus scale="   85.600">  7  8 -1 -1</clus>
<clus scale="   94.707">  5  6 -1 -1</clus>
<clus scale="   95.707">  2  7  1 -1</clus>
<clus scale="   55.247">  1  5  2 -1</clus>
</clustering>
</event>
<event>
10    3  0.5078224E-005  0.1815584E+03  0.7546771E-02  0.1191307E+00
         21   -1    0    0  503  502  0.00000000000E+00  0.00000000000E+00  0.28134148907E+04  0.28134148907E+04  0.00000000000E+00 0.  1.
         -2   -1    0    0    0  501 -0.00000000000E+00 -0.00000000000E+00 -0.42572133271E+02  0.42572133271E+02  0.00000000000E+00 0.  1.
        -24    2    1    2    0    0  0.44598972534E+02 -0.46703803629E+02  0.11365114289E+03  0.15362802923E+03  0.80713539521E+02 0.  0.
         23    2    1    2    0    0  0.77621473673E+01  0.67515017453E+02  0.44345488600E+03  0.45794578202E+03  0.91888926629E+02 0.  0.
         11    1    3    3    0    0 -0.14965218010E+02 -0.33277721534E+02  0.19392482728E+02  0.41321094939E+02  0.00000000000E+00 0. -1.
        -12    1    3    3    0    0  0.59564190544E+02 -0.13426082095E+02  0.94258660161E+02  0.11230693430E+03  0.00000000000E+00 0.  1.
        -13    1    4    4    0    0  0.49496780006E+02  0.38810841989E+02  0.27116564043E+03  0.27836489944E+03  0.00000000000E+00 0.  1.
         13    1    4    4    0    0 -0.41734632639E+02  0.28704175465E+02  0.17228924557E+03  0.17958088258E+03  0.00000000000E+00 0. -1.
         21    1    1    2  503  501  0.12790997444E+03  0.79470128815E+02  0.65510840014E+03  0.67219303691E+03  0.00000000000E+00 0.  1.
         -1    1    1    2    0  502 -0.18027109434E+03 -0.10028134264E+03  0.15586283284E+04  0.15722201758E+04  0.00000000000E+00 0.  1.
<scales pt_clust_5="13000.00000" pt_clust_6="13000.00000" pt_clust_7="13000.00000" pt_clust_8="13000.00000" pt_clust_9="181.55839" pt_clust_10="13000.00000"></scales>
<clustering>
<clus scale="   80.714">  5  6 -1 -1</clus>
<clus scale="   91.889">  7  8 -1 -1</clus>
<clus scale="  103.368">  2  5  1 -1</clus>
<clus scale="  108.121">  2  7  1 -1</clus>
<clus scale="  181.558">  2  9  1 -1</clus>
<clus scale="  181.558">  1  5  2 -1</clus>
</clustering>
</event>
<event>
10    3  0.5078224E-005  0.1237148E+03  0.7546771E-02  0.1240221E+00
          1   -1    0    0  503    0 -0.00000000000E+00  0.00000000000E+00  0.31092220668E+03  0.31092220668E+03  0.00000000000E+00 0. -1.
         21   -1    0    0  501  502  0.00000000000E+00 -0.00000000000E+00 -0.22781150535E+03  0.22781150535E+03  0.00000000000E+00 0.  1.
         23    2    1    2    0    0 -0.26470960589E+02  0.73485696902E+02  0.21547193257E+03  0.24681340417E+03  0.91585169932E+02 0.  0.
        -24    2    1    2    0    0  0.12693389615E+02 -0.11009552554E+03 -0.18446723595E+02  0.13848968075E+03  0.80975077519E+02 0.  0.
         13    1    4    4    0    0 -0.16904965381E+02 -0.97523245353E+02  0.43469328674E+01  0.99072988569E+02  0.00000000000E+00 0. -1.
        -14    1    4    4    0    0  0.29598354995E+02 -0.12572280185E+02 -0.22793656462E+02  0.39416692180E+02  0.00000000000E+00 0.  1.
        -13    1    3    3    0    0  0.11802034408E+02  0.79476360953E+02  0.12772441820E+03  0.15089501970E+03  0.00000000000E+00 0.  1.
         13    1    3    3    0    0 -0.38272994997E+02 -0.59906640507E+01  0.87747514368E+02  0.95918384471E+02  0.00000000000E+00 0. -1.
         21    1    1    2  503  502  0.37345303119E+02 -0.16958327780E+02 -0.66405747296E+02  0.78051135931E+02  0.00000000000E+00 0.  1.
          2    1    1    2  501    0 -0.23567732145E+02  0.53568156416E+02 -0.47508760353E+02  0.75379491180E+02  0.00000000000E+00 0. -1.
<scales pt_clust_5="13000.00000" pt_clust_6="13000.00000" pt_clust_7="13000.00000" pt_clust_8="13000.00000" pt_clust_9="41.01532" pt_clust_10="47.69330"></scales>
<clustering>
<clus scale="   41.015">  2  9  1 -1</clus>
<clus scale="   47.693">  2 10  1 -1</clus>
<clus scale="   80.975">  5  6 -1 -1</clus>
<clus scale="   91.585">  7  8 -1 -1</clus>
<clus scale="  116.080">  2  5  1 -1</clus>
<clus scale="   41.015">  2  5  1 -1</clus>
</clustering>
</event>
<event>
10    3  0.5078224E-005  0.8655058E+02  0.7546771E-02  0.1313958E+00
          1   -1    0    0  502    0 -0.00000000000E+00  0.00000000000E+00  0.14079484844E+04  0.14079484844E+04  0.00000000000E+00 0. -1.
         21   -1    0    0  503  502  0.00000000000E+00 -0.00000000000E+00 -0.29346371986E+02  0.29346371986E+02  0.00000000000E+00 0.  1.
        -24    2    1    2    0    0  0.88113956860E+01 -0.13302532267E+02  0.87911658530E+03  0.88305314211E+03  0.81745233394E+02 0.  0.
         23    2    1    2    0    0 -0.59272576214E+01 -0.16763001726E+02  0.14533440787E+03  0.16963342994E+03  0.85657923345E+02 0.  0.
         13    1    3    3    0    0 -0.26912418938E+02  0.11635963508E+02  0.16325489146E+03  0.16586691510E+03  0.00000000000E+00 0. -1.
        -14    1    3    3    0    0  0.35723814624E+02 -0.24938495776E+02  0.71586169384E+03  0.71718622701E+03  0.00000000000E+00 0.  1.
        -13    1    4    4    0    0 -0.10220330564E+02 -0.37838507980E+02  0.14267577050E+03  0.14796142515E+03  0.00000000000E+00 0. -1.
         13    1    4    4    0    0  0.42930729427E+01  0.21075506254E+02  0.26586373714E+01  0.21672004795E+02  0.00000000000E+00 0.  1.
         21    1    1    2  503  501  0.32270727241E+02  0.26768424825E+01  0.51681311372E+01  0.32791384567E+02  0.00000000000E+00 0.  1.
          2    1    1    2  501    0 -0.35154865306E+02  0.27388691511E+02  0.34898298815E+03  0.35181689981E+03  0.00000000000E+00 0. -1.
<scales pt_clust_5="13000.00000" pt_clust_6="13000.00000" pt_clust_7="13000.00000" pt_clust_8="13000.00000" pt_clust_9="32.38156" pt_clust_10="42.43995"></scales>
<clustering>
<clus scale="   32.382">  2  9  1 -1</clus>
<clus scale="   42.440">  2 10  1 -1</clus>
<clus scale="   81.745">  5  6 -1 -1</clus>
<clus scale="   82.680">  1  5  2 -1</clus>
<clus scale="   85.658">  7  8 -1 -1</clus>
<clus scale="   32.382">  2  5  1 -1</clus>
</clustering>
</event>
<event>
10    3  0.5078224E-005  0.1466028E+03  0.7546771E-02  0.1206046E+00
         21   -1    0    0  501  502  0.00000000000E+00  0.00000000000E+00  0.23432130399E+03  0.23432130399E+03  0.00000000000E+00 0. -1.
          1   -1    0    0  503    0 -0.00000000000E+00 -0.00000000000E+00 -0.38292494742E+03  0.38292494742E+03  0.00000000000E+00 0. -1.
        -24    2    1    2    0    0  0.13405536032E+03 -0.23050675147E+02 -0.24886284568E+01  0.15833517348E+03  0.81004077898E+02 0.  0.
         23    2    1    2    0    0 -0.88314096077E+02 -0.83750915712E+02  0.62479707940E+02  0.16272380474E+03  0.88100665580E+02 0.  0.
         11    1    3    3    0    0  0.12103055843E+03 -0.42369727615E+02  0.15132817625E+02  0.12912239179E+03  0.00000000000E+00 0. -1.
        -12    1    3    3    0    0  0.13024801891E+02  0.19319052467E+02 -0.17621446082E+02  0.29212781698E+02  0.00000000000E+00 0.  1.
        -11    1    4    4    0    0  0.56142409381E+01 -0.24594859654E+02 -0.13105963355E+02  0.28428737189E+02  0.00000000000E+00 0.  1.
         11    1    4    4    0    0 -0.93928337015E+02 -0.59156056058E+02  0.75585671295E+02  0.13429506755E+03  0.00000000000E+00 0. -1.
         21    1    1    2  503  502 -0.20784544101E+02 -0.22886324839E+02  0.16624489870E+02  0.35102062640E+02  0.00000000000E+00 0.  1.
          2    1    1    2  501    0 -0.24956720139E+02  0.12968791570E+03 -0.22521921278E+03  0.26108521054E+03  0.00000000000E+00 0. -1.
<scales pt_clust_5="13000.00000" pt_clust_6="13000.00000" pt_clust_7="13000.00000" pt_clust_8="13000.00000" pt_clust_9="30.91571" pt_clust_10="130.48931"></scales>
<clustering>
<clus scale="   30.916">  1  9  2 -1</clus>
<clus scale="   81.004">  5  6 -1 -1</clus>
<clus scale="   88.101">  7  8 -1 -1</clus>
<clus scale="  130.489">  1 10  2 -1</clus>
<clus scale="  142.451">  2  5  1 -1</clus>
<clus scale="   30.916">  1  5  2 -1</clus>
</clustering>
</event>
<event>
10    3  0.5078224E-005  0.9333562E+02  0.7546771E-02  0.1302570E+00
         -2   -1    0    0    0  501 -0.00000000000E+00  0.00000000000E+00  0.60699741188E+02  0.60699741188E+02  0.00000000000E+00 0.  1.
         21   -1    0    0  501  502  0.00000000000E+00 -0.00000000000E+00 -0.37963499749E+03  0.37963499749E+03  0.00000000000E+00 0.  1.
        -24    2    1    2    0    0 -0.39933046950E+00  0.14350576845E+01 -0.18957554317E+02  0.82543980978E+02  0.80323726722E+02 0.  0.
         23    2    1    2    0    0 -0.20733970399E+01 -0.34084538530E+02 -0.97189178153E+02  0.13855101352E+03  0.92653074723E+02 0.  0.
         11    1    3    3    0    0  0.34864487878E+02  0.18716211791E+02 -0.17442290030E+02  0.43244220195E+02  0.00000000000E+00 0. -1.
        -12    1    3    3    0    0 -0.35263818347E+02 -0.17281154107E+02 -0.15152642871E+01  0.39299760782E+02  0.00000000000E+00 0.  1.
        -13    1    4    4    0    0  0.43332618240E+02 -0.30861018552E+02 -0.50781072203E+02  0.73544786108E+02  0.00000000000E+00 0.  1.
         13    1    4    4    0    0 -0.45406015280E+02 -0.32235199781E+01 -0.46408105950E+02  0.65006227413E+02  0.00000000000E+00 0. -1.
         21    1    1    2  503  502 -0.20599271953E+02  0.74287040017E+01 -0.17152397620E+03  0.17291613592E+03  0.00000000000E+00 0.  1.
         -1    1    1    2    0  503  0.23071999462E+02  0.25220776844E+02 -0.31264547626E+02  0.46323608258E+02  0.00000000000E+00 0.  1.
<scales pt_clust_5="13000.00000" pt_clust_6="13000.00000" pt_clust_7="13000.00000" pt_clust_8="13000.00000" pt_clust_9="21.89785" pt_clust_10="32.82500"></scales>
<clustering>
<clus scale="   21.898">  2  9  1 -1</clus>
<clus scale="   32.825">  2 10  1 -1</clus>
<clus scale="   80.324">  5  6 -1 -1</clus>
<clus scale="   81.110">  1  5  2 -1</clus>
<clus scale="   92.653">  7  8 -1 -1</clus>
<clus scale="   21.898">  2  5  1 -1</clus>
</clustering>
</event>
<event>
10    3  0.5078224E-005  0.1839492E+03  0.7546771E-02  0.1165477E+00
         21   -1    0    0  503  502  0.00000000000E+00  0.00000000000E+00  0.45544262650E+03  0.45544262650E+03  0.00000000000E+00 0. -1.
         -4   -1    0    0    0  501 -0.00000000000E+00 -0.00000000000E+00 -0.15415855866E+03  0.15415855866E+03  0.00000000000E+00 0.  1.
         23    2    1    2    0    0  0.16083832851E+03  0.12348380383E+02  0.84562599191E+02  0.20377579954E+03  0.91390879640E+02 0.  0.
        -24    2    1    2    0    0 -0.15428046767E+03  0.71658616651E+02  0.17478694883E+03  0.25624264645E+03  0.78564599748E+02 0.  0.
         13    1    4    4    0    0 -0.41343397777E+02  0.61006481636E+02  0.75243308374E+02  0.10532152105E+03  0.00000000000E+00 0. -1.
        -14    1    4    4    0    0 -0.11293706990E+03  0.10652135014E+02  0.99543640452E+02  0.15092112540E+03  0.00000000000E+00 0.  1.
        -11    1    3    3    0    0  0.67836222768E+02  0.11561901118E+02 -0.11836562172E+02  0.69825030476E+02  0.00000000000E+00 0.  1.
         11    1    3    3    0    0  0.93002105744E+02  0.78647926535E+00  0.96399161363E+02  0.13395076907E+03  0.00000000000E+00 0. -1.
         21    1    1    2  503  501 -0.62487323946E+01  0.23997388161E+02  0.32902830183E+02  0.41200940877E+02  0.00000000000E+00 0.  1.
         -3    1    1    2    0  502 -0.30912844416E+00 -0.10800438520E+03  0.90316896429E+01  0.10838179829E+03  0.00000000000E+00 0.  1.
<scales pt_clust_5="13000.00000" pt_clust_6="13000.00000" pt_clust_7="13000.00000" pt_clust_8="13000.00000" pt_clust_9="24.79761" pt_clust_10="104.64395"></scales>
<clustering>
<clus scale="   24.798">  1  9  2 -1</clus>
<clus scale="   78.565">  5  6 -1 -1</clus>
<clus scale="   91.391">  7  8 -1 -1</clus>
<clus scale="  104.644">  1 10  2 -1</clus>
<clus scale="  177.925">  1  5  2 -1</clus>
<clus scale="   24.798">  1  5  2 -1</clus>
</clustering>
</event>
<event>
10    3  0.5078224E-005  0.1326590E+03  0.7546771E-02  0.1231330E+00
         -2   -1    0    0    0  501 -0.00000000000E+00  0.00000000000E+00  0.12544265547E+04  0.12544265547E+04  0.00000000000E+00 0.  1.
         21   -1    0    0  503  502  0.00000000000E+00 -0.00000000000E+00 -0.29746485061E+02  0.29746485061E+02  0.00000000000E+00 0.  1.
        -24    2    1    2    0    0  0.87804363119E+02  0.29467565604E+02  0.65812663720E+03  0.66719547146E+03  0.58661596783E+02 0.  0.
         23    2    1    2    0    0 -0.92316413383E+02 -0.51880805688E+02  0.49895192213E+03  0.51812639070E+03  0.91038442255E+02 0.  0.
         11    1    3    3    0    0  0.49073931016E+02  0.24171781746E+02  0.19820384045E+03  0.20561441610E+03  0.00000000000E+00 0. -1.
        -12    1    3    3    0    0  0.38730432104E+02  0.52957838583E+01  0.45992279675E+03  0.46158105536E+03  0.00000000000E+00 0.  1.
        -11    1    4    4    0    0 -0.49781289870E+01 -0.51834080543E+02  0.17194092335E+03  0.17965309571E+03  0.00000000000E+00 0.  1.
         11    1    4    4    0    0 -0.87338284396E+02 -0.46725144649E-01  0.32701099877E+03  0.33847329499E+03  0.00000000000E+00 0. -1.
         21    1    1    2  503  501  0.31261962941E+02  0.13221966882E+02  0.11180095731E+02  0.35736889564E+02  0.00000000000E+00 0.  1.
         -1    1    1    2    0  502 -0.26749912677E+02  0.91912732017E+01  0.56421414580E+02  0.63114288037E+02  0.00000000000E+00 0.  1.
<scales pt_clust_5="13000.00000" pt_clust_6="13000.00000" pt_clust_7="13000.00000" pt_clust_8="13000.00000" pt_clust_9="25.69747" pt_clust_10="28.28493"></scales>
<clustering>
<clus scale="   28.285">  2 10  1 -1</clus>
<clus scale="   25.697">  2  9  1 -1</clus>
<clus scale="   58.662">  5  6 -1 -1</clus>
<clus scale="   91.038">  7  8 -1 -1</clus>
<clus scale="  112.923">  1  5  2 -1</clus>
<clus scale="   28.285">  2  5  1 -1</clus>
</clustering>
</event>
<event>
10    3  0.5078224E-005  0.1534924E+03  0.7546771E-02  0.1213024E+00
         21   -1    0    0  501  502  0.00000000000E+00  0.00000000000E+00  0.58676726981E+03  0.58676726981E+03  0.00000000000E+00 0.  1.
          3   -1    0    0  503    0 -0.00000000000E+00 -0.00000000000E+00 -0.94678713725E+02  0.94678713725E+02  0.00000000000E+00 0. -1.
        -24    2    1    2    0    0 -0.58560567751E+02  0.25768163648E+02  0.18631480379E+03  0.21433644915E+03  0.84460458011E+02 0.  0.
         23    2    1    2    0    0  0.12320976946E+03  0.87678722124E+02  0.15337651730E+03  0.23442353245E+03  0.92530162130E+02 0.  0.
         13    1    3    3    0    0 -0.53829892460E+02  0.28921222382E+02  0.52967780154E+02  0.80868288969E+02  0.00000000000E+00 0. -1.
        -14    1    3    3    0    0 -0.47306752914E+01 -0.31530587342E+01  0.13334702364E+03  0.13346816018E+03  0.00000000000E+00 0.  1.
        -13    1    4    4    0    0  0.13324256429E+02  0.60645726378E+02  0.71791952650E+02  0.94918514541E+02  0.00000000000E+00 0.  1.
         13    1    4    4    0    0  0.10988551303E+03  0.27032995745E+02  0.81584564653E+02  0.13950501791E+03  0.00000000000E+00 0. -1.
         21    1    1    2  503  502 -0.11945930646E+02 -0.23914973991E+02  0.12134165544E+03  0.12425147317E+03  0.00000000000E+00 0.  1.
          4    1    1    2  501    0 -0.52703271061E+02 -0.89531911780E+02  0.31055579547E+02  0.10843452877E+03  0.00000000000E+00 0. -1.
<scales pt_clust_5="13000.00000" pt_clust_6="13000.00000" pt_clust_7="13000.00000" pt_clust_8="13000.00000" pt_clust_9="26.73259" pt_clust_10="122.46672"></scales>
<clustering>
<clus scale="   26.733">  1  9  2 -1</clus>
<clus scale="   84.460">  5  6 -1 -1</clus>
<clus scale="   92.530">  7  8 -1 -1</clus>
<clus scale="  106.921">  2  5  1 -1</clus>
<clus scale="  122.467">  1 10  2 -1</clus>
<clus scale="   26.733">  1  5  2 -1</clus>
</clustering>
</event>
<event>
10    3  0.5078224E-005  0.1361789E+03  0.7546771E-02  0.1221867E+00
          3   -1    0    0  503    0 -0.00000000000E+00  0.00000000000E+00  0.21854787413E+03  0.21854787413E+03  0.00000000000E+00 0. -1.
         21   -1    0    0  501  502  0.00000000000E+00 -0.00000000000E+00 -0.14998037738E+03  0.14998037738E+03  0.00000000000E+00 0. -1.
        -24    2    1    2    0    0  0.88747257805E+02 -0.68371582226E+02  0.41958984426E+02  0.14221185291E+03  0.76895420599E+02 0.  0.
         23    2    1    2    0    0 -0.10346445790E+03  0.75465398460E+01  0.18503508983E+02  0.13934661671E+03  0.91177055398E+02 0.  0.
         13    1    3    3    0    0  0.95884223501E+02 -0.77421157887E+02  0.32906392454E+02  0.12755646071E+03  0.00000000000E+00 0. -1.
        -14    1    3    3    0    0 -0.71369656958E+01  0.90495756611E+01  0.90525919720E+01  0.14655392195E+02  0.00000000000E+00 0.  1.
        -13    1    4    4    0    0 -0.11972356025E+02  0.38531708866E+02 -0.27399073723E+01  0.40441772826E+02  0.00000000000E+00 0.  1.
         13    1    4    4    0    0 -0.91492101878E+02 -0.30985169020E+02  0.21243416355E+02  0.98904843883E+02  0.00000000000E+00 0. -1.
         21    1    1    2  503  502 -0.22403781283E+02  0.17150599298E+02  0.90894280665E+01  0.29642708625E+02  0.00000000000E+00 0. -1.
          4    1    1    2  501    0  0.37120981380E+02  0.43674443082E+02 -0.98442472553E+00  0.57327073265E+02  0.00000000000E+00 0. -1.
<scales pt_clust_5="13000.00000" pt_clust_6="13000.00000" pt_clust_7="13000.00000" pt_clust_8="13000.00000" pt_clust_9="28.21476" pt_clust_10="57.25366"></scales>
<clustering>
<clus scale="   28.215">  1  9  2 -1</clus>
<clus scale="   57.254">  2 10  1 -1</clus>
<clus scale="   76.895">  5  6 -1 -1</clus>
<clus scale="   91.177">  7  8 -1 -1</clus>
<clus scale="  127.060">  1  5  2 -1</clus>
<clus scale="   57.254">  2  5  1 -1</clus>
</clustering>
</event>
<event>
10    3  0.5078224E-005  0.2125994E+03  0.7546771E-02  0.1139868E+00
          1   -1    0    0  502    0 -0.00000000000E+00  0.00000000000E+00  0.12826778713E+04  0.12826778713E+04  0.00000000000E+00 0. -1.
         21   -1    0    0  503  502  0.00000000000E+00 -0.00000000000E+00 -0.10731283024E+03  0.10731283024E+03  0.00000000000E+00 0. -1.
        -24    2    1    2    0    0 -0.20649048006E+02 -0.19582016415E+03  0.30594855587E+03  0.37232226859E+03  0.79040704581E+02 0.  0.
         23    2    1    2    0    0  0.16548089362E+03  0.15413159701E+03  0.23074217116E+03  0.33372864904E+03  0.83620489618E+02 0.  0.
         13    1    3    3    0    0  0.27610429023E+01 -0.18529128536E+03  0.25441651039E+03  0.31475108347E+03  0.00000000000E+00 0. -1.
        -14    1    3    3    0    0 -0.23410090908E+02 -0.10528878791E+02  0.51532045480E+02  0.57571185121E+02  0.00000000000E+00 0.  1.
        -11    1    4    4    0    0 -0.63793494595E+01  0.25730262618E+02  0.22930854748E+02  0.35050914587E+02  0.00000000000E+00 0.  1.
         11    1    4    4    0    0  0.17186024308E+03  0.12840133440E+03  0.20781131641E+03  0.29867773445E+03  0.00000000000E+00 0. -1.
         21    1    1    2  503  501  0.29208515086E+01  0.58490090568E+02  0.50725372274E+02  0.77476999558E+02  0.00000000000E+00 0.  1.
          2    1    1    2  501    0 -0.14775269713E+03 -0.16801523428E+02  0.58794894174E+03  0.60646278434E+03  0.00000000000E+00 0. -1.
<scales pt_clust_5="13000.00000" pt_clust_6="13000.00000" pt_clust_7="13000.00000" pt_clust_8="13000.00000" pt_clust_9="58.56298" pt_clust_10="147.87744"></scales>
<clustering>
<clus scale="   58.563">  2  9  1 -1</clus>
<clus scale="   79.041">  5  6 -1 -1</clus>
<clus scale="   83.620">  7  8 -1 -1</clus>
<clus scale="  147.877">  2 10  1 -1</clus>
<clus scale="  210.840">  1  5  2 -1</clus>
<clus scale="   58.563">  2  5  1 -1</clus>
</clustering>
</event>
<event>
10    3  0.5078224E-005  0.1095600E+03  0.7546771E-02  0.1279038E+00
         21   -1    0    0  503  502  0.00000000000E+00  0.00000000000E+00  0.25682180833E+03  0.25682180833E+03  0.00000000000E+00 0. -1.
         -2   -1    0    0    0  501 -0.00000000000E+00 -0.00000000000E+00 -0.15926154358E+03  0.15926154358E+03  0.00000000000E+00 0.  1.
        -24    2    1    2    0    0  0.29694029541E+02 -0.39106641992E+02 -0.63071872268E+02  0.10301273663E+03  0.64980750982E+02 0.  0.
         23    2    1    2    0    0  0.21879283711E+02  0.43309778540E+02 -0.15065937361E+02  0.11287781221E+03  0.10079671645E+03 0.  0.
         11    1    3    3    0    0 -0.14177033845E+01 -0.47683919277E+02 -0.46966337245E+02  0.66944774812E+02  0.00000000000E+00 0. -1.
        -12    1    3    3    0    0  0.31111732926E+02  0.85772772845E+01 -0.16105535023E+02  0.36067961817E+02  0.00000000000E+00 0.  1.
        -11    1    4    4    0    0  0.19533265458E+02  0.12784824468E+02  0.42037721472E+02  0.48085031171E+02  0.00000000000E+00 0. -1.
         11    1    4    4    0    0  0.23460182531E+01  0.30524954072E+02 -0.57103658833E+02  0.64792781040E+02  0.00000000000E+00 0.  1.
         21    1    1    2  503  501 -0.22730902047E+01  0.21708945155E+02  0.11798989287E+03  0.11999191664E+03  0.00000000000E+00 0. -1.
         -1    1    1    2    0  502 -0.49300223047E+02 -0.25912081702E+02  0.57708181511E+02  0.80200886429E+02  0.00000000000E+00 0.  1.
<scales pt_clust_5="13000.00000" pt_clust_6="13000.00000" pt_clust_7="13000.00000" pt_clust_8="13000.00000" pt_clust_9="21.82763" pt_clust_10="52.63534"></scales>
<clustering>
<clus scale="   21.828">  1  9  2 -1</clus>
<clus scale="   52.635">  1 10  2 -1</clus>
<clus scale="   64.981">  5  6 -1 -1</clus>
<clus scale="   77.884">  2  5  1 -1</clus>
<clus scale="  100.797">  7  8 -1 -1</clus>
<clus scale="   21.828">  1  5  2 -1</clus>
</clustering>
</event>
<event>
10    3  0.5078224E-005  0.1387054E+03  0.7546771E-02  0.1240698E+00
         21   -1    0    0  503  502  0.00000000000E+00  0.00000000000E+00  0.36934957421E+03  0.36934957421E+03  0.00000000000E+00 0. -1.
         -2   -1    0    0    0  501 -0.00000000000E+00 -0.00000000000E+00 -0.16412259963E+03  0.16412259963E+03  0.00000000000E+00 0.  1.
        -24    2    1    2    0    0  0.49305224431E+01  0.25850481184E+01  0.14283530255E+03  0.16403554020E+03  0.80465783225E+02 0.  0.
         23    2    1    2    0    0 -0.40922417267E+02 -0.92043245880E+02 -0.82221191746E+02  0.15830760974E+03  0.90301559129E+02 0.  0.
         11    1    3    3    0    0 -0.21522910143E+02 -0.27514003062E+02  0.97292314401E+02  0.10337335472E+03  0.00000000000E+00 0. -1.
        -12    1    3    3    0    0  0.26453432586E+02  0.30099051181E+02  0.45542988149E+02  0.60662185479E+02  0.00000000000E+00 0.  1.
        -13    1    4    4    0    0 -0.63948406781E+02 -0.38212540565E+02 -0.31641973609E+02  0.80937083467E+02  0.00000000000E+00 0.  1.
         13    1    4    4    0    0  0.23025989514E+02 -0.53830705315E+02 -0.50579218137E+02  0.77370526269E+02  0.00000000000E+00 0. -1.
         21    1    1    2  503  501  0.11434007448E+02 -0.19316521986E+02  0.78155861596E+02  0.81315455172E+02  0.00000000000E+00 0. -1.
         -1    1    1    2    0  502  0.24557887376E+02  0.10877471975E+03  0.66457002183E+02  0.12981356873E+03  0.00000000000E+00 0.  1.
<scales pt_clust_5="13000.00000" pt_clust_6="13000.00000" pt_clust_7="13000.00000" pt_clust_8="13000.00000" pt_clust_9="22.44693" pt_clust_10="105.28440"></scales>
<clustering>
<clus scale="   22.447">  1  9  2 -1</clus>
<clus scale="   80.466">  5  6 -1 -1</clus>
<clus scale="   81.572">  2  5  1 -1</clus>
<clus scale="   90.302">  7  8 -1 -1</clus>
<clus scale="  105.284">  1 10  2 -1</clus>
<clus scale="   22.447">  1  5  2 -1</clus>
</clustering>
</event>
<event>
10    3  0.5078224E-005  0.1189086E+03  0.7546771E-02  0.1248231E+00
          1   -1    0    0  503    0 -0.00000000000E+00  0.00000000000E+00  0.10957992652E+04  0.10957992652E+04  0.00000000000E+00 0. -1.
         21   -1    0    0  501  502  0.00000000000E+00 -0.00000000000E+00 -0.64916132851E+02  0.64916132851E+02  0.00000000000E+00 0.  1.
        -24    2    1    2    0    0  0.83017757642E+02 -0.37389504210E+02  0.41256484510E+03  0.43001991181E+03  0.80108988445E+02 0.  0.
         23    2    1    2    0    0 -0.49189294741E+02  0.10989175676E+02  0.13728765404E+03  0.17196706659E+03  0.90467802781E+02 0.  0.
         13    1    3    3    0    0  0.78024380894E+02 -0.77232288692E+01  0.19167936456E+03  0.20709522225E+03  0.00000000000E+00 0. -1.
        -14    1    3    3    0    0  0.49933767484E+01 -0.29666275341E+02  0.22088548054E+03  0.22292468956E+03  0.00000000000E+00 0.  1.
        -13    1    4    4    0    0  0.10740458740E+02  0.27058020444E+02  0.10744804372E+02  0.31031351007E+02  0.00000000000E+00 0.  1.
         13    1    4    4    0    0 -0.59929753481E+02 -0.16068844768E+02  0.12654284967E+03  0.14093571558E+03  0.00000000000E+00 0. -1.
         21    1    1    2  503  502  0.59177810346E+02 -0.12568786407E+02 -0.65295931532E+01  0.60849184184E+02  0.00000000000E+00 0.  1.
          2    1    1    2  501    0 -0.93006273247E+02  0.38969114941E+02  0.48756022638E+03  0.49787923549E+03  0.00000000000E+00 0. -1.
<scales pt_clust_5="13000.00000" pt_clust_6="13000.00000" pt_clust_7="13000.00000" pt_clust_8="13000.00000" pt_clust_9="60.49783" pt_clust_10="91.03868"></scales>
<clustering>
<clus scale="   60.498">  2  9  1 -1</clus>
<clus scale="   80.109">  5  6 -1 -1</clus>
<clus scale="   90.468">  7  8 -1 -1</clus>
<clus scale="   91.039">  2 10  1 -1</clus>
<clus scale="  111.231">  1  5  2 -1</clus>
<clus scale="   60.498">  2  5  1 -1</clus>
</clustering>
</event>
<event>
10    3  0.5078224E-005  0.1835023E+03  0.7546771E-02  0.1180640E+00
          1   -1    0    0  502    0 -0.00000000000E+00  0.00000000000E+00  0.19222096717E+04  0.19222096717E+04  0.00000000000E+00 0. -1.
         21   -1    0    0  503  502  0.00000000000E+00 -0.00000000000E+00 -0.38142982914E+03  0.38142982914E+03  0.00000000000E+00 0. -1.
        -24    2    1    2    0    0  0.66503227726E+02  0.88163773556E+02  0.17391112812E+03  0.22020007491E+03  0.77765430878E+02 0.  0.
         23    2    1    2    0    0  0.10137049520E+03 -0.81557546444E+02  0.14103469709E+03  0.21201633057E+03  0.90180529862E+02 0.  0.
         11    1    3    3    0    0 -0.20309028393E+01  0.33567705159E+02  0.11287280228E+02  0.35472779577E+02  0.00000000000E+00 0. -1.
        -12    1    3    3    0    0  0.68534130565E+02  0.54596068397E+02  0.16262384790E+03  0.18472729533E+03  0.00000000000E+00 0.  1.
        -11    1    4    4    0    0  0.53929101923E+02  0.38306087570E+01  0.80916928314E+02  0.97316858177E+02  0.00000000000E+00 0. -1.
         11    1    4    4    0    0  0.47441393273E+02 -0.85388155201E+02  0.60117768777E+02  0.11469947239E+03  0.00000000000E+00 0.  1.
         21    1    1    2  503  501  0.19779157803E+02 -0.55820076551E+02 -0.31393962514E+03  0.31947642207E+03  0.00000000000E+00 0. -1.
          2    1    1    2  501    0 -0.18765288072E+03  0.49213849438E+02  0.15397736425E+04  0.15519466733E+04  0.00000000000E+00 0. -1.
<scales pt_clust_5="13000.00000" pt_clust_6="13000.00000" pt_clust_7="13000.00000" pt_clust_8="13000.00000" pt_clust_9="59.22074" pt_clust_10="159.81421"></scales>
<clustering>
<clus scale="   59.221">  2  9  1 -1</clus>
<clus scale="   77.765">  5  6 -1 -1</clus>
<clus scale="   90.181">  7  8 -1 -1</clus>
<clus scale="  126.935">  1  5  2 -1</clus>
<clus scale="  159.814">  2 10  1 -1</clus>
<clus scale="   59.221">  2  5  1 -1</clus>
</clustering>
</event>
<event>
10    3  0.5078224E-005  0.9929608E+02  0.7546771E-02  0.1286313E+00
          1   -1    0    0  502    0 -0.00000000000E+00  0.00000000000E+00  0.12510598667E+04  0.12510598667E+04  0.00000000000E+00 0. -1.
         21   -1    0    0  503  502  0.00000000000E+00 -0.00000000000E+00 -0.81664451141E+02  0.81664451141E+02  0.00000000000E+00 0.  1.
         23    2    1    2    0    0  0.85742230719E+01  0.31255524495E+02  0.45834559314E+03  0.46828401441E+03  0.90326132902E+02 0.  0.
        -24    2    1    2    0    0  0.74353787351E+02 -0.51055139794E+02  0.32552510302E+03  0.34743110170E+03  0.81281392324E+02 0.  0.
         11    1    4    4    0    0  0.31871813517E+02 -0.18791214764E+02  0.31458006056E+02  0.48564682581E+02  0.00000000000E+00 0. -1.
        -12    1    4    4    0    0  0.42481973834E+02 -0.32263925031E+02  0.29406709697E+03  0.29886641912E+03  0.00000000000E+00 0.  1.
        -11    1    3    3    0    0  0.88386208014E+01 -0.31265526908E+02  0.12691681268E+03  0.13100966274E+03  0.00000000000E+00 0. -1.
         11    1    3    3    0    0 -0.26439772944E+00  0.62521051402E+02  0.33142878046E+03  0.33727435167E+03  0.00000000000E+00 0.  1.
         21    1    1    2  503  501  0.22253771555E+02  0.30195154667E+02 -0.53556677911E+02  0.65385743573E+02  0.00000000000E+00 0.  1.
          2    1    1    2  501    0 -0.10518178198E+03 -0.10395539367E+02  0.43908139728E+03  0.45162345814E+03  0.00000000000E+00 0. -1.
<scales pt_clust_5="13000.00000" pt_clust_6="13000.00000" pt_clust_7="13000.00000" pt_clust_8="13000.00000" pt_clust_9="37.50970" pt_clust_10="98.91125"></scales>
<clustering>
<clus scale="   37.510">  2  9  1 -1</clus>
<clus scale="   81.281">  5  6 -1 -1</clus>
<clus scale="   90.326">  7  8 -1 -1</clus>
<clus scale="   98.911">  2 10  1 -1</clus>
<clus scale="   91.146">  2  5  1 -1</clus>
<clus scale="   37.510">  2  5  1 -1</clus>
</clustering>
</event>
<event>
10    3  0.5078224E-005  0.2318121E+03  0.7546771E-02  0.1133859E+00
         21   -1    0    0  503  502  0.00000000000E+00  0.00000000000E+00  0.50545384350E+03  0.50545384350E+03  0.00000000000E+00 0. -1.
          1   -1    0    0  502    0 -0.00000000000E+00 -0.00000000000E+00 -0.13041023150E+04  0.13041023150E+04  0.00000000000E+00 0. -1.
         23    2    1    2    0    0 -0.15263459532E+03 -0.52546861890E+02 -0.30834619531E+03  0.36061059077E+03  0.94361695806E+02 0.  0.
        -24    2    1    2    0    0 -0.49410042531E+01  0.20409037657E+03 -0.91788384640E+03  0.94374543062E+03  0.80420065902E+02 0.  0.
         13    1    4    4    0    0  0.15765663966E+02  0.29330746934E+02 -0.66587061486E+02  0.74449215129E+02  0.00000000000E+00 0. -1.
        -14    1    4    4    0    0 -0.20706668219E+02  0.17475962963E+03 -0.85129678491E+03  0.86929621549E+03  0.00000000000E+00 0.  1.
        -13    1    3    3    0    0 -0.60947507565E+02 -0.67581777684E+02 -0.18514492249E+03  0.20630205447E+03  0.00000000000E+00 0. -1.
         13    1    3    3    0    0 -0.91687087751E+02  0.15034915794E+02 -0.12320127282E+03  0.15430853630E+03  0.00000000000E+00 0.  1.
         21    1    1    2  503  501 -0.21811475415E+02 -0.13459077641E+01  0.10174954796E+03  0.10406979599E+03  0.00000000000E+00 0.  1.
          2    1    1    2  501    0  0.17938707498E+03 -0.15019760691E+03  0.32583202228E+03  0.40113034109E+03  0.00000000000E+00 0. -1.
<scales pt_clust_5="13000.00000" pt_clust_6="13000.00000" pt_clust_7="13000.00000" pt_clust_8="13000.00000" pt_clust_9="21.85296" pt_clust_10="217.41537"></scales>
<clustering>
<clus scale="   21.853">  1  9  2 -1</clus>
<clus scale="   80.420">  5  6 -1 -1</clus>
<clus scale="   94.362">  7  8 -1 -1</clus>
<clus scale="  188.165">  2  7  1 -1</clus>
<clus scale="  217.415">  1 10  2 -1</clus>
<clus scale="   21.853">  1  5  2 -1</clus>
</clustering>
</event>
<event>
10    3  0.5078224E-005  0.2121563E+03  0.7546771E-02  0.1140680E+00
         21   -1    0    0  501  502  0.00000000000E+00  0.00000000000E+00  0.17266639217E+03  0.17266639217E+03  0.00000000000E+00 0. -1.
          1   -1    0    0  503    0 -0.00000000000E+00 -0.00000000000E+00 -0.81092579601E+03  0.81092579601E+03  0.00000000000E+00 0. -1.
        -24    2    1    2    0    0 -0.14297888209E+03  0.29210047194E+02 -0.72986891307E+02  0.18212433614E+03  0.80907353991E+02 0.  0.
         23    2    1    2    0    0  0.21093939989E+03 -0.17697294375E+03 -0.17452257054E+03  0.33844302328E+03  0.90943384227E+02 0.  0.
         13    1    3    3    0    0 -0.20287946219E+02  0.25912699428E+02 -0.45827382310E+02  0.56420011723E+02  0.00000000000E+00 0. -1.
        -14    1    3    3    0    0 -0.12269093587E+03  0.32973477656E+01 -0.27159508996E+02  0.12570432441E+03  0.00000000000E+00 0.  1.
        -11    1    4    4    0    0  0.16591917697E+03 -0.16038193545E+03 -0.17634383292E+03  0.29042845231E+03  0.00000000000E+00 0. -1.
         11    1    4    4    0    0  0.45020222927E+02 -0.16591008302E+02  0.18212623818E+01  0.48014570971E+02  0.00000000000E+00 0.  1.
         21    1    1    2  503  502  0.21221275123E+02  0.15423645846E+02  0.12709649337E+02  0.29150755656E+02  0.00000000000E+00 0.  1.
          2    1    1    2  501    0 -0.89181792925E+02  0.13233925071E+03 -0.40345959134E+03  0.43387407310E+03  0.00000000000E+00 0. -1.
<scales pt_clust_5="13000.00000" pt_clust_6="13000.00000" pt_clust_7="13000.00000" pt_clust_8="13000.00000" pt_clust_9="26.23416" pt_clust_10="159.69907"></scales>
<clustering>
<clus scale="   26.234">  1  9  2 -1</clus>
<clus scale="   80.907">  5  6 -1 -1</clus>
<clus scale="   90.943">  7  8 -1 -1</clus>
<clus scale="  159.699">  1 10  2 -1</clus>
<clus scale="  208.052">  2  5  1 -1</clus>
<clus scale="   26.234">  1  5  2 -1</clus>
</clustering>
</event>
<event>
10    3  0.5078224E-005  0.2288697E+03  0.7546771E-02  0.1128378E+00
          1   -1    0    0  502    0 -0.00000000000E+00  0.00000000000E+00  0.97740714401E+03  0.97740714401E+03  0.00000000000E+00 0. -1.
         21   -1    0    0  503  502  0.00000000000E+00 -0.00000000000E+00 -0.24167302505E+03  0.24167302505E+03  0.00000000000E+00 0. -1.
         23    2    1    2    0    0  0.15870974513E+03  0.15437326829E+03  0.84342586421E+03  0.87686953025E+03  0.92266437557E+02 0.  0.
        -24    2    1    2    0    0 -0.72873472823E+02 -0.13885695592E+03  0.92888545200E+01  0.17554991888E+03  0.78356199204E+02 0.  0.
         11    1    4    4    0    0 -0.12705068369E+02 -0.10592814532E+03  0.41507496507E+01  0.10676806384E+03  0.00000000000E+00 0. -1.
        -12    1    4    4    0    0 -0.60168404453E+02 -0.32928810598E+02  0.51381048693E+01  0.68781855046E+02  0.00000000000E+00 0.  1.
        -13    1    3    3    0    0  0.59715013200E+02  0.74361546801E+01  0.16293461090E+03  0.17369187266E+03  0.00000000000E+00 0.  1.
         13    1    3    3    0    0  0.98994731932E+02  0.14693711361E+03  0.68049125330E+03  0.70317765759E+03  0.00000000000E+00 0. -1.
         21    1    1    2  503  501 -0.40670120770E+02  0.28296225999E+02 -0.78729770616E+02  0.93022104418E+02  0.00000000000E+00 0. -1.
          2    1    1    2  501    0 -0.45166151540E+02 -0.43812538376E+02 -0.38250829157E+02  0.73638615515E+02  0.00000000000E+00 0. -1.
<scales pt_clust_5="13000.00000" pt_clust_6="13000.00000" pt_clust_7="13000.00000" pt_clust_8="13000.00000" pt_clust_9="49.54528" pt_clust_10="68.59245"></scales>
<clustering>
<clus scale="   49.545">  2  9  1 -1</clus>
<clus scale="   68.592">  2 10  1 -1</clus>
<clus scale="   78.356">  5  6 -1 -1</clus>
<clus scale="   92.266">  7  8 -1 -1</clus>
<clus scale="  223.625">  2  5  1 -1</clus>
<clus scale="   49.545">  2  5  1 -1</clus>
</clustering>
</event>
<event>
10    3  0.5078224E-005  0.1365040E+03  0.7546771E-02  0.1232082E+00
         21   -1    0    0  503  502  0.00000000000E+00  0.00000000000E+00  0.52474305418E+02  0.52474305418E+02  0.00000000000E+00 0. -1.
          1   -1    0    0  502    0 -0.00000000000E+00 -0.00000000000E+00 -0.11770998349E+04  0.11770998349E+04  0.00000000000E+00 0. -1.
        -24    2    1    2    0    0  0.32346670517E+02  0.60101043626E+02 -0.46378832558E+03  0.47539215571E+03  0.78991444050E+02 0.  0.
         23    2    1    2    0    0  0.75141006853E+02 -0.89759544865E+02 -0.58129034728E+03  0.59954885335E+03  0.88642049341E+02 0.  0.
         13    1    3    3    0    0  0.53710895176E+02  0.49289660522E+02 -0.41116513999E+03  0.41757766132E+03  0.00000000000E+00 0. -1.
        -14    1    3    3    0    0 -0.21364224660E+02  0.10811383104E+02 -0.52623185588E+02  0.57814494388E+02  0.00000000000E+00 0.  1.
        -11    1    4    4    0    0  0.54759696778E+02 -0.19688679092E+01 -0.17479757493E+03  0.18318486028E+03  0.00000000000E+00 0.  1.
         11    1    4    4    0    0  0.20381310075E+02 -0.87790676956E+02 -0.40649277235E+03  0.41636399308E+03  0.00000000000E+00 0. -1.
         21    1    1    2  503  501 -0.22426811558E+02 -0.14129531218E+02  0.49810380872E+01  0.26970655711E+02  0.00000000000E+00 0. -1.
          2    1    1    2  501    0 -0.85060865812E+02  0.43788032457E+02 -0.84527894744E+02  0.12766247557E+03  0.00000000000E+00 0. -1.
<scales pt_clust_5="13000.00000" pt_clust_6="13000.00000" pt_clust_7="13000.00000" pt_clust_8="13000.00000" pt_clust_9="26.50671" pt_clust_10="103.80716"></scales>
<clustering>
<clus scale="   26.507">  1  9  2 -1</clus>
<clus scale="   78.991">  5  6 -1 -1</clus>
<clus scale="   88.642">  7  8 -1 -1</clus>
<clus scale="  102.055">  2  5  1 -1</clus>
<clus scale="  103.807">  1 10  2 -1</clus>
<clus scale="   26.507">  1  5  2 -1</clus>
</clustering>
</event>
<event>
10    3  0.5078224E-005  0.2052866E+03  0.7546771E-02  0.1184295E+00
          1   -1    0    0  503    0 -0.00000000000E+00  0.00000000000E+00  0.48632552924E+03  0.48632552924E+03  0.00000000000E+00 0. -1.
         21   -1    0    0  501  502  0.00000000000E+00 -0.00000000000E+00 -0.15149130205E+03  0.15149130205E+03  0.00000000000E+00 0. -1.
        -24    2    1    2    0    0  0.21925176451E+02  0.54055228200E+01  0.10020696770E+03  0.13077072756E+03  0.80929684116E+02 0.  0.
         23    2    1    2    0    0  0.72744916002E+02  0.17706864820E+03  0.11591978744E+03  0.24076602012E+03  0.88801747415E+02 0.  0.
         13    1    3    3    0    0  0.26137979021E+02 -0.15641923741E+02  0.10452737759E+03  0.10887532499E+03  0.00000000000E+00 0. -1.
        -14    1    3    3    0    0 -0.42128025704E+01  0.21047446561E+02 -0.43204098858E+01  0.21895402573E+02  0.00000000000E+00 0.  1.
        -13    1    4    4    0    0  0.54427841254E+02  0.88534270216E+02  0.14555966821E+02  0.10494085513E+03  0.00000000000E+00 0.  1.
         13    1    4    4    0    0  0.18317074749E+02  0.88534377985E+02  0.10136382062E+03  0.13582516499E+03  0.00000000000E+00 0. -1.
         21    1    1    2  503  502 -0.11513499554E+02 -0.18889932176E+02 -0.24865726824E+02  0.33282045912E+02  0.00000000000E+00 0. -1.
          2    1    1    2  501    0 -0.83156592899E+02 -0.16358423884E+03  0.14357319887E+03  0.23299803770E+03  0.00000000000E+00 0. -1.
<scales pt_clust_5="13000.00000" pt_clust_6="13000.00000" pt_clust_7="13000.00000" pt_clust_8="13000.00000" pt_clust_9="22.12217" pt_clust_10="185.08613"></scales>
<clustering>
<clus scale="   22.122">  2  9  1 -1</clus>
<clus scale="   80.930">  5  6 -1 -1</clus>
<clus scale="   83.538">  1  5  2 -1</clus>
<clus scale="   88.802">  7  8 -1 -1</clus>
<clus scale="  185.086">  2 10  1 -1</clus>
<clus scale="   22.122">  2  5  1 -1</clus>
</clustering>
</event>
<event>
10    3  0.5078224E-005  0.1706829E+03  0.7546771E-02  0.1195384E+00
          1   -1    0    0  502    0 -0.00000000000E+00  0.00000000000E+00  0.24248415128E+04  0.24248415128E+04  0.00000000000E+00 0. -1.
         21   -1    0    0  503  502  0.00000000000E+00 -0.00000000000E+00 -0.74771909993E+02  0.74771909993E+02  0.00000000000E+00 0. -1.
         23    2    1    2    0    0  0.10674759070E+02  0.77492908632E+02  0.31002475431E+03  0.33231662640E+03  0.90553246918E+02 0.  0.
        -24    2    1    2    0    0  0.14954615391E+03  0.15103402737E+02  0.86593558518E+03  0.88257781147E+03  0.80665920333E+02 0.  0.
         11    1    4    4    0    0  0.15530562817E+03  0.10124325867E+02  0.72888029576E+03  0.74531122738E+03  0.00000000000E+00 0. -1.
        -12    1    4    4    0    0 -0.57594742615E+01  0.49790768700E+01  0.13705528942E+03  0.13726658409E+03  0.00000000000E+00 0.  1.
        -13    1    3    3    0    0  0.37500398586E+02  0.14595103792E+02  0.54164186873E+02  0.67476337248E+02  0.00000000000E+00 0.  1.
         13    1    3    3    0    0 -0.26825639516E+02  0.62897804840E+02  0.25586056743E+03  0.26484028915E+03  0.00000000000E+00 0. -1.
         21    1    1    2  503  501 -0.14709107566E+02 -0.19558238014E+02 -0.46900912911E+02  0.52901589309E+02  0.00000000000E+00 0. -1.
          2    1    1    2  501    0 -0.14551180541E+03 -0.73038073355E+02  0.12210101762E+04  0.12318173956E+04  0.00000000000E+00 0. -1.
<scales pt_clust_5="13000.00000" pt_clust_6="13000.00000" pt_clust_7="13000.00000" pt_clust_8="13000.00000" pt_clust_9="24.47208" pt_clust_10="150.41841"></scales>
<clustering>
<clus scale="   24.472">  2  9  1 -1</clus>
<clus scale="   80.666">  5  6 -1 -1</clus>
<clus scale="   90.553">  7  8 -1 -1</clus>
<clus scale="  113.754">  1  7  2 -1</clus>
<clus scale="  150.418">  2 10  1 -1</clus>
<clus scale="   24.472">  2  5  1 -1</clus>
</clustering>
</event>
<event>
10    3  0.5078224E-005  0.1531211E+03  0.7546771E-02  0.1198677E+00
         21   -1    0    0  501  502  0.00000000000E+00  0.00000000000E+00  0.26149959038E+03  0.26149959038E+03  0.00000000000E+00 0. -1.
         -2   -1    0    0    0  501 -0.00000000000E+00 -0.00000000000E+00 -0.23237618631E+03  0.23237618631E+03  0.00000000000E+00 0.  1.
         23    2    1    2    0    0 -0.91568716636E+02  0.76275168731E+02 -0.11175637101E+03  0.18744436248E+03  0.91886731007E+02 0.  0.
        -24    2    1    2    0    0  0.12855381232E+03 -0.56863663341E+02  0.11691543901E+03  0.19981372679E+03  0.80602398633E+02 0.  0.
         11    1    4    4    0    0  0.10863987229E+03 -0.44417960333E+02  0.12815496268E+03  0.17377937597E+03  0.00000000000E+00 0. -1.
        -12    1    4    4    0    0  0.19913940022E+02 -0.12445703008E+02 -0.11239523668E+02  0.26034350824E+02  0.00000000000E+00 0.  1.
        -13    1    3    3    0    0 -0.46307499315E+02 -0.13265187925E+02 -0.22531097920E+02  0.53178943925E+02  0.00000000000E+00 0.  1.
         13    1    3    3    0    0 -0.45261217321E+02  0.89540356656E+02 -0.89225273088E+02  0.13426541856E+03  0.00000000000E+00 0. -1.
         21    1    1    2  503  502 -0.19717843965E+02  0.36396992325E+02  0.24681611840E+02  0.48194567992E+02  0.00000000000E+00 0. -1.
         -1    1    1    2    0  503 -0.17267251717E+02 -0.55808497715E+02 -0.71727577332E+00  0.58423119427E+02  0.00000000000E+00 0.  1.
<scales pt_clust_5="13000.00000" pt_clust_6="13000.00000" pt_clust_7="13000.00000" pt_clust_8="13000.00000" pt_clust_9="41.39486" pt_clust_10="54.83968"></scales>
<clustering>
<clus scale="   41.395">  1  9  2 -1</clus>
<clus scale="   54.840">  1 10  2 -1</clus>
<clus scale="   80.602">  5  6 -1 -1</clus>
<clus scale="   91.887">  7  8 -1 -1</clus>
<clus scale="  146.628">  1  5  2 -1</clus>
<clus scale="   41.395">  1  5  2 -1</clus>
</clustering>
</event>
<event>
10    3  0.5078224E-005  0.1343987E+03  0.7546771E-02  0.1246390E+00
         21   -1    0    0  501  502  0.00000000000E+00  0.00000000000E+00  0.33427456001E+03  0.33427456001E+03  0.00000000000E+00 0. -1.
          1   -1    0    0  503    0 -0.00000000000E+00 -0.00000000000E+00 -0.15409131209E+03  0.15409131209E+03  0.00000000000E+00 0. -1.
        -24    2    1    2    0    0 -0.53526106426E+01  0.10700890526E+02 -0.51877635871E+02  0.95106852353E+02  0.78809039852E+02 0.  0.
         23    2    1    2    0    0 -0.15708199353E+01  0.84090071262E+02  0.20091266998E+03  0.23666355703E+03  0.92575000447E+02 0.  0.
         11    1    3    3    0    0  0.14390774750E+02  0.34309560576E+02 -0.52473410792E+02  0.64324949942E+02  0.00000000000E+00 0. -1.
        -12    1    3    3    0    0 -0.19743385393E+02 -0.23608670051E+02  0.59577492121E+00  0.30781902412E+02  0.00000000000E+00 0.  1.
        -11    1    4    4    0    0 -0.41760641376E+02  0.49639095458E+02  0.69907552172E+02  0.95368007301E+02  0.00000000000E+00 0.  1.
         11    1    4    4    0    0  0.40189821440E+02  0.34450975804E+02  0.13100511781E+03  0.14129554973E+03  0.00000000000E+00 0. -1.
         21    1    1    2  503  502 -0.17910683020E+02  0.11463689600E+02  0.41860985062E+02  0.46952644397E+02  0.00000000000E+00 0.  1.
          2    1    1    2  501    0  0.24834113598E+02 -0.10625465139E+03 -0.10712771252E+02  0.10964281831E+03  0.00000000000E+00 0. -1.
<scales pt_clust_5="13000.00000" pt_clust_6="13000.00000" pt_clust_7="13000.00000" pt_clust_8="13000.00000" pt_clust_9="21.26520" pt_clust_10="97.43146"></scales>
<clustering>
<clus scale="   21.265">  1  9  2 -1</clus>
<clus scale="   78.809">  5  6 -1 -1</clus>
<clus scale="   79.932">  2  5  1 -1</clus>
<clus scale="   92.575">  7  8 -1 -1</clus>
<clus scale="   97.431">  1 10  2 -1</clus>
<clus scale="   21.265">  1  5  2 -1</clus>
</clustering>
</event>
<event>
10    3  0.5078224E-005  0.1945867E+03  0.7546771E-02  0.1163984E+00
         -2   -1    0    0    0  501 -0.00000000000E+00  0.00000000000E+00  0.19683395383E+03  0.19683395383E+03  0.00000000000E+00 0.  1.
         21   -1    0    0  503  502  0.00000000000E+00 -0.00000000000E+00 -0.10155853698E+04  0.10155853698E+04  0.00000000000E+00 0.  1.
        -24    2    1    2    0    0  0.20540896807E+03 -0.53849055256E+02 -0.80695349243E+02  0.24077277749E+03  0.79794900076E+02 0.  0.
         23    2    1    2    0    0 -0.98279799662E+02 -0.14511585191E+03 -0.64850410467E+03  0.67894753109E+03  0.98461396972E+02 0.  0.
         13    1    3    3    0    0  0.63438487462E+02  0.10937936056E+02 -0.50511842857E+02  0.81826196327E+02  0.00000000000E+00 0. -1.
        -14    1    3    3    0    0  0.14197048060E+03 -0.64786991312E+02 -0.30183506386E+02  0.15894658117E+03  0.00000000000E+00 0.  1.
        -13    1    4    4    0    0 -0.47361976328E+02 -0.62956408388E+02 -0.13400593016E+03  0.15544856216E+03  0.00000000000E+00 0. -1.
         13    1    4    4    0    0 -0.50917823334E+02 -0.82159443526E+02 -0.51449817451E+03  0.52349896893E+03  0.00000000000E+00 0.  1.
         21    1    1    2  503  501 -0.11640385902E+03  0.99951025134E+02 -0.11297005682E+03  0.19053162351E+03  0.00000000000E+00 0.  1.
         -1    1    1    2    0  502  0.92746906127E+01  0.99013882036E+02  0.23418094811E+02  0.10216739150E+03  0.00000000000E+00 0.  1.
<scales pt_clust_5="13000.00000" pt_clust_6="13000.00000" pt_clust_7="13000.00000" pt_clust_8="13000.00000" pt_clust_9="177.47330" pt_clust_10="99.44737"></scales>
<clustering>
<clus scale="   79.795">  5  6 -1 -1</clus>
<clus scale="   98.461">  7  8 -1 -1</clus>
<clus scale="   99.447">  2 10  1 -1</clus>
<clus scale="  155.583">  2  7  1 -1</clus>
<clus scale="  177.473">  2  9  1 -1</clus>
<clus scale="   99.447">  2  5  1 -1</clus>
</clustering>
</event>
<event>
10    3  0.5078224E-005  0.1300075E+03  0.7546771E-02  0.1248047E+00
         21   -1    0    0  501  502  0.00000000000E+00  0.00000000000E+00  0.69581586573E+02  0.69581586573E+02  0.00000000000E+00 0. -1.
          3   -1    0    0  503    0 -0.00000000000E+00 -0.00000000000E+00 -0.75719581792E+03  0.75719581792E+03  0.00000000000E+00 0. -1.
        -24    2    1    2    0    0 -0.13560841054E+02 -0.24040939976E+02 -0.13593353915E+03  0.16023414468E+03  0.80219641290E+02 0.  0.
         23    2    1    2    0    0  0.36644722292E+01 -0.68240416459E+02 -0.51513807070E+03  0.52842813680E+03  0.95910797555E+02 0.  0.
         11    1    3    3    0    0  0.14495719968E+02 -0.36931288178E+02 -0.29575136713E+02  0.49484691122E+02  0.00000000000E+00 0. -1.
        -12    1    3    3    0    0 -0.28056561022E+02  0.12890348202E+02 -0.10635840244E+03  0.11074945355E+03  0.00000000000E+00 0.  1.
        -11    1    4    4    0    0 -0.43202100593E+02 -0.33922556267E+02 -0.17667957483E+03  0.18502117036E+03  0.00000000000E+00 0.  1.
         11    1    4    4    0    0  0.46866572823E+02 -0.34317860193E+02 -0.33845849587E+03  0.34340696644E+03  0.00000000000E+00 0. -1.
         21    1    1    2  503  502 -0.19901296233E+02  0.62937387129E+01  0.21668060838E+02  0.30086169567E+02  0.00000000000E+00 0. -1.
          4    1    1    2  501    0  0.29797665057E+02  0.85987617723E+02 -0.58210682332E+02  0.10802895344E+03  0.00000000000E+00 0. -1.
<scales pt_clust_5="13000.00000" pt_clust_6="13000.00000" pt_clust_7="13000.00000" pt_clust_8="13000.00000" pt_clust_9="20.87278" pt_clust_10="87.76712"></scales>
<clustering>
<clus scale="   20.873">  1  9  2 -1</clus>
<clus scale="   80.220">  5  6 -1 -1</clus>
<clus scale="   85.421">  2  5  1 -1</clus>
<clus scale="   87.767">  1 10  2 -1</clus>
<clus scale="   95.911">  7  8 -1 -1</clus>
<clus scale="   20.873">  1  5  2 -1</clus>
</clustering>
</event>
<event>
10    3  0.5078224E-005  0.2299301E+03  0.7546771E-02  0.1169980E+00
         -2   -1    0    0    0  501 -0.00000000000E+00  0.00000000000E+00  0.16113521262E+03  0.16113521262E+03  0.00000000000E+00 0.  1.
         21   -1    0    0  503  502  0.00000000000E+00 -0.00000000000E+00 -0.16991613692E+04  0.16991613692E+04  0.00000000000E+00 0.  1.
        -24    2    1    2    0    0  0.12579615111E+02  0.16973756034E+02 -0.16638403621E+03  0.18556129595E+03  0.79391384536E+02 0.  0.
         23    2    1    2    0    0 -0.42805757260E+02 -0.15451061683E+02  0.89789122875E+02  0.14115711294E+03  0.98955423219E+02 0.  0.
         13    1    3    3    0    0  0.41053163597E+02  0.78480247252E+01 -0.13852728056E+03  0.14469540833E+03  0.00000000000E+00 0. -1.
        -14    1    3    3    0    0 -0.28473548486E+02  0.91257313085E+01 -0.27856755652E+02  0.40865887617E+02  0.00000000000E+00 0.  1.
        -13    1    4    4    0    0 -0.30026850322E+02  0.40395045550E+02  0.52896002614E+02  0.73016152582E+02  0.00000000000E+00 0.  1.
         13    1    4    4    0    0 -0.12778906938E+02 -0.55846107233E+02  0.36893120261E+02  0.68140960356E+02  0.00000000000E+00 0. -1.
         21    1    1    2  503  501  0.88334915142E+02  0.21775381274E+03 -0.65631911665E+03  0.69711875823E+03  0.00000000000E+00 0.  1.
         -1    1    1    2    0  502 -0.58108772993E+02 -0.21927650709E+03 -0.80511212655E+03  0.83645941466E+03  0.00000000000E+00 0.  1.
<scales pt_clust_5="13000.00000" pt_clust_6="13000.00000" pt_clust_7="13000.00000" pt_clust_8="13000.00000" pt_clust_9="13000.00000" pt_clust_10="229.93015"></scales>
<clustering>
<clus scale="   79.391">  5  6 -1 -1</clus>
<clus scale="   82.154">  1  5  2 -1</clus>
<clus scale="   98.955">  7  8 -1 -1</clus>
<clus scale="  104.413">  1  7  2 -1</clus>
<clus scale="  229.930">  2 10  1 -1</clus>
<clus scale="  229.930">  2  5  1 -1</clus>
</clustering>
</event>
<event>
10    3  0.5078224E-005  0.1658686E+03  0.7546771E-02  0.1205053E+00
         -4   -1    0    0    0  501 -0.00000000000E+00  0.00000000000E+00  0.13002242521E+03  0.13002242521E+03  0.00000000000E+00 0.  1.
         21   -1    0    0  503  502  0.00000000000E+00 -0.00000000000E+00 -0.68343909635E+03  0.68343909635E+03  0.00000000000E+00 0.  1.
        -24    2    1    2    0    0  0.27790222469E+02  0.57518351034E+02 -0.31499705942E+03  0.33135910649E+03  0.80591890657E+02 0.  0.
         23    2    1    2    0    0 -0.61615217818E+02  0.63424286715E+02  0.37551672965E+01  0.12745081346E+03  0.91708960071E+02 0.  0.
         11    1    3    3    0    0  0.52377682714E+02  0.56416551630E+02 -0.21462266792E+03  0.22801126843E+03  0.00000000000E+00 0. -1.
        -12    1    3    3    0    0 -0.24587460245E+02  0.11017994033E+01 -0.10037439150E+03  0.10334783806E+03  0.00000000000E+00 0.  1.
        -11    1    4    4    0    0  0.22719505754E+02  0.20062108435E+02 -0.93528516466E+01  0.31719709496E+02  0.00000000000E+00 0.  1.
         11    1    4    4    0    0 -0.84334723571E+02  0.43362178280E+02  0.13108018943E+02  0.95731103961E+02  0.00000000000E+00 0. -1.
         21    1    1    2  503  501 -0.92891255002E+02 -0.16097321240E+02 -0.79461473736E+02  0.12329653205E+03  0.00000000000E+00 0.  1.
         -3    1    1    2    0  502  0.12671625035E+03 -0.10484531651E+03 -0.16271330528E+03  0.23135506956E+03  0.00000000000E+00 0.  1.
<scales pt_clust_5="13000.00000" pt_clust_6="13000.00000" pt_clust_7="13000.00000" pt_clust_8="13000.00000" pt_clust_9="94.27571" pt_clust_10="138.20951"></scales>
<clustering>
<clus scale="   80.592">  5  6 -1 -1</clus>
<clus scale="   91.709">  7  8 -1 -1</clus>
<clus scale="   94.276">  1  9  2 -1</clus>
<clus scale="  100.478">  1  5  2 -1</clus>
<clus scale="  138.210">  2 10  1 -1</clus>
<clus scale="  138.210">  2  5  1 -1</clus>
</clustering>
</event>
<event>
10    3  0.5078224E-005  0.1198013E+03  0.7546771E-02  0.1260780E+00
          3   -1    0    0  503    0 -0.00000000000E+00  0.00000000000E+00  0.10606697329E+04  0.10606697329E+04  0.00000000000E+00 0. -1.
         21   -1    0    0  501  502  0.00000000000E+00 -0.00000000000E+00 -0.37925583955E+02  0.37925583955E+02  0.00000000000E+00 0. -1.
        -24    2    1    2    0    0  0.29741863004E+02 -0.13530783334E+02  0.27128702572E+03  0.28498256890E+03  0.80936726786E+02 0.  0.
         23    2    1    2    0    0  0.89200125911E+02  0.26079972177E+02  0.16373478196E+03  0.20900370917E+03  0.90755959662E+02 0.  0.
         11    1    3    3    0    0  0.37038639981E+02  0.20051151676E+02  0.21458594464E+03  0.21868021669E+03  0.00000000000E+00 0. -1.
        -12    1    3    3    0    0 -0.72967769768E+01 -0.33581935010E+02  0.56701081077E+02  0.66302352210E+02  0.00000000000E+00 0.  1.
        -13    1    4    4    0    0  0.12757073114E+02 -0.28260359548E+02  0.69242162993E+02  0.75867436836E+02  0.00000000000E+00 0.  1.
         13    1    4    4    0    0  0.76443052797E+02  0.54340331725E+02  0.94492618964E+02  0.13313627234E+03  0.00000000000E+00 0. -1.
         21    1    1    2  503  502 -0.34150973580E+02  0.11283378613E+02  0.62981091825E+02  0.72527384876E+02  0.00000000000E+00 0. -1.
          4    1    1    2  501    0 -0.84791015335E+02 -0.23832567456E+02  0.52474124949E+03  0.53208165395E+03  0.00000000000E+00 0. -1.
<scales pt_clust_5="13000.00000" pt_clust_6="13000.00000" pt_clust_7="13000.00000" pt_clust_8="13000.00000" pt_clust_9="35.96670" pt_clust_10="78.20299"></scales>
<clustering>
<clus scale="   35.967">  2  9  1 -1</clus>
<clus scale="   80.937">  5  6 -1 -1</clus>
<clus scale="   84.799">  1  5  2 -1</clus>
<clus scale="   78.203">  2 10  1 -1</clus>
<clus scale="   90.756">  7  8 -1 -1</clus>
<clus scale="   35.967">  2  5  1 -1</clus>
</clustering>
</event>
<event>
10    3  0.5078224E-005  0.1972869E+03  0.7546771E-02  0.1178468E+00
         -2   -1    0    0    0  501 -0.00000000000E+00  0.00000000000E+00  0.26482540587E+03  0.26482540587E+03  0.00000000000E+00 0.  1.
         21   -1    0    0  503  502  0.00000000000E+00 -0.00000000000E+00 -0.36106737723E+03  0.36106737723E+03  0.00000000000E+00 0. -1.
        -24    2    1    2    0    0  0.50775528282E+02  0.21619973047E+02  0.34717437237E+02  0.10634429846E+03  0.84013283830E+02 0.  0.
         23    2    1    2    0    0  0.10795206791E+03 -0.45410551292E+02 -0.75348708966E+02  0.16536033617E+03  0.89167514826E+02 0.  0.
         13    1    3    3    0    0  0.67965537840E+02  0.34393355935E+02  0.37225284524E+02  0.84781714268E+02  0.00000000000E+00 0. -1.
        -14    1    3    3    0    0 -0.17190009558E+02 -0.12773382888E+02 -0.25078472878E+01  0.21562584192E+02  0.00000000000E+00 0.  1.
        -11    1    4    4    0    0  0.41531431011E+02  0.38417078105E+01  0.13641594368E+02  0.43882930368E+02  0.00000000000E+00 0.  1.
         11    1    4    4    0    0  0.66420636896E+02 -0.49252259102E+02 -0.88990303333E+02  0.12147740580E+03  0.00000000000E+00 0. -1.
         21    1    1    2  503  501  0.88754390018E+02  0.20195450539E+02 -0.55636633336E+02  0.10668004940E+03  0.00000000000E+00 0.  1.
         -1    1    1    2    0  502 -0.24748198621E+03  0.35951277055E+01  0.25933705754E-01  0.24750809909E+03  0.00000000000E+00 0.  1.
<scales pt_clust_5="13000.00000" pt_clust_6="13000.00000" pt_clust_7="13000.00000" pt_clust_8="13000.00000" pt_clust_9="91.02306" pt_clust_10="175.98664"></scales>
<clustering>
<clus scale="   84.013">  5  6 -1 -1</clus>
<clus scale="   89.168">  7  8 -1 -1</clus>
<clus scale="   91.023">  2  9  1 -1</clus>
<clus scale="  107.258">  1  5  2 -1</clus>
<clus scale="  175.987">  2 10  1 -1</clus>
<clus scale="   91.023">  2  5  1 -1</clus>
</clustering>
</event>
<event>
10    3  0.5078224E-005  0.2868644E+03  0.7546771E-02  0.1114994E+00
         21   -1    0    0  501  502  0.00000000000E+00  0.00000000000E+00  0.23320680085E+03  0.23320680085E+03  0.00000000000E+00 0. -1.
          1   -1    0    0  503    0 -0.00000000000E+00 -0.00000000000E+00 -0.96587962124E+03  0.96587962124E+03  0.00000000000E+00 0. -1.
         23    2    1    2    0    0  0.46891897298E+02 -0.12756608321E+03 -0.64100665800E+02  0.17599248750E+03  0.91610614464E+02 0.  0.
        -24    2    1    2    0    0 -0.10787664824E+03 -0.22439013667E+03 -0.28960517586E+03  0.39098508017E+03  0.83724968547E+02 0.  0.
         11    1    4    4    0    0 -0.50115804718E+02 -0.86649582102E+02 -0.58872146105E+02  0.11612783279E+03  0.00000000000E+00 0. -1.
        -12    1    4    4    0    0 -0.57760843520E+02 -0.13774055457E+03 -0.23073302976E+03  0.27485724738E+03  0.00000000000E+00 0.  1.
        -11    1    3    3    0    0  0.35097066238E+02 -0.97939847849E+01 -0.41968999978E+02  0.55579880853E+02  0.00000000000E+00 0.  1.
         11    1    3    3    0    0  0.11794831060E+02 -0.11777209843E+03 -0.22131665822E+02  0.12041260665E+03  0.00000000000E+00 0. -1.
         21    1    1    2  503  502  0.13024879629E+02  0.25314449904E+02  0.69570533101E+02  0.75169993609E+02  0.00000000000E+00 0. -1.
          2    1    1    2  501    0  0.47959871311E+02  0.32664176998E+03 -0.44853751183E+03  0.55693886080E+03  0.00000000000E+00 0. -1.
<scales pt_clust_5="13000.00000" pt_clust_6="13000.00000" pt_clust_7="13000.00000" pt_clust_8="13000.00000" pt_clust_9="28.46873" pt_clust_10="274.37457"></scales>
<clustering>
<clus scale="   28.469">  1  9  2 -1</clus>
<clus scale="   83.725">  5  6 -1 -1</clus>
<clus scale="   91.611">  7  8 -1 -1</clus>
<clus scale="  158.559">  2  7  1 -1</clus>
<clus scale="  274.375">  1 10  2 -1</clus>
<clus scale="   28.469">  1  5  2 -1</clus>
</clustering>
</event>
<event>
10    3  0.5078224E-005  0.1645282E+03  0.7546771E-02  0.1212990E+00
         21   -1    0    0  501  502  0.00000000000E+00  0.00000000000E+00  0.15298442482E+03  0.15298442482E+03  0.00000000000E+00 0.  1.
          1   -1    0    0  503    0 -0.00000000000E+00 -0.00000000000E+00 -0.56035586394E+03  0.56035586394E+03  0.00000000000E+00 0. -1.
        -24    2    1    2    0    0  0.23322711159E+02 -0.16538855106E+02 -0.12900584729E+03  0.15496930946E+03  0.80966015428E+02 0.  0.
         23    2    1    2    0    0  0.18569586315E+02  0.16108630203E+03  0.34683189649E+02  0.18378848451E+03  0.79256906053E+02 0.  0.
         13    1    3    3    0    0  0.16261436906E+02  0.24346375814E+02 -0.10037847163E+03  0.10456107265E+03  0.00000000000E+00 0. -1.
        -14    1    3    3    0    0  0.70612742527E+01 -0.40885230920E+02 -0.28627375662E+02  0.50408236814E+02  0.00000000000E+00 0.  1.
        -13    1    4    4    0    0  0.22621159864E+02  0.61367343934E+02 -0.22010802122E+02  0.69008283453E+02  0.00000000000E+00 0. -1.
         13    1    4    4    0    0 -0.40515735491E+01  0.99718958098E+02  0.56693991771E+02  0.11478020106E+03  0.00000000000E+00 0.  1.
         21    1    1    2  503  502  0.20577093857E+02 -0.23722118430E+02  0.19576685444E+01  0.31464077303E+02  0.00000000000E+00 0. -1.
          2    1    1    2  501    0 -0.62469391332E+02 -0.12082532850E+03 -0.31500645002E+03  0.34311841748E+03  0.00000000000E+00 0. -1.
<scales pt_clust_5="13000.00000" pt_clust_6="13000.00000" pt_clust_7="13000.00000" pt_clust_8="13000.00000" pt_clust_9="31.40312" pt_clust_10="144.18003"></scales>
<clustering>
<clus scale="   31.403">  1  9  2 -1</clus>
<clus scale="   79.257">  7  8 -1 -1</clus>
<clus scale="   80.966">  5  6 -1 -1</clus>
<clus scale="   86.880">  2  5  1 -1</clus>
<clus scale="  144.180">  1 10  2 -1</clus>
<clus scale="   31.403">  1  5  2 -1</clus>
</clustering>
</event>
<event>
10    3  0.5078224E-005  0.1022958E+03  0.7546771E-02  0.1280636E+00
          1   -1    0    0  503    0 -0.00000000000E+00  0.00000000000E+00  0.67878837268E+03  0.67878837268E+03  0.00000000000E+00 0. -1.
         21   -1    0    0  501  502  0.00000000000E+00 -0.00000000000E+00 -0.50287840376E+02  0.50287840376E+02  0.00000000000E+00 0. -1.
        -24    2    1    2    0    0  0.39950756605E+02  0.43949156679E+02  0.36485150979E+03  0.37808704166E+03  0.79407780156E+02 0.  0.
         23    2    1    2    0    0  0.27241890425E+02 -0.46843610059E+02  0.20433903327E+03  0.22988335655E+03  0.90307655843E+02 0.  0.
         13    1    3    3    0    0 -0.22712750019E+02  0.23750339818E+02  0.10486512766E+03  0.10989377896E+03  0.00000000000E+00 0. -1.
        -14    1    3    3    0    0  0.62663506623E+02  0.20198816861E+02  0.25998638213E+03  0.26819326270E+03  0.00000000000E+00 0.  1.
        -13    1    4    4    0    0  0.53849288229E+02 -0.60871287244E+01  0.82769591700E+02  0.98932321761E+02  0.00000000000E+00 0. -1.
         13    1    4    4    0    0 -0.26607397804E+02 -0.40756481334E+02  0.12156944157E+03  0.13095103479E+03  0.00000000000E+00 0.  1.
         21    1    1    2  503  502 -0.49436784053E+02 -0.34751659121E+02  0.19468606112E+02  0.63487794520E+02  0.00000000000E+00 0. -1.
          2    1    1    2  501    0 -0.17755862977E+02  0.37646112501E+02  0.39841383140E+02  0.57618020332E+02  0.00000000000E+00 0. -1.
<scales pt_clust_5="13000.00000" pt_clust_6="13000.00000" pt_clust_7="13000.00000" pt_clust_8="13000.00000" pt_clust_9="60.69296" pt_clust_10="41.62332"></scales>
<clustering>
<clus scale="   41.623">  2 10  1 -1</clus>
<clus scale="   60.693">  2  9  1 -1</clus>
<clus scale="   79.408">  5  6 -1 -1</clus>
<clus scale="   90.308">  7  8 -1 -1</clus>
<clus scale="   92.815">  1  5  2 -1</clus>
<clus scale="   41.623">  2  5  1 -1</clus>
</clustering>
</event>
<event>
10    3  0.5078224E-005  0.1387329E+03  0.7546771E-02  0.1230075E+00
         21   -1    0    0  501  502  0.00000000000E+00  0.00000000000E+00  0.11750968419E+04  0.11750968419E+04  0.00000000000E+00 0.  1.
          1   -1    0    0  503    0 -0.00000000000E+00 -0.00000000000E+00 -0.27868933680E+03  0.27868933680E+03  0.00000000000E+00 0. -1.
         23    2    1    2    0    0  0.39045627428E+01 -0.43048076340E+02 -0.12572689759E+03  0.16136030173E+03  0.91441301997E+02 0.  0.
        -24    2    1    2    0    0  0.80537116427E+02 -0.36265794766E+02 -0.99604457152E+02  0.15423041977E+03  0.77875153326E+02 0.  0.
         13    1    4    4    0    0 -0.73433979151E-01 -0.26378230013E+02 -0.56342822984E+02  0.62211977246E+02  0.00000000000E+00 0. -1.
        -14    1    4    4    0    0  0.80610550406E+02 -0.98875647538E+01 -0.43261634168E+02  0.92018442523E+02  0.00000000000E+00 0.  1.
        -11    1    3    3    0    0  0.40524665774E+02 -0.17687252650E+02 -0.10136519841E+03  0.11058928922E+03  0.00000000000E+00 0.  1.
         11    1    3    3    0    0 -0.36620103031E+02 -0.25360823690E+02 -0.24361699179E+02  0.50771012508E+02  0.00000000000E+00 0. -1.
         21    1    1    2  503  502 -0.83281719021E+02  0.10571225209E+03  0.10828394228E+04  0.10911700787E+04  0.00000000000E+00 0.  1.
          2    1    1    2  501    0 -0.11599601490E+01 -0.26398380985E+02  0.38899437059E+02  0.47025378570E+02  0.00000000000E+00 0. -1.
<scales pt_clust_5="13000.00000" pt_clust_6="13000.00000" pt_clust_7="13000.00000" pt_clust_8="13000.00000" pt_clust_9="114.81407" pt_clust_10="26.42385"></scales>
<clustering>
<clus scale="   26.424">  1 10  2 -1</clus>
<clus scale="   77.875">  5  6 -1 -1</clus>
<clus scale="   91.441">  7  8 -1 -1</clus>
<clus scale="  101.320">  2  7  1 -1</clus>
<clus scale="  114.814">  1  9  2 -1</clus>
<clus scale="   26.424">  1  5  2 -1</clus>
</clustering>
</event>
<event>
10    3  0.5078224E-005  0.5338250E+03  0.7546771E-02  0.1049820E+00
          1   -1    0    0  503    0 -0.00000000000E+00  0.00000000000E+00  0.20516837176E+04  0.20516837176E+04  0.00000000000E+00 0. -1.
         21   -1    0    0  501  502  0.00000000000E+00 -0.00000000000E+00 -0.28795325570E+03  0.28795325570E+03  0.00000000000E+00 0. -1.
         23    2    1    2    0    0  0.95419365641E+02 -0.59552623710E+02  0.99098462614E+02  0.17524412961E+03  0.90766895628E+02 0.  0.
        -24    2    1    2    0    0 -0.47742409892E+03  0.36777790562E+03  0.13369478526E+04  0.14688537205E+04  0.83110370444E+02 0.  0.
         13    1    4    4    0    0 -0.46468156380E+03  0.33469458652E+03  0.12681957176E+04  0.13914991197E+04  0.00000000000E+00 0. -1.
        -14    1    4    4    0    0 -0.12742535120E+02  0.33083319101E+02  0.68752134969E+02  0.77354600812E+02  0.00000000000E+00 0.  1.
        -11    1    3    3    0    0  0.24026965492E+02 -0.78688521131E+01 -0.16267167572E+02  0.30063842820E+02  0.00000000000E+00 0.  1.
         11    1    3    3    0    0  0.71392400149E+02 -0.51683771597E+02  0.11536563019E+03  0.14518028679E+03  0.00000000000E+00 0. -1.
         21    1    1    2  503  502 -0.60959658487E+02 -0.43718328449E+02 -0.14561437282E+02  0.76416017045E+02  0.00000000000E+00 0. -1.
          2    1    1    2  501    0  0.44296439177E+03 -0.26450695346E+03  0.34224558403E+03  0.61912310617E+03  0.00000000000E+00 0. -1.
<scales pt_clust_5="13000.00000" pt_clust_6="13000.00000" pt_clust_7="13000.00000" pt_clust_8="13000.00000" pt_clust_9="75.01581" pt_clust_10="527.31566"></scales>
<clustering>
<clus scale="   75.016">  2  9  1 -1</clus>
<clus scale="   83.110">  5  6 -1 -1</clus>
<clus scale="   90.767">  7  8 -1 -1</clus>
<clus scale="  141.491">  1  7  2 -1</clus>
<clus scale="  527.316">  2 10  1 -1</clus>
<clus scale="   75.016">  2  5  1 -1</clus>
</clustering>
</event>
<event>
10    3  0.5078224E-005  0.1189937E+03  0.7546771E-02  0.1249381E+00
         -2   -1    0    0    0  501 -0.00000000000E+00  0.00000000000E+00  0.69465280047E+02  0.69465280047E+02  0.00000000000E+00 0.  1.
         21   -1    0    0  503  502  0.00000000000E+00 -0.00000000000E+00 -0.62073476376E+03  0.62073476376E+03  0.00000000000E+00 0. -1.
        -24    2    1    2    0    0  0.76309192629E+02  0.71598588621E+02 -0.50241772428E+02  0.14015776481E+03  0.78552610181E+02 0.  0.
         23    2    1    2    0    0 -0.41791223122E+02  0.89147893710E+01 -0.13331724232E+03  0.16782318449E+03  0.92548119134E+02 0.  0.
         13    1    3    3    0    0  0.50292840038E+00  0.51118949723E+02 -0.29159400360E+02  0.58852957335E+02  0.00000000000E+00 0. -1.
        -14    1    3    3    0    0  0.75806264228E+02  0.20479638898E+02 -0.21082372068E+02  0.81304807470E+02  0.00000000000E+00 0.  1.
        -13    1    4    4    0    0 -0.14882442160E+02  0.19336308471E+02  0.63442920873E+01  0.25211702680E+02  0.00000000000E+00 0.  1.
         13    1    4    4    0    0 -0.26908780962E+02 -0.10421519100E+02 -0.13966153441E+03  0.14261148182E+03  0.00000000000E+00 0. -1.
         21    1    1    2  503  501  0.31002917268E+01 -0.32546140286E+02 -0.22012872413E+03  0.22254329521E+03  0.00000000000E+00 0. -1.
         -1    1    1    2    0  502 -0.37618261234E+02 -0.47967237706E+02 -0.14758174483E+03  0.15967579929E+03  0.00000000000E+00 0.  1.
<scales pt_clust_5="13000.00000" pt_clust_6="13000.00000" pt_clust_7="13000.00000" pt_clust_8="13000.00000" pt_clust_9="32.69347" pt_clust_10="70.60739"></scales>
<clustering>
<clus scale="   32.693">  2  9  1 -1</clus>
<clus scale="   70.607">  2 10  1 -1</clus>
<clus scale="   78.553">  5  6 -1 -1</clus>
<clus scale="   92.548">  7  8 -1 -1</clus>
<clus scale="  108.466">  1  5  2 -1</clus>
<clus scale="   32.693">  2  5  1 -1</clus>
</clustering>
</event>
<event>
10    3  0.5078224E-005  0.1065508E+03  0.7546771E-02  0.1270993E+00
          1   -1    0    0  503    0 -0.00000000000E+00  0.00000000000E+00  0.12770331150E+03  0.12770331150E+03  0.00000000000E+00 0. -1.
         21   -1    0    0  501  502  0.00000000000E+00 -0.00000000000E+00 -0.35394085498E+03  0.35394085498E+03  0.00000000000E+00 0.  1.
        -24    2    1    2    0    0  0.21353274517E+02 -0.51946987693E+02  0.13477481455E+02  0.99973605684E+02  0.81600413382E+02 0.  0.
         23    2    1    2    0    0 -0.39576571883E+02  0.40272364104E+02 -0.25656025701E+03  0.27795936163E+03  0.90829911846E+02 0.  0.
         13    1    3    3    0    0 -0.80188992850E+01 -0.50081900975E+02 -0.20778360182E+02  0.54810946013E+02  0.00000000000E+00 0. -1.
        -14    1    3    3    0    0  0.29372173802E+02 -0.18650867180E+01  0.34255841637E+02  0.45162659671E+02  0.00000000000E+00 0.  1.
        -11    1    4    4    0    0 -0.31852129787E+02 -0.25370389231E+02 -0.91155207871E+02  0.99837301364E+02  0.00000000000E+00 0. -1.
         11    1    4    4    0    0 -0.77244420963E+01  0.65642753335E+02 -0.16540504914E+03  0.17812206026E+03  0.00000000000E+00 0.  1.
         21    1    1    2  503  502  0.27930494461E+02 -0.10927464929E+02 -0.35140585366E+02  0.46199380412E+02  0.00000000000E+00 0.  1.
          2    1    1    2  501    0 -0.97071970951E+01  0.22602088518E+02  0.51985817446E+02  0.57511818753E+02  0.00000000000E+00 0. -1.
<scales pt_clust_5="13000.00000" pt_clust_6="13000.00000" pt_clust_7="13000.00000" pt_clust_8="13000.00000" pt_clust_9="28.06479" pt_clust_10="24.59847"></scales>
<clustering>
<clus scale="   24.598">  2 10  1 -1</clus>
<clus scale="   28.065">  2  9  1 -1</clus>
<clus scale="   81.600">  5  6 -1 -1</clus>
<clus scale="   90.830">  7  8 -1 -1</clus>
<clus scale="   98.801">  1  5  2 -1</clus>
<clus scale="   24.598">  2  5  1 -1</clus>
</clustering>
</event>
<event>
10    3  0.5078224E-005  0.1770948E+03  0.7546771E-02  0.1196816E+00
         21   -1    0    0  501  502  0.00000000000E+00  0.00000000000E+00  0.13878054900E+03  0.13878054900E+03  0.00000000000E+00 0. -1.
          1   -1    0    0  503    0 -0.00000000000E+00 -0.00000000000E+00 -0.55607008183E+03  0.55607008183E+03  0.00000000000E+00 0. -1.
        -24    2    1    2    0    0  0.50924948896E+02  0.29582120741E+00 -0.64447862350E+02  0.12116823666E+03  0.89077363472E+02 0.  0.
         23    2    1    2    0    0 -0.15517245776E+03 -0.64368602940E+02 -0.29598280440E+03  0.35260948592E+03  0.92227004547E+02 0.  0.
         13    1    3    3    0    0  0.39393655466E+02  0.41772822205E+01  0.13823309506E+02  0.41957045457E+02  0.00000000000E+00 0. -1.
        -14    1    3    3    0    0  0.11531293430E+02 -0.38814610131E+01 -0.78271171856E+02  0.79211191201E+02  0.00000000000E+00 0.  1.
        -13    1    4    4    0    0 -0.52581077573E+02 -0.76218876928E+01 -0.27897980923E+02  0.60009667807E+02  0.00000000000E+00 0.  1.
         13    1    4    4    0    0 -0.10259138019E+03 -0.56746715247E+02 -0.26808482348E+03  0.29259981811E+03  0.00000000000E+00 0. -1.
         21    1    1    2  503  502 -0.34865186863E+02 -0.24099453936E+02  0.96183807316E+01  0.43461226201E+02  0.00000000000E+00 0. -1.
          2    1    1    2  501    0  0.13911269573E+03  0.88172235669E+02 -0.66477246812E+02  0.17761168204E+03  0.00000000000E+00 0. -1.
<scales pt_clust_5="13000.00000" pt_clust_6="13000.00000" pt_clust_7="13000.00000" pt_clust_8="13000.00000" pt_clust_9="42.38355" pt_clust_10="151.18452"></scales>
<clustering>
<clus scale="   42.384">  1  9  2 -1</clus>
<clus scale="   89.077">  5  6 -1 -1</clus>
<clus scale="   92.227">  7  8 -1 -1</clus>
<clus scale="   98.702">  2  5  1 -1</clus>
<clus scale="  151.185">  1 10  2 -1</clus>
<clus scale="   42.384">  1  5  2 -1</clus>
</clustering>
</event>
<event>
10    3  0.5078224E-005  0.4347432E+03  0.7546771E-02  0.1032614E+00
          1   -1    0    0  503    0 -0.00000000000E+00  0.00000000000E+00  0.83107825435E+03  0.83107825435E+03  0.00000000000E+00 0. -1.
         21   -1    0    0  501  502  0.00000000000E+00 -0.00000000000E+00 -0.31697387710E+03  0.31697387710E+03  0.00000000000E+00 0. -1.
         23    2    1    2    0    0 -0.53764980702E+02  0.45173158948E+03  0.44190645379E+03  0.64101877791E+03  0.93121735607E+02 0.  0.
        -24    2    1    2    0    0  0.42314109466E+02 -0.36614007989E+03  0.77861748605E+01  0.37669055402E+03  0.77369936056E+02 0.  0.
         11    1    4    4    0    0  0.65204118297E+02 -0.27830715281E+03  0.58061343428E+01  0.28590236016E+03  0.00000000000E+00 0. -1.
        -12    1    4    4    0    0 -0.22890008831E+02 -0.87832927085E+02  0.19800405176E+01  0.90788193864E+02  0.00000000000E+00 0.  1.
        -11    1    3    3    0    0 -0.77417207934E+02  0.35986807104E+03  0.37063328800E+03  0.52236719538E+03  0.00000000000E+00 0. -1.
         11    1    3    3    0    0  0.23652227232E+02  0.91863518446E+02  0.71273165785E+02  0.11865158252E+03  0.00000000000E+00 0.  1.
         21    1    1    2  503  502 -0.14983812113E+02 -0.19464875684E+02 -0.10739384921E+02  0.26809147679E+02  0.00000000000E+00 0. -1.
          2    1    1    2  501    0  0.26434683349E+02 -0.66126633907E+02  0.75151133522E+02  0.10353365185E+03  0.00000000000E+00 0. -1.
<scales pt_clust_5="13000.00000" pt_clust_6="13000.00000" pt_clust_7="13000.00000" pt_clust_8="13000.00000" pt_clust_9="24.56412" pt_clust_10="71.81717"></scales>
<clustering>
<clus scale="   24.564">  2  9  1 -1</clus>
<clus scale="   71.817">  2 10  1 -1</clus>
<clus scale="   77.370">  5  6 -1 -1</clus>
<clus scale="   93.122">  7  8 -1 -1</clus>
<clus scale="  431.643">  2  5  1 -1</clus>
<clus scale="   24.564">  2  5  1 -1</clus>
</clustering>
</event>
<event>
10    3  0.5078224E-005  0.1311487E+03  0.7546771E-02  0.1238075E+00
          1   -1    0    0  503    0 -0.00000000000E+00  0.00000000000E+00  0.85621951159E+03  0.85621951159E+03  0.00000000000E+00 0. -1.
         21   -1    0    0  501  502  0.00000000000E+00 -0.00000000000E+00 -0.35734836457E+02  0.35734836457E+02  0.00000000000E+00 0. -1.
        -24    2    1    2    0    0 -0.86681641988E+01  0.74315085455E+02  0.44589549955E+03  0.45935154901E+03  0.81136798481E+02 0.  0.
         23    2    1    2    0    0  0.16167283683E+02 -0.30365639307E+02  0.23522467656E+03  0.26445571712E+03  0.11585648339E+03 0.  0.
         13    1    3    3    0    0 -0.12543855219E+02  0.74432864270E+02  0.20549216592E+03  0.21891694736E+03  0.00000000000E+00 0. -1.
        -14    1    3    3    0    0  0.38756910197E+01 -0.11777881504E+00  0.24040333363E+03  0.24043460166E+03  0.00000000000E+00 0.  1.
        -11    1    4    4    0    0 -0.41420437555E+02 -0.35943042072E+02  0.16261692714E+03  0.17161532540E+03  0.00000000000E+00 0. -1.
         11    1    4    4    0    0  0.57587721238E+02  0.55774027655E+01  0.72607749419E+02  0.92840391720E+02  0.00000000000E+00 0.  1.
         21    1    1    2  503  502 -0.42328890527E+02 -0.20232367663E+02  0.45955325554E+02  0.65673248902E+02  0.00000000000E+00 0. -1.
          2    1    1    2  501    0  0.34829771043E+02 -0.23717078485E+02  0.93409173468E+02  0.10247383301E+03  0.00000000000E+00 0. -1.
<scales pt_clust_5="13000.00000" pt_clust_6="13000.00000" pt_clust_7="13000.00000" pt_clust_8="13000.00000" pt_clust_9="41.83209" pt_clust_10="42.13802"></scales>
<clustering>
<clus scale="   42.138">  2 10  1 -1</clus>
<clus scale="   41.832">  2  9  1 -1</clus>
<clus scale="   81.137">  5  6 -1 -1</clus>
<clus scale="  101.786">  1  5  2 -1</clus>
<clus scale="  115.856">  7  8 -1 -1</clus>
<clus scale="   42.138">  2  5  1 -1</clus>
</clustering>
</event>
<event>
10    3  0.5078224E-005  0.2361892E+03  0.7546771E-02  0.1145572E+00
         -2   -1    0    0    0  501 -0.00000000000E+00  0.00000000000E+00  0.12616279366E+04  0.12616279366E+04  0.00000000000E+00 0.  1.
         21   -1    0    0  501  502  0.00000000000E+00 -0.00000000000E+00 -0.31438643550E+03  0.31438643550E+03  0.00000000000E+00 0.  1.
        -24    2    1    2    0    0 -0.55880705279E+02 -0.92529749170E+02  0.45475290308E+03  0.47419184568E+03  0.79832925150E+02 0.  0.
         23    2    1    2    0    0 -0.66612469098E+02 -0.20359250758E+03 -0.55974457698E+02  0.24023995705E+03  0.93246806198E+02 0.  0.
         13    1    3    3    0    0 -0.75104996218E+02 -0.85671279962E+02  0.38954986336E+03  0.40586872843E+03  0.00000000000E+00 0. -1.
        -14    1    3    3    0    0  0.19224290939E+02 -0.68584692074E+01  0.65203039719E+02  0.68323117249E+02  0.00000000000E+00 0.  1.
        -13    1    4    4    0    0 -0.57447562079E+02 -0.13810990338E+03  0.58808879582E+01  0.14969686919E+03  0.00000000000E+00 0. -1.
         13    1    4    4    0    0 -0.91649070185E+01 -0.65482604192E+02 -0.61855345656E+02  0.90543087857E+02  0.00000000000E+00 0.  1.
         21    1    1    2  503  502 -0.16603634648E+02  0.18468643901E+02 -0.12104045014E+03  0.12356197660E+03  0.00000000000E+00 0.  1.
         -1    1    1    2    0  503  0.13909680902E+03  0.27765361284E+03  0.66950350588E+03  0.73802059280E+03  0.00000000000E+00 0.  1.
<scales pt_clust_5="13000.00000" pt_clust_6="13000.00000" pt_clust_7="13000.00000" pt_clust_8="13000.00000" pt_clust_9="24.83488" pt_clust_10="217.00326"></scales>
<clustering>
<clus scale="   24.835">  2  9  1 -1</clus>
<clus scale="   79.833">  5  6 -1 -1</clus>
<clus scale="   93.247">  7  8 -1 -1</clus>
<clus scale="  134.090">  1  5  2 -1</clus>
<clus scale="  217.003">  2 10  1 -1</clus>
<clus scale="   24.835">  2  5  1 -1</clus>
</clustering>
</event>
<event>
10    3  0.5078224E-005  0.4457149E+03  0.7546771E-02  0.1029008E+00
         21   -1    0    0  501  502  0.00000000000E+00  0.00000000000E+00  0.25324302586E+03  0.25324302586E+03  0.00000000000E+00 0.  1.
          1   -1    0    0  503    0 -0.00000000000E+00 -0.00000000000E+00 -0.12140190830E+04  0.12140190830E+04  0.00000000000E+00 0. -1.
        -24    2    1    2    0    0  0.23609313299E+03 -0.30697964780E+02 -0.51251363666E+03  0.57061798843E+03  0.79071666675E+02 0.  0.
         23    2    1    2    0    0  0.15889685628E+03 -0.36145333688E+02 -0.24841656507E+03  0.31553095662E+03  0.10627463810E+03 0.  0.
         13    1    3    3    0    0  0.10193682557E+03  0.13956849256E+02 -0.28213818596E+03  0.30031294681E+03  0.00000000000E+00 0. -1.
        -14    1    3    3    0    0  0.13415630742E+03 -0.44654814036E+02 -0.23037545070E+03  0.27030504162E+03  0.00000000000E+00 0.  1.
        -11    1    4    4    0    0  0.17553843243E+02 -0.40321137720E+02 -0.23512800149E+02  0.49867658162E+02  0.00000000000E+00 0. -1.
         11    1    4    4    0    0  0.14134301304E+03  0.41758040325E+01 -0.22490376492E+03  0.26566329846E+03  0.00000000000E+00 0.  1.
         21    1    1    2  503  502 -0.21126821482E+02  0.17031993381E+02  0.97263941672E+02  0.10097873902E+03  0.00000000000E+00 0. -1.
          2    1    1    2  501    0 -0.37386316779E+03  0.49811305087E+02 -0.29710979707E+03  0.48013442478E+03  0.00000000000E+00 0. -1.
<scales pt_clust_5="13000.00000" pt_clust_6="13000.00000" pt_clust_7="13000.00000" pt_clust_8="13000.00000" pt_clust_9="27.13727" pt_clust_10="391.02652"></scales>
<clustering>
<clus scale="   27.137">  1  9  2 -1</clus>
<clus scale="   79.072">  5  6 -1 -1</clus>
<clus scale="  106.275">  7  8 -1 -1</clus>
<clus scale="  126.635">  5  7 -1 -1</clus>
<clus scale="  391.027">  1 10  2 -1</clus>
<clus scale="   27.137">  1  5  2 -1</clus>
</clustering>
</event>
<event>
10    3  0.5078224E-005  0.1515898E+03  0.7546771E-02  0.1200831E+00
          1   -1    0    0  502    0 -0.00000000000E+00  0.00000000000E+00  0.82907204958E+03  0.82907204958E+03  0.00000000000E+00 0. -1.
         21   -1    0    0  503  502  0.00000000000E+00 -0.00000000000E+00 -0.68888068488E+02  0.68888068488E+02  0.00000000000E+00 0. -1.
         23    2    1    2    0    0 -0.10783592400E+03 -0.10619560105E+03  0.45254918658E+03  0.48589945252E+03  0.91604691436E+02 0.  0.
        -24    2    1    2    0    0  0.33111651321E+02  0.83806717067E+02  0.16366685549E+03  0.20276664325E+03  0.78787846458E+02 0.  0.
         13    1    4    4    0    0  0.97670019224E+01  0.93485942891E+02  0.12161080058E+03  0.15370166773E+03  0.00000000000E+00 0. -1.
        -14    1    4    4    0    0  0.23344649399E+02 -0.96792258248E+01  0.42056054915E+02  0.49064975523E+02  0.00000000000E+00 0.  1.
        -11    1    3    3    0    0  0.75628288960E+01 -0.42945544727E+02  0.85595854559E+02  0.96063346342E+02  0.00000000000E+00 0.  1.
         11    1    3    3    0    0 -0.11539875289E+03 -0.63250056319E+02  0.36695333202E+03  0.38983610617E+03  0.00000000000E+00 0. -1.
         21    1    1    2  503  501 -0.31811926844E+02  0.10709013067E+02  0.52141861994E+01  0.33968653022E+02  0.00000000000E+00 0.  1.
          2    1    1    2  501    0  0.10653619952E+03  0.11679870913E+02  0.13875375281E+03  0.17532536927E+03  0.00000000000E+00 0. -1.
<scales pt_clust_5="13000.00000" pt_clust_6="13000.00000" pt_clust_7="13000.00000" pt_clust_8="13000.00000" pt_clust_9="33.56608" pt_clust_10="97.07369"></scales>
<clustering>
<clus scale="   33.566">  2  9  1 -1</clus>
<clus scale="   78.788">  5  6 -1 -1</clus>
<clus scale="   91.605">  7  8 -1 -1</clus>
<clus scale="   97.074">  2 10  1 -1</clus>
<clus scale="  144.207">  2  5  1 -1</clus>
<clus scale="   33.566">  2  5  1 -1</clus>
</clustering>
</event>
<event>
10    3  0.5078224E-005  0.2654426E+03  0.7546771E-02  0.1132712E+00
         21   -1    0    0  501  502  0.00000000000E+00  0.00000000000E+00  0.51459079845E+03  0.51459079845E+03  0.00000000000E+00 0. -1.
          3   -1    0    0  503    0 -0.00000000000E+00 -0.00000000000E+00 -0.16197611942E+04  0.16197611942E+04  0.00000000000E+00 0. -1.
        -24    2    1    2    0    0 -0.84903531977E+02 -0.52687432328E+02 -0.53050543601E+03  0.54579316682E+03  0.80433749422E+02 0.  0.
         23    2    1    2    0    0  0.12683081257E+03 -0.19225118741E+03 -0.99077704901E+03  0.10213451007E+04  0.91978691961E+02 0.  0.
         13    1    3    3    0    0 -0.60006091167E+02 -0.65955894057E+02 -0.28376145836E+03  0.29744155088E+03  0.00000000000E+00 0. -1.
        -14    1    3    3    0    0 -0.24897440810E+02  0.13268461729E+02 -0.24674397765E+03  0.24835161595E+03  0.00000000000E+00 0.  1.
        -13    1    4    4    0    0 -0.23573285358E+01 -0.70012343724E+02 -0.29318240487E+03  0.30143524644E+03  0.00000000000E+00 0.  1.
         13    1    4    4    0    0  0.12918814111E+03 -0.12223884369E+03 -0.69759464414E+03  0.71990985425E+03  0.00000000000E+00 0. -1.
         21    1    1    2  503  502 -0.20641583313E+02 -0.58376957320E+02  0.14697310437E+02  0.63639257080E+02  0.00000000000E+00 0.  1.
          4    1    1    2  501    0 -0.21285697280E+02  0.30331557706E+03  0.40141477885E+03  0.50357446805E+03  0.00000000000E+00 0. -1.
<scales pt_clust_5="13000.00000" pt_clust_6="13000.00000" pt_clust_7="13000.00000" pt_clust_8="13000.00000" pt_clust_9="61.91885" pt_clust_10="248.99733"></scales>
<clustering>
<clus scale="   61.919">  1  9  2 -1</clus>
<clus scale="   80.434">  5  6 -1 -1</clus>
<clus scale="   91.979">  7  8 -1 -1</clus>
<clus scale="  128.881">  2  5  1 -1</clus>
<clus scale="  248.997">  1 10  2 -1</clus>
<clus scale="   61.919">  1  5  2 -1</clus>
</clustering>
</event>
<event>
10    3  0.5078224E-005  0.1243561E+03  0.7546771E-02  0.1254622E+00
         21   -1    0    0  503  502  0.00000000000E+00  0.00000000000E+00  0.57759256312E+03  0.57759256312E+03  0.00000000000E+00 0. -1.
          1   -1    0    0  502    0 -0.00000000000E+00 -0.00000000000E+00 -0.23505997262E+03  0.23505997262E+03  0.00000000000E+00 0. -1.
        -24    2    1    2    0    0  0.56854378346E+01  0.28296450590E+02 -0.14458678101E+03  0.16790300602E+03  0.80330995676E+02 0.  0.
         23    2    1    2    0    0 -0.57562664580E+02  0.43082679197E+02 -0.22120915569E+02  0.11833187887E+03  0.91342876306E+02 0.  0.
         13    1    3    3    0    0  0.10802983970E+02  0.49623344096E+02 -0.13448788357E+03  0.14375733571E+03  0.00000000000E+00 0. -1.
        -14    1    3    3    0    0 -0.51175461356E+01 -0.21326893507E+02 -0.10098897439E+02  0.24145670307E+02  0.00000000000E+00 0.  1.
        -11    1    4    4    0    0 -0.92558655885E+01 -0.21549732406E+02  0.16697331829E+02  0.28789979243E+02  0.00000000000E+00 0.  1.
         11    1    4    4    0    0 -0.48306798992E+02  0.64632411604E+02 -0.38818247399E+02  0.89541899632E+02  0.00000000000E+00 0. -1.
         21    1    1    2  503  501  0.41920993424E+02  0.16336515199E+02  0.18207411937E+03  0.18755062347E+03  0.00000000000E+00 0. -1.
          2    1    1    2  501    0  0.99562333218E+01 -0.87715644986E+02  0.32716616771E+03  0.33886702739E+03  0.00000000000E+00 0. -1.
<scales pt_clust_5="13000.00000" pt_clust_6="13000.00000" pt_clust_7="13000.00000" pt_clust_8="13000.00000" pt_clust_9="44.99168" pt_clust_10="84.38560"></scales>
<clustering>
<clus scale="   44.992">  1  9  2 -1</clus>
<clus scale="   80.331">  5  6 -1 -1</clus>
<clus scale="   85.612">  2  5  1 -1</clus>
<clus scale="   84.386">  1 10  2 -1</clus>
<clus scale="   91.343">  7  8 -1 -1</clus>
<clus scale="   44.992">  1  5  2 -1</clus>
</clustering>
</event>
<event>
10    3  0.5078224E-005  0.1356940E+03  0.7546771E-02  0.1235544E+00
         -2   -1    0    0    0  501 -0.00000000000E+00  0.00000000000E+00  0.21152096972E+03  0.21152096972E+03  0.00000000000E+00 0.  1.
         21   -1    0    0  503  502  0.00000000000E+00 -0.00000000000E+00 -0.18760099545E+03  0.18760099545E+03  0.00000000000E+00 0.  1.
         23    2    1    2    0    0  0.20032459521E+02  0.53037124644E+01 -0.10703500079E+02  0.94474892797E+02  0.91550596146E+02 0.  0.
        -24    2    1    2    0    0  0.16570889176E+02 -0.10603978450E+03  0.35427918097E+02  0.13882163812E+03  0.80605704295E+02 0.  0.
         11    1    4    4    0    0  0.27048458981E+02 -0.53325397225E+02 -0.18594741733E+02  0.62617741436E+02  0.00000000000E+00 0. -1.
        -12    1    4    4    0    0 -0.10477569805E+02 -0.52714387275E+02  0.54022659830E+02  0.76203896685E+02  0.00000000000E+00 0.  1.
        -13    1    3    3    0    0  0.25925723415E+02 -0.35518823071E+02  0.14301678585E+02  0.46241409335E+02  0.00000000000E+00 0. -1.
         13    1    3    3    0    0 -0.58932638941E+01  0.40822535535E+02 -0.25005178665E+02  0.48233483462E+02  0.00000000000E+00 0.  1.
         21    1    1    2  503  501  0.44007525245E+02  0.14825108444E+02  0.10068065796E+02  0.47516439970E+02  0.00000000000E+00 0. -1.
         -1    1    1    2    0  502 -0.80610873943E+02  0.85910963592E+02 -0.10872509546E+02  0.11830899428E+03  0.00000000000E+00 0.  1.
<scales pt_clust_5="13000.00000" pt_clust_6="13000.00000" pt_clust_7="13000.00000" pt_clust_8="13000.00000" pt_clust_9="46.43755" pt_clust_10="109.15852"></scales>
<clustering>
<clus scale="   46.438">  1  9  2 -1</clus>
<clus scale="   80.606">  5  6 -1 -1</clus>
<clus scale="   91.551">  7  8 -1 -1</clus>
<clus scale="   96.770">  1  7  2 -1</clus>
<clus scale="  109.159">  2 10  1 -1</clus>
<clus scale="  109.159">  2  5  1 -1</clus>
</clustering>
</event>
<event>
10    3  0.5078224E-005  0.8618365E+02  0.7546771E-02  0.1315416E+00
         21   -1    0    0  501  502  0.00000000000E+00  0.00000000000E+00  0.14923082221E+03  0.14923082221E+03  0.00000000000E+00 0. -1.
          1   -1    0    0  503    0 -0.00000000000E+00 -0.00000000000E+00 -0.10463881744E+03  0.10463881744E+03  0.00000000000E+00 0. -1.
         23    2    1    2    0    0 -0.86320048561E+01  0.75448530062E+01 -0.26684343589E+02  0.90093386939E+02  0.85283807740E+02 0.  0.
        -24    2    1    2    0    0 -0.16954146986E+02 -0.22252900398E+02  0.35460567126E+02  0.92408803417E+02  0.80618238953E+02 0.  0.
         13    1    4    4    0    0 -0.47297574794E+02 -0.16071450350E+02  0.71710006813E+01  0.50465585784E+02  0.00000000000E+00 0. -1.
        -14    1    4    4    0    0  0.30343427808E+02 -0.61814500488E+01  0.28289566445E+02  0.41943217634E+02  0.00000000000E+00 0.  1.
        -11    1    3    3    0    0  0.37509397378E+02  0.24918092633E+01 -0.21709122055E+02  0.43410252078E+02  0.00000000000E+00 0.  1.
         11    1    3    3    0    0 -0.46141402234E+02  0.50530437429E+01 -0.49752215339E+01  0.46683134861E+02  0.00000000000E+00 0. -1.
         21    1    1    2  503  502  0.41501675540E+01  0.31670913282E+02  0.29121020180E+02  0.43223887553E+02  0.00000000000E+00 0. -1.
          2    1    1    2  501    0  0.21435984288E+02 -0.16962865890E+02  0.66947610552E+01  0.28143561736E+02  0.00000000000E+00 0. -1.
<scales pt_clust_5="13000.00000" pt_clust_6="13000.00000" pt_clust_7="13000.00000" pt_clust_8="13000.00000" pt_clust_9="28.81863" pt_clust_10="27.33570"></scales>
<clustering>
<clus scale="   27.336">  1 10  2 -1</clus>
<clus scale="   28.819">  1  9  2 -1</clus>
<clus scale="   80.618">  5  6 -1 -1</clus>
<clus scale="   81.570">  1  5  2 -1</clus>
<clus scale="   85.284">  7  8 -1 -1</clus>
<clus scale="   27.336">  1  5  2 -1</clus>
</clustering>
</event>
<event>
10    3  0.5078224E-005  0.1476057E+03  0.7546771E-02  0.1229966E+00
         21   -1    0    0  501  502  0.00000000000E+00  0.00000000000E+00  0.54476996607E+03  0.54476996607E+03  0.00000000000E+00 0. -1.
          1   -1    0    0  503    0 -0.00000000000E+00 -0.00000000000E+00 -0.87274189330E+02  0.87274189330E+02  0.00000000000E+00 0. -1.
        -24    2    1    2    0    0 -0.19273854349E+02 -0.15401077547E+02  0.69304447412E+01  0.84631656380E+02  0.80658611111E+02 0.  0.
         23    2    1    2    0    0 -0.24886831752E+02 -0.10771360075E+03  0.16415198906E+03  0.21902730838E+03  0.93837690297E+02 0.  0.
         13    1    3    3    0    0  0.82627278747E+01 -0.41423419784E+02 -0.95658604358E+01  0.43309099095E+02  0.00000000000E+00 0. -1.
        -14    1    3    3    0    0 -0.27536582224E+02  0.26022342238E+02  0.16496305177E+02  0.41322557285E+02  0.00000000000E+00 0.  1.
        -11    1    4    4    0    0  0.24009655272E+02 -0.72033215225E+01  0.67198374099E+01  0.25952025009E+02  0.00000000000E+00 0.  1.
         11    1    4    4    0    0 -0.48896487024E+02 -0.10051027923E+03  0.15743215165E+03  0.19307528337E+03  0.00000000000E+00 0. -1.
         21    1    1    2  503  502 -0.12578493074E+02  0.19256431690E+02  0.13119827110E+03  0.13319915536E+03  0.00000000000E+00 0. -1.
          2    1    1    2  501    0  0.56739179176E+02  0.10385824661E+03  0.15521507184E+03  0.19518603528E+03  0.00000000000E+00 0. -1.
<scales pt_clust_5="13000.00000" pt_clust_6="13000.00000" pt_clust_7="13000.00000" pt_clust_8="13000.00000" pt_clust_9="23.00062" pt_clust_10="113.93838"></scales>
<clustering>
<clus scale="   23.001">  1  9  2 -1</clus>
<clus scale="   80.659">  5  6 -1 -1</clus>
<clus scale="   84.315">  2  5  1 -1</clus>
<clus scale="   93.838">  7  8 -1 -1</clus>
<clus scale="  113.938">  1 10  2 -1</clus>
<clus scale="   23.001">  1  5  2 -1</clus>
</clustering>
</event>
<event>
10    3  0.5078224E-005  0.1969838E+03  0.7546771E-02  0.1185672E+00
          1   -1    0    0  503    0 -0.00000000000E+00  0.00000000000E+00  0.24953429762E+03  0.24953429762E+03  0.00000000000E+00 0. -1.
         21   -1    0    0  501  502  0.00000000000E+00 -0.00000000000E+00 -0.28280744372E+03  0.28280744372E+03  0.00000000000E+00 0.  1.
        -24    2    1    2    0    0  0.16677415930E+02 -0.41470585332E+02 -0.56296584023E+02  0.10731547742E+03  0.79682875642E+02 0.  0.
         23    2    1    2    0    0  0.14811615478E+03  0.81054964872E+02 -0.42169426555E+02  0.19470309411E+03  0.87308256655E+02 0.  0.
         13    1    3    3    0    0  0.36176591485E+01 -0.63413443475E+02 -0.28645144952E+02  0.69677088059E+02  0.00000000000E+00 0. -1.
        -14    1    3    3    0    0  0.13059756782E+02  0.21942858143E+02 -0.27651439071E+02  0.37638389357E+02  0.00000000000E+00 0.  1.
        -13    1    4    4    0    0  0.85548508250E+02  0.43374144720E+02 -0.67622530208E+02  0.11735702061E+03  0.00000000000E+00 0.  1.
         13    1    4    4    0    0  0.62567646535E+02  0.37680820152E+02  0.25453103653E+02  0.77346073500E+02  0.00000000000E+00 0. -1.
         21    1    1    2  503  502  0.23224513391E+02  0.37165223781E+01  0.22849423330E+02  0.32791564576E+02  0.00000000000E+00 0. -1.
          2    1    1    2  501    0 -0.18801808411E+03 -0.43300901918E+02  0.42343441150E+02  0.19753160523E+03  0.00000000000E+00 0. -1.
<scales pt_clust_5="13000.00000" pt_clust_6="13000.00000" pt_clust_7="13000.00000" pt_clust_8="13000.00000" pt_clust_9="23.52000" pt_clust_10="176.57831"></scales>
<clustering>
<clus scale="   23.520">  1  9  2 -1</clus>
<clus scale="   79.683">  5  6 -1 -1</clus>
<clus scale="   87.308">  7  8 -1 -1</clus>
<clus scale="   91.697">  1  5  2 -1</clus>
<clus scale="  176.578">  2 10  1 -1</clus>
<clus scale="  176.578">  2  5  1 -1</clus>
</clustering>
</event>
<event>
10    3  0.5078224E-005  0.1126619E+03  0.7546771E-02  0.1259909E+00
         21   -1    0    0  501  502  0.00000000000E+00  0.00000000000E+00  0.42067702823E+02  0.42067702823E+02  0.00000000000E+00 0. -1.
          1   -1    0    0  503    0 -0.00000000000E+00 -0.00000000000E+00 -0.73347930681E+03  0.73347930681E+03  0.00000000000E+00 0. -1.
         23    2    1    2    0    0  0.25759271807E+02 -0.23384028068E+02 -0.15765851558E+03  0.18594637299E+03  0.92246914527E+02 0.  0.
        -24    2    1    2    0    0 -0.53919660323E+02  0.76667320458E+02 -0.27169387844E+03  0.29862691693E+03  0.81088002402E+02 0.  0.
         13    1    4    4    0    0 -0.30597658306E+02  0.90947953258E+02 -0.22322188296E+03  0.24297274730E+03  0.00000000000E+00 0. -1.
        -14    1    4    4    0    0 -0.23322002016E+02 -0.14280632800E+02 -0.48471995483E+02  0.55654169631E+02  0.00000000000E+00 0.  1.
        -13    1    3    3    0    0 -0.13848426073E+01  0.23508165360E+02 -0.11387725405E+03  0.11628663129E+03  0.00000000000E+00 0.  1.
         13    1    3    3    0    0  0.27144114414E+02 -0.46892193428E+02 -0.43781261531E+02  0.69659741695E+02  0.00000000000E+00 0. -1.
         21    1    1    2  503  502 -0.37734538295E+02 -0.28284318039E+02 -0.56089139819E+02  0.73279530791E+02  0.00000000000E+00 0. -1.
          2    1    1    2  501    0  0.65894926810E+02 -0.24998974351E+02 -0.20597007014E+03  0.21769418893E+03  0.00000000000E+00 0. -1.
<scales pt_clust_5="13000.00000" pt_clust_6="13000.00000" pt_clust_7="13000.00000" pt_clust_8="13000.00000" pt_clust_9="47.15822" pt_clust_10="66.42316"></scales>
<clustering>
<clus scale="   47.158">  1  9  2 -1</clus>
<clus scale="   66.423">  1 10  2 -1</clus>
<clus scale="   81.088">  5  6 -1 -1</clus>
<clus scale="   92.247">  7  8 -1 -1</clus>
<clus scale="  103.723">  1  5  2 -1</clus>
<clus scale="   47.158">  1  5  2 -1</clus>
</clustering>
</event>
<event>
10    3  0.5078224E-005  0.1465664E+03  0.7546771E-02  0.1206727E+00
          1   -1    0    0  502    0 -0.00000000000E+00  0.00000000000E+00  0.45838906945E+03  0.45838906945E+03  0.00000000000E+00 0. -1.
         21   -1    0    0  503  502  0.00000000000E+00 -0.00000000000E+00 -0.13425267618E+03  0.13425267618E+03  0.00000000000E+00 0. -1.
        -24    2    1    2    0    0  0.64666931600E+02  0.67035697737E+02  0.16160775639E+03  0.20318780047E+03  0.80576786494E+02 0.  0.
         23    2    1    2    0    0 -0.14703691348E+03 -0.11559752064E+03  0.93723483292E+02  0.22804540006E+03  0.90763277068E+02 0.  0.
         13    1    3    3    0    0  0.70157865694E+02  0.69849841093E+02  0.98071287394E+02  0.13935244465E+03  0.00000000000E+00 0. -1.
        -14    1    3    3    0    0 -0.54909340941E+01 -0.28141433560E+01  0.63536469000E+02  0.63835355823E+02  0.00000000000E+00 0.  1.
        -11    1    4    4    0    0 -0.65288249726E+02 -0.30947725192E+02 -0.77389408458E+01  0.72665042850E+02  0.00000000000E+00 0. -1.
         11    1    4    4    0    0 -0.81748663756E+02 -0.84649795449E+02  0.10146242414E+03  0.15538035721E+03  0.00000000000E+00 0.  1.
         21    1    1    2  503  501  0.41817797705E+02  0.32059304067E+01 -0.25570921019E+02  0.49121056548E+02  0.00000000000E+00 0. -1.
          2    1    1    2  501    0  0.40552184178E+02  0.45355892497E+02  0.94376074602E+02  0.11228748854E+03  0.00000000000E+00 0. -1.
<scales pt_clust_5="13000.00000" pt_clust_6="13000.00000" pt_clust_7="13000.00000" pt_clust_8="13000.00000" pt_clust_9="41.94051" pt_clust_10="63.69441"></scales>
<clustering>
<clus scale="   41.941">  2  9  1 -1</clus>
<clus scale="   63.694">  2 10  1 -1</clus>
<clus scale="   80.577">  5  6 -1 -1</clus>
<clus scale="   90.763">  7  8 -1 -1</clus>
<clus scale="  140.486">  1  5  2 -1</clus>
<clus scale="   41.941">  2  5  1 -1</clus>
</clustering>
</event>
<event>
10    3  0.5078224E-005  0.1872145E+03  0.7546771E-02  0.1183090E+00
         21   -1    0    0  501  502  0.00000000000E+00  0.00000000000E+00  0.21022944536E+03  0.21022944536E+03  0.00000000000E+00 0. -1.
          1   -1    0    0  503    0 -0.00000000000E+00 -0.00000000000E+00 -0.87949510333E+03  0.87949510333E+03  0.00000000000E+00 0. -1.
         23    2    1    2    0    0 -0.61778539433E+02  0.33634979093E+02 -0.11223320540E+03  0.16219184258E+03  0.93605564213E+02 0.  0.
        -24    2    1    2    0    0 -0.82412037939E+02 -0.15188825319E+03 -0.55374029497E+03  0.58483979338E+03  0.74481435188E+02 0.  0.
         11    1    4    4    0    0 -0.32985567838E+02 -0.12854532687E+03 -0.36667654541E+03  0.38995337888E+03  0.00000000000E+00 0. -1.
        -12    1    4    4    0    0 -0.49426470101E+02 -0.23342926323E+02 -0.18706374956E+03  0.19488641450E+03  0.00000000000E+00 0.  1.
        -11    1    3    3    0    0 -0.65904070374E+02  0.59093508176E+02 -0.70629915602E+02  0.11324298733E+03  0.00000000000E+00 0.  1.
         11    1    3    3    0    0  0.41255309413E+01 -0.25458529083E+02 -0.41603289793E+02  0.48948855250E+02  0.00000000000E+00 0. -1.
         21    1    1    2  503  502  0.75662224806E+02  0.11024136449E+03  0.13383803418E+03  0.18918390550E+03  0.00000000000E+00 0. -1.
          2    1    1    2  501    0  0.68528352565E+02  0.80119096099E+01 -0.13713019179E+03  0.15350900723E+03  0.00000000000E+00 0. -1.
<scales pt_clust_5="13000.00000" pt_clust_6="13000.00000" pt_clust_7="13000.00000" pt_clust_8="13000.00000" pt_clust_9="171.76087" pt_clust_10="68.99515"></scales>
<clustering>
<clus scale="   68.995">  1 10  2 -1</clus>
<clus scale="   74.481">  5  6 -1 -1</clus>
<clus scale="   93.606">  7  8 -1 -1</clus>
<clus scale="  113.148">  2  7  1 -1</clus>
<clus scale="  171.761">  1  9  2 -1</clus>
<clus scale="   68.995">  1  5  2 -1</clus>
</clustering>
</event>
<event>
10    3  0.5078224E-005  0.8502965E+02  0.7546771E-02  0.1317056E+00
         21   -1    0    0  503  502  0.00000000000E+00  0.00000000000E+00  0.16269033659E+03  0.16269033659E+03  0.00000000000E+00 0. -1.
         -2   -1    0    0    0  501 -0.00000000000E+00 -0.00000000000E+00 -0.33094870264E+03  0.33094870264E+03  0.00000000000E+00 0.  1.
        -24    2    1    2    0    0 -0.30392588750E+02  0.21594927597E+02 -0.19128496044E+03  0.21062814488E+03  0.79901370304E+02 0.  0.
         23    2    1    2    0    0 -0.35880499905E+02 -0.10996350543E+02 -0.79048889593E+02  0.12029209648E+03  0.82541695714E+02 0.  0.
         11    1    3    3    0    0  0.17374752904E+02  0.25796232643E+02 -0.33474228214E+02  0.45693014910E+02  0.00000000000E+00 0. -1.
        -12    1    3    3    0    0 -0.47767341654E+02 -0.42013050454E+01 -0.15781073222E+03  0.16493512997E+03  0.00000000000E+00 0.  1.
        -13    1    4    4    0    0 -0.37512016936E+02  0.19781742013E+02 -0.78780356123E+02  0.89469621898E+02  0.00000000000E+00 0.  1.
         13    1    4    4    0    0  0.16315170312E+01 -0.30778092557E+02 -0.26853347023E+00  0.30822474584E+02  0.00000000000E+00 0. -1.
         21    1    1    2  503  501  0.73397514136E+02  0.18613450876E+02  0.10816971168E+03  0.13203916904E+03  0.00000000000E+00 0. -1.
         -1    1    1    2    0  502 -0.71244254809E+01 -0.29212027930E+02 -0.60942276941E+01  0.30679628834E+02  0.00000000000E+00 0.  1.
<scales pt_clust_5="13000.00000" pt_clust_6="13000.00000" pt_clust_7="13000.00000" pt_clust_8="13000.00000" pt_clust_9="67.87204" pt_clust_10="30.06826"></scales>
<clustering>
<clus scale="   30.068">  1 10  2 -1</clus>
<clus scale="   67.872">  1  9  2 -1</clus>
<clus scale="   79.901">  5  6 -1 -1</clus>
<clus scale="   82.469">  2  5  1 -1</clus>
<clus scale="   82.542">  7  8 -1 -1</clus>
<clus scale="   30.068">  1  5  2 -1</clus>
</clustering>
</event>
<event>
10    3  0.5078224E-005  0.1610707E+03  0.7546771E-02  0.1213442E+00
          1   -1    0    0  503    0 -0.00000000000E+00  0.00000000000E+00  0.11576327198E+04  0.11576327198E+04  0.00000000000E+00 0. -1.
         21   -1    0    0  501  502  0.00000000000E+00 -0.00000000000E+00 -0.65165173866E+02  0.65165173866E+02  0.00000000000E+00 0. -1.
        -24    2    1    2    0    0 -0.38249952731E+02  0.66642357323E+01  0.64181323563E+02  0.11015376394E+03  0.80666836394E+02 0.  0.
         23    2    1    2    0    0 -0.72211393724E+02 -0.11195690411E+03  0.66305446836E+03  0.68270136324E+03  0.93226013564E+02 0.  0.
         11    1    3    3    0    0 -0.26812797623E+02  0.34142524764E+02  0.47313949033E+01  0.43669488334E+02  0.00000000000E+00 0. -1.
        -12    1    3    3    0    0 -0.11437155108E+02 -0.27478289032E+02  0.59449928660E+02  0.66484275605E+02  0.00000000000E+00 0.  1.
        -11    1    4    4    0    0  0.11183011430E+02 -0.61284454381E+02  0.32153475128E+03  0.32751403081E+03  0.00000000000E+00 0.  1.
         11    1    4    4    0    0 -0.83394405154E+02 -0.50672449724E+02  0.34151971708E+03  0.35518733244E+03  0.00000000000E+00 0. -1.
         21    1    1    2  503  502  0.18495105920E+01  0.30653741123E+02 -0.99559090419E+01  0.32283008830E+02  0.00000000000E+00 0. -1.
          2    1    1    2  501    0  0.10861183586E+03  0.74638927250E+02  0.37518766310E+03  0.39765975769E+03  0.00000000000E+00 0. -1.
<scales pt_clust_5="13000.00000" pt_clust_6="13000.00000" pt_clust_7="13000.00000" pt_clust_8="13000.00000" pt_clust_9="30.70949" pt_clust_10="131.34941"></scales>
<clustering>
<clus scale="   30.709">  2  9  1 -1</clus>
<clus scale="   80.667">  5  6 -1 -1</clus>
<clus scale="   91.711">  1  5  2 -1</clus>
<clus scale="   93.226">  7  8 -1 -1</clus>
<clus scale="  131.349">  2 10  1 -1</clus>
<clus scale="   30.709">  2  5  1 -1</clus>
</clustering>
</event>
<event>
10    3  0.5078224E-005  0.2969008E+03  0.7546771E-02  0.1086800E+00
          1   -1    0    0  502    0 -0.00000000000E+00  0.00000000000E+00  0.74665592052E+03  0.74665592052E+03  0.00000000000E+00 0. -1.
         21   -1    0    0  503  502  0.00000000000E+00 -0.00000000000E+00 -0.17893938414E+03  0.17893938414E+03  0.00000000000E+00 0. -1.
        -24    2    1    2    0    0 -0.84048366381E+02 -0.47822302889E+02  0.14953192971E+03  0.19589989152E+03  0.81644772945E+02 0.  0.
         23    2    1    2    0    0 -0.12457384471E+03 -0.71654993452E+02  0.85979074225E+02  0.19073009757E+03  0.91282462938E+02 0.  0.
         11    1    3    3    0    0 -0.87546820467E+01 -0.48185973331E+02  0.77637014344E+02  0.91793455539E+02  0.00000000000E+00 0. -1.
        -12    1    3    3    0    0 -0.75293684334E+02  0.36367044188E+00  0.71894915367E+02  0.10410643598E+03  0.00000000000E+00 0.  1.
        -13    1    4    4    0    0 -0.91826216103E+02 -0.19692939696E+02  0.12156541663E+02  0.94697662817E+02  0.00000000000E+00 0. -1.
         13    1    4    4    0    0 -0.32747628608E+02 -0.51962053756E+02  0.73822532562E+02  0.96032434749E+02  0.00000000000E+00 0.  1.
         21    1    1    2  503  501  0.70731798756E+01  0.23350126077E+02 -0.72636192285E+02  0.76624243494E+02  0.00000000000E+00 0. -1.
          2    1    1    2  501    0  0.20154903122E+03  0.96127170264E+02  0.40484172474E+03  0.46234107208E+03  0.00000000000E+00 0. -1.
<scales pt_clust_5="13000.00000" pt_clust_6="13000.00000" pt_clust_7="13000.00000" pt_clust_8="13000.00000" pt_clust_9="24.39792" pt_clust_10="227.88344"></scales>
<clustering>
<clus scale="   24.398">  2  9  1 -1</clus>
<clus scale="   81.645">  5  6 -1 -1</clus>
<clus scale="   91.282">  7  8 -1 -1</clus>
<clus scale="  109.359">  5  7 -1 -1</clus>
<clus scale="  227.883">  2 10  1 -1</clus>
<clus scale="   24.398">  2  5  1 -1</clus>
</clustering>
</event>
<event>
10    3  0.5078224E-005  0.1044792E+03  0.7546771E-02  0.1275599E+00
          1   -1    0    0  502    0 -0.00000000000E+00  0.00000000000E+00  0.51052913402E+03  0.51052913402E+03  0.00000000000E+00 0. -1.
         21   -1    0    0  503  502  0.00000000000E+00 -0.00000000000E+00 -0.16798705738E+03  0.16798705738E+03  0.00000000000E+00 0.  1.
        -24    2    1    2    0    0 -0.47412369948E+02  0.46972640367E+02  0.15525663863E+03  0.18698019482E+03  0.80016296157E+02 0.  0.
         23    2    1    2    0    0 -0.51737963299E+01 -0.37813055984E+01 -0.28409681285E+02  0.94701344435E+02  0.90111975934E+02 0.  0.
         11    1    3    3    0    0 -0.34542111911E+02  0.55107922054E+02  0.15857715135E+03  0.17139648041E+03  0.00000000000E+00 0. -1.
        -12    1    3    3    0    0 -0.12870258036E+02 -0.81352816872E+01 -0.33205127204E+01  0.15583714409E+02  0.00000000000E+00 0.  1.
        -13    1    4    4    0    0 -0.18257076345E+02  0.14425300161E+02 -0.55119314878E+02  0.59829332221E+02  0.00000000000E+00 0. -1.
         13    1    4    4    0    0  0.13083280015E+02 -0.18206605760E+02  0.26709633593E+02  0.34872012214E+02  0.00000000000E+00 0.  1.
         21    1    1    2  503  501 -0.44761496221E+01 -0.22090086336E+02 -0.86083117687E+02  0.88984891866E+02  0.00000000000E+00 0.  1.
          2    1    1    2  501    0  0.57062315900E+02 -0.21101248432E+02  0.30177823699E+03  0.30784976028E+03  0.00000000000E+00 0. -1.
<scales pt_clust_5="13000.00000" pt_clust_6="13000.00000" pt_clust_7="13000.00000" pt_clust_8="13000.00000" pt_clust_9="22.53903" pt_clust_10="60.97540"></scales>
<clustering>
<clus scale="   22.539">  2  9  1 -1</clus>
<clus scale="   60.975">  2 10  1 -1</clus>
<clus scale="   80.016">  5  6 -1 -1</clus>
<clus scale="   90.112">  7  8 -1 -1</clus>
<clus scale="   95.908">  1  5  2 -1</clus>
<clus scale="   22.539">  2  5  1 -1</clus>
</clustering>
</event>
<event>
10    3  0.5078224E-005  0.1880877E+03  0.7546771E-02  0.1161627E+00
         21   -1    0    0  501  502  0.00000000000E+00  0.00000000000E+00  0.10873328325E+04  0.10873328325E+04  0.00000000000E+00 0. -1.
         -2   -1    0    0    0  501 -0.00000000000E+00 -0.00000000000E+00 -0.12215019329E+03  0.12215019329E+03  0.00000000000E+00 0.  1.
         23    2    1    2    0    0  0.14999679669E+03  0.62445193188E+02  0.59868444526E+02  0.19727402414E+03  0.94521789973E+02 0.  0.
        -24    2    1    2    0    0 -0.14519619788E+03 -0.76470786951E+02  0.85157829911E+03  0.87107746217E+03  0.81612673349E+02 0.  0.
         11    1    4    4    0    0 -0.97324896432E+02 -0.85092917230E+02  0.51378220920E+03  0.52979722396E+03  0.00000000000E+00 0. -1.
        -12    1    4    4    0    0 -0.47871301447E+02  0.86221302791E+01  0.33779608991E+03  0.34128023820E+03  0.00000000000E+00 0.  1.
        -13    1    3    3    0    0  0.10510652801E+03  0.87216759307E+02  0.40389820935E+02  0.14242711458E+03  0.00000000000E+00 0.  1.
         13    1    3    3    0    0  0.44890268688E+02 -0.24771566119E+02  0.19478623591E+02  0.54846909557E+02  0.00000000000E+00 0. -1.
         21    1    1    2  503  502  0.19269109333E+02 -0.85788609559E+01  0.89794443429E+02  0.92238481669E+02  0.00000000000E+00 0.  1.
         -1    1    1    2    0  503 -0.24069708147E+02  0.22604454719E+02 -0.36058547886E+02  0.48893057780E+02  0.00000000000E+00 0.  1.
<scales pt_clust_5="13000.00000" pt_clust_6="13000.00000" pt_clust_7="13000.00000" pt_clust_8="13000.00000" pt_clust_9="21.09254" pt_clust_10="32.89163"></scales>
<clustering>
<clus scale="   21.093">  1  9  2 -1</clus>
<clus scale="   32.892">  1 10  2 -1</clus>
<clus scale="   81.613">  5  6 -1 -1</clus>
<clus scale="   94.522">  7  8 -1 -1</clus>
<clus scale="  181.943">  1  5  2 -1</clus>
<clus scale="   21.093">  1  5  2 -1</clus>
</clustering>
</event>
<event>
10    3  0.5078224E-005  0.1331124E+03  0.7546771E-02  0.1228312E+00
         -2   -1    0    0    0  501 -0.00000000000E+00  0.00000000000E+00  0.38467800200E+03  0.38467800200E+03  0.00000000000E+00 0.  1.
         21   -1    0    0  503  502  0.00000000000E+00 -0.00000000000E+00 -0.10793468833E+03  0.10793468833E+03  0.00000000000E+00 0. -1.
        -24    2    1    2    0    0 -0.98609646473E+01  0.84743901587E+02  0.25121055387E+03  0.28695209445E+03  0.10934347101E+03 0.  0.
         23    2    1    2    0    0  0.19896004660E+01 -0.35995443977E+02 -0.43966767570E+02  0.10780620799E+03  0.91594057308E+02 0.  0.
         13    1    3    3    0    0 -0.12680479574E+02  0.10598614251E+03  0.24022345776E+03  0.26287100758E+03  0.00000000000E+00 0. -1.
        -14    1    3    3    0    0  0.28195149266E+01 -0.21242240923E+02  0.10987096100E+02  0.24081086864E+02  0.00000000000E+00 0.  1.
        -13    1    4    4    0    0 -0.38760695485E+01  0.25944696181E+02 -0.36778161062E+02  0.45175040743E+02  0.00000000000E+00 0. -1.
         13    1    4    4    0    0  0.58656700144E+01 -0.61940140158E+02 -0.71886065075E+01  0.62631167249E+02  0.00000000000E+00 0.  1.
         21    1    1    2  503  501 -0.67012841070E+01 -0.34566128456E+02  0.12543684230E+02  0.37377378977E+02  0.00000000000E+00 0. -1.
         -1    1    1    2    0  502  0.14572648288E+02 -0.14182329154E+02  0.56955843146E+02  0.60477008911E+02  0.00000000000E+00 0.  1.
<scales pt_clust_5="13000.00000" pt_clust_6="13000.00000" pt_clust_7="13000.00000" pt_clust_8="13000.00000" pt_clust_9="36.56776" pt_clust_10="20.33472"></scales>
<clustering>
<clus scale="   20.335">  2 10  1 -1</clus>
<clus scale="   36.568">  2  9  1 -1</clus>
<clus scale="   91.594">  7  8 -1 -1</clus>
<clus scale="  109.343">  5  6 -1 -1</clus>
<clus scale="  118.964">  2  7  1 -1</clus>
<clus scale="   20.335">  2  5  1 -1</clus>
</clustering>
</event>
<event>
10    3  0.5078224E-005  0.1723304E+03  0.7546771E-02  0.1203039E+00
          1   -1    0    0  502    0 -0.00000000000E+00  0.00000000000E+00  0.14049445781E+04  0.14049445781E+04  0.00000000000E+00 0. -1.
         21   -1    0    0  503  502  0.00000000000E+00 -0.00000000000E+00 -0.10213669661E+03  0.10213669661E+03  0.00000000000E+00 0. -1.
         23    2    1    2    0    0  0.10202993431E+02 -0.18366003429E+02  0.25343350241E+02  0.96942688962E+02  0.91182171420E+02 0.  0.
        -24    2    1    2    0    0 -0.47818740788E+02 -0.15974690434E+02  0.48386502605E+03  0.49306304764E+03  0.80274421867E+02 0.  0.
         13    1    4    4    0    0 -0.63645586967E+02 -0.28954951778E+02  0.29893731895E+03  0.30700597817E+03  0.00000000000E+00 0. -1.
        -14    1    4    4    0    0  0.15826846179E+02  0.12980261344E+02  0.18492770710E+03  0.18605706946E+03  0.00000000000E+00 0.  1.
        -13    1    3    3    0    0  0.42690995214E+01 -0.44237703057E+02  0.45507178057E+02  0.63608983935E+02  0.00000000000E+00 0. -1.
         13    1    3    3    0    0  0.59338939092E+01  0.25871699629E+02 -0.20163827816E+02  0.33333705027E+02  0.00000000000E+00 0.  1.
         21    1    1    2  503  501 -0.88604703133E+02 -0.13783084415E+03  0.10137245644E+03  0.19267721697E+03  0.00000000000E+00 0. -1.
          2    1    1    2  501    0  0.12622045049E+03  0.17217153801E+03  0.69222704881E+03  0.72439832118E+03  0.00000000000E+00 0. -1.
<scales pt_clust_5="13000.00000" pt_clust_6="13000.00000" pt_clust_7="13000.00000" pt_clust_8="13000.00000" pt_clust_9="13000.00000" pt_clust_10="172.33044"></scales>
<clustering>
<clus scale="   80.274">  5  6 -1 -1</clus>
<clus scale="   91.182">  7  8 -1 -1</clus>
<clus scale="   93.571">  1  7  2 -1</clus>
<clus scale="   94.354">  1  5  2 -1</clus>
<clus scale="  172.330">  1 10  2 -1</clus>
<clus scale="  172.330">  2  5  1 -1</clus>
</clustering>
</event>
<event>
10    3  0.5078224E-005  0.9320546E+02  0.7546771E-02  0.1301902E+00
         21   -1    0    0  501  502  0.00000000000E+00  0.00000000000E+00  0.32735926134E+03  0.32735926134E+03  0.00000000000E+00 0. -1.
         -2   -1    0    0    0  501 -0.00000000000E+00 -0.00000000000E+00 -0.96606678080E+02  0.96606678080E+02  0.00000000000E+00 0.  1.
         23    2    1    2    0    0  0.45497127238E+01 -0.31222978596E+02 -0.44043860734E+02  0.10501781013E+03  0.89962795080E+02 0.  0.
        -24    2    1    2    0    0  0.55545404060E+01 -0.11388160562E+02  0.14418477258E+03  0.16478687972E+03  0.78771339734E+02 0.  0.
         13    1    4    4    0    0 -0.24720557892E+02 -0.12178564424E+02  0.12702090126E+03  0.12997589303E+03  0.00000000000E+00 0. -1.
        -14    1    4    4    0    0  0.30275098298E+02  0.79040386176E+00  0.17163871323E+02  0.34810986685E+02  0.00000000000E+00 0.  1.
        -13    1    3    3    0    0 -0.28084870224E+02 -0.18734362127E+02  0.14577115827E+02  0.36772660574E+02  0.00000000000E+00 0. -1.
         13    1    3    3    0    0  0.32634582948E+02 -0.12488616468E+02 -0.58620976562E+02  0.68245149560E+02  0.00000000000E+00 0.  1.
         21    1    1    2  503  502 -0.30063440653E+02  0.28690834742E+01  0.86087879573E+02  0.91231382283E+02  0.00000000000E+00 0. -1.
         -1    1    1    2    0  503  0.19959187523E+02  0.39742055684E+02  0.44523791843E+02  0.62929867286E+02  0.00000000000E+00 0.  1.
<scales pt_clust_5="13000.00000" pt_clust_6="13000.00000" pt_clust_7="13000.00000" pt_clust_8="13000.00000" pt_clust_9="30.20003" pt_clust_10="42.48786"></scales>
<clustering>
<clus scale="   30.200">  1  9  2 -1</clus>
<clus scale="   42.488">  1 10  2 -1</clus>
<clus scale="   78.771">  5  6 -1 -1</clus>
<clus scale="   82.455">  1  5  2 -1</clus>
<clus scale="   89.963">  7  8 -1 -1</clus>
<clus scale="   30.200">  1  5  2 -1</clus>
</clustering>
</event>
<event>
10    3  0.5078224E-005  0.1193623E+03  0.7546771E-02  0.1246436E+00
         -2   -1    0    0    0  501 -0.00000000000E+00  0.00000000000E+00  0.10338024120E+04  0.10338024120E+04  0.00000000000E+00 0.  1.
         21   -1    0    0  503  502  0.00000000000E+00 -0.00000000000E+00 -0.11312308388E+03  0.11312308388E+03  0.00000000000E+00 0.  1.
        -24    2    1    2    0    0  0.34579901018E+02 -0.63746719482E+02  0.42131594337E+03  0.43528875153E+03  0.81913120264E+02 0.  0.
         23    2    1    2    0    0 -0.69869378489E+02  0.13900347339E+03  0.23385217100E+02  0.18086394687E+03  0.89225575004E+02 0.  0.
         13    1    3    3    0    0  0.28760748175E+02 -0.81312719979E+02  0.38484979161E+03  0.39439612215E+03  0.00000000000E+00 0. -1.
        -14    1    3    3    0    0  0.58191528428E+01  0.17566000497E+02  0.36466151763E+02  0.40892629381E+02  0.00000000000E+00 0.  1.
        -11    1    4    4    0    0 -0.31869082467E+02  0.13205943088E+03  0.27782805056E+00  0.13585068602E+03  0.00000000000E+00 0.  1.
         11    1    4    4    0    0 -0.38000296022E+02  0.69440425029E+01  0.23107389050E+02  0.45013260854E+02  0.00000000000E+00 0. -1.
         21    1    1    2  503  501  0.27370419785E+01 -0.21318773989E+02 -0.20862577538E+02  0.29953775467E+02  0.00000000000E+00 0.  1.
         -1    1    1    2    0  502  0.32552435493E+02 -0.53937979916E+02  0.49684074519E+03  0.50081902202E+03  0.00000000000E+00 0.  1.
<scales pt_clust_5="13000.00000" pt_clust_6="13000.00000" pt_clust_7="13000.00000" pt_clust_8="13000.00000" pt_clust_9="21.49376" pt_clust_10="63.44606"></scales>
<clustering>
<clus scale="   21.494">  2  9  1 -1</clus>
<clus scale="   63.446">  2 10  1 -1</clus>
<clus scale="   81.913">  5  6 -1 -1</clus>
<clus scale="   89.226">  7  8 -1 -1</clus>
<clus scale="  114.000">  1  5  2 -1</clus>
<clus scale="   21.494">  2  5  1 -1</clus>
</clustering>
</event>
<event>
10    3  0.5078224E-005  0.1412157E+03  0.7546771E-02  0.1214192E+00
          1   -1    0    0  502    0 -0.00000000000E+00  0.00000000000E+00  0.27136684232E+03  0.27136684232E+03  0.00000000000E+00 0. -1.
         21   -1    0    0  503  502  0.00000000000E+00 -0.00000000000E+00 -0.38008764440E+03  0.38008764440E+03  0.00000000000E+00 0.  1.
        -24    2    1    2    0    0 -0.60335231381E+02 -0.89724636685E+02  0.12054905607E+03  0.17984094085E+03  0.78229396742E+02 0.  0.
         23    2    1    2    0    0 -0.10805427719E+02  0.13680407753E+03 -0.13999891606E+03  0.21576324492E+03  0.90121964388E+02 0.  0.
         11    1    3    3    0    0  0.18838807646E+02 -0.12472739119E+02  0.16499090614E+02  0.27976595321E+02  0.00000000000E+00 0. -1.
        -12    1    3    3    0    0 -0.79174039027E+02 -0.77251897566E+02  0.10404996545E+03  0.15186434553E+03  0.00000000000E+00 0.  1.
        -13    1    4    4    0    0  0.21125805812E+02 -0.25107121076E+00 -0.73372123869E+01  0.22365093194E+02  0.00000000000E+00 0. -1.
         13    1    4    4    0    0 -0.31931233531E+02  0.13705514874E+03 -0.13266170367E+03  0.19339815173E+03  0.00000000000E+00 0.  1.
         21    1    1    2  503  501 -0.20239996871E+02 -0.34745375135E+01 -0.14076627668E+03  0.14225636904E+03  0.00000000000E+00 0.  1.
          2    1    1    2  501    0  0.91380655971E+02 -0.43604903334E+02  0.51495334593E+02  0.11359393190E+03  0.00000000000E+00 0. -1.
<scales pt_clust_5="13000.00000" pt_clust_6="13000.00000" pt_clust_7="13000.00000" pt_clust_8="13000.00000" pt_clust_9="20.53606" pt_clust_10="99.08070"></scales>
<clustering>
<clus scale="   20.536">  2  9  1 -1</clus>
<clus scale="   78.229">  5  6 -1 -1</clus>
<clus scale="   90.122">  7  8 -1 -1</clus>
<clus scale="   99.081">  2 10  1 -1</clus>
<clus scale="  133.939">  1  5  2 -1</clus>
<clus scale="   20.536">  2  5  1 -1</clus>
</clustering>
</event>
<event>
10    3  0.5078224E-005  0.2066480E+03  0.7546771E-02  0.1158467E+00
          1   -1    0    0  502    0 -0.00000000000E+00  0.00000000000E+00  0.22871994337E+03  0.22871994337E+03  0.00000000000E+00 0. -1.
         21   -1    0    0  503  502  0.00000000000E+00 -0.00000000000E+00 -0.79019243644E+03  0.79019243644E+03  0.00000000000E+00 0.  1.
         23    2    1    2    0    0  0.74369304195E+02  0.70967014185E+02 -0.38180564426E+03  0.40576942553E+03  0.91138170954E+02 0.  0.
        -24    2    1    2    0    0  0.52009051952E+02  0.14907295421E+03 -0.38157068548E+02  0.18060915844E+03  0.78968468840E+02 0.  0.
         11    1    4    4    0    0 -0.18919253809E+02  0.58531705976E+02 -0.12743248340E+02  0.62819496555E+02  0.00000000000E+00 0. -1.
        -12    1    4    4    0    0  0.70928305760E+02  0.90541248233E+02 -0.25413820208E+02  0.11778966189E+03  0.00000000000E+00 0.  1.
        -11    1    3    3    0    0  0.76007806070E+02  0.13003039745E+02 -0.25349561465E+03  0.26496470005E+03  0.00000000000E+00 0.  1.
         11    1    3    3    0    0 -0.16385018749E+01  0.57963974440E+02 -0.12831002960E+03  0.14080472548E+03  0.00000000000E+00 0. -1.
         21    1    1    2  503  501  0.38167482995E+02 -0.14708543920E+02 -0.16345222433E+03  0.16849251515E+03  0.00000000000E+00 0.  1.
          2    1    1    2  501    0 -0.16454583914E+03 -0.20533142447E+03  0.21942444068E+02  0.26404128069E+03  0.00000000000E+00 0. -1.
<scales pt_clust_5="13000.00000" pt_clust_6="13000.00000" pt_clust_7="13000.00000" pt_clust_8="13000.00000" pt_clust_9="40.90352" pt_clust_10="190.96442"></scales>
<clustering>
<clus scale="   40.904">  2  9  1 -1</clus>
<clus scale="   78.968">  5  6 -1 -1</clus>
<clus scale="   91.138">  7  8 -1 -1</clus>
<clus scale="  147.660">  1  7  2 -1</clus>
<clus scale="  190.964">  2 10  1 -1</clus>
<clus scale="   40.904">  2  5  1 -1</clus>
</clustering>
</event>
<event>
10    3  0.5078224E-005  0.1727585E+03  0.7546771E-02  0.1207999E+00
         21   -1    0    0  503  502  0.00000000000E+00  0.00000000000E+00  0.27137910340E+03  0.27137910340E+03  0.00000000000E+00 0.  1.
         -2   -1    0    0    0  501 -0.00000000000E+00 -0.00000000000E+00 -0.67610377246E+03  0.67610377246E+03  0.00000000000E+00 0.  1.
        -24    2    1    2    0    0 -0.25930164158E+01  0.20406783674E+02 -0.33448878514E+03  0.34474784035E+03  0.80902197030E+02 0.  0.
         23    2    1    2    0    0 -0.14186579347E+03  0.19607128418E+02 -0.19965155126E+03  0.26213871183E+03  0.91354362127E+02 0.  0.
         11    1    3    3    0    0  0.18153946007E+02 -0.17601422628E+02 -0.41649076214E+02  0.48723930298E+02  0.00000000000E+00 0. -1.
        -12    1    3    3    0    0 -0.20746962423E+02  0.38008206302E+02 -0.29283970893E+03  0.29602391005E+03  0.00000000000E+00 0.  1.
        -11    1    4    4    0    0 -0.10074639211E+03  0.36998042124E+02 -0.78347902563E+02  0.13287996267E+03  0.00000000000E+00 0.  1.
         11    1    4    4    0    0 -0.41119401361E+02 -0.17390913705E+02 -0.12130364869E+03  0.12925874916E+03  0.00000000000E+00 0. -1.
         21    1    1    2  503  501  0.15622734212E+03  0.66473037031E+02  0.15561097043E+03  0.23030506116E+03  0.00000000000E+00 0.  1.
         -1    1    1    2    0  502 -0.11768532234E+02 -0.10648694912E+03 -0.26195303091E+02  0.11029126252E+03  0.00000000000E+00 0.  1.
<scales pt_clust_5="13000.00000" pt_clust_6="13000.00000" pt_clust_7="13000.00000" pt_clust_8="13000.00000" pt_clust_9="146.62838" pt_clust_10="103.08404"></scales>
<clustering>
<clus scale="   80.902">  5  6 -1 -1</clus>
<clus scale="   83.476">  2  5  1 -1</clus>
<clus scale="   91.354">  7  8 -1 -1</clus>
<clus scale="  103.084">  1 10  2 -1</clus>
<clus scale="  146.628">  1  9  2 -1</clus>
<clus scale="  103.084">  1  5  2 -1</clus>
</clustering>
</event>
<event>
10    3  0.5078224E-005  0.9568337E+02  0.7546771E-02  0.1295090E+00
         21   -1    0    0  501  502  0.00000000000E+00  0.00000000000E+00  0.13062238479E+03  0.13062238479E+03  0.00000000000E+00 0. -1.
          3   -1    0    0  503    0 -0.00000000000E+00 -0.00000000000E+00 -0.65595074155E+03  0.65595074155E+03  0.00000000000E+00 0. -1.
        -24    2    1    2    0    0  0.23712746142E+02  0.20263290103E+02 -0.17425297771E+03  0.19426317221E+03  0.80007403288E+02 0.  0.
         23    2    1    2    0    0 -0.31297210660E+00 -0.55055721749E+02 -0.44087512706E+01  0.10552484717E+03  0.89915659556E+02 0.  0.
         13    1    3    3    0    0  0.24424891471E+02  0.48964154124E+02 -0.13469434595E+03  0.14538442332E+03  0.00000000000E+00 0. -1.
        -14    1    3    3    0    0 -0.71214532911E+00 -0.28700864021E+02 -0.39558631754E+02  0.48878748888E+02  0.00000000000E+00 0.  1.
        -11    1    4    4    0    0 -0.39836400073E+02 -0.97715032626E+01 -0.16504954319E+02  0.44213511101E+02  0.00000000000E+00 0.  1.
         11    1    4    4    0    0  0.39523427967E+02 -0.45284218487E+02  0.12096203049E+02  0.61311336067E+02  0.00000000000E+00 0. -1.
         21    1    1    2  503  502  0.14162890109E+02 -0.31802376806E+02  0.61958097628E+02  0.71068871445E+02  0.00000000000E+00 0. -1.
          4    1    1    2  501    0 -0.37562664145E+02  0.66594808453E+02 -0.40862472541E+03  0.41571623551E+03  0.00000000000E+00 0. -1.
<scales pt_clust_5="13000.00000" pt_clust_6="13000.00000" pt_clust_7="13000.00000" pt_clust_8="13000.00000" pt_clust_9="34.81348" pt_clust_10="74.54137"></scales>
<clustering>
<clus scale="   34.813">  1  9  2 -1</clus>
<clus scale="   74.541">  1 10  2 -1</clus>
<clus scale="   80.007">  5  6 -1 -1</clus>
<clus scale="   86.439">  2  5  1 -1</clus>
<clus scale="   89.916">  7  8 -1 -1</clus>
<clus scale="   34.813">  1  5  2 -1</clus>
</clustering>
</event>
<event>
10    3  0.5078224E-005  0.1503334E+03  0.7546771E-02  0.1208474E+00
          1   -1    0    0  503    0 -0.00000000000E+00  0.00000000000E+00  0.16205686940E+04  0.16205686940E+04  0.00000000000E+00 0. -1.
         21   -1    0    0  501  502  0.00000000000E+00 -0.00000000000E+00 -0.12534559978E+03  0.12534559978E+03  0.00000000000E+00 0. -1.
        -24    2    1    2    0    0  0.48878825954E+02  0.10163465236E+03  0.70487054595E+03  0.71796488844E+03  0.76891822067E+02 0.  0.
         23    2    1    2    0    0  0.95112522344E+02  0.11892863556E+02  0.57015292428E+03  0.58534436703E+03  0.91464959639E+02 0.  0.
         13    1    3    3    0    0  0.26761386408E+02 -0.52558590731E+01  0.13202922401E+03  0.13481658596E+03  0.00000000000E+00 0. -1.
        -14    1    3    3    0    0  0.22117439545E+02  0.10689051143E+03  0.57284132193E+03  0.58314830248E+03  0.00000000000E+00 0.  1.
        -11    1    4    4    0    0  0.76417152452E+02  0.44739040750E+02  0.47060525906E+03  0.47886373094E+03  0.00000000000E+00 0. -1.
         11    1    4    4    0    0  0.18695369892E+02 -0.32846177194E+02  0.99547665220E+02  0.10648063609E+03  0.00000000000E+00 0.  1.
         21    1    1    2  503  502 -0.28223594095E+02 -0.50588915763E+02 -0.89173923631E+02  0.10633813200E+03  0.00000000000E+00 0. -1.
          2    1    1    2  501    0 -0.11576775420E+03 -0.62938600150E+02  0.30937354758E+03  0.33626690626E+03  0.00000000000E+00 0. -1.
<scales pt_clust_5="13000.00000" pt_clust_6="13000.00000" pt_clust_7="13000.00000" pt_clust_8="13000.00000" pt_clust_9="57.92935" pt_clust_10="119.30764"></scales>
<clustering>
<clus scale="   57.929">  2  9  1 -1</clus>
<clus scale="   76.892">  5  6 -1 -1</clus>
<clus scale="   91.465">  7  8 -1 -1</clus>
<clus scale="  125.400">  1  5  2 -1</clus>
<clus scale="  119.308">  2 10  1 -1</clus>
<clus scale="   57.929">  2  5  1 -1</clus>
</clustering>
</event>
<event>
10    3  0.5078224E-005  0.3614440E+03  0.7546771E-02  0.1058014E+00
         21   -1    0    0  503  502  0.00000000000E+00  0.00000000000E+00  0.33095824899E+03  0.33095824899E+03  0.00000000000E+00 0. -1.
          1   -1    0    0  502    0 -0.00000000000E+00 -0.00000000000E+00 -0.79887364241E+03  0.79887364241E+03  0.00000000000E+00 0. -1.
        -24    2    1    2    0    0  0.30795328618E+02  0.95721148235E+02  0.41916523303E+02  0.13508873769E+03  0.79881672750E+02 0.  0.
         23    2    1    2    0    0 -0.57196449552E+02  0.23608718934E+03  0.42072152905E+02  0.26323053276E+03  0.92258617549E+02 0.  0.
         11    1    3    3    0    0  0.16350208543E+02  0.39347743359E+02  0.60500081008E+02  0.73998878564E+02  0.00000000000E+00 0. -1.
        -12    1    3    3    0    0  0.14445120075E+02  0.56373404876E+02 -0.18583557705E+02  0.61089859128E+02  0.00000000000E+00 0.  1.
        -13    1    4    4    0    0 -0.61067880971E+02  0.13456338617E+03 -0.11783925763E+02  0.14824119498E+03  0.00000000000E+00 0. -1.
         13    1    4    4    0    0  0.38714314193E+01  0.10152380317E+03  0.53856078668E+02  0.11498933777E+03  0.00000000000E+00 0.  1.
         21    1    1    2  503  501  0.16614196734E+02 -0.36922788609E+02  0.48109734912E+02  0.62879809518E+02  0.00000000000E+00 0. -1.
          2    1    1    2  501    0  0.97869241998E+01 -0.29488554897E+03 -0.60001380454E+03  0.66863281143E+03  0.00000000000E+00 0. -1.
<scales pt_clust_5="13000.00000" pt_clust_6="13000.00000" pt_clust_7="13000.00000" pt_clust_8="13000.00000" pt_clust_9="40.48856" pt_clust_10="299.71910"></scales>
<clustering>
<clus scale="   40.489">  1  9  2 -1</clus>
<clus scale="   79.882">  5  6 -1 -1</clus>
<clus scale="   92.259">  7  8 -1 -1</clus>
<clus scale="  111.452">  5  7 -1 -1</clus>
<clus scale="  299.719">  1 10  2 -1</clus>
<clus scale="   40.489">  1  5  2 -1</clus>
</clustering>
</event>
<event>
10    3  0.5078224E-005  0.9595285E+02  0.7546771E-02  0.1296135E+00
         21   -1    0    0  501  502  0.00000000000E+00  0.00000000000E+00  0.19425823614E+03  0.19425823614E+03  0.00000000000E+00 0.  1.
         -2   -1    0    0    0  501 -0.00000000000E+00 -0.00000000000E+00 -0.15219531972E+03  0.15219531972E+03  0.00000000000E+00 0.  1.
        -24    2    1    2    0    0  0.15142597597E+02 -0.16420932272E+02 -0.54163121923E+02  0.98774515314E+02  0.79522423380E+02 0.  0.
         23    2    1    2    0    0 -0.45270332259E+02 -0.38680884618E+01 -0.20665417703E+02  0.10466773330E+03  0.91999509854E+02 0.  0.
         11    1    3    3    0    0  0.26777165817E+02 -0.39414022206E+02 -0.11636804685E+02  0.49049943719E+02  0.00000000000E+00 0. -1.
        -12    1    3    3    0    0 -0.11634568220E+02  0.22993089934E+02 -0.42526317239E+02  0.49724571594E+02  0.00000000000E+00 0.  1.
        -13    1    4    4    0    0 -0.18570222221E+02 -0.29471588923E+02 -0.47545426422E+02  0.58940608078E+02  0.00000000000E+00 0. -1.
         13    1    4    4    0    0 -0.26700110037E+02  0.25603500461E+02  0.26880008719E+02  0.45727125217E+02  0.00000000000E+00 0.  1.
         21    1    1    2  503  502 -0.21796437660E+02  0.56529507776E+01  0.62373385581E+02  0.66313496183E+02  0.00000000000E+00 0.  1.
         -1    1    1    2    0  503  0.51924172322E+02  0.14636069956E+02  0.54518070464E+02  0.76697811065E+02  0.00000000000E+00 0.  1.
<scales pt_clust_5="13000.00000" pt_clust_6="13000.00000" pt_clust_7="13000.00000" pt_clust_8="13000.00000" pt_clust_9="22.51756" pt_clust_10="44.49848"></scales>
<clustering>
<clus scale="   22.518">  1  9  2 -1</clus>
<clus scale="   44.498">  1 10  2 -1</clus>
<clus scale="   79.522">  5  6 -1 -1</clus>
<clus scale="   84.065">  2  5  1 -1</clus>
<clus scale="   92.000">  7  8 -1 -1</clus>
<clus scale="   22.518">  1  5  2 -1</clus>
</clustering>
</event>
<event>
10    3  0.5078224E-005  0.1975222E+03  0.7546771E-02  0.1187797E+00
         -2   -1    0    0    0  501 -0.00000000000E+00  0.00000000000E+00  0.13029133431E+04  0.13029133431E+04  0.00000000000E+00 0.  1.
         21   -1    0    0  501  502  0.00000000000E+00 -0.00000000000E+00 -0.11980561368E+03  0.11980561368E+03  0.00000000000E+00 0.  1.
        -24    2    1    2    0    0 -0.25142731566E+02 -0.22704618338E+02  0.59095389783E+03  0.59736658664E+03  0.80452923080E+02 0.  0.
         23    2    1    2    0    0 -0.64739899491E+02  0.14538897516E+03  0.32003672198E+03  0.37440097355E+03  0.11146020318E+03 0.  0.
         11    1    3    3    0    0 -0.12923224466E+02 -0.44863634565E+02  0.19139220861E+03  0.19700439831E+03  0.00000000000E+00 0. -1.
        -12    1    3    3    0    0 -0.12219507100E+02  0.22159016227E+02  0.39956168922E+03  0.40036218834E+03  0.00000000000E+00 0.  1.
        -13    1    4    4    0    0 -0.96433699210E+02  0.99830118001E+02  0.22923689795E+03  0.26798333191E+03  0.00000000000E+00 0.  1.
         13    1    4    4    0    0  0.31693799719E+02  0.45558857155E+02  0.90799824036E+02  0.10641764163E+03  0.00000000000E+00 0. -1.
         21    1    1    2  503  502  0.97820782003E+01  0.21812351481E+02 -0.68407632469E+02  0.72464280242E+02  0.00000000000E+00 0.  1.
         -1    1    1    2    0  503  0.80100552856E+02 -0.14449670830E+03  0.34052474203E+03  0.37848711631E+03  0.00000000000E+00 0.  1.
<scales pt_clust_5="13000.00000" pt_clust_6="13000.00000" pt_clust_7="13000.00000" pt_clust_8="13000.00000" pt_clust_9="23.90539" pt_clust_10="163.06953"></scales>
<clustering>
<clus scale="   23.905">  2  9  1 -1</clus>
<clus scale="   80.453">  5  6 -1 -1</clus>
<clus scale="   86.755">  1  5  2 -1</clus>
<clus scale="  111.460">  7  8 -1 -1</clus>
<clus scale="  163.070">  2 10  1 -1</clus>
<clus scale="   23.905">  2  5  1 -1</clus>
</clustering>
</event>
<event>
10    3  0.5078224E-005  0.1753717E+03  0.7546771E-02  0.1173931E+00
          1   -1    0    0  503    0 -0.00000000000E+00  0.00000000000E+00  0.10399631906E+04  0.10399631906E+04  0.00000000000E+00 0. -1.
         21   -1    0    0  501  502  0.00000000000E+00 -0.00000000000E+00 -0.10840126000E+03  0.10840126000E+03  0.00000000000E+00 0. -1.
        -24    2    1    2    0    0  0.12064122690E+03  0.81958434255E+02  0.70883515765E+03  0.72811897501E+03  0.80240080157E+02 0.  0.
         23    2    1    2    0    0 -0.11155129307E+03 -0.11520781744E+03  0.28249669959E+03  0.33776125783E+03  0.92529724001E+02 0.  0.
         13    1    3    3    0    0  0.71550658857E+01  0.29672991531E+02  0.59517417614E+02  0.66887998876E+02  0.00000000000E+00 0. -1.
        -14    1    3    3    0    0  0.11348616102E+03  0.52285442724E+02  0.64931774004E+03  0.66123097613E+03  0.00000000000E+00 0.  1.
        -11    1    4    4    0    0 -0.85963508685E+02 -0.29814744101E+02  0.18164526515E+03  0.20315916455E+03  0.00000000000E+00 0. -1.
         11    1    4    4    0    0 -0.25587784383E+02 -0.85393073341E+02  0.10085143444E+03  0.13460209327E+03  0.00000000000E+00 0.  1.
         21    1    1    2  503  502  0.16482660676E+02  0.13032993553E+02 -0.37561794474E+02  0.43039812128E+02  0.00000000000E+00 0. -1.
          2    1    1    2  501    0 -0.25572594510E+02  0.20216389635E+02 -0.22208132188E+02  0.39444405625E+02  0.00000000000E+00 0. -1.
<scales pt_clust_5="13000.00000" pt_clust_6="13000.00000" pt_clust_7="13000.00000" pt_clust_8="13000.00000" pt_clust_9="21.01278" pt_clust_10="31.78158"></scales>
<clustering>
<clus scale="   21.013">  2  9  1 -1</clus>
<clus scale="   31.782">  2 10  1 -1</clus>
<clus scale="   80.240">  5  6 -1 -1</clus>
<clus scale="   92.530">  7  8 -1 -1</clus>
<clus scale="  169.210">  1  5  2 -1</clus>
<clus scale="   21.013">  2  5  1 -1</clus>
</clustering>
</event>
<event>
10    3  0.5078224E-005  0.1396416E+03  0.7546771E-02  0.1239722E+00
         21   -1    0    0  503  502  0.00000000000E+00  0.00000000000E+00  0.14576016457E+03  0.14576016457E+03  0.00000000000E+00 0. -1.
         -4   -1    0    0    0  501 -0.00000000000E+00 -0.00000000000E+00 -0.53291954194E+03  0.53291954194E+03  0.00000000000E+00 0.  1.
        -24    2    1    2    0    0  0.14984433405E+02  0.19435008731E+02 -0.48968847818E+02  0.98146666928E+02  0.81440575659E+02 0.  0.
         23    2    1    2    0    0  0.12789520316E+03  0.27871517497E+02 -0.10553499218E+03  0.19186282418E+03  0.92410520243E+02 0.  0.
         11    1    3    3    0    0  0.31025444454E+02  0.45042565596E+02 -0.34280461821E+02  0.64548903799E+02  0.00000000000E+00 0. -1.
        -12    1    3    3    0    0 -0.16041011049E+02 -0.25607556865E+02 -0.14688385997E+02  0.33597763129E+02  0.00000000000E+00 0.  1.
        -11    1    4    4    0    0  0.60548487447E+02  0.40359759217E+02 -0.99267977407E+02  0.12308192733E+03  0.00000000000E+00 0.  1.
         11    1    4    4    0    0  0.67346715710E+02 -0.12488241720E+02 -0.62670147713E+01  0.68780896856E+02  0.00000000000E+00 0. -1.
         21    1    1    2  503  501 -0.41836137790E+02 -0.48706753849E+02  0.54521083324E+02  0.84232765730E+02  0.00000000000E+00 0. -1.
         -3    1    1    2    0  502 -0.10104349877E+03  0.14002276206E+01 -0.28717662070E+03  0.30443744967E+03  0.00000000000E+00 0.  1.
<scales pt_clust_5="13000.00000" pt_clust_6="13000.00000" pt_clust_7="13000.00000" pt_clust_8="13000.00000" pt_clust_9="64.20756" pt_clust_10="104.69046"></scales>
<clustering>
<clus scale="   64.208">  1  9  2 -1</clus>
<clus scale="   81.441">  5  6 -1 -1</clus>
<clus scale="   81.541">  2  5  1 -1</clus>
<clus scale="   92.411">  7  8 -1 -1</clus>
<clus scale="  104.690">  1 10  2 -1</clus>
<clus scale="   64.208">  1  5  2 -1</clus>
</clustering>
</event>
<event>
10    3  0.5078224E-005  0.2223879E+03  0.7546771E-02  0.1152754E+00
          1   -1    0    0  503    0 -0.00000000000E+00  0.00000000000E+00  0.87918891848E+03  0.87918891848E+03  0.00000000000E+00 0. -1.
         21   -1    0    0  501  502  0.00000000000E+00 -0.00000000000E+00 -0.19454279929E+03  0.19454279929E+03  0.00000000000E+00 0.  1.
        -24    2    1    2    0    0 -0.10408151476E+03  0.22042926777E+02  0.99810234177E+02  0.16697202533E+03  0.81232518481E+02 0.  0.
         23    2    1    2    0    0  0.87199598594E+02 -0.16601134132E+03  0.24318840529E+02  0.20960617509E+03  0.90442286504E+02 0.  0.
         13    1    3    3    0    0 -0.44521991995E+02  0.49882660064E+02  0.61699856263E+02  0.90979996753E+02  0.00000000000E+00 0. -1.
        -14    1    3    3    0    0 -0.59559522770E+02 -0.27839733287E+02  0.38110377913E+02  0.75992028573E+02  0.00000000000E+00 0.  1.
        -13    1    4    4    0    0  0.23261619794E+02 -0.17282009657E+02 -0.27171323571E+02  0.39724698084E+02  0.00000000000E+00 0. -1.
         13    1    4    4    0    0  0.63937978799E+02 -0.14872933166E+03  0.51490164100E+02  0.16988147700E+03  0.00000000000E+00 0.  1.
         21    1    1    2  503  502 -0.16143243016E+02 -0.48976018211E+02 -0.40175403273E+02  0.65370617888E+02  0.00000000000E+00 0.  1.
          2    1    1    2  501    0  0.33025159187E+02  0.19294443275E+03  0.60069244776E+03  0.63178289947E+03  0.00000000000E+00 0. -1.
<scales pt_clust_5="13000.00000" pt_clust_6="13000.00000" pt_clust_7="13000.00000" pt_clust_8="13000.00000" pt_clust_9="51.56796" pt_clust_10="203.16649"></scales>
<clustering>
<clus scale="   51.568">  2  9  1 -1</clus>
<clus scale="   81.233">  5  6 -1 -1</clus>
<clus scale="   90.442">  7  8 -1 -1</clus>
<clus scale="  135.467">  1  5  2 -1</clus>
<clus scale="  203.166">  2 10  1 -1</clus>
<clus scale="   51.568">  2  5  1 -1</clus>
</clustering>
</event>
<event>
10    3  0.5078224E-005  0.1152883E+03  0.7546771E-02  0.1254792E+00
         21   -1    0    0  501  502  0.00000000000E+00  0.00000000000E+00  0.10806924167E+03  0.10806924167E+03  0.00000000000E+00 0. -1.
          3   -1    0    0  503    0 -0.00000000000E+00 -0.00000000000E+00 -0.44897386216E+03  0.44897386216E+03  0.00000000000E+00 0. -1.
         23    2    1    2    0    0 -0.77885191014E+02 -0.44460378874E+02 -0.15311294775E+03  0.19942272718E+03  0.91011104142E+02 0.  0.
        -24    2    1    2    0    0  0.93241578939E+01  0.62200423470E+02 -0.58919663224E+02  0.11783878100E+03  0.80365533614E+02 0.  0.
         13    1    4    4    0    0 -0.40020627645E+01  0.55113782471E+02 -0.76689415703E+02  0.94524134513E+02  0.00000000000E+00 0. -1.
        -14    1    4    4    0    0  0.13326220658E+02  0.70866409995E+01  0.17769752479E+02  0.23314646488E+02  0.00000000000E+00 0.  1.
        -11    1    3    3    0    0 -0.43832912022E+02 -0.71667573745E+02 -0.95768998915E+02  0.12739413823E+03  0.00000000000E+00 0. -1.
         11    1    3    3    0    0 -0.34052278991E+02  0.27207194872E+02 -0.57343948837E+02  0.72028588946E+02  0.00000000000E+00 0.  1.
         21    1    1    2  503  502 -0.24986074227E+02  0.68374879817E+02 -0.30093286476E+02  0.78772038098E+02  0.00000000000E+00 0. -1.
          4    1    1    2  501    0  0.93547107347E+02 -0.86114924413E+02 -0.98778723039E+02  0.16100955756E+03  0.00000000000E+00 0. -1.
<scales pt_clust_5="13000.00000" pt_clust_6="13000.00000" pt_clust_7="13000.00000" pt_clust_8="13000.00000" pt_clust_9="72.79717" pt_clust_10="103.85201"></scales>
<clustering>
<clus scale="   72.797">  1  9  2 -1</clus>
<clus scale="   80.366">  5  6 -1 -1</clus>
<clus scale="   91.011">  7  8 -1 -1</clus>
<clus scale="  103.852">  1 10  2 -1</clus>
<clus scale="  107.084">  1  5  2 -1</clus>
<clus scale="   72.797">  1  5  2 -1</clus>
</clustering>
</event>
<event>
10    3  0.5078224E-005  0.1632532E+03  0.7546771E-02  0.1185944E+00
          1   -1    0    0  502    0 -0.00000000000E+00  0.00000000000E+00  0.99950128031E+02  0.99950128031E+02  0.00000000000E+00 0. -1.
         21   -1    0    0  503  502  0.00000000000E+00 -0.00000000000E+00 -0.75992146720E+03  0.75992146720E+03  0.00000000000E+00 0. -1.
        -24    2    1    2    0    0  0.89818213969E+02  0.95275119323E+02 -0.43838860236E+02  0.16019640984E+03  0.81218126885E+02 0.  0.
         23    2    1    2    0    0 -0.39713362484E+02 -0.17498504493E+03 -0.31174437360E+03  0.37012570952E+03  0.87244307937E+02 0.  0.
         13    1    3    3    0    0  0.48744815354E+02  0.15055432291E+02  0.14255961045E+02  0.52971270428E+02  0.00000000000E+00 0. -1.
        -14    1    3    3    0    0  0.41073398614E+02  0.80219687032E+02 -0.58094821282E+02  0.10722513941E+03  0.00000000000E+00 0.  1.
        -13    1    4    4    0    0  0.11273743498E+02 -0.71926662352E+02 -0.18597755788E+03  0.19972028962E+03  0.00000000000E+00 0.  1.
         13    1    4    4    0    0 -0.50987105982E+02 -0.10305838258E+03 -0.12576681572E+03  0.17040541990E+03  0.00000000000E+00 0. -1.
         21    1    1    2  503  501 -0.55073304007E+02  0.11428824716E+02 -0.16358436398E+03  0.17298419289E+03  0.00000000000E+00 0. -1.
          2    1    1    2  501    0  0.49684525226E+01  0.68281100892E+02 -0.14080374135E+03  0.15656528299E+03  0.00000000000E+00 0. -1.
<scales pt_clust_5="13000.00000" pt_clust_6="13000.00000" pt_clust_7="13000.00000" pt_clust_8="13000.00000" pt_clust_9="56.24666" pt_clust_10="71.70427"></scales>
<clustering>
<clus scale="   56.247">  2  9  1 -1</clus>
<clus scale="   71.704">  2 10  1 -1</clus>
<clus scale="   81.218">  5  6 -1 -1</clus>
<clus scale="   87.244">  7  8 -1 -1</clus>
<clus scale="  160.114">  1  5  2 -1</clus>
<clus scale="   56.247">  2  5  1 -1</clus>
</clustering>
</event>
<event>
10    3  0.5078224E-005  0.2522852E+03  0.7546771E-02  0.1131713E+00
         21   -1    0    0  501  502  0.00000000000E+00  0.00000000000E+00  0.71340735661E+03  0.71340735661E+03  0.00000000000E+00 0. -1.
          1   -1    0    0  503    0 -0.00000000000E+00 -0.00000000000E+00 -0.28579379416E+03  0.28579379416E+03  0.00000000000E+00 0. -1.
        -24    2    1    2    0    0 -0.55432207745E+02  0.94530952800E+02  0.17960197907E+03  0.22627155426E+03  0.83265327056E+02 0.  0.
         23    2    1    2    0    0  0.23633891216E+03 -0.25154916991E+03 -0.62755755109E+02  0.36331438483E+03  0.94477463680E+02 0.  0.
         13    1    3    3    0    0 -0.53334807689E+02  0.54506577320E+02  0.16807679177E+03  0.18456808124E+03  0.00000000000E+00 0. -1.
        -14    1    3    3    0    0 -0.20974000568E+01  0.40024375480E+02  0.11525187300E+02  0.41703473019E+02  0.00000000000E+00 0.  1.
        -11    1    4    4    0    0  0.21623796603E+03 -0.25583844308E+03 -0.48910801021E+02  0.33853276558E+03  0.00000000000E+00 0. -1.
         11    1    4    4    0    0  0.20100946123E+02  0.42892731654E+01 -0.13844954088E+02  0.24781619258E+02  0.00000000000E+00 0.  1.
         21    1    1    2  503  502 -0.28652187960E+02  0.45434126277E+02  0.15767327162E+03  0.16657151104E+03  0.00000000000E+00 0. -1.
          2    1    1    2  501    0 -0.15225451645E+03  0.11158409084E+03  0.15309406687E+03  0.24304370064E+03  0.00000000000E+00 0. -1.
<scales pt_clust_5="13000.00000" pt_clust_6="13000.00000" pt_clust_7="13000.00000" pt_clust_8="13000.00000" pt_clust_9="53.71413" pt_clust_10="233.92702"></scales>
<clustering>
<clus scale="   53.714">  1  9  2 -1</clus>
<clus scale="   83.265">  5  6 -1 -1</clus>
<clus scale="   94.477">  7  8 -1 -1</clus>
<clus scale="  153.832">  2  5  1 -1</clus>
<clus scale="  233.927">  1 10  2 -1</clus>
<clus scale="   53.714">  1  5  2 -1</clus>
</clustering>
</event>
<event>
10    3  0.5078224E-005  0.9551672E+02  0.7546771E-02  0.1297022E+00
         21   -1    0    0  501  502  0.00000000000E+00  0.00000000000E+00  0.29780998406E+03  0.29780998406E+03  0.00000000000E+00 0. -1.
          1   -1    0    0  503    0 -0.00000000000E+00 -0.00000000000E+00 -0.42054872624E+03  0.42054872624E+03  0.00000000000E+00 0. -1.
        -24    2    1    2    0    0 -0.27050629877E+02  0.40643397151E+01 -0.34145137957E+03  0.35195358400E+03  0.80833317679E+02 0.  0.
         23    2    1    2    0    0 -0.29000270388E+02  0.59431975127E+02 -0.39130243281E+01  0.11409711446E+03  0.92895987101E+02 0.  0.
         11    1    3    3    0    0 -0.15676746114E+02 -0.38298243348E+02 -0.17388240995E+03  0.17873893897E+03  0.00000000000E+00 0. -1.
        -12    1    3    3    0    0 -0.11373883762E+02  0.42362583063E+02 -0.16756896961E+03  0.17321464503E+03  0.00000000000E+00 0.  1.
        -11    1    4    4    0    0  0.19749882979E+02  0.29305353180E+02 -0.34285881567E+02  0.49238026742E+02  0.00000000000E+00 0.  1.
         11    1    4    4    0    0 -0.48750153366E+02  0.30126621947E+02  0.30372857239E+02  0.64859087721E+02  0.00000000000E+00 0. -1.
         21    1    1    2  503  502  0.27721984605E+02 -0.50389374351E+02  0.47988503165E+02  0.74903230331E+02  0.00000000000E+00 0. -1.
          2    1    1    2  501    0  0.28328915659E+02 -0.13106940491E+02  0.17463715855E+03  0.17740478150E+03  0.00000000000E+00 0. -1.
<scales pt_clust_5="13000.00000" pt_clust_6="13000.00000" pt_clust_7="13000.00000" pt_clust_8="13000.00000" pt_clust_9="70.81302" pt_clust_10="31.21409"></scales>
<clustering>
<clus scale="   31.214">  1 10  2 -1</clus>
<clus scale="   70.813">  1  9  2 -1</clus>
<clus scale="   80.833">  5  6 -1 -1</clus>
<clus scale="   83.832">  2  5  1 -1</clus>
<clus scale="   92.896">  7  8 -1 -1</clus>
<clus scale="   31.214">  1  5  2 -1</clus>
</clustering>
</event>
<event>
10    3  0.5078224E-005  0.2733555E+03  0.7546771E-02  0.1099947E+00
         -2   -1    0    0    0  501 -0.00000000000E+00  0.00000000000E+00  0.81928774701E+03  0.81928774701E+03  0.00000000000E+00 0.  1.
         21   -1    0    0  503  502  0.00000000000E+00 -0.00000000000E+00 -0.21306047296E+03  0.21306047296E+03  0.00000000000E+00 0.  1.
         23    2    1    2    0    0  0.20296468278E+03  0.18173349091E+03  0.61304486474E+03  0.67731214891E+03  0.93306037877E+02 0.  0.
        -24    2    1    2    0    0 -0.11976170351E+03 -0.18157062923E+03  0.50573176827E+02  0.23745409437E+03  0.80722002516E+02 0.  0.
         11    1    4    4    0    0 -0.11479985538E+03 -0.12242692135E+03  0.15575664124E+02  0.16855254131E+03  0.00000000000E+00 0. -1.
        -12    1    4    4    0    0 -0.49618481226E+01 -0.59143707880E+02  0.34997512703E+02  0.68901553059E+02  0.00000000000E+00 0.  1.
        -11    1    3    3    0    0  0.15479695324E+03  0.18217556973E+03  0.49100565624E+03  0.54611041869E+03  0.00000000000E+00 0.  1.
         11    1    3    3    0    0  0.48167729535E+02 -0.44207882020E+00  0.12203920849E+03  0.13120173022E+03  0.00000000000E+00 0. -1.
         21    1    1    2  503  501 -0.46876826625E+02 -0.29965355216E+02 -0.30775654234E+02  0.63580659647E+02  0.00000000000E+00 0.  1.
         -1    1    1    2    0  502 -0.36326152645E+02  0.29802493544E+02 -0.26615113285E+02  0.54001317045E+02  0.00000000000E+00 0.  1.
<scales pt_clust_5="13000.00000" pt_clust_6="13000.00000" pt_clust_7="13000.00000" pt_clust_8="13000.00000" pt_clust_9="60.84682" pt_clust_10="46.98700"></scales>
<clustering>
<clus scale="   46.987">  2 10  1 -1</clus>
<clus scale="   60.847">  2  9  1 -1</clus>
<clus scale="   80.722">  5  6 -1 -1</clus>
<clus scale="   93.306">  7  8 -1 -1</clus>
<clus scale="  269.320">  2  5  1 -1</clus>
<clus scale="   46.987">  2  5  1 -1</clus>
</clustering>
</event>
<event>
10    3  0.5078224E-005  0.2401674E+03  0.7546771E-02  0.1137280E+00
         21   -1    0    0  503  502  0.00000000000E+00  0.00000000000E+00  0.10017608368E+04  0.10017608368E+04  0.00000000000E+00 0. -1.
          1   -1    0    0  502    0 -0.00000000000E+00 -0.00000000000E+00 -0.22261438283E+03  0.22261438283E+03  0.00000000000E+00 0. -1.
        -24    2    1    2    0    0 -0.13415205607E+03  0.80927935001E+02  0.46860103683E+03  0.49863335243E+03  0.67098313151E+02 0.  0.
         23    2    1    2    0    0  0.14927463023E+03  0.14972534304E+03 -0.86626012326E+02  0.24649401579E+03  0.92491298149E+02 0.  0.
         13    1    3    3    0    0 -0.67982585137E+02  0.39758065811E+01  0.16427159646E+03  0.17782743411E+03  0.00000000000E+00 0. -1.
        -14    1    3    3    0    0 -0.66169470933E+02  0.76952128420E+02  0.30432944038E+03  0.32080591832E+03  0.00000000000E+00 0.  1.
        -13    1    4    4    0    0  0.23145109062E+02  0.47274122178E+02 -0.63311699980E+02  0.82334136635E+02  0.00000000000E+00 0. -1.
         13    1    4    4    0    0  0.12612952117E+03  0.10245122086E+03 -0.23314312346E+02  0.16415987916E+03  0.00000000000E+00 0.  1.
         21    1    1    2  503  501  0.34861440471E+02 -0.34912870495E+01  0.63196890842E+02  0.72258951896E+02  0.00000000000E+00 0. -1.
          2    1    1    2  501    0 -0.49984014629E+02 -0.22716199099E+03  0.33397453860E+03  0.40698889948E+03  0.00000000000E+00 0. -1.
<scales pt_clust_5="13000.00000" pt_clust_6="13000.00000" pt_clust_7="13000.00000" pt_clust_8="13000.00000" pt_clust_9="35.03583" pt_clust_10="221.64328"></scales>
<clustering>
<clus scale="   35.036">  1  9  2 -1</clus>
<clus scale="   67.098">  5  6 -1 -1</clus>
<clus scale="   92.491">  7  8 -1 -1</clus>
<clus scale="  155.698">  2  5  1 -1</clus>
<clus scale="  221.643">  1 10  2 -1</clus>
<clus scale="   35.036">  1  5  2 -1</clus>
</clustering>
</event>
<event>
10    3  0.5078224E-005  0.1394455E+03  0.7546771E-02  0.1225403E+00
         -2   -1    0    0    0  501 -0.00000000000E+00  0.00000000000E+00  0.68940054980E+03  0.68940054980E+03  0.00000000000E+00 0.  1.
         21   -1    0    0  503  502  0.00000000000E+00 -0.00000000000E+00 -0.83054350385E+03  0.83054350385E+03  0.00000000000E+00 0.  1.
        -24    2    1    2    0    0  0.69446076218E+02 -0.25459763586E+02  0.38800283328E+03  0.40327226522E+03  0.81310295765E+02 0.  0.
         23    2    1    2    0    0 -0.10848599406E+03  0.30226656728E+02 -0.26525902898E+03  0.30230676051E+03  0.91346391859E+02 0.  0.
         11    1    3    3    0    0  0.87634506189E+02 -0.15040920892E+02  0.31829954287E+03  0.33048545349E+03  0.00000000000E+00 0. -1.
        -12    1    3    3    0    0 -0.18188429971E+02 -0.10418842694E+02  0.69703290415E+02  0.72786811735E+02  0.00000000000E+00 0.  1.
        -13    1    4    4    0    0 -0.21778820982E+02 -0.74022643906E+01 -0.25885724471E+01  0.23147597473E+02  0.00000000000E+00 0. -1.
         13    1    4    4    0    0 -0.86707173082E+02  0.37628921118E+02 -0.26267045654E+03  0.27915916303E+03  0.00000000000E+00 0.  1.
         21    1    1    2  503  501  0.42352222259E+02 -0.13161432734E+03 -0.51487965571E+03  0.53312015696E+03  0.00000000000E+00 0.  1.
         -1    1    1    2    0  502 -0.33123044136E+01  0.12684743420E+03  0.25099289735E+03  0.28124487097E+03  0.00000000000E+00 0.  1.
<scales pt_clust_5="13000.00000" pt_clust_6="13000.00000" pt_clust_7="13000.00000" pt_clust_8="13000.00000" pt_clust_9="105.36072" pt_clust_10="119.67888"></scales>
<clustering>
<clus scale="   81.310">  5  6 -1 -1</clus>
<clus scale="   91.346">  7  8 -1 -1</clus>
<clus scale="  109.920">  1  5  2 -1</clus>
<clus scale="  119.679">  2 10  1 -1</clus>
<clus scale="  105.361">  2  9  1 -1</clus>
<clus scale="  119.679">  2  5  1 -1</clus>
</clustering>
</event>
<event>
10    3  0.5078224E-005  0.2702836E+03  0.7546771E-02  0.1141705E+00
         -4   -1    0    0    0  501 -0.00000000000E+00  0.00000000000E+00  0.13766062411E+04  0.13766062411E+04  0.00000000000E+00 0.  1.
         21   -1    0    0  503  502  0.00000000000E+00 -0.00000000000E+00 -0.91389832651E+03  0.91389832651E+03  0.00000000000E+00 0.  1.
        -24    2    1    2    0    0 -0.41536489182E+02 -0.35486080469E+02 -0.38534273683E+01  0.98120006256E+02  0.81413419561E+02 0.  0.
         23    2    1    2    0    0 -0.11676404896E+02  0.27993872007E+03  0.12866786917E+04  0.13204175857E+04  0.97254920274E+02 0.  0.
         11    1    3    3    0    0  0.15336386946E+02  0.15241199519E+02 -0.35461167634E+01  0.21910588112E+02  0.00000000000E+00 0. -1.
        -12    1    3    3    0    0 -0.56872876127E+02 -0.50727279988E+02 -0.30731060499E+00  0.76209418144E+02  0.00000000000E+00 0.  1.
        -13    1    4    4    0    0 -0.10036678896E+02  0.21394752429E+03  0.11344638224E+04  0.11545052803E+04  0.00000000000E+00 0.  1.
         13    1    4    4    0    0 -0.16397259997E+01  0.65991195784E+02  0.15221486929E+03  0.16591230532E+03  0.00000000000E+00 0. -1.
         21    1    1    2  503  501 -0.17161038826E+02  0.15256495630E+02 -0.11465156656E+03  0.11692836964E+03  0.00000000000E+00 0.  1.
         -3    1    1    2    0  502  0.70373932903E+02 -0.25970913523E+03 -0.70546578318E+03  0.75503860603E+03  0.00000000000E+00 0.  1.
<scales pt_clust_5="13000.00000" pt_clust_6="13000.00000" pt_clust_7="13000.00000" pt_clust_8="13000.00000" pt_clust_9="22.96218" pt_clust_10="252.17995"></scales>
<clustering>
<clus scale="   22.962">  2  9  1 -1</clus>
<clus scale="   81.413">  5  6 -1 -1</clus>
<clus scale="   97.255">  7  8 -1 -1</clus>
<clus scale="   98.167">  1  5  2 -1</clus>
<clus scale="  252.180">  2 10  1 -1</clus>
<clus scale="   22.962">  2  5  1 -1</clus>
</clustering>
</event>
<event>
10    3  0.5078224E-005  0.1060799E+03  0.7546771E-02  0.1272879E+00
         21   -1    0    0  503  502  0.00000000000E+00  0.00000000000E+00  0.29793474899E+03  0.29793474899E+03  0.00000000000E+00 0. -1.
          1   -1    0    0  502    0 -0.00000000000E+00 -0.00000000000E+00 -0.24289039682E+03  0.24289039682E+03  0.00000000000E+00 0. -1.
        -24    2    1    2    0    0  0.22396370799E+02 -0.71255131312E+02 -0.16446454070E+03  0.19741450048E+03  0.79655562810E+02 0.  0.
         23    2    1    2    0    0  0.34833327107E+02 -0.88312804080E+01  0.17647941038E+02  0.99396229725E+02  0.90976966699E+02 0.  0.
         11    1    3    3    0    0  0.30296882904E+02 -0.37694528222E+02 -0.15395247914E+03  0.16136958947E+03  0.00000000000E+00 0. -1.
        -12    1    3    3    0    0 -0.79005121050E+01 -0.33560603090E+02 -0.10512061561E+02  0.36044911007E+02  0.00000000000E+00 0.  1.
        -13    1    4    4    0    0 -0.26105733474E+02  0.10183767995E+02 -0.10104300586E+02  0.29787838813E+02  0.00000000000E+00 0.  1.
         13    1    4    4    0    0  0.60939060581E+02 -0.19015048403E+02  0.27752241624E+02  0.69608390912E+02  0.00000000000E+00 0. -1.
         21    1    1    2  503  501 -0.37016360784E+00  0.26533135503E+02  0.14498237634E+03  0.14739075191E+03  0.00000000000E+00 0. -1.
          2    1    1    2  501    0 -0.56859534298E+02  0.53553276217E+02  0.56878575507E+02  0.96623663695E+02  0.00000000000E+00 0. -1.
<scales pt_clust_5="13000.00000" pt_clust_6="13000.00000" pt_clust_7="13000.00000" pt_clust_8="13000.00000" pt_clust_9="26.53572" pt_clust_10="87.97580"></scales>
<clustering>
<clus scale="   26.536">  1  9  2 -1</clus>
<clus scale="   79.656">  5  6 -1 -1</clus>
<clus scale="   87.976">  1 10  2 -1</clus>
<clus scale="   90.977">  7  8 -1 -1</clus>
<clus scale="   96.546">  2  5  1 -1</clus>
<clus scale="   26.536">  1  5  2 -1</clus>
</clustering>
</event>
<event>
10    3  0.5078224E-005  0.3769328E+03  0.7546771E-02  0.1098104E+00
          1   -1    0    0  503    0 -0.00000000000E+00  0.00000000000E+00  0.84911010114E+03  0.84911010114E+03  0.00000000000E+00 0. -1.
         21   -1    0    0  501  502  0.00000000000E+00 -0.00000000000E+00 -0.16558016460E+04  0.16558016460E+04  0.00000000000E+00 0.  1.
        -24    2    1    2    0    0 -0.31516208081E+02 -0.63523248880E+02  0.24648768862E+02  0.10933397809E+03  0.79485108282E+02 0.  0.
         23    2    1    2    0    0 -0.23568191106E+03  0.30184796521E+03 -0.32022550431E+02  0.39582122033E+03  0.94820026510E+02 0.  0.
         13    1    3    3    0    0  0.20887021822E+02 -0.28067186346E+02  0.29657367335E+02  0.45864954674E+02  0.00000000000E+00 0. -1.
        -14    1    3    3    0    0 -0.52403229903E+02 -0.35456062534E+02 -0.50085984737E+01  0.63469023416E+02  0.00000000000E+00 0.  1.
        -11    1    4    4    0    0 -0.17022965557E+03  0.26757388038E+03 -0.50667645798E+01  0.31717438295E+03  0.00000000000E+00 0.  1.
         11    1    4    4    0    0 -0.65452255484E+02  0.34274084832E+02 -0.26955785851E+02  0.78646837380E+02  0.00000000000E+00 0. -1.
         21    1    1    2  503  502  0.26346704744E+03 -0.15604062805E+03 -0.13798460881E+04  0.14134138777E+04  0.00000000000E+00 0.  1.
          2    1    1    2  501    0  0.37310717006E+01 -0.82284088277E+02  0.58052832478E+03  0.58634267110E+03  0.00000000000E+00 0. -1.
<scales pt_clust_5="13000.00000" pt_clust_6="13000.00000" pt_clust_7="13000.00000" pt_clust_8="13000.00000" pt_clust_9="364.81164" pt_clust_10="82.36868"></scales>
<clustering>
<clus scale="   79.485">  5  6 -1 -1</clus>
<clus scale="   82.369">  2 10  1 -1</clus>
<clus scale="   94.820">  7  8 -1 -1</clus>
<clus scale="  107.762">  1  5  2 -1</clus>
<clus scale="  364.812">  2  9  1 -1</clus>
<clus scale="   82.369">  2  5  1 -1</clus>
</clustering>
</event>
<event>
10    3  0.5078224E-005  0.9254944E+02  0.7546771E-02  0.1300516E+00
          3   -1    0    0  503    0 -0.00000000000E+00  0.00000000000E+00  0.18967969481E+03  0.18967969481E+03  0.00000000000E+00 0. -1.
         21   -1    0    0  501  502  0.00000000000E+00 -0.00000000000E+00 -0.17463221342E+03  0.17463221342E+03  0.00000000000E+00 0. -1.
         23    2    1    2    0    0  0.18384938719E+02 -0.42348768997E+01  0.10285094079E+03  0.13724216424E+03  0.88888443964E+02 0.  0.
        -24    2    1    2    0    0  0.28419380668E+00 -0.47349379445E+02 -0.12622158591E+02  0.95925205562E+02  0.82463820399E+02 0.  0.
         11    1    4    4    0    0  0.61703602065E+01 -0.34409507424E+02 -0.47086049745E+02  0.58644553258E+02  0.00000000000E+00 0. -1.
        -12    1    4    4    0    0 -0.58861663998E+01 -0.12939872020E+02  0.34463891154E+02  0.37280652304E+02  0.00000000000E+00 0.  1.
        -11    1    3    3    0    0  0.50325024573E+02  0.20048696364E+01  0.33086951222E+02  0.60260882351E+02  0.00000000000E+00 0.  1.
         11    1    3    3    0    0 -0.31940085854E+02 -0.62397465361E+01  0.69763989567E+02  0.76981281891E+02  0.00000000000E+00 0. -1.
         21    1    1    2  503  502  0.17655400546E+02  0.11074979035E+02  0.15098762216E+02  0.25735985497E+02  0.00000000000E+00 0.  1.
          4    1    1    2  501    0 -0.36324533072E+02  0.40509277309E+02 -0.90280063020E+02  0.10540855293E+03  0.00000000000E+00 0. -1.
<scales pt_clust_5="13000.00000" pt_clust_6="13000.00000" pt_clust_7="13000.00000" pt_clust_8="13000.00000" pt_clust_9="20.84150" pt_clust_10="54.25973"></scales>
<clustering>
<clus scale="   20.842">  1  9  2 -1</clus>
<clus scale="   54.260">  2 10  1 -1</clus>
<clus scale="   82.464">  5  6 -1 -1</clus>
<clus scale="   86.397">  2  5  1 -1</clus>
<clus scale="   88.888">  7  8 -1 -1</clus>
<clus scale="   54.260">  2  5  1 -1</clus>
</clustering>
</event>
<event>
10    3  0.5078224E-005  0.3021585E+03  0.7546771E-02  0.1084167E+00
         21   -1    0    0  501  502  0.00000000000E+00  0.00000000000E+00  0.24277257647E+03  0.24277257647E+03  0.00000000000E+00 0. -1.
          1   -1    0    0  503    0 -0.00000000000E+00 -0.00000000000E+00 -0.64206914718E+03  0.64206914718E+03  0.00000000000E+00 0. -1.
        -24    2    1    2    0    0 -0.15404573257E+03 -0.58593066722E+02 -0.37883553885E+03  0.42081124182E+03  0.80015626933E+02 0.  0.
         23    2    1    2    0    0 -0.61001833119E+02  0.25851206762E+02 -0.13378345174E+03  0.17460913633E+03  0.90558434142E+02 0.  0.
         13    1    3    3    0    0 -0.69262317548E+02 -0.63624140953E+02 -0.24350925335E+03  0.26104033483E+03  0.00000000000E+00 0. -1.
        -14    1    3    3    0    0 -0.84783415021E+02  0.50310742315E+01 -0.13532628551E+03  0.15977090699E+03  0.00000000000E+00 0.  1.
        -13    1    4    4    0    0  0.21113180682E+02 -0.86406616584E+01 -0.22120838516E+02  0.31776704188E+02  0.00000000000E+00 0.  1.
         13    1    4    4    0    0 -0.82115013801E+02  0.34491868420E+02 -0.11166261322E+03  0.14283243214E+03  0.00000000000E+00 0. -1.
         21    1    1    2  503  502  0.14289524225E+01  0.20884375431E+02  0.67433554526E+02  0.70607955063E+02  0.00000000000E+00 0. -1.
          2    1    1    2  501    0  0.21361861327E+03  0.11857484529E+02  0.45888865352E+02  0.21881339044E+03  0.00000000000E+00 0. -1.
<scales pt_clust_5="13000.00000" pt_clust_6="13000.00000" pt_clust_7="13000.00000" pt_clust_8="13000.00000" pt_clust_9="20.93320" pt_clust_10="216.49495"></scales>
<clustering>
<clus scale="   20.933">  1  9  2 -1</clus>
<clus scale="   80.016">  5  6 -1 -1</clus>
<clus scale="   90.558">  7  8 -1 -1</clus>
<clus scale="  106.048">  5  7 -1 -1</clus>
<clus scale="  216.495">  1 10  2 -1</clus>
<clus scale="   20.933">  1  5  2 -1</clus>
</clustering>
</event>
<event>
10    3  0.5078224E-005  0.1258387E+03  0.7546771E-02  0.1250671E+00
          1   -1    0    0  502    0 -0.00000000000E+00  0.00000000000E+00  0.55225859391E+03  0.55225859391E+03  0.00000000000E+00 0. -1.
         21   -1    0    0  503  502  0.00000000000E+00 -0.00000000000E+00 -0.15128094314E+03  0.15128094314E+03  0.00000000000E+00 0.  1.
         23    2    1    2    0    0  0.20181601296E+02 -0.31229603493E+01  0.81363413244E+02  0.12170620545E+03  0.88177919674E+02 0.  0.
        -24    2    1    2    0    0  0.10150429902E+03 -0.73834249358E+02 -0.58442400268E+02  0.16040859302E+03  0.80998663355E+02 0.  0.
         11    1    4    4    0    0  0.73716093110E+01 -0.35767123443E+02  0.10113445302E+02  0.37893396774E+02  0.00000000000E+00 0. -1.
        -12    1    4    4    0    0  0.94132689713E+02 -0.38067125916E+02 -0.68555845570E+02  0.12251519624E+03  0.00000000000E+00 0.  1.
        -11    1    3    3    0    0 -0.24098146060E+02 -0.21059653328E+02  0.62737889883E+02  0.70429201819E+02  0.00000000000E+00 0. -1.
         11    1    3    3    0    0  0.44279747356E+02  0.17936692978E+02  0.18625523360E+02  0.51277003631E+02  0.00000000000E+00 0.  1.
         21    1    1    2  503  501 -0.38221518136E+02  0.13917060437E+02  0.14600364825E+02  0.43217353839E+02  0.00000000000E+00 0. -1.
          2    1    1    2  501    0 -0.83464382183E+02  0.63040149271E+02  0.36345627297E+03  0.37820738475E+03  0.00000000000E+00 0. -1.
<scales pt_clust_5="13000.00000" pt_clust_6="13000.00000" pt_clust_7="13000.00000" pt_clust_8="13000.00000" pt_clust_9="40.67639" pt_clust_10="96.30469"></scales>
<clustering>
<clus scale="   40.676">  2  9  1 -1</clus>
<clus scale="   80.999">  5  6 -1 -1</clus>
<clus scale="   88.178">  7  8 -1 -1</clus>
<clus scale="   89.377">  1  7  2 -1</clus>
<clus scale="   96.305">  2 10  1 -1</clus>
<clus scale="   40.676">  2  5  1 -1</clus>
</clustering>
</event>
<event>
10    3  0.5078224E-005  0.2738773E+03  0.7546771E-02  0.1114267E+00
         21   -1    0    0  503  502  0.00000000000E+00  0.00000000000E+00  0.53195116919E+03  0.53195116919E+03  0.00000000000E+00 0. -1.
          1   -1    0    0  502    0 -0.00000000000E+00 -0.00000000000E+00 -0.85715834901E+03  0.85715834901E+03  0.00000000000E+00 0. -1.
        -24    2    1    2    0    0 -0.15383083956E+03  0.60705125885E+02 -0.56281291962E+03  0.59203756863E+03  0.80006628922E+02 0.  0.
         23    2    1    2    0    0 -0.17451198234E+02 -0.27018293567E+03  0.23089744262E+02  0.28718713009E+03  0.92951322501E+02 0.  0.
         13    1    3    3    0    0 -0.16002167717E+03  0.63890979245E+02 -0.55675700343E+03  0.58280987917E+03  0.00000000000E+00 0. -1.
        -14    1    3    3    0    0  0.61908376041E+01 -0.31858533595E+01 -0.60559161890E+01  0.92276894593E+01  0.00000000000E+00 0.  1.
        -13    1    4    4    0    0 -0.11538375132E+02 -0.23760617169E+03  0.51688316755E+02  0.24343686864E+03  0.00000000000E+00 0. -1.
         13    1    4    4    0    0 -0.59128231019E+01 -0.32576763979E+02 -0.28598572492E+02  0.43750261451E+02  0.00000000000E+00 0.  1.
         21    1    1    2  503  501 -0.40220108919E+02  0.17562389236E+02  0.21990204017E+03  0.22423871643E+03  0.00000000000E+00 0. -1.
          2    1    1    2  501    0  0.21150214671E+03  0.19191542054E+03 -0.53860446317E+01  0.28564610304E+03  0.00000000000E+00 0. -1.
<scales pt_clust_5="13000.00000" pt_clust_6="13000.00000" pt_clust_7="13000.00000" pt_clust_8="13000.00000" pt_clust_9="43.88730" pt_clust_10="257.62158"></scales>
<clustering>
<clus scale="   43.887">  1  9  2 -1</clus>
<clus scale="   80.007">  5  6 -1 -1</clus>
<clus scale="   92.951">  7  8 -1 -1</clus>
<clus scale="  185.576">  2  5  1 -1</clus>
<clus scale="  257.622">  1 10  2 -1</clus>
<clus scale="   43.887">  1  5  2 -1</clus>
</clustering>
</event>
<event>
10    3  0.5078224E-005  0.1763014E+03  0.7546771E-02  0.1172818E+00
         21   -1    0    0  501  502  0.00000000000E+00  0.00000000000E+00  0.43356565440E+03  0.43356565440E+03  0.00000000000E+00 0.  1.
          1   -1    0    0  503    0 -0.00000000000E+00 -0.00000000000E+00 -0.35391750146E+03  0.35391750146E+03  0.00000000000E+00 0. -1.
         23    2    1    2    0    0  0.13949056410E+03 -0.21499951380E+02 -0.14766484240E+03  0.22384184937E+03  0.91544538141E+02 0.  0.
        -24    2    1    2    0    0 -0.12066840865E+03 -0.46918178310E+02  0.34865472412E+03  0.38052396340E+03  0.80474777195E+02 0.  0.
         11    1    4    4    0    0 -0.45954312062E+02 -0.46440392444E+01  0.43224360655E+02  0.63259080388E+02  0.00000000000E+00 0. -1.
        -12    1    4    4    0    0 -0.74714096588E+02 -0.42274139065E+02  0.30543036347E+03  0.31726488301E+03  0.00000000000E+00 0.  1.
        -11    1    3    3    0    0  0.31498126435E+01  0.23490029256E+02 -0.13167294292E+02  0.27112366793E+02  0.00000000000E+00 0.  1.
         11    1    3    3    0    0  0.13634075146E+03 -0.44989980637E+02 -0.13449754811E+03  0.19672948258E+03  0.00000000000E+00 0. -1.
         21    1    1    2  503  502  0.23760033587E+02  0.67899828265E+02 -0.22309234215E+02  0.75316849415E+02  0.00000000000E+00 0. -1.
          2    1    1    2  501    0 -0.42582189042E+02  0.51830142505E+00 -0.99032494556E+02  0.10780049368E+03  0.00000000000E+00 0. -1.
<scales pt_clust_5="13000.00000" pt_clust_6="13000.00000" pt_clust_7="13000.00000" pt_clust_8="13000.00000" pt_clust_9="71.14231" pt_clust_10="42.58536"></scales>
<clustering>
<clus scale="   42.585">  1 10  2 -1</clus>
<clus scale="   71.142">  2  9  1 -1</clus>
<clus scale="   80.475">  5  6 -1 -1</clus>
<clus scale="   91.545">  7  8 -1 -1</clus>
<clus scale="  170.816">  1  5  2 -1</clus>
<clus scale="   42.585">  1  5  2 -1</clus>
</clustering>
</event>
<event>
10    3  0.5078224E-005  0.8290247E+02  0.7546771E-02  0.1323054E+00
         21   -1    0    0  503  502  0.00000000000E+00  0.00000000000E+00  0.52573946396E+02  0.52573946396E+02  0.00000000000E+00 0.  1.
          1   -1    0    0  502    0 -0.00000000000E+00 -0.00000000000E+00 -0.42575606033E+03  0.42575606033E+03  0.00000000000E+00 0. -1.
         23    2    1    2    0    0 -0.11639474174E+02 -0.97633891798E+01 -0.15105603895E+03  0.17088871021E+03  0.78448857518E+02 0.  0.
        -24    2    1    2    0    0 -0.43896854724E+02 -0.21452942514E+02 -0.19181395972E+03  0.21404794289E+03  0.81466337327E+02 0.  0.
         13    1    4    4    0    0  0.21902445631E+02  0.71117206126E+01 -0.53304495077E+02  0.58066021821E+02  0.00000000000E+00 0. -1.
        -14    1    4    4    0    0 -0.65799300354E+02 -0.28564663127E+02 -0.13850946464E+03  0.15598192107E+03  0.00000000000E+00 0.  1.
        -11    1    3    3    0    0 -0.28551719282E+02  0.26103355711E+02 -0.91465326612E+02  0.99310079174E+02  0.00000000000E+00 0. -1.
         11    1    3    3    0    0  0.16912245109E+02 -0.35866744891E+02 -0.59590712338E+02  0.71578631033E+02  0.00000000000E+00 0.  1.
         21    1    1    2  503  501  0.15170750086E+02 -0.18740079804E+02 -0.82577159381E+01  0.25485920069E+02  0.00000000000E+00 0.  1.
          2    1    1    2  501    0  0.40365578812E+02  0.49956411498E+02 -0.22054399330E+02  0.67907433558E+02  0.00000000000E+00 0. -1.
<scales pt_clust_5="13000.00000" pt_clust_6="13000.00000" pt_clust_7="13000.00000" pt_clust_8="13000.00000" pt_clust_9="24.11104" pt_clust_10="62.81234"></scales>
<clustering>
<clus scale="   24.111">  1  9  2 -1</clus>
<clus scale="   62.812">  1 10  2 -1</clus>
<clus scale="   78.449">  7  8 -1 -1</clus>
<clus scale="   79.939">  2  7  1 -1</clus>
<clus scale="   81.466">  5  6 -1 -1</clus>
<clus scale="   24.111">  1  5  2 -1</clus>
</clustering>
</event>
<event>
10    3  0.5078224E-005  0.2167049E+03  0.7546771E-02  0.1145011E+00
         21   -1    0    0  503  502  0.00000000000E+00  0.00000000000E+00  0.23334700687E+03  0.23334700687E+03  0.00000000000E+00 0.  1.
         -2   -1    0    0    0  501 -0.00000000000E+00 -0.00000000000E+00 -0.64103793723E+03  0.64103793723E+03  0.00000000000E+00 0.  1.
         23    2    1    2    0    0 -0.67348224500E+02  0.12859462585E+03 -0.85545243485E+02  0.19228317119E+03  0.92641611052E+02 0.  0.
        -24    2    1    2    0    0  0.16000691168E+03  0.33718283537E+02 -0.25810195738E+03  0.31608689043E+03  0.80963988692E+02 0.  0.
         11    1    4    4    0    0  0.65771022512E+02  0.10418629972E+02 -0.17860662928E+03  0.19061663955E+03  0.00000000000E+00 0. -1.
        -12    1    4    4    0    0  0.94235889172E+02  0.23299653565E+02 -0.79495328106E+02  0.12547025088E+03  0.00000000000E+00 0.  1.
        -11    1    3    3    0    0 -0.51317764558E+02  0.85798874143E+02 -0.10283483875E+03  0.14342232680E+03  0.00000000000E+00 0.  1.
         11    1    3    3    0    0 -0.16030459942E+02  0.42795751711E+02  0.17289595263E+02  0.48860844393E+02  0.00000000000E+00 0. -1.
         21    1    1    2  503  501  0.24454022110E+02  0.29912832838E+02 -0.12662295904E+03  0.13238636834E+03  0.00000000000E+00 0. -1.
         -1    1    1    2    0  502 -0.11711270929E+03 -0.19222574223E+03  0.62579229547E+02  0.23362851415E+03  0.00000000000E+00 0.  1.
<scales pt_clust_5="13000.00000" pt_clust_6="13000.00000" pt_clust_7="13000.00000" pt_clust_8="13000.00000" pt_clust_9="38.63647" pt_clust_10="201.01210"></scales>
<clustering>
<clus scale="   38.636">  2  9  1 -1</clus>
<clus scale="   80.964">  5  6 -1 -1</clus>
<clus scale="   92.642">  7  8 -1 -1</clus>
<clus scale="  175.954">  2  7  1 -1</clus>
<clus scale="  201.012">  1 10  2 -1</clus>
<clus scale="  201.012">  1  5  2 -1</clus>
</clustering>
</event>
<event>
10    3  0.5078224E-005  0.3069554E+03  0.7546771E-02  0.1081878E+00
         21   -1    0    0  501  502  0.00000000000E+00  0.00000000000E+00  0.38714010566E+03  0.38714010566E+03  0.00000000000E+00 0. -1.
          1   -1    0    0  503    0 -0.00000000000E+00 -0.00000000000E+00 -0.60879433917E+03  0.60879433917E+03  0.00000000000E+00 0. -1.
         23    2    1    2    0    0 -0.23938466658E+03  0.88028864858E+01 -0.25703254875E+03  0.36121431038E+03  0.83830409169E+02 0.  0.
        -24    2    1    2    0    0  0.31384154527E+03 -0.14469457906E+03  0.17425481000E+03  0.39560577653E+03  0.81891115945E+02 0.  0.
         13    1    4    4    0    0  0.28901956714E+03 -0.10841842854E+03  0.13593093189E+03  0.33728931807E+03  0.00000000000E+00 0. -1.
        -14    1    4    4    0    0  0.24821978129E+02 -0.36276150515E+02  0.38323878107E+02  0.58316458463E+02  0.00000000000E+00 0.  1.
        -11    1    3    3    0    0 -0.19756906297E+03  0.39227714883E+02 -0.19368100576E+03  0.27943636172E+03  0.00000000000E+00 0. -1.
         11    1    3    3    0    0 -0.41815603617E+02 -0.30424828397E+02 -0.63351542986E+02  0.81777948663E+02  0.00000000000E+00 0.  1.
         21    1    1    2  503  502 -0.82981646353E+02  0.36293950652E+02 -0.41726931092E+02  0.99721318000E+02  0.00000000000E+00 0. -1.
          2    1    1    2  501    0  0.85247676688E+01  0.99597741921E+02 -0.97149563660E+02  0.13939303992E+03  0.00000000000E+00 0. -1.
<scales pt_clust_5="13000.00000" pt_clust_6="13000.00000" pt_clust_7="13000.00000" pt_clust_8="13000.00000" pt_clust_9="90.57154" pt_clust_10="108.01324"></scales>
<clustering>
<clus scale="   81.891">  5  6 -1 -1</clus>
<clus scale="   83.830">  7  8 -1 -1</clus>
<clus scale="   90.572">  2  9  1 -1</clus>
<clus scale="  108.013">  1 10  2 -1</clus>
<clus scale="  306.431">  1  5  2 -1</clus>
<clus scale="  108.013">  1  5  2 -1</clus>
</clustering>
</event>
<event>
10    3  0.5078224E-005  0.1734754E+03  0.7546771E-02  0.1185894E+00
         21   -1    0    0  503  502  0.00000000000E+00  0.00000000000E+00  0.15297120391E+03  0.15297120391E+03  0.00000000000E+00 0. -1.
          3   -1    0    0  502    0 -0.00000000000E+00 -0.00000000000E+00 -0.68823686353E+03  0.68823686353E+03  0.00000000000E+00 0. -1.
         23    2    1    2    0    0  0.50884770899E+02  0.87652113277E+02 -0.29215354804E+03  0.32250144723E+03  0.91549631135E+02 0.  0.
        -24    2    1    2    0    0  0.12399354525E+03  0.47506282463E+02 -0.11945722496E+03  0.19616785906E+03  0.81120615105E+02 0.  0.
         11    1    4    4    0    0  0.11922829199E+03  0.25065133896E+02 -0.67296668532E+02  0.13918508592E+03  0.00000000000E+00 0. -1.
        -12    1    4    4    0    0  0.47652532678E+01  0.22441148567E+02 -0.52160556431E+02  0.56982773142E+02  0.00000000000E+00 0.  1.
        -13    1    3    3    0    0 -0.15354030653E+02  0.62723646527E+02 -0.11795493014E+03  0.13447441257E+03  0.00000000000E+00 0.  1.
         13    1    3    3    0    0  0.66238801552E+02  0.24928466751E+02 -0.17419861789E+03  0.18802703466E+03  0.00000000000E+00 0. -1.
         21    1    1    2  503  501 -0.14878250104E+02 -0.21465182832E+02  0.52605600798E+02  0.58732151634E+02  0.00000000000E+00 0. -1.
          4    1    1    2  501    0 -0.16000006605E+03 -0.11369321291E+03 -0.17626048742E+03  0.26380660952E+03  0.00000000000E+00 0. -1.
<scales pt_clust_5="13000.00000" pt_clust_6="13000.00000" pt_clust_7="13000.00000" pt_clust_8="13000.00000" pt_clust_9="26.11736" pt_clust_10="153.34005"></scales>
<clustering>
<clus scale="   26.117">  1  9  2 -1</clus>
<clus scale="   81.121">  5  6 -1 -1</clus>
<clus scale="   91.550">  7  8 -1 -1</clus>
<clus scale="  133.593">  2  7  1 -1</clus>
<clus scale="  153.340">  1 10  2 -1</clus>
<clus scale="   26.117">  1  5  2 -1</clus>
</clustering>
</event>
<event>
10    3  0.5078224E-005  0.9274305E+02  0.7546771E-02  0.1302014E+00
         21   -1    0    0  501  502  0.00000000000E+00  0.00000000000E+00  0.51660551162E+02  0.51660551162E+02  0.00000000000E+00 0. -1.
          3   -1    0    0  503    0 -0.00000000000E+00 -0.00000000000E+00 -0.57232205166E+03  0.57232205166E+03  0.00000000000E+00 0. -1.
         23    2    1    2    0    0 -0.63943731384E+01  0.31002381167E+02 -0.26791832508E+03  0.28478082570E+03  0.91202270388E+02 0.  0.
        -24    2    1    2    0    0  0.13067063631E+02  0.13189601915E+02 -0.11320768537E+03  0.14090188283E+03  0.81808598609E+02 0.  0.
         11    1    4    4    0    0 -0.16809664559E+02  0.36764143169E+02 -0.82971035389E+02  0.92294960637E+02  0.00000000000E+00 0. -1.
        -12    1    4    4    0    0  0.29876728190E+02 -0.23574541254E+02 -0.30236649986E+02  0.48606922193E+02  0.00000000000E+00 0.  1.
        -11    1    3    3    0    0 -0.39254685472E+01 -0.28401759502E+02 -0.39866451860E+02  0.49106040668E+02  0.00000000000E+00 0. -1.
         11    1    3    3    0    0 -0.24689045913E+01  0.59404140669E+02 -0.22805187322E+03  0.23567478503E+03  0.00000000000E+00 0.  1.
         21    1    1    2  503  502 -0.31512736706E+02 -0.19286957243E+02  0.14952920619E+02  0.39857610684E+02  0.00000000000E+00 0. -1.
          4    1    1    2  501    0  0.24840046213E+02 -0.24905025840E+02 -0.15448841066E+03  0.15844228361E+03  0.00000000000E+00 0. -1.
<scales pt_clust_5="13000.00000" pt_clust_6="13000.00000" pt_clust_7="13000.00000" pt_clust_8="13000.00000" pt_clust_9="37.52132" pt_clust_10="35.17513"></scales>
<clustering>
<clus scale="   35.175">  1 10  2 -1</clus>
<clus scale="   37.521">  1  9  2 -1</clus>
<clus scale="   81.809">  5  6 -1 -1</clus>
<clus scale="   83.523">  1  5  2 -1</clus>
<clus scale="   91.202">  7  8 -1 -1</clus>
<clus scale="   35.175">  1  5  2 -1</clus>
</clustering>
</event>
<event>
10    3  0.5078224E-005  0.1001322E+03  0.7546771E-02  0.1284946E+00
         21   -1    0    0  503  502  0.00000000000E+00  0.00000000000E+00  0.89261816626E+02  0.89261816626E+02  0.00000000000E+00 0.  1.
          1   -1    0    0  502    0 -0.00000000000E+00 -0.00000000000E+00 -0.32306487017E+03  0.32306487017E+03  0.00000000000E+00 0. -1.
         23    2    1    2    0    0 -0.34490617720E+02  0.29462737507E+02 -0.18986043263E+03  0.21536780381E+03  0.90987094843E+02 0.  0.
        -24    2    1    2    0    0 -0.20883946187E+01 -0.45579269666E+02 -0.29263421566E+02  0.97509770451E+02  0.81055390174E+02 0.  0.
         11    1    4    4    0    0  0.24268409070E+02 -0.53984022680E+02 -0.35680287860E+02  0.69110877040E+02  0.00000000000E+00 0. -1.
        -12    1    4    4    0    0 -0.26356803689E+02  0.84047530132E+01  0.64168662945E+01  0.28398893411E+02  0.00000000000E+00 0.  1.
        -13    1    3    3    0    0 -0.64089717289E+02  0.32437071653E+02 -0.13009535890E+03  0.14860840449E+03  0.00000000000E+00 0.  1.
         13    1    3    3    0    0  0.29599099569E+02 -0.29743341466E+01 -0.59765073733E+02  0.66759399318E+02  0.00000000000E+00 0. -1.
         21    1    1    2  503  501 -0.25226864547E+02  0.25271880527E+02 -0.81693799024E+01  0.36630607533E+02  0.00000000000E+00 0.  1.
          2    1    1    2  501    0  0.61805876886E+02 -0.91553483672E+01 -0.65098194474E+01  0.62818505001E+02  0.00000000000E+00 0. -1.
<scales pt_clust_5="13000.00000" pt_clust_6="13000.00000" pt_clust_7="13000.00000" pt_clust_8="13000.00000" pt_clust_9="35.70802" pt_clust_10="52.34090"></scales>
<clustering>
<clus scale="   35.708">  1  9  2 -1</clus>
<clus scale="   52.341">  1 10  2 -1</clus>
<clus scale="   81.055">  5  6 -1 -1</clus>
<clus scale="   90.987">  7  8 -1 -1</clus>
<clus scale="   91.202">  1  5  2 -1</clus>
<clus scale="   35.708">  1  5  2 -1</clus>
</clustering>
</event>
<event>
10    3  0.5078224E-005  0.1163229E+03  0.7546771E-02  0.1257297E+00
          1   -1    0    0  502    0 -0.00000000000E+00  0.00000000000E+00  0.78426308304E+03  0.78426308304E+03  0.00000000000E+00 0. -1.
         21   -1    0    0  503  502  0.00000000000E+00 -0.00000000000E+00 -0.58573449726E+02  0.58573449726E+02  0.00000000000E+00 0. -1.
         23    2    1    2    0    0  0.16349954818E+02  0.69524298484E+02  0.61412627544E+03  0.62538104519E+03  0.94071358028E+02 0.  0.
        -24    2    1    2    0    0 -0.50613066504E+02 -0.44334302255E+02  0.92658630025E+02  0.13518195787E+03  0.71842377180E+02 0.  0.
         11    1    4    4    0    0  0.37307922100E+01 -0.42679524922E+02  0.51502909642E+02  0.66992614217E+02  0.00000000000E+00 0. -1.
        -12    1    4    4    0    0 -0.54343858714E+02 -0.16547773327E+01  0.41155720383E+02  0.68189343656E+02  0.00000000000E+00 0.  1.
        -13    1    3    3    0    0  0.89662706533E+00 -0.23643334511E+02  0.12645689844E+03  0.12865130536E+03  0.00000000000E+00 0.  1.
         13    1    3    3    0    0  0.15453327753E+02  0.93167632994E+02  0.48766937699E+03  0.49672973983E+03  0.00000000000E+00 0. -1.
         21    1    1    2  503  501  0.22599561014E+02  0.20171233784E+02  0.18383196649E+02  0.35433892666E+02  0.00000000000E+00 0.  1.
          2    1    1    2  501    0  0.11663550671E+02 -0.45361230013E+02  0.52153119990E+00  0.46839637032E+02  0.00000000000E+00 0. -1.
<scales pt_clust_5="13000.00000" pt_clust_6="13000.00000" pt_clust_7="13000.00000" pt_clust_8="13000.00000" pt_clust_9="30.29222" pt_clust_10="42.27660"></scales>
<clustering>
<clus scale="   30.292">  2  9  1 -1</clus>
<clus scale="   42.277">  2 10  1 -1</clus>
<clus scale="   71.842">  5  6 -1 -1</clus>
<clus scale="   94.071">  7  8 -1 -1</clus>
<clus scale="   99.212">  2  5  1 -1</clus>
<clus scale="   30.292">  2  5  1 -1</clus>
</clustering>
</event>
<event>
10    3  0.5078224E-005  0.3541030E+03  0.7546771E-02  0.1104549E+00
          1   -1    0    0  502    0 -0.00000000000E+00  0.00000000000E+00  0.84791034148E+03  0.84791034148E+03  0.00000000000E+00 0. -1.
         21   -1    0    0  503  502  0.00000000000E+00 -0.00000000000E+00 -0.35351274838E+03  0.35351274838E+03  0.00000000000E+00 0. -1.
         23    2    1    2    0    0 -0.21222510691E+02  0.57644369371E+02  0.85461793832E+02  0.14010807707E+03  0.92483981179E+02 0.  0.
        -24    2    1    2    0    0 -0.30163488849E+03 -0.10770395187E+03 -0.53900314343E+02  0.33521916067E+03  0.82963212268E+02 0.  0.
         13    1    4    4    0    0 -0.15725418900E+03 -0.95306453080E+02 -0.48669351628E+02  0.19021279070E+03  0.00000000000E+00 0. -1.
        -14    1    4    4    0    0 -0.14438069949E+03 -0.12397498791E+02 -0.52309627147E+01  0.14500636997E+03  0.00000000000E+00 0.  1.
        -11    1    3    3    0    0 -0.48860980234E+02  0.61916987479E+02  0.78515697141E+02  0.11129161435E+03  0.00000000000E+00 0.  1.
         11    1    3    3    0    0  0.27638469543E+02 -0.42726181076E+01  0.69460966914E+01  0.28816462715E+02  0.00000000000E+00 0. -1.
         21    1    1    2  503  501 -0.24102079790E+02 -0.29805461141E+02 -0.73180041207E+02  0.82611102130E+02  0.00000000000E+00 0.  1.
          2    1    1    2  501    0  0.34695947897E+03  0.79865043641E+02  0.53601615482E+03  0.64348474999E+03  0.00000000000E+00 0. -1.
<scales pt_clust_5="13000.00000" pt_clust_6="13000.00000" pt_clust_7="13000.00000" pt_clust_8="13000.00000" pt_clust_9="38.33113" pt_clust_10="344.24722"></scales>
<clustering>
<clus scale="   38.331">  2  9  1 -1</clus>
<clus scale="   82.963">  5  6 -1 -1</clus>
<clus scale="   92.484">  7  8 -1 -1</clus>
<clus scale="  110.008">  1  7  2 -1</clus>
<clus scale="  344.247">  2 10  1 -1</clus>
<clus scale="   38.331">  2  5  1 -1</clus>
</clustering>
</event>
<event>
10    3  0.5078224E-005  0.1458819E+03  0.7546771E-02  0.1224857E+00
          1   -1    0    0  502    0 -0.00000000000E+00  0.00000000000E+00  0.49625787406E+03  0.49625787406E+03  0.00000000000E+00 0. -1.
         21   -1    0    0  503  502  0.00000000000E+00 -0.00000000000E+00 -0.13990792890E+03  0.13990792890E+03  0.00000000000E+00 0. -1.
         23    2    1    2    0    0  0.13840712352E+02  0.36222959458E+02  0.17498637268E+02  0.10142696872E+03  0.92073663804E+02 0.  0.
        -24    2    1    2    0    0  0.10105394069E+02  0.10439978157E+03  0.30705212595E+03  0.33419139212E+03  0.80009031594E+02 0.  0.
         11    1    4    4    0    0  0.40514687737E+02  0.82263160860E+02  0.18507073786E+03  0.20654259989E+03  0.00000000000E+00 0. -1.
        -12    1    4    4    0    0 -0.30409293667E+02  0.22136620706E+02  0.12198138809E+03  0.12764879223E+03  0.00000000000E+00 0.  1.
        -11    1    3    3    0    0  0.30917711536E+02  0.14696047434E+02 -0.30676377784E+02  0.45966497047E+02  0.00000000000E+00 0. -1.
         11    1    3    3    0    0 -0.17076999184E+02  0.21526912024E+02  0.48175015052E+02  0.55460471668E+02  0.00000000000E+00 0.  1.
         21    1    1    2  503  501  0.39155391443E+01 -0.20482109171E+02 -0.48901054248E+02  0.53161652998E+02  0.00000000000E+00 0.  1.
          2    1    1    2  501    0 -0.27861645566E+02 -0.12014063185E+03  0.80700236183E+02  0.14738578912E+03  0.00000000000E+00 0. -1.
<scales pt_clust_5="13000.00000" pt_clust_6="13000.00000" pt_clust_7="13000.00000" pt_clust_8="13000.00000" pt_clust_9="20.85302" pt_clust_10="121.98398"></scales>
<clustering>
<clus scale="   20.853">  2  9  1 -1</clus>
<clus scale="   80.009">  5  6 -1 -1</clus>
<clus scale="   92.074">  7  8 -1 -1</clus>
<clus scale="   97.102">  1  7  2 -1</clus>
<clus scale="  121.984">  2 10  1 -1</clus>
<clus scale="   20.853">  2  5  1 -1</clus>
</clustering>
</event>
<event>
10    3  0.5078224E-005  0.1504973E+03  0.7546771E-02  0.1223832E+00
         21   -1    0    0  501  502  0.00000000000E+00  0.00000000000E+00  0.42715383968E+03  0.42715383968E+03  0.00000000000E+00 0.  1.
          1   -1    0    0  503    0 -0.00000000000E+00 -0.00000000000E+00 -0.21604909513E+03  0.21604909513E+03  0.00000000000E+00 0. -1.
        -24    2    1    2    0    0 -0.22336686615E+02 -0.24444549421E+01  0.40884916842E+02  0.92405811682E+02  0.79764369731E+02 0.  0.
         23    2    1    2    0    0  0.27930675376E+02  0.13477062640E+03 -0.11070333395E+03  0.20081221716E+03  0.95535721312E+02 0.  0.
         13    1    3    3    0    0  0.14447219113E+02  0.27588166241E+02  0.30919487813E+02  0.43884436686E+02  0.00000000000E+00 0. -1.
        -14    1    3    3    0    0 -0.36783905728E+02 -0.30032621183E+02  0.99654290291E+01  0.48521374996E+02  0.00000000000E+00 0.  1.
        -11    1    4    4    0    0 -0.27449021902E+02  0.61016898745E+02 -0.16364084794E+02  0.68878835697E+02  0.00000000000E+00 0.  1.
         11    1    4    4    0    0  0.55379697278E+02  0.73753727655E+02 -0.94339249153E+02  0.13193338146E+03  0.00000000000E+00 0. -1.
         21    1    1    2  503  502 -0.54917096268E+02 -0.37596130604E+02  0.21361684584E+03  0.22374430345E+03  0.00000000000E+00 0.  1.
          2    1    1    2  501    0  0.49323107507E+02 -0.94730040853E+02  0.67306315821E+02  0.12624060252E+03  0.00000000000E+00 0. -1.
<scales pt_clust_5="13000.00000" pt_clust_6="13000.00000" pt_clust_7="13000.00000" pt_clust_8="13000.00000" pt_clust_9="66.55341" pt_clust_10="116.28575"></scales>
<clustering>
<clus scale="   66.553">  1  9  2 -1</clus>
<clus scale="   79.764">  5  6 -1 -1</clus>
<clus scale="   90.349">  2  5  1 -1</clus>
<clus scale="   95.536">  7  8 -1 -1</clus>
<clus scale="  116.286">  1 10  2 -1</clus>
<clus scale="   66.553">  1  5  2 -1</clus>
</clustering>
</event>
<event>
10    3  0.5078224E-005  0.1440009E+03  0.7546771E-02  0.1229001E+00
         21   -1    0    0  501  502  0.00000000000E+00  0.00000000000E+00  0.79609259879E+03  0.79609259879E+03  0.00000000000E+00 0.  1.
         -2   -1    0    0    0  501 -0.00000000000E+00 -0.00000000000E+00 -0.45149350133E+02  0.45149350133E+02  0.00000000000E+00 0.  1.
        -24    2    1    2    0    0  0.31487591121E+02  0.23354428129E+02  0.15712842461E+03  0.18240251318E+03  0.83931146107E+02 0.  0.
         23    2    1    2    0    0 -0.57934003586E+02  0.91794589340E+02  0.42449305862E+03  0.44777746127E+03  0.92345560780E+02 0.  0.
         11    1    3    3    0    0  0.44905656495E+02 -0.23393029254E+01  0.14348448333E+03  0.15036551227E+03  0.00000000000E+00 0. -1.
        -12    1    3    3    0    0 -0.13418065374E+02  0.25693731055E+02  0.13643941280E+02  0.32037000914E+02  0.00000000000E+00 0.  1.
        -11    1    4    4    0    0 -0.23711299879E+02 -0.15837954941E+02  0.65507485742E+02  0.71444364697E+02  0.00000000000E+00 0. -1.
         11    1    4    4    0    0 -0.34222703707E+02  0.10763254428E+03  0.35898557288E+03  0.37633309657E+03  0.00000000000E+00 0.  1.
         21    1    1    2  503  502  0.23624188061E+02 -0.33245243473E+02  0.35147980470E+02  0.53839845897E+02  0.00000000000E+00 0.  1.
         -1    1    1    2    0  503  0.28222244037E+01 -0.81903773995E+02  0.13417378496E+03  0.15722212858E+03  0.00000000000E+00 0.  1.
<scales pt_clust_5="13000.00000" pt_clust_6="13000.00000" pt_clust_7="13000.00000" pt_clust_8="13000.00000" pt_clust_9="30.89981" pt_clust_10="118.85774"></scales>
<clustering>
<clus scale="   30.900">  9 10 -1 -1</clus>
<clus scale="   83.931">  5  6 -1 -1</clus>
<clus scale="   92.346">  7  8 -1 -1</clus>
<clus scale="   92.635">  2  5  1 -1</clus>
<clus scale="  118.858">  1  9  2 -1</clus>
<clus scale="  118.858">  1  5  2 -1</clus>
</clustering>
</event>
<event>
10    3  0.5078224E-005  0.1458190E+03  0.7546771E-02  0.1207223E+00
         21   -1    0    0  501  502  0.00000000000E+00  0.00000000000E+00  0.87576946121E+02  0.87576946121E+02  0.00000000000E+00 0. -1.
          1   -1    0    0  503    0 -0.00000000000E+00 -0.00000000000E+00 -0.51043808055E+03  0.51043808055E+03  0.00000000000E+00 0. -1.
        -24    2    1    2    0    0 -0.72696905038E+02  0.63061582194E+02 -0.15058749918E+03  0.19605737294E+03  0.80624409607E+02 0.  0.
         23    2    1    2    0    0  0.91680939605E+02 -0.13306731699E+03 -0.12138406631E+03  0.22065333556E+03  0.88552229785E+02 0.  0.
         13    1    3    3    0    0 -0.32889526421E+02  0.64066264194E+02 -0.13554973456E+03  0.15349246788E+03  0.00000000000E+00 0. -1.
        -14    1    3    3    0    0 -0.39807378617E+02 -0.10046819996E+01 -0.15037764620E+02  0.42564905063E+02  0.00000000000E+00 0.  1.
        -11    1    4    4    0    0  0.45305983909E+02 -0.19018980326E+02 -0.73800341963E+02  0.88661402338E+02  0.00000000000E+00 0.  1.
         11    1    4    4    0    0  0.46374955696E+02 -0.11404833666E+03 -0.47583724346E+02  0.13199193322E+03  0.00000000000E+00 0. -1.
         21    1    1    2  503  502 -0.59376706768E+01  0.19861512080E+02  0.10664667822E+01  0.20757479292E+02  0.00000000000E+00 0.  1.
          2    1    1    2  501    0 -0.13046363891E+02  0.50144222717E+02 -0.15195603571E+03  0.16054683887E+03  0.00000000000E+00 0. -1.
<scales pt_clust_5="13000.00000" pt_clust_6="13000.00000" pt_clust_7="13000.00000" pt_clust_8="13000.00000" pt_clust_9="20.73007" pt_clust_10="52.97438"></scales>
<clustering>
<clus scale="   20.730">  1  9  2 -1</clus>
<clus scale="   52.974">  1 10  2 -1</clus>
<clus scale="   80.624">  5  6 -1 -1</clus>
<clus scale="   88.552">  7  8 -1 -1</clus>
<clus scale="  141.145">  2  5  1 -1</clus>
<clus scale="   20.730">  1  5  2 -1</clus>
</clustering>
</event>
<event>
10    3  0.5078224E-005  0.2315827E+03  0.7546771E-02  0.1125531E+00
          1   -1    0    0  503    0 -0.00000000000E+00  0.00000000000E+00  0.10389862392E+04  0.10389862392E+04  0.00000000000E+00 0. -1.
         21   -1    0    0  501  502  0.00000000000E+00 -0.00000000000E+00 -0.12530238200E+03  0.12530238200E+03  0.00000000000E+00 0.  1.
        -24    2    1    2    0    0 -0.53452678181E+02 -0.51218437620E+02  0.36016685732E+03  0.37584709099E+03  0.77848272532E+02 0.  0.
         23    2    1    2    0    0 -0.41992566101E+02 -0.32264360529E+01  0.22277264475E+03  0.24480157842E+03  0.92338377978E+02 0.  0.
         13    1    3    3    0    0 -0.59033590446E+02 -0.65390984478E+02  0.25977724314E+03  0.27430851556E+03  0.00000000000E+00 0. -1.
        -14    1    3    3    0    0  0.55809122651E+01  0.14172546859E+02  0.10038961418E+03  0.10153857543E+03  0.00000000000E+00 0.  1.
        -11    1    4    4    0    0 -0.38601940919E+02  0.41072812209E+02  0.13860070462E+03  0.14962366479E+03  0.00000000000E+00 0.  1.
         11    1    4    4    0    0 -0.33906251824E+01 -0.44299248262E+02  0.84171940133E+02  0.95177913622E+02  0.00000000000E+00 0. -1.
         21    1    1    2  503  502 -0.58510969885E+02 -0.24596341259E+02 -0.77532515624E+02  0.10019882524E+03  0.00000000000E+00 0.  1.
          2    1    1    2  501    0  0.15395621417E+03  0.79041214932E+02  0.40827687078E+03  0.44344112659E+03  0.00000000000E+00 0. -1.
<scales pt_clust_5="13000.00000" pt_clust_6="13000.00000" pt_clust_7="13000.00000" pt_clust_8="13000.00000" pt_clust_9="63.47057" pt_clust_10="142.54217"></scales>
<clustering>
<clus scale="   63.471">  2  9  1 -1</clus>
<clus scale="   77.848">  5  6 -1 -1</clus>
<clus scale="   92.338">  7  8 -1 -1</clus>
<clus scale="  103.211">  5  7 -1 -1</clus>
<clus scale="  142.542">  2 10  1 -1</clus>
<clus scale="   63.471">  2  5  1 -1</clus>
</clustering>
</event>
<event>
10    3  0.5078224E-005  0.1652931E+03  0.7546771E-02  0.1211243E+00
         21   -1    0    0  501  502  0.00000000000E+00  0.00000000000E+00  0.82437590568E+02  0.82437590568E+02  0.00000000000E+00 0. -1.
          1   -1    0    0  503    0 -0.00000000000E+00 -0.00000000000E+00 -0.13023714406E+04  0.13023714406E+04  0.00000000000E+00 0. -1.
        -24    2    1    2    0    0 -0.59372228219E+01  0.55272237523E+02 -0.33095063897E+03  0.34509875150E+03  0.80464600903E+02 0.  0.
         23    2    1    2    0    0 -0.12660522698E+03  0.47748818936E+02 -0.67143907372E+03  0.69084106974E+03  0.90122809020E+02 0.  0.
         11    1    3    3    0    0 -0.39488876508E+02  0.11951492210E+02 -0.11081758241E+03  0.11824866217E+03  0.00000000000E+00 0. -1.
        -12    1    3    3    0    0  0.33551653687E+02  0.43320745313E+02 -0.22013305656E+03  0.22685008933E+03  0.00000000000E+00 0.  1.
        -13    1    4    4    0    0 -0.10171263781E+03 -0.70251355310E+01 -0.44675921165E+03  0.45824513790E+03  0.00000000000E+00 0.  1.
         13    1    4    4    0    0 -0.24892589163E+02  0.54773954467E+02 -0.22467986208E+03  0.23259593183E+03  0.00000000000E+00 0. -1.
         21    1    1    2  503  502  0.13117368821E+03 -0.15435461427E+02 -0.22505731341E+03  0.26095130631E+03  0.00000000000E+00 0.  1.
          2    1    1    2  501    0  0.13687615911E+01 -0.87585595033E+02  0.75131760477E+01  0.87917903636E+02  0.00000000000E+00 0. -1.
<scales pt_clust_5="13000.00000" pt_clust_6="13000.00000" pt_clust_7="13000.00000" pt_clust_8="13000.00000" pt_clust_9="138.56289" pt_clust_10="87.59629"></scales>
<clustering>
<clus scale="   80.465">  5  6 -1 -1</clus>
<clus scale="   87.596">  1 10  2 -1</clus>
<clus scale="   88.924">  2  5  1 -1</clus>
<clus scale="   90.123">  7  8 -1 -1</clus>
<clus scale="  138.563">  1  9  2 -1</clus>
<clus scale="   87.596">  1  5  2 -1</clus>
</clustering>
</event>
<event>
10    3  0.5078224E-005  0.1471695E+03  0.7546771E-02  0.1224244E+00
          1   -1    0    0  502    0 -0.00000000000E+00  0.00000000000E+00  0.69355677045E+03  0.69355677045E+03  0.00000000000E+00 0. -1.
         21   -1    0    0  503  502  0.00000000000E+00 -0.00000000000E+00 -0.13210088647E+03  0.13210088647E+03  0.00000000000E+00 0. -1.
         23    2    1    2    0    0 -0.34562147042E+02 -0.12992626465E+02  0.38063456989E+02  0.10618833186E+03  0.91998829968E+02 0.  0.
        -24    2    1    2    0    0  0.11642283182E+03 -0.69468094778E+02  0.51321671967E+03  0.53666634728E+03  0.78989081420E+02 0.  0.
         11    1    4    4    0    0  0.11037049131E+03 -0.81049099930E+02  0.40193892092E+03  0.42462394904E+03  0.00000000000E+00 0. -1.
        -12    1    4    4    0    0  0.60523405149E+01  0.11581005152E+02  0.11127779876E+03  0.11204239823E+03  0.00000000000E+00 0.  1.
        -11    1    3    3    0    0  0.16742294161E+02 -0.20154713912E+02  0.46818696480E+02  0.53651721750E+02  0.00000000000E+00 0.  1.
         11    1    3    3    0    0 -0.51304441203E+02  0.71620874466E+01 -0.87552394912E+01  0.52536610114E+02  0.00000000000E+00 0. -1.
         21    1    1    2  503  501  0.25582243549E+02  0.10097299245E+02 -0.35978974101E+02  0.45286788519E+02  0.00000000000E+00 0. -1.
          2    1    1    2  501    0 -0.10744292833E+03  0.72363421999E+02  0.46154681413E+02  0.13751618926E+03  0.00000000000E+00 0. -1.
<scales pt_clust_5="13000.00000" pt_clust_6="13000.00000" pt_clust_7="13000.00000" pt_clust_8="13000.00000" pt_clust_9="27.50285" pt_clust_10="124.17564"></scales>
<clustering>
<clus scale="   27.503">  2  9  1 -1</clus>
<clus scale="   78.989">  5  6 -1 -1</clus>
<clus scale="   91.999">  7  8 -1 -1</clus>
<clus scale="   95.790">  1  7  2 -1</clus>
<clus scale="  124.176">  2 10  1 -1</clus>
<clus scale="   27.503">  2  5  1 -1</clus>
</clustering>
</event>
<event>
10    3  0.5078224E-005  0.1402550E+03  0.7546771E-02  0.1214359E+00
          1   -1    0    0  503    0 -0.00000000000E+00  0.00000000000E+00  0.19106070560E+03  0.19106070560E+03  0.00000000000E+00 0. -1.
         21   -1    0    0  501  502  0.00000000000E+00 -0.00000000000E+00 -0.36619380101E+03  0.36619380101E+03  0.00000000000E+00 0. -1.
        -24    2    1    2    0    0 -0.86676470644E+02 -0.61733446856E+02  0.10905474363E+03  0.17286766122E+03  0.81648405767E+02 0.  0.
         23    2    1    2    0    0  0.13429602156E+03  0.23743456252E+02 -0.16398556530E+03  0.23080343605E+03  0.88203102823E+02 0.  0.
         11    1    3    3    0    0 -0.90817351997E+02 -0.61398891281E+02  0.62623654976E+02  0.12625108885E+03  0.00000000000E+00 0. -1.
        -12    1    3    3    0    0  0.41408813537E+01 -0.33455557473E+00  0.46431088652E+02  0.46616572367E+02  0.00000000000E+00 0.  1.
        -11    1    4    4    0    0  0.83052022706E+00  0.25664498441E+02 -0.45867201886E+02  0.52565734590E+02  0.00000000000E+00 0.  1.
         11    1    4    4    0    0  0.13346550133E+03 -0.19210421895E+01 -0.11811836341E+03  0.17823770146E+03  0.00000000000E+00 0. -1.
         21    1    1    2  503  502 -0.89004330563E+01 -0.22171908590E+02 -0.34084081630E+02  0.41623741539E+02  0.00000000000E+00 0.  1.
          2    1    1    2  501    0 -0.38719117856E+02  0.60161899194E+02 -0.86118192101E+02  0.11195966780E+03  0.00000000000E+00 0. -1.
<scales pt_clust_5="13000.00000" pt_clust_6="13000.00000" pt_clust_7="13000.00000" pt_clust_8="13000.00000" pt_clust_9="23.89166" pt_clust_10="67.62951"></scales>
<clustering>
<clus scale="   23.892">  2  9  1 -1</clus>
<clus scale="   67.630">  2 10  1 -1</clus>
<clus scale="   81.648">  5  6 -1 -1</clus>
<clus scale="   88.203">  7  8 -1 -1</clus>
<clus scale="  136.228">  1  5  2 -1</clus>
<clus scale="   23.892">  2  5  1 -1</clus>
</clustering>
</event>
<event>
10    3  0.5078224E-005  0.1259577E+03  0.7546771E-02  0.1244870E+00
          3   -1    0    0  502    0 -0.00000000000E+00  0.00000000000E+00  0.76712474176E+02  0.76712474176E+02  0.00000000000E+00 0. -1.
         21   -1    0    0  503  502  0.00000000000E+00 -0.00000000000E+00 -0.50685970343E+03  0.50685970343E+03  0.00000000000E+00 0. -1.
         23    2    1    2    0    0 -0.38748427895E+02  0.86064437873E+01 -0.43832224471E+02  0.10795626335E+03  0.90320426016E+02 0.  0.
        -24    2    1    2    0    0  0.10069973238E+02  0.84085486045E+02 -0.21821874804E+03  0.24744815610E+03  0.80245838774E+02 0.  0.
         11    1    4    4    0    0  0.28024353472E+01  0.97923948246E+02 -0.16409793702E+03  0.19111537410E+03  0.00000000000E+00 0. -1.
        -12    1    4    4    0    0  0.72675378911E+01 -0.13838462201E+02 -0.54120811015E+02  0.56332782001E+02  0.00000000000E+00 0.  1.
        -13    1    3    3    0    0 -0.61371207179E+02  0.12693786622E+02 -0.50512735347E+01  0.62873465418E+02  0.00000000000E+00 0. -1.
         13    1    3    3    0    0  0.22622779284E+02 -0.40873428345E+01 -0.38780950936E+02  0.45082797933E+02  0.00000000000E+00 0.  1.
         21    1    1    2  503  501 -0.16924554811E+02  0.13623294186E+02 -0.79614548556E+02  0.82525820455E+02  0.00000000000E+00 0. -1.
          4    1    1    2  501    0  0.45603009467E+02 -0.10631522402E+03 -0.88481708187E+02  0.14564193769E+03  0.00000000000E+00 0. -1.
<scales pt_clust_5="13000.00000" pt_clust_6="13000.00000" pt_clust_7="13000.00000" pt_clust_8="13000.00000" pt_clust_9="21.72636" pt_clust_10="97.08738"></scales>
<clustering>
<clus scale="   21.726">  2  9  1 -1</clus>
<clus scale="   80.246">  5  6 -1 -1</clus>
<clus scale="   90.320">  7  8 -1 -1</clus>
<clus scale="  100.119">  1  7  2 -1</clus>
<clus scale="   97.087">  2 10  1 -1</clus>
<clus scale="   21.726">  2  5  1 -1</clus>
</clustering>
</event>
<event>
10    3  0.5078224E-005  0.5043308E+03  0.7546771E-02  0.1012988E+00
         21   -1    0    0  503  502  0.00000000000E+00  0.00000000000E+00  0.39651742254E+03  0.39651742254E+03  0.00000000000E+00 0. -1.
          1   -1    0    0  502    0 -0.00000000000E+00 -0.00000000000E+00 -0.15365719140E+04  0.15365719140E+04  0.00000000000E+00 0. -1.
        -24    2    1    2    0    0  0.41224859678E+03 -0.72703403807E+02 -0.49047007076E+03  0.64988888013E+03  0.80993677074E+02 0.  0.
         23    2    1    2    0    0 -0.67327936655E+03 -0.10108740830E+01 -0.43021037907E+03  0.80628856316E+03  0.10823192477E+03 0.  0.
         11    1    3    3    0    0  0.25717843566E+03 -0.84053910713E+02 -0.29919626838E+03  0.40339089564E+03  0.00000000000E+00 0. -1.
        -12    1    3    3    0    0  0.15507016113E+03  0.11350506905E+02 -0.19127380238E+03  0.24649798449E+03  0.00000000000E+00 0.  1.
        -13    1    4    4    0    0 -0.17418727131E+02  0.18963051782E+02 -0.17094092455E+02  0.30906591281E+02  0.00000000000E+00 0.  1.
         13    1    4    4    0    0 -0.65586063942E+03 -0.19973925865E+02 -0.41311628662E+03  0.77538197188E+03  0.00000000000E+00 0. -1.
         21    1    1    2  503  501 -0.42717028527E+01 -0.33546600374E+02  0.65130088146E+02  0.73386308149E+02  0.00000000000E+00 0. -1.
          2    1    1    2  501    0  0.26530247262E+03  0.10726087826E+03 -0.28450412978E+03  0.40352558512E+03  0.00000000000E+00 0. -1.
<scales pt_clust_5="13000.00000" pt_clust_6="13000.00000" pt_clust_7="13000.00000" pt_clust_8="13000.00000" pt_clust_9="33.81748" pt_clust_10="283.20907"></scales>
<clustering>
<clus scale="   33.817">  1  9  2 -1</clus>
<clus scale="   80.994">  5  6 -1 -1</clus>
<clus scale="  108.232">  7  8 -1 -1</clus>
<clus scale="  283.209">  1 10  2 -1</clus>
<clus scale="  499.195">  2  5  1 -1</clus>
<clus scale="   33.817">  1  5  2 -1</clus>
</clustering>
</event>
<event>
10    3  0.5078224E-005  0.1803998E+03  0.7546771E-02  0.1182484E+00
          1   -1    0    0  502    0 -0.00000000000E+00  0.00000000000E+00  0.16698339185E+04  0.16698339185E+04  0.00000000000E+00 0. -1.
         21   -1    0    0  503  502  0.00000000000E+00 -0.00000000000E+00 -0.50938741082E+02  0.50938741082E+02  0.00000000000E+00 0.  1.
         23    2    1    2    0    0  0.78428874640E+02  0.31309655809E+02  0.26859070802E+03  0.29451822274E+03  0.86421248355E+02 0.  0.
        -24    2    1    2    0    0 -0.45768827173E+02 -0.16199154663E+03  0.33258987097E+03  0.38117276814E+03  0.79627948480E+02 0.  0.
         11    1    4    4    0    0  0.13158831899E+02 -0.82113583805E+02  0.19033868483E+03  0.20771280761E+03  0.00000000000E+00 0. -1.
        -12    1    4    4    0    0 -0.58927659072E+02 -0.79877962823E+02  0.14225118613E+03  0.17345996052E+03  0.00000000000E+00 0.  1.
        -13    1    3    3    0    0 -0.16999443873E+02  0.15702101550E+02  0.38271250811E+02  0.44723883147E+02  0.00000000000E+00 0. -1.
         13    1    3    3    0    0  0.95428318513E+02  0.15607554259E+02  0.23031945720E+03  0.24979433959E+03  0.00000000000E+00 0.  1.
         21    1    1    2  503  501  0.42069020556E+02 -0.14874764526E+02  0.67714706015E+02  0.81094651617E+02  0.00000000000E+00 0. -1.
          2    1    1    2  501    0 -0.74729068023E+02  0.14555665535E+03  0.94999989246E+03  0.96398701713E+03  0.00000000000E+00 0. -1.
<scales pt_clust_5="13000.00000" pt_clust_6="13000.00000" pt_clust_7="13000.00000" pt_clust_8="13000.00000" pt_clust_9="44.62131" pt_clust_10="161.87495"></scales>
<clustering>
<clus scale="   44.621">  2  9  1 -1</clus>
<clus scale="   79.628">  5  6 -1 -1</clus>
<clus scale="   86.421">  7  8 -1 -1</clus>
<clus scale="  128.185">  1  7  2 -1</clus>
<clus scale="  161.875">  2 10  1 -1</clus>
<clus scale="   44.621">  2  5  1 -1</clus>
</clustering>
</event>
<event>
10    3  0.5078224E-005  0.2525587E+03  0.7546771E-02  0.1127004E+00
          1   -1    0    0  502    0 -0.00000000000E+00  0.00000000000E+00  0.23280897254E+04  0.23280897254E+04  0.00000000000E+00 0. -1.
         21   -1    0    0  503  502  0.00000000000E+00 -0.00000000000E+00 -0.73904921742E+02  0.73904921742E+02  0.00000000000E+00 0. -1.
         23    2    1    2    0    0 -0.40231925686E+02 -0.12305281315E+03  0.20540711211E+03  0.25964991451E+03  0.92007574302E+02 0.  0.
        -24    2    1    2    0    0 -0.78773621638E-01 -0.15176918626E+03  0.10990388617E+04  0.11123953854E+04  0.80642308291E+02 0.  0.
         11    1    4    4    0    0  0.38075961330E+02 -0.58826231756E+02  0.38535397682E+03  0.39167332284E+03  0.00000000000E+00 0. -1.
        -12    1    4    4    0    0 -0.38154734951E+02 -0.92942954502E+02  0.71368488491E+03  0.72072206261E+03  0.00000000000E+00 0.  1.
        -13    1    3    3    0    0  0.83396458483E+01 -0.72928238747E+02  0.16094574530E+03  0.17689434878E+03  0.00000000000E+00 0.  1.
         13    1    3    3    0    0 -0.48571571535E+02 -0.50124574404E+02  0.44461366816E+02  0.82755565732E+02  0.00000000000E+00 0. -1.
         21    1    1    2  503  501  0.22721269552E+02 -0.43165918813E+02  0.31542730179E+02  0.58090416285E+02  0.00000000000E+00 0. -1.
          2    1    1    2  501    0  0.17589429757E+02  0.31798791822E+03  0.91819609968E+03  0.97185893094E+03  0.00000000000E+00 0. -1.
<scales pt_clust_5="13000.00000" pt_clust_6="13000.00000" pt_clust_7="13000.00000" pt_clust_8="13000.00000" pt_clust_9="48.78066" pt_clust_10="239.33812"></scales>
<clustering>
<clus scale="   48.781">  2  9  1 -1</clus>
<clus scale="   80.642">  5  6 -1 -1</clus>
<clus scale="   92.008">  7  8 -1 -1</clus>
<clus scale="  172.152">  1  7  2 -1</clus>
<clus scale="  239.338">  2 10  1 -1</clus>
<clus scale="   48.781">  2  5  1 -1</clus>
</clustering>
</event>
<event>
10    3  0.5078224E-005  0.1763822E+03  0.7546771E-02  0.1200500E+00
          3   -1    0    0  503    0 -0.00000000000E+00  0.00000000000E+00  0.93126267731E+03  0.93126267731E+03  0.00000000000E+00 0. -1.
         21   -1    0    0  501  502  0.00000000000E+00 -0.00000000000E+00 -0.10519894840E+03  0.10519894840E+03  0.00000000000E+00 0. -1.
        -24    2    1    2    0    0 -0.31301947463E+02 -0.35155865550E+01  0.30585312432E+02  0.92850916708E+02  0.81814791653E+02 0.  0.
         23    2    1    2    0    0 -0.12586719695E+03  0.86257349813E+01  0.34154427206E+03  0.37550428114E+03  0.91836925081E+02 0.  0.
         13    1    3    3    0    0 -0.13059732822E+02  0.15188334653E+02 -0.24641348488E+02  0.31755915767E+02  0.00000000000E+00 0. -1.
        -14    1    3    3    0    0 -0.18242214642E+02 -0.18703921208E+02  0.55226660920E+02  0.61095000941E+02  0.00000000000E+00 0.  1.
        -13    1    4    4    0    0 -0.81970703778E+02  0.17803116335E+02  0.30876456209E+03  0.31995578137E+03  0.00000000000E+00 0. -1.
         13    1    4    4    0    0 -0.43896493172E+02 -0.91773813538E+01  0.32779709966E+02  0.55548499770E+02  0.00000000000E+00 0.  1.
         21    1    1    2  503  502 -0.22273682547E+02 -0.43282762508E+01 -0.38115024758E+02  0.44357705327E+02  0.00000000000E+00 0. -1.
          4    1    1    2  501    0  0.17944282696E+03 -0.78187217551E+00  0.49204916917E+03  0.52374872253E+03  0.00000000000E+00 0. -1.
<scales pt_clust_5="13000.00000" pt_clust_6="13000.00000" pt_clust_7="13000.00000" pt_clust_8="13000.00000" pt_clust_9="22.69033" pt_clust_10="150.58781"></scales>
<clustering>
<clus scale="   22.690">  2  9  1 -1</clus>
<clus scale="   81.815">  5  6 -1 -1</clus>
<clus scale="   91.837">  7  8 -1 -1</clus>
<clus scale="   92.203">  1  5  2 -1</clus>
<clus scale="  150.588">  2 10  1 -1</clus>
<clus scale="   22.690">  2  5  1 -1</clus>
</clustering>
</event>
<event>
10    3  0.5078224E-005  0.1584618E+03  0.7546771E-02  0.1192289E+00
         21   -1    0    0  503  502  0.00000000000E+00  0.00000000000E+00  0.23056561404E+03  0.23056561404E+03  0.00000000000E+00 0. -1.
          1   -1    0    0  502    0 -0.00000000000E+00 -0.00000000000E+00 -0.49540228480E+03  0.49540228480E+03  0.00000000000E+00 0. -1.
         23    2    1    2    0    0  0.59239360653E+02 -0.11441358066E+03 -0.22159035499E+03  0.27231024184E+03  0.91928304094E+02 0.  0.
        -24    2    1    2    0    0  0.51711372672E+02  0.14752243330E+03 -0.19193012796E+03  0.26031428754E+03  0.80556935684E+02 0.  0.
         13    1    4    4    0    0  0.64710152651E+02  0.68877538685E+02 -0.86290487739E+02  0.12797487045E+03  0.00000000000E+00 0. -1.
        -14    1    4    4    0    0 -0.12998779979E+02  0.78644894611E+02 -0.10563964023E+03  0.13233941709E+03  0.00000000000E+00 0.  1.
        -13    1    3    3    0    0  0.25983694361E+02  0.85914122632E+01 -0.20279704343E+02  0.34062165896E+02  0.00000000000E+00 0.  1.
         13    1    3    3    0    0  0.33255666293E+02 -0.12300499292E+03 -0.20131065065E+03  0.23824807594E+03  0.00000000000E+00 0. -1.
         21    1    1    2  503  501 -0.28598277001E+02  0.77689881993E+01  0.52496581613E+02  0.60283577416E+02  0.00000000000E+00 0.  1.
          2    1    1    2  501    0 -0.82352456325E+02 -0.40877840837E+02  0.96187230583E+02  0.13305979205E+03  0.00000000000E+00 0. -1.
<scales pt_clust_5="13000.00000" pt_clust_6="13000.00000" pt_clust_7="13000.00000" pt_clust_8="13000.00000" pt_clust_9="24.54132" pt_clust_10="123.59119"></scales>
<clustering>
<clus scale="   24.541">  9 10 -1 -1</clus>
<clus scale="   80.557">  5  6 -1 -1</clus>
<clus scale="   91.928">  7  8 -1 -1</clus>
<clus scale="  123.591">  1  9  2 -1</clus>
<clus scale="  152.147">  1  5  2 -1</clus>
<clus scale="  123.591">  1  5  2 -1</clus>
</clustering>
</event>
<event>
10    3  0.5078224E-005  0.1820289E+03  0.7546771E-02  0.1189866E+00
         21   -1    0    0  501  502  0.00000000000E+00  0.00000000000E+00  0.25270203352E+03  0.25270203352E+03  0.00000000000E+00 0. -1.
          1   -1    0    0  503    0 -0.00000000000E+00 -0.00000000000E+00 -0.26680557552E+04  0.26680557552E+04  0.00000000000E+00 0. -1.
         23    2    1    2    0    0  0.13012636434E+02 -0.53194144629E+02 -0.17984643821E+02  0.10739911522E+03  0.90621061612E+02 0.  0.
        -24    2    1    2    0    0  0.58232643733E+02 -0.13015042127E+03 -0.19476081601E+03  0.25335682106E+03  0.76991755232E+02 0.  0.
         11    1    4    4    0    0  0.49705167561E+02 -0.26830264528E+02 -0.87795130524E+02  0.10439564991E+03  0.00000000000E+00 0. -1.
        -12    1    4    4    0    0  0.85274761723E+01 -0.10332015675E+03 -0.10696568548E+03  0.14896117115E+03  0.00000000000E+00 0.  1.
        -13    1    3    3    0    0 -0.36228657759E+02 -0.30900498850E+02  0.65017704901E+01  0.48058604763E+02  0.00000000000E+00 0. -1.
         13    1    3    3    0    0  0.49241294193E+02 -0.22293645779E+02 -0.24486414311E+02  0.59340510461E+02  0.00000000000E+00 0.  1.
         21    1    1    2  503  502  0.69269741474E+02 -0.16400237488E+03  0.11523315411E+03  0.21207016729E+03  0.00000000000E+00 0. -1.
          2    1    1    2  501    0 -0.14051502164E+03  0.34734694078E+03 -0.23178414160E+04  0.23479316851E+04  0.00000000000E+00 0. -1.
<scales pt_clust_5="13000.00000" pt_clust_6="13000.00000" pt_clust_7="13000.00000" pt_clust_8="13000.00000" pt_clust_9="182.02893" pt_clust_10="13000.00000"></scales>
<clustering>
<clus scale="   76.992">  5  6 -1 -1</clus>
<clus scale="   90.621">  7  8 -1 -1</clus>
<clus scale="  105.883">  2  7  1 -1</clus>
<clus scale="  166.136">  2  5  1 -1</clus>
<clus scale="  182.029">  1  9  2 -1</clus>
<clus scale="  182.029">  1  5  2 -1</clus>
</clustering>
</event>
<event>
10    3  0.5078224E-005  0.1171896E+03  0.7546771E-02  0.1249807E+00
          1   -1    0    0  503    0 -0.00000000000E+00  0.00000000000E+00  0.11704736372E+04  0.11704736372E+04  0.00000000000E+00 0. -1.
         21   -1    0    0  501  502  0.00000000000E+00 -0.00000000000E+00 -0.12193825547E+03  0.12193825547E+03  0.00000000000E+00 0. -1.
        -24    2    1    2    0    0 -0.59877110977E+02 -0.72014219569E+02  0.71848500394E+03  0.72911779643E+03  0.81367954021E+02 0.  0.
         23    2    1    2    0    0  0.80254092093E+02 -0.34041127303E+02  0.27421594174E+03  0.30078495142E+03  0.87622409518E+02 0.  0.
         11    1    3    3    0    0 -0.40758895274E+02 -0.74187618780E+02  0.34849251069E+03  0.35862532026E+03  0.00000000000E+00 0. -1.
        -12    1    3    3    0    0 -0.19118215703E+02  0.21733992104E+01  0.36999249325E+03  0.37049247617E+03  0.00000000000E+00 0.  1.
        -11    1    4    4    0    0  0.41791974703E+02  0.22599908589E+02  0.64048258069E+02  0.79746500735E+02  0.00000000000E+00 0.  1.
         11    1    4    4    0    0  0.38462117390E+02 -0.56641035892E+02  0.21016768367E+03  0.22103845068E+03  0.00000000000E+00 0. -1.
         21    1    1    2  503  502 -0.11560833731E+03  0.81151989965E+02 -0.13821658175E+02  0.14192241319E+03  0.00000000000E+00 0. -1.
          2    1    1    2  501    0  0.95231356195E+02  0.24903356908E+02  0.69656094274E+02  0.12058673168E+03  0.00000000000E+00 0. -1.
<scales pt_clust_5="13000.00000" pt_clust_6="13000.00000" pt_clust_7="13000.00000" pt_clust_8="13000.00000" pt_clust_9="108.41121" pt_clust_10="98.43368"></scales>
<clustering>
<clus scale="   81.368">  5  6 -1 -1</clus>
<clus scale="   87.622">  7  8 -1 -1</clus>
<clus scale="   98.434">  2 10  1 -1</clus>
<clus scale="  108.411">  2  9  1 -1</clus>
<clus scale="  112.590">  1  5  2 -1</clus>
<clus scale="   98.434">  2  5  1 -1</clus>
</clustering>
</event>
<event>
10    3  0.5078224E-005  0.2134660E+03  0.7546771E-02  0.1139963E+00
          1   -1    0    0  502    0 -0.00000000000E+00  0.00000000000E+00  0.72614592502E+03  0.72614592502E+03  0.00000000000E+00 0. -1.
         21   -1    0    0  503  502  0.00000000000E+00 -0.00000000000E+00 -0.16823581973E+03  0.16823581973E+03  0.00000000000E+00 0.  1.
         23    2    1    2    0    0  0.21018456028E+03 -0.15713996029E+02  0.57709566187E+03  0.62142541850E+03  0.93304173278E+02 0.  0.
        -24    2    1    2    0    0 -0.12999077858E+03  0.28597636019E+02  0.13981194743E+02  0.15567134008E+03  0.79515187330E+02 0.  0.
         11    1    4    4    0    0 -0.37170641888E+02  0.11349562262E+02  0.41969841721E+02  0.57200846112E+02  0.00000000000E+00 0. -1.
        -12    1    4    4    0    0 -0.92820136689E+02  0.17248073757E+02 -0.27988646978E+02  0.98470493972E+02  0.00000000000E+00 0.  1.
        -11    1    3    3    0    0  0.12979145325E+03 -0.29460796408E+02  0.23827201340E+03  0.27292363810E+03  0.00000000000E+00 0.  1.
         11    1    3    3    0    0  0.80393107031E+02  0.13746800378E+02  0.33882364847E+03  0.34850178040E+03  0.00000000000E+00 0. -1.
         21    1    1    2  503  501 -0.22147005955E+02  0.34971198837E+01 -0.49889091003E+02  0.54695896750E+02  0.00000000000E+00 0. -1.
          2    1    1    2  501    0 -0.58046775752E+02 -0.16380759873E+02  0.16722339685E+02  0.62589089415E+02  0.00000000000E+00 0. -1.
<scales pt_clust_5="13000.00000" pt_clust_6="13000.00000" pt_clust_7="13000.00000" pt_clust_8="13000.00000" pt_clust_9="22.42141" pt_clust_10="64.36869"></scales>
<clustering>
<clus scale="   22.421">  2  9  1 -1</clus>
<clus scale="   64.369">  2 10  1 -1</clus>
<clus scale="   79.515">  5  6 -1 -1</clus>
<clus scale="   93.304">  7  8 -1 -1</clus>
<clus scale="  207.809">  2  5  1 -1</clus>
<clus scale="   22.421">  2  5  1 -1</clus>
</clustering>
</event>
<event>
10    3  0.5078224E-005  0.1329028E+03  0.7546771E-02  0.1246324E+00
         21   -1    0    0  503  502  0.00000000000E+00  0.00000000000E+00  0.72689828937E+03  0.72689828937E+03  0.00000000000E+00 0. -1.
         -4   -1    0    0    0  501 -0.00000000000E+00 -0.00000000000E+00 -0.19172569423E+03  0.19172569423E+03  0.00000000000E+00 0.  1.
        -24    2    1    2    0    0 -0.11552676687E+02 -0.33205632738E+02 -0.41145473236E+02  0.93284923589E+02  0.75980580526E+02 0.  0.
         23    2    1    2    0    0  0.14165293105E+02  0.10894769058E+03 -0.38746821178E+01  0.14308295490E+03  0.91583098932E+02 0.  0.
         13    1    3    3    0    0  0.26900148234E+02 -0.33544990637E+02 -0.32425253684E+02  0.53854261190E+02  0.00000000000E+00 0. -1.
        -14    1    3    3    0    0 -0.38452824921E+02  0.33935789914E+00 -0.87202195514E+01  0.39430662399E+02  0.00000000000E+00 0.  1.
        -11    1    4    4    0    0 -0.18022945159E+02  0.38634924035E+02 -0.39338446676E+02  0.58008596727E+02  0.00000000000E+00 0.  1.
         11    1    4    4    0    0  0.32188238264E+02  0.70312766548E+02  0.35463764559E+02  0.85074358175E+02  0.00000000000E+00 0. -1.
         21    1    1    2  503  501  0.22000647292E+02 -0.15074735323E+03  0.58368463590E+03  0.60323838337E+03  0.00000000000E+00 0. -1.
         -3    1    1    2    0  502 -0.24613263711E+02  0.75005295382E+02 -0.34918854103E+01  0.79017721744E+02  0.00000000000E+00 0.  1.
<scales pt_clust_5="13000.00000" pt_clust_6="13000.00000" pt_clust_7="13000.00000" pt_clust_8="13000.00000" pt_clust_9="96.31038" pt_clust_10="78.94057"></scales>
<clustering>
<clus scale="   75.981">  5  6 -1 -1</clus>
<clus scale="   78.941">  1 10  2 -1</clus>
<clus scale="   82.772">  2  5  1 -1</clus>
<clus scale="   91.583">  7  8 -1 -1</clus>
<clus scale="   96.310">  1  9  2 -1</clus>
<clus scale="   78.941">  1  5  2 -1</clus>
</clustering>
</event>
<event>
10    3  0.5078224E-005  0.2776810E+03  0.7546771E-02  0.1123467E+00
         21   -1    0    0  501  502  0.00000000000E+00  0.00000000000E+00  0.61207172929E+03  0.61207172929E+03  0.00000000000E+00 0. -1.
          3   -1    0    0  503    0 -0.00000000000E+00 -0.00000000000E+00 -0.31013395071E+03  0.31013395071E+03  0.00000000000E+00 0. -1.
         23    2    1    2    0    0 -0.48741735476E+02  0.10299569667E+03  0.17076981173E+03  0.22441817760E+03  0.90649432049E+02 0.  0.
        -24    2    1    2    0    0  0.31182498519E+03 -0.54708913698E+02  0.10757091297E+03  0.34613374194E+03  0.89494018605E+02 0.  0.
         11    1    4    4    0    0  0.29874854558E+03 -0.43342807808E+02  0.77884969006E+02  0.31176170527E+03  0.00000000000E+00 0. -1.
        -12    1    4    4    0    0  0.13076439608E+02 -0.11366105890E+02  0.29685943962E+02  0.34372036670E+02  0.00000000000E+00 0.  1.
        -13    1    3    3    0    0 -0.65078792853E+02  0.33214580025E+02  0.73926975615E+02  0.10394063368E+03  0.00000000000E+00 0. -1.
         13    1    3    3    0    0  0.16337057377E+02  0.69781116645E+02  0.96842836117E+02  0.12047754393E+03  0.00000000000E+00 0.  1.
         21    1    1    2  503  502 -0.53899390750E+02 -0.50881129025E+02  0.10385006481E+03  0.12758867338E+03  0.00000000000E+00 0. -1.
          4    1    1    2  501    0 -0.20918385896E+03  0.25943460541E+01 -0.80253010932E+02  0.22406508707E+03  0.00000000000E+00 0. -1.
<scales pt_clust_5="13000.00000" pt_clust_6="13000.00000" pt_clust_7="13000.00000" pt_clust_8="13000.00000" pt_clust_9="74.12175" pt_clust_10="262.86433"></scales>
<clustering>
<clus scale="   74.122">  1  9  2 -1</clus>
<clus scale="   89.494">  5  6 -1 -1</clus>
<clus scale="   90.649">  7  8 -1 -1</clus>
<clus scale="  141.390">  2  7  1 -1</clus>
<clus scale="  262.864">  1 10  2 -1</clus>
<clus scale="   74.122">  1  5  2 -1</clus>
</clustering>
</event>
<event>
10    3  0.5078224E-005  0.1693129E+03  0.7546771E-02  0.1181826E+00
         -2   -1    0    0    0  501 -0.00000000000E+00  0.00000000000E+00  0.19257010220E+03  0.19257010220E+03  0.00000000000E+00 0.  1.
         21   -1    0    0  501  502  0.00000000000E+00 -0.00000000000E+00 -0.96122587403E+03  0.96122587403E+03  0.00000000000E+00 0. -1.
         23    2    1    2    0    0 -0.59868834271E+02  0.12720699797E+03  0.11995701562E+03  0.21139657024E+03  0.10263004757E+03 0.  0.
        -24    2    1    2    0    0  0.13219669895E+03 -0.69476230851E+01 -0.51306097355E+03  0.53608067722E+03  0.81404503770E+02 0.  0.
         13    1    4    4    0    0  0.13674704912E+03 -0.23012826444E+02 -0.46152344391E+03  0.48190583613E+03  0.00000000000E+00 0. -1.
        -14    1    4    4    0    0 -0.45503501683E+01  0.16065203359E+02 -0.51537529639E+02  0.54174841088E+02  0.00000000000E+00 0.  1.
        -11    1    3    3    0    0 -0.50268866025E+02  0.10768849243E+03  0.35278696499E+02  0.12396917649E+03  0.00000000000E+00 0. -1.
         11    1    3    3    0    0 -0.95999682455E+01  0.19518505543E+02  0.84678319122E+02  0.87427393752E+02  0.00000000000E+00 0.  1.
         21    1    1    2  503  502 -0.23986683519E+02 -0.17428774089E+02 -0.15926404345E+03  0.16200048978E+03  0.00000000000E+00 0.  1.
         -1    1    1    2    0  503 -0.48341181161E+02 -0.10283060080E+03 -0.21628777045E+03  0.24431823899E+03  0.00000000000E+00 0.  1.
<scales pt_clust_5="13000.00000" pt_clust_6="13000.00000" pt_clust_7="13000.00000" pt_clust_8="13000.00000" pt_clust_9="29.65001" pt_clust_10="121.16925"></scales>
<clustering>
<clus scale="   29.650">  2  9  1 -1</clus>
<clus scale="   81.405">  5  6 -1 -1</clus>
<clus scale="  102.630">  7  8 -1 -1</clus>
<clus scale="  121.169">  2 10  1 -1</clus>
<clus scale="  157.355">  2  5  1 -1</clus>
<clus scale="   29.650">  2  5  1 -1</clus>
</clustering>
</event>
<event>
10    3  0.5078224E-005  0.1871674E+03  0.7546771E-02  0.1162626E+00
         21   -1    0    0  503  502  0.00000000000E+00  0.00000000000E+00  0.11375523781E+03  0.11375523781E+03  0.00000000000E+00 0.  1.
          1   -1    0    0  502    0 -0.00000000000E+00 -0.00000000000E+00 -0.99283267547E+03  0.99283267547E+03  0.00000000000E+00 0. -1.
         23    2    1    2    0    0  0.93434882255E+02 -0.50859554142E+02 -0.16046522852E+03  0.21230390972E+03  0.89482339320E+02 0.  0.
        -24    2    1    2    0    0 -0.18603732433E+03  0.12507159616E+03 -0.49830489922E+03  0.55143824972E+03  0.74320794237E+02 0.  0.
         13    1    4    4    0    0 -0.40502714098E+02  0.64528888500E+02 -0.20057583603E+03  0.21455794858E+03  0.00000000000E+00 0. -1.
        -14    1    4    4    0    0 -0.14553461023E+03  0.60542707658E+02 -0.29772906319E+03  0.33688030113E+03  0.00000000000E+00 0.  1.
        -13    1    3    3    0    0  0.95075045798E+02 -0.13789290678E+02 -0.85279678768E+02  0.12846023697E+03  0.00000000000E+00 0.  1.
         13    1    3    3    0    0 -0.16401635426E+01 -0.37070263464E+02 -0.75185549750E+02  0.83843672754E+02  0.00000000000E+00 0. -1.
         21    1    1    2  503  501  0.21056167682E+02  0.16001361521E+02  0.45805404602E+02  0.52891784416E+02  0.00000000000E+00 0. -1.
          2    1    1    2  501    0  0.71546274392E+02 -0.90213403537E+02 -0.26611271452E+03  0.28995396943E+03  0.00000000000E+00 0. -1.
<scales pt_clust_5="13000.00000" pt_clust_6="13000.00000" pt_clust_7="13000.00000" pt_clust_8="13000.00000" pt_clust_9="26.44628" pt_clust_10="115.34558"></scales>
<clustering>
<clus scale="   26.446">  1  9  2 -1</clus>
<clus scale="   74.321">  5  6 -1 -1</clus>
<clus scale="   89.482">  7  8 -1 -1</clus>
<clus scale="  115.346">  1 10  2 -1</clus>
<clus scale="  180.411">  1  5  2 -1</clus>
<clus scale="   26.446">  1  5  2 -1</clus>
</clustering>
</event>
<event>
10    3  0.5078224E-005  0.1623377E+03  0.7546771E-02  0.1212458E+00
         21   -1    0    0  501  502  0.00000000000E+00  0.00000000000E+00  0.50481764206E+03  0.50481764206E+03  0.00000000000E+00 0. -1.
          1   -1    0    0  503    0 -0.00000000000E+00 -0.00000000000E+00 -0.11697105076E+03  0.11697105076E+03  0.00000000000E+00 0. -1.
         23    2    1    2    0    0  0.62128734811E+01 -0.16946323094E+02  0.67461869160E+02  0.11425552793E+03  0.90429222097E+02 0.  0.
        -24    2    1    2    0    0  0.11359637641E+03  0.90367195785E+02  0.24226005764E+03  0.29385830737E+03  0.81193611036E+02 0.  0.
         13    1    4    4    0    0  0.10560147271E+03  0.48978260282E+02  0.21237592812E+03  0.24218603565E+03  0.00000000000E+00 0. -1.
        -14    1    4    4    0    0  0.79949036931E+01  0.41388935503E+02  0.29884129526E+02  0.51672271719E+02  0.00000000000E+00 0.  1.
        -13    1    3    3    0    0  0.29807346404E+02  0.19374546238E+02  0.18008039385E+01  0.35596261551E+02  0.00000000000E+00 0.  1.
         13    1    3    3    0    0 -0.23594472923E+02 -0.36320869333E+02  0.65661065222E+02  0.78659266381E+02  0.00000000000E+00 0. -1.
         21    1    1    2  503  502 -0.18923605442E+02  0.15723576662E+02  0.75084469907E+02  0.79012728894E+02  0.00000000000E+00 0.  1.
          2    1    1    2  501    0 -0.10088564444E+03 -0.89144449352E+02  0.30401945871E+01  0.13466212863E+03  0.00000000000E+00 0. -1.
<scales pt_clust_5="13000.00000" pt_clust_6="13000.00000" pt_clust_7="13000.00000" pt_clust_8="13000.00000" pt_clust_9="24.60353" pt_clust_10="140.57430"></scales>
<clustering>
<clus scale="   24.604">  1  9  2 -1</clus>
<clus scale="   81.194">  5  6 -1 -1</clus>
<clus scale="   90.429">  7  8 -1 -1</clus>
<clus scale="   91.474">  2  7  1 -1</clus>
<clus scale="  140.574">  1 10  2 -1</clus>
<clus scale="   24.604">  1  5  2 -1</clus>
</clustering>
</event>
<event>
10    3  0.5078224E-005  0.1651359E+03  0.7546771E-02  0.1206913E+00
         -2   -1    0    0    0  501 -0.00000000000E+00  0.00000000000E+00  0.62291384112E+03  0.62291384112E+03  0.00000000000E+00 0.  1.
         21   -1    0    0  503  502  0.00000000000E+00 -0.00000000000E+00 -0.14888856656E+03  0.14888856656E+03  0.00000000000E+00 0.  1.
        -24    2    1    2    0    0  0.97887246024E+01  0.53937277555E+02  0.42320953144E+02  0.10659270564E+03  0.81030196724E+02 0.  0.
         23    2    1    2    0    0  0.11398037858E+03  0.70107079502E+02  0.13020398132E+03  0.20758381501E+03  0.90727251728E+02 0.  0.
         11    1    3    3    0    0  0.15979645488E+02 -0.14188146023E+02  0.30394315481E+02  0.37154635930E+02  0.00000000000E+00 0. -1.
        -12    1    3    3    0    0 -0.61909208860E+01  0.68125423578E+02  0.11926637662E+02  0.69438069710E+02  0.00000000000E+00 0.  1.
        -13    1    4    4    0    0  0.82765754190E+00  0.30693860450E+02  0.92028816842E-01  0.30705155197E+02  0.00000000000E+00 0. -1.
         13    1    4    4    0    0  0.11315272104E+03  0.39413219052E+02  0.13011195250E+03  0.17687865981E+03  0.00000000000E+00 0.  1.
         21    1    1    2  503  501 -0.14988562159E+03  0.17193964290E+01  0.23952910411E+02  0.15179722594E+03  0.00000000000E+00 0.  1.
         -1    1    1    2    0  502  0.26116518415E+02 -0.12576375349E+03  0.27754742969E+03  0.30582866110E+03  0.00000000000E+00 0.  1.
<scales pt_clust_5="13000.00000" pt_clust_6="13000.00000" pt_clust_7="13000.00000" pt_clust_8="13000.00000" pt_clust_9="137.97988" pt_clust_10="102.00619"></scales>
<clustering>
<clus scale="   81.030">  5  6 -1 -1</clus>
<clus scale="   90.727">  7  8 -1 -1</clus>
<clus scale="   97.831">  1  5  2 -1</clus>
<clus scale="  102.006">  2 10  1 -1</clus>
<clus scale="  137.980">  2  9  1 -1</clus>
<clus scale="  102.006">  2  5  1 -1</clus>
</clustering>
</event>
<event>
10    3  0.5078224E-005  0.9466530E+02  0.7546771E-02  0.1299466E+00
         21   -1    0    0  503  502  0.00000000000E+00  0.00000000000E+00  0.57108698300E+03  0.57108698300E+03  0.00000000000E+00 0. -1.
          1   -1    0    0  502    0 -0.00000000000E+00 -0.00000000000E+00 -0.31252839896E+02  0.31252839896E+02  0.00000000000E+00 0. -1.
         23    2    1    2    0    0  0.37548105368E+02 -0.11713630302E+02  0.15043433180E+03  0.18059210724E+03  0.91847436881E+02 0.  0.
        -24    2    1    2    0    0  0.10651452008E+02  0.24837135916E+02  0.16407389401E+03  0.18411933604E+03  0.79052833337E+02 0.  0.
         11    1    4    4    0    0 -0.34390322167E+02  0.13046458414E+02  0.78832449575E+02  0.86991145767E+02  0.00000000000E+00 0. -1.
        -12    1    4    4    0    0  0.45041774175E+02  0.11790677502E+02  0.85241444431E+02  0.97128190272E+02  0.00000000000E+00 0.  1.
        -11    1    3    3    0    0  0.44481354928E+02  0.29753299600E+02  0.57275869777E+02  0.78386064016E+02  0.00000000000E+00 0. -1.
         11    1    3    3    0    0 -0.69332495600E+01 -0.41466929902E+02  0.93158462020E+02  0.10220604322E+03  0.00000000000E+00 0.  1.
         21    1    1    2  503  501 -0.13229881310E+02  0.19632605924E+02  0.11394552619E+03  0.11637891525E+03  0.00000000000E+00 0. -1.
          2    1    1    2  501    0 -0.34969676066E+02 -0.32756111538E+02  0.11138039110E+03  0.12124946437E+03  0.00000000000E+00 0. -1.
<scales pt_clust_5="13000.00000" pt_clust_6="13000.00000" pt_clust_7="13000.00000" pt_clust_8="13000.00000" pt_clust_9="23.67423" pt_clust_10="47.33129"></scales>
<clustering>
<clus scale="   23.674">  1  9  2 -1</clus>
<clus scale="   47.331">  1 10  2 -1</clus>
<clus scale="   79.053">  5  6 -1 -1</clus>
<clus scale="   82.310">  1  5  2 -1</clus>
<clus scale="   91.847">  7  8 -1 -1</clus>
<clus scale="   23.674">  1  5  2 -1</clus>
</clustering>
</event>
<event>
10    3  0.5078224E-005  0.9858305E+02  0.7546771E-02  0.1293089E+00
          1   -1    0    0  503    0 -0.00000000000E+00  0.00000000000E+00  0.18728769019E+03  0.18728769019E+03  0.00000000000E+00 0. -1.
         21   -1    0    0  501  502  0.00000000000E+00 -0.00000000000E+00 -0.14171411659E+03  0.14171411659E+03  0.00000000000E+00 0.  1.
        -24    2    1    2    0    0  0.27922296257E+02 -0.15056918773E+02  0.99214480825E+02  0.12874896894E+03  0.75673102001E+02 0.  0.
         23    2    1    2    0    0 -0.25736696866E+02  0.18414083969E+02 -0.19378937078E+02  0.10046276931E+03  0.93358281700E+02 0.  0.
         11    1    3    3    0    0  0.44309864919E+02 -0.18600865550E+02  0.10103768743E+03  0.11188373702E+03  0.00000000000E+00 0. -1.
        -12    1    3    3    0    0 -0.16387568662E+02  0.35439467768E+01 -0.18232066044E+01  0.16865231920E+02  0.00000000000E+00 0.  1.
        -11    1    4    4    0    0 -0.41336683823E+02  0.43560865282E+02 -0.32282392998E+02  0.68179346662E+02  0.00000000000E+00 0.  1.
         11    1    4    4    0    0  0.15599986957E+02 -0.25146781313E+02  0.12903455920E+02  0.32283422652E+02  0.00000000000E+00 0. -1.
         21    1    1    2  503  502 -0.28102284777E+02 -0.21332099597E+02 -0.52577171313E+02  0.63317894992E+02  0.00000000000E+00 0. -1.
          2    1    1    2  501    0  0.25916685386E+02  0.17974934400E+02  0.18315201167E+02  0.36472173528E+02  0.00000000000E+00 0. -1.
<scales pt_clust_5="13000.00000" pt_clust_6="13000.00000" pt_clust_7="13000.00000" pt_clust_8="13000.00000" pt_clust_9="21.52287" pt_clust_10="31.54004"></scales>
<clustering>
<clus scale="   31.540">  2 10  1 -1</clus>
<clus scale="   21.523">  2  9  1 -1</clus>
<clus scale="   75.673">  5  6 -1 -1</clus>
<clus scale="   82.032">  1  5  2 -1</clus>
<clus scale="   93.358">  7  8 -1 -1</clus>
<clus scale="   31.540">  2  5  1 -1</clus>
</clustering>
</event>
<event>
10    3  0.5078224E-005  0.1154795E+03  0.7546771E-02  0.1254104E+00
          1   -1    0    0  502    0 -0.00000000000E+00  0.00000000000E+00  0.86402721404E+03  0.86402721404E+03  0.00000000000E+00 0. -1.
         21   -1    0    0  503  502  0.00000000000E+00 -0.00000000000E+00 -0.10587799329E+03  0.10587799329E+03  0.00000000000E+00 0.  1.
        -24    2    1    2    0    0  0.83380586204E+02  0.11566669594E+01  0.12790745365E+03  0.17235098459E+03  0.79943011940E+02 0.  0.
         23    2    1    2    0    0  0.59099584908E+02 -0.49163220963E+02  0.41932382515E+02  0.12656983328E+03  0.91388263810E+02 0.  0.
         13    1    3    3    0    0  0.75618425766E+02  0.30311030667E+02  0.71551826998E+02  0.10842771252E+03  0.00000000000E+00 0. -1.
        -14    1    3    3    0    0  0.77621604379E+01 -0.29154363707E+02  0.56355626649E+02  0.63923272075E+02  0.00000000000E+00 0.  1.
        -13    1    4    4    0    0  0.95388068153E+01 -0.60901628122E+02  0.43772914747E+02  0.75604663935E+02  0.00000000000E+00 0. -1.
         13    1    4    4    0    0  0.49560778093E+02  0.11738407158E+02 -0.18405322323E+01  0.50965169348E+02  0.00000000000E+00 0.  1.
         21    1    1    2  503  501 -0.34059088476E+02 -0.59034428919E+01 -0.27007726872E+02  0.43866723796E+02  0.00000000000E+00 0.  1.
          2    1    1    2  501    0 -0.10842108264E+03  0.53909996896E+02  0.61531711145E+03  0.62711766565E+03  0.00000000000E+00 0. -1.
<scales pt_clust_5="13000.00000" pt_clust_6="13000.00000" pt_clust_7="13000.00000" pt_clust_8="13000.00000" pt_clust_9="34.56692" pt_clust_10="70.59531"></scales>
<clustering>
<clus scale="   34.567">  2  9  1 -1</clus>
<clus scale="   79.943">  5  6 -1 -1</clus>
<clus scale="   91.388">  7  8 -1 -1</clus>
<clus scale="  108.016">  1  5  2 -1</clus>
<clus scale="   70.595">  2 10  1 -1</clus>
<clus scale="   34.567">  2  5  1 -1</clus>
</clustering>
</event>
<event>
10    3  0.5078224E-005  0.1118515E+03  0.7546771E-02  0.1261114E+00
          1   -1    0    0  502    0 -0.00000000000E+00  0.00000000000E+00  0.70397954305E+03  0.70397954305E+03  0.00000000000E+00 0. -1.
         21   -1    0    0  503  502  0.00000000000E+00 -0.00000000000E+00 -0.49099860985E+02  0.49099860985E+02  0.00000000000E+00 0. -1.
         23    2    1    2    0    0  0.21051656023E+02 -0.72299574986E+02  0.49730592804E+03  0.51124917088E+03  0.91608557989E+02 0.  0.
        -24    2    1    2    0    0 -0.37230101176E+01  0.43050320771E+02  0.14269949814E+03  0.16978571352E+03  0.81220999883E+02 0.  0.
         11    1    4    4    0    0 -0.17249375291E+02 -0.13783170681E+02  0.89331386192E+01  0.23818432097E+02  0.00000000000E+00 0. -1.
        -12    1    4    4    0    0  0.13526365174E+02  0.56833491452E+02  0.13376635952E+03  0.14596728142E+03  0.00000000000E+00 0.  1.
        -11    1    3    3    0    0  0.16183572559E+02  0.20011547987E+02  0.12682299607E+03  0.12940804614E+03  0.00000000000E+00 0.  1.
         11    1    3    3    0    0  0.48680834639E+01 -0.92311122973E+02  0.37048293197E+03  0.38184112474E+03  0.00000000000E+00 0. -1.
         21    1    1    2  503  501 -0.92923770685E+01 -0.19147174003E+02  0.23519774558E+01  0.21412480983E+02  0.00000000000E+00 0. -1.
          2    1    1    2  501    0 -0.80362688366E+01  0.48396428219E+02  0.12522278425E+02  0.50632038652E+02  0.00000000000E+00 0. -1.
<scales pt_clust_5="13000.00000" pt_clust_6="13000.00000" pt_clust_7="13000.00000" pt_clust_8="13000.00000" pt_clust_9="21.28292" pt_clust_10="41.12528"></scales>
<clustering>
<clus scale="   21.283">  2  9  1 -1</clus>
<clus scale="   41.125">  2 10  1 -1</clus>
<clus scale="   81.221">  5  6 -1 -1</clus>
<clus scale="   91.609">  7  8 -1 -1</clus>
<clus scale="  103.516">  2  5  1 -1</clus>
<clus scale="   21.283">  2  5  1 -1</clus>
</clustering>
</event>
<event>
10    3  0.5078224E-005  0.1250185E+03  0.7546771E-02  0.1243571E+00
          1   -1    0    0  502    0 -0.00000000000E+00  0.00000000000E+00  0.19584123533E+03  0.19584123533E+03  0.00000000000E+00 0. -1.
         21   -1    0    0  503  502  0.00000000000E+00 -0.00000000000E+00 -0.30633254847E+03  0.30633254847E+03  0.00000000000E+00 0.  1.
        -24    2    1    2    0    0  0.37525923339E+02 -0.34931071124E+02 -0.16331189229E+02  0.96824273326E+02  0.80497562144E+02 0.  0.
         23    2    1    2    0    0 -0.12293448150E+03  0.14412980046E+02 -0.10622171793E+03  0.19407467617E+03  0.10517274283E+03 0.  0.
         11    1    3    3    0    0  0.24645011862E+02  0.48729733333E+01  0.26801732390E+02  0.36734933481E+02  0.00000000000E+00 0. -1.
        -12    1    3    3    0    0  0.12880911477E+02 -0.39804044458E+02 -0.43132921619E+02  0.60089339845E+02  0.00000000000E+00 0.  1.
        -13    1    4    4    0    0  0.51669782869E+01  0.29924071164E+02 -0.66496747330E+01  0.31086425875E+02  0.00000000000E+00 0. -1.
         13    1    4    4    0    0 -0.12810145978E+03 -0.15511091117E+02 -0.99572043200E+02  0.16298825029E+03  0.00000000000E+00 0.  1.
         21    1    1    2  503  501  0.15440370302E+01 -0.35434537126E+02 -0.71836398901E+02  0.80115283677E+02  0.00000000000E+00 0. -1.
          2    1    1    2  501    0  0.83864521126E+02  0.55952628204E+02  0.83897992921E+02  0.13115955064E+03  0.00000000000E+00 0. -1.
<scales pt_clust_5="13000.00000" pt_clust_6="13000.00000" pt_clust_7="13000.00000" pt_clust_8="13000.00000" pt_clust_9="35.46816" pt_clust_10="98.97977"></scales>
<clustering>
<clus scale="   35.468">  2  9  1 -1</clus>
<clus scale="   80.498">  5  6 -1 -1</clus>
<clus scale="   98.980">  2 10  1 -1</clus>
<clus scale="  105.110">  1  5  2 -1</clus>
<clus scale="  105.173">  7  8 -1 -1</clus>
<clus scale="   35.468">  2  5  1 -1</clus>
</clustering>
</event>
<event>
10    3  0.5078224E-005  0.1786023E+03  0.7546771E-02  0.1196831E+00
         21   -1    0    0  501  502  0.00000000000E+00  0.00000000000E+00  0.19653151703E+03  0.19653151703E+03  0.00000000000E+00 0. -1.
          1   -1    0    0  503    0 -0.00000000000E+00 -0.00000000000E+00 -0.66455156096E+03  0.66455156096E+03  0.00000000000E+00 0. -1.
         23    2    1    2    0    0 -0.13752058102E+01  0.35666468638E+02 -0.47284406675E+02  0.10718488406E+03  0.89324106936E+02 0.  0.
        -24    2    1    2    0    0  0.18202560446E+03  0.12810821325E+03 -0.36838611601E+03  0.43756151146E+03  0.78782681202E+02 0.  0.
         11    1    4    4    0    0  0.86438700443E+02  0.36045157477E+02 -0.93609898175E+02  0.13241493627E+03  0.00000000000E+00 0. -1.
        -12    1    4    4    0    0  0.95586904014E+02  0.92063055776E+02 -0.27477621784E+03  0.30514657518E+03  0.00000000000E+00 0.  1.
        -13    1    3    3    0    0 -0.20478563551E+02 -0.25135712988E+02 -0.17354133416E+02  0.36774197193E+02  0.00000000000E+00 0.  1.
         13    1    3    3    0    0  0.19103357741E+02  0.60802181627E+02 -0.29930273259E+02  0.70410686866E+02  0.00000000000E+00 0. -1.
         21    1    1    2  503  502 -0.10877501664E+03 -0.26955644909E+02 -0.10449757248E+03  0.15322647843E+03  0.00000000000E+00 0. -1.
          2    1    1    2  501    0 -0.71875382004E+02 -0.13681903698E+03  0.52148051235E+02  0.16311020405E+03  0.00000000000E+00 0. -1.
<scales pt_clust_5="13000.00000" pt_clust_6="13000.00000" pt_clust_7="13000.00000" pt_clust_8="13000.00000" pt_clust_9="110.74159" pt_clust_10="160.28748"></scales>
<clustering>
<clus scale="   78.783">  5  6 -1 -1</clus>
<clus scale="   89.324">  7  8 -1 -1</clus>
<clus scale="   96.191">  2  7  1 -1</clus>
<clus scale="  110.742">  2  9  1 -1</clus>
<clus scale="  160.287">  1 10  2 -1</clus>
<clus scale="  160.287">  1  5  2 -1</clus>
</clustering>
</event>
<event>
10    3  0.5078224E-005  0.2019198E+03  0.7546771E-02  0.1148991E+00
          1   -1    0    0  502    0 -0.00000000000E+00  0.00000000000E+00  0.98477941177E+03  0.98477941177E+03  0.00000000000E+00 0. -1.
         21   -1    0    0  503  502  0.00000000000E+00 -0.00000000000E+00 -0.88136239789E+02  0.88136239789E+02  0.00000000000E+00 0. -1.
        -24    2    1    2    0    0 -0.67171845369E+02 -0.19622459875E+03  0.42162158113E+03  0.47764504171E+03  0.85813042280E+02 0.  0.
         23    2    1    2    0    0  0.12686298459E+03  0.90922913631E+02  0.16908050816E+03  0.24889587875E+03  0.94866997078E+02 0.  0.
         13    1    3    3    0    0 -0.72699800276E+02 -0.12804213574E+03  0.21992522529E+03  0.26466422917E+03  0.00000000000E+00 0. -1.
        -14    1    3    3    0    0  0.55279549069E+01 -0.68182463012E+02  0.20169635584E+03  0.21298081253E+03  0.00000000000E+00 0.  1.
        -11    1    4    4    0    0  0.32000001768E+02  0.25083780287E+02  0.11385501833E+03  0.12089731736E+03  0.00000000000E+00 0.  1.
         11    1    4    4    0    0  0.94862982823E+02  0.65839133344E+02  0.55225489835E+02  0.12799856139E+03  0.00000000000E+00 0. -1.
         21    1    1    2  503  501 -0.27883208085E+02  0.37055867806E+02  0.19681181825E+02  0.50378165409E+02  0.00000000000E+00 0.  1.
          2    1    1    2  501    0 -0.31807931137E+02  0.68245817311E+02  0.28625990086E+03  0.29599656569E+03  0.00000000000E+00 0. -1.
<scales pt_clust_5="13000.00000" pt_clust_6="13000.00000" pt_clust_7="13000.00000" pt_clust_8="13000.00000" pt_clust_9="46.37468" pt_clust_10="78.33128"></scales>
<clustering>
<clus scale="   46.375">  2  9  1 -1</clus>
<clus scale="   78.331">  2 10  1 -1</clus>
<clus scale="   85.813">  5  6 -1 -1</clus>
<clus scale="   94.867">  7  8 -1 -1</clus>
<clus scale="  197.828">  1  5  2 -1</clus>
<clus scale="   46.375">  2  5  1 -1</clus>
</clustering>
</event>
<event>
10    3  0.5078224E-005  0.1287873E+03  0.7546771E-02  0.1252947E+00
          3   -1    0    0  502    0 -0.00000000000E+00  0.00000000000E+00  0.33331714932E+03  0.33331714932E+03  0.00000000000E+00 0. -1.
         21   -1    0    0  503  502  0.00000000000E+00 -0.00000000000E+00 -0.31033317385E+03  0.31033317385E+03  0.00000000000E+00 0.  1.
        -24    2    1    2    0    0  0.22180782035E+01 -0.46875219195E-01  0.25793094803E+02  0.83753064108E+02  0.79651553279E+02 0.  0.
         23    2    1    2    0    0  0.72696401316E+01 -0.76987036064E+02  0.10499215205E+03  0.15956189554E+03  0.91960834749E+02 0.  0.
         13    1    3    3    0    0 -0.12464732095E+02 -0.37439536374E+02  0.11292160203E+02  0.41043894944E+02  0.00000000000E+00 0. -1.
        -14    1    3    3    0    0  0.14682810299E+02  0.37392661154E+02  0.14500934600E+02  0.42709169165E+02  0.00000000000E+00 0.  1.
        -13    1    4    4    0    0  0.27988764290E+02 -0.89770708006E+02  0.71365597718E+02  0.11804744588E+03  0.00000000000E+00 0.  1.
         13    1    4    4    0    0 -0.20719124158E+02  0.12783671942E+02  0.33626554330E+02  0.41514449657E+02  0.00000000000E+00 0. -1.
         21    1    1    2  503  501  0.89712748585E+02  0.13802397309E+02 -0.21986415727E+03  0.23786368172E+03  0.00000000000E+00 0.  1.
          4    1    1    2  501    0 -0.99200466920E+02  0.63231513974E+02  0.11206288588E+03  0.16247168181E+03  0.00000000000E+00 0. -1.
<scales pt_clust_5="13000.00000" pt_clust_6="13000.00000" pt_clust_7="13000.00000" pt_clust_8="13000.00000" pt_clust_9="90.83890" pt_clust_10="90.16297"></scales>
<clustering>
<clus scale="   79.652">  5  6 -1 -1</clus>
<clus scale="   79.682">  1  5  2 -1</clus>
<clus scale="   90.839">  2  9  1 -1</clus>
<clus scale="   90.163">  2 10  1 -1</clus>
<clus scale="   91.961">  7  8 -1 -1</clus>
<clus scale="   90.839">  2  5  1 -1</clus>
</clustering>
</event>
<event>
10    3  0.5078224E-005  0.1849133E+03  0.7546771E-02  0.1163255E+00
         21   -1    0    0  501  502  0.00000000000E+00  0.00000000000E+00  0.16493442154E+03  0.16493442154E+03  0.00000000000E+00 0.  1.
          1   -1    0    0  503    0 -0.00000000000E+00 -0.00000000000E+00 -0.16048927959E+04  0.16048927959E+04  0.00000000000E+00 0. -1.
         23    2    1    2    0    0 -0.56690601701E+02  0.10202488260E+03 -0.44299459809E+03  0.46481100732E+03  0.78626697765E+02 0.  0.
        -24    2    1    2    0    0  0.17178691883E+03 -0.17877011926E+03 -0.98533807608E+03  0.10191853426E+04  0.79863241085E+02 0.  0.
         11    1    4    4    0    0  0.38014288926E+02 -0.62024079028E+02 -0.43131394483E+03  0.43740575161E+03  0.00000000000E+00 0. -1.
        -12    1    4    4    0    0  0.13377262991E+03 -0.11674604024E+03 -0.55402413125E+03  0.58177959094E+03  0.00000000000E+00 0.  1.
        -13    1    3    3    0    0 -0.61395400959E+02  0.30393580286E+02 -0.19803321378E+03  0.20954789129E+03  0.00000000000E+00 0. -1.
         13    1    3    3    0    0  0.47047992579E+01  0.71631302313E+02 -0.24496138430E+03  0.25526311603E+03  0.00000000000E+00 0.  1.
         21    1    1    2  503  502 -0.90759401905E+02  0.10093794042E+03  0.10029054558E+03  0.16877182936E+03  0.00000000000E+00 0.  1.
          2    1    1    2  501    0 -0.24336915226E+02 -0.24192703757E+02 -0.11191624579E+03  0.11705903822E+03  0.00000000000E+00 0. -1.
<scales pt_clust_5="13000.00000" pt_clust_6="13000.00000" pt_clust_7="13000.00000" pt_clust_8="13000.00000" pt_clust_9="137.28735" pt_clust_10="34.31579"></scales>
<clustering>
<clus scale="   34.316">  1 10  2 -1</clus>
<clus scale="   78.627">  7  8 -1 -1</clus>
<clus scale="   79.863">  5  6 -1 -1</clus>
<clus scale="  137.287">  1  9  2 -1</clus>
<clus scale="  184.383">  2  7  1 -1</clus>
<clus scale="   34.316">  1  5  2 -1</clus>
</clustering>
</event>
<event>
10    3  0.5078224E-005  0.2122682E+03  0.7546771E-02  0.1173045E+00
         21   -1    0    0  501  502  0.00000000000E+00  0.00000000000E+00  0.27711829878E+03  0.27711829878E+03  0.00000000000E+00 0. -1.
          1   -1    0    0  503    0 -0.00000000000E+00 -0.00000000000E+00 -0.55168064432E+03  0.55168064432E+03  0.00000000000E+00 0. -1.
         23    2    1    2    0    0  0.31973317244E+02  0.19223107752E+02 -0.70125808400E+01  0.95551567195E+02  0.87687540827E+02 0.  0.
        -24    2    1    2    0    0  0.85143007130E+02 -0.17076469555E+03  0.72791753666E+02  0.21915117869E+03  0.79490168005E+02 0.  0.
         13    1    4    4    0    0  0.56596684523E+02 -0.12296526374E+03  0.87977567707E+02  0.16144253840E+03  0.00000000000E+00 0. -1.
        -14    1    4    4    0    0  0.28546322606E+02 -0.47799431813E+02 -0.15185814041E+02  0.57708640290E+02  0.00000000000E+00 0.  1.
        -11    1    3    3    0    0 -0.22872885441E+02 -0.15618022335E+02 -0.12412356582E+02  0.30350586584E+02  0.00000000000E+00 0.  1.
         11    1    3    3    0    0  0.54846202685E+02  0.34841130087E+02  0.53997757417E+01  0.65200980612E+02  0.00000000000E+00 0. -1.
         21    1    1    2  503  502  0.25333432901E+02  0.46886915766E+01  0.59562569904E+02  0.64895811766E+02  0.00000000000E+00 0. -1.
          2    1    1    2  501    0 -0.14244975727E+03  0.14685289622E+03 -0.39990408826E+03  0.44920038545E+03  0.00000000000E+00 0. -1.
<scales pt_clust_5="13000.00000" pt_clust_6="13000.00000" pt_clust_7="13000.00000" pt_clust_8="13000.00000" pt_clust_9="25.76367" pt_clust_10="196.82256"></scales>
<clustering>
<clus scale="   25.764">  1  9  2 -1</clus>
<clus scale="   79.490">  5  6 -1 -1</clus>
<clus scale="   87.688">  7  8 -1 -1</clus>
<clus scale="   97.365">  2  7  1 -1</clus>
<clus scale="  196.823">  1 10  2 -1</clus>
<clus scale="   25.764">  1  5  2 -1</clus>
</clustering>
</event>
<event>
10    3  0.5078224E-005  0.4485477E+03  0.7546771E-02  0.1028156E+00
         21   -1    0    0  501  502  0.00000000000E+00  0.00000000000E+00  0.26912735344E+03  0.26912735344E+03  0.00000000000E+00 0. -1.
          1   -1    0    0  503    0 -0.00000000000E+00 -0.00000000000E+00 -0.11168920391E+04  0.11168920391E+04  0.00000000000E+00 0. -1.
        -24    2    1    2    0    0  0.44765519765E+02  0.69198418482E+02 -0.12567193445E+03  0.17063691333E+03  0.80815519575E+02 0.  0.
         23    2    1    2    0    0  0.27463436769E+03  0.90855132418E+02 -0.30192409349E+03  0.42816887721E+03  0.92150627661E+02 0.  0.
         11    1    3    3    0    0  0.34183856807E+02  0.87518226944E+02 -0.10723955388E+03  0.14257734052E+03  0.00000000000E+00 0. -1.
        -12    1    3    3    0    0  0.10581662958E+02 -0.18319808462E+02 -0.18432380568E+02  0.28059572813E+02  0.00000000000E+00 0.  1.
        -11    1    4    4    0    0  0.81663560178E+02 -0.80659584591E+01 -0.11855062466E+03  0.14418130030E+03  0.00000000000E+00 0. -1.
         11    1    4    4    0    0  0.19297080751E+03  0.98921090877E+02 -0.18337346882E+03  0.28398757691E+03  0.00000000000E+00 0.  1.
         21    1    1    2  503  502  0.60084447742E+02  0.22068170237E+02  0.99591955005E+02  0.11838793224E+03  0.00000000000E+00 0. -1.
          2    1    1    2  501    0 -0.37948433520E+03 -0.18212172114E+03 -0.51976061269E+03  0.66882566972E+03  0.00000000000E+00 0. -1.
<scales pt_clust_5="13000.00000" pt_clust_6="13000.00000" pt_clust_7="13000.00000" pt_clust_8="13000.00000" pt_clust_9="64.00894" pt_clust_10="391.27816"></scales>
<clustering>
<clus scale="   64.009">  1  9  2 -1</clus>
<clus scale="   80.816">  5  6 -1 -1</clus>
<clus scale="   92.151">  7  8 -1 -1</clus>
<clus scale="  107.017">  5  7 -1 -1</clus>
<clus scale="  391.278">  1 10  2 -1</clus>
<clus scale="   64.009">  1  5  2 -1</clus>
</clustering>
</event>
<event>
10    3  0.5078224E-005  0.1448743E+03  0.7546771E-02  0.1224703E+00
         21   -1    0    0  501  502  0.00000000000E+00  0.00000000000E+00  0.22925535800E+03  0.22925535800E+03  0.00000000000E+00 0.  1.
          1   -1    0    0  503    0 -0.00000000000E+00 -0.00000000000E+00 -0.54116586232E+03  0.54116586232E+03  0.00000000000E+00 0. -1.
         23    2    1    2    0    0  0.18801214255E+02  0.65955883648E-01 -0.15294362685E+03  0.18175761027E+03  0.96387685359E+02 0.  0.
        -24    2    1    2    0    0 -0.12084641283E+03  0.67413002039E+02 -0.15212310452E+03  0.22069249372E+03  0.80096001893E+02 0.  0.
         13    1    4    4    0    0 -0.64247282597E+02  0.42032751196E+02 -0.27618856538E+02  0.81592075171E+02  0.00000000000E+00 0. -1.
        -14    1    4    4    0    0 -0.56599130228E+02  0.25380250843E+02 -0.12450424798E+03  0.13910041855E+03  0.00000000000E+00 0.  1.
        -13    1    3    3    0    0 -0.34158772955E+02 -0.19524694384E+02 -0.83093424082E+02  0.91937764744E+02  0.00000000000E+00 0. -1.
         13    1    3    3    0    0  0.52959987210E+02  0.19590650267E+02 -0.69850202764E+02  0.89819845521E+02  0.00000000000E+00 0.  1.
         21    1    1    2  503  502  0.18425979534E+02 -0.10893440503E+03  0.14949682727E+03  0.18589115817E+03  0.00000000000E+00 0.  1.
          2    1    1    2  501    0  0.83619219036E+02  0.41455447108E+02 -0.15634060023E+03  0.18207995817E+03  0.00000000000E+00 0. -1.
<scales pt_clust_5="13000.00000" pt_clust_6="13000.00000" pt_clust_7="13000.00000" pt_clust_8="13000.00000" pt_clust_9="120.71953" pt_clust_10="93.33133"></scales>
<clustering>
<clus scale="   80.096">  5  6 -1 -1</clus>
<clus scale="   93.331">  1 10  2 -1</clus>
<clus scale="   96.388">  7  8 -1 -1</clus>
<clus scale="   99.461">  2  7  1 -1</clus>
<clus scale="  120.720">  1  9  2 -1</clus>
<clus scale="   93.331">  1  5  2 -1</clus>
</clustering>
</event>
<event>
10    3  0.5078224E-005  0.1496467E+03  0.7546771E-02  0.1211924E+00
         21   -1    0    0  501  502  0.00000000000E+00  0.00000000000E+00  0.63832235234E+03  0.63832235234E+03  0.00000000000E+00 0.  1.
          3   -1    0    0  503    0 -0.00000000000E+00 -0.00000000000E+00 -0.69625740108E+02  0.69625740108E+02  0.00000000000E+00 0. -1.
         23    2    1    2    0    0 -0.76857755623E+02  0.50880067105E+02  0.46391046448E+02  0.16067012134E+03  0.12315381794E+03 0.  0.
        -24    2    1    2    0    0  0.47786825691E+02 -0.47564907674E+02  0.25881965491E+03  0.27974227762E+03  0.81988578263E+02 0.  0.
         13    1    4    4    0    0  0.16003544140E+02  0.20943165279E+02  0.37071964567E+02  0.45486922888E+02  0.00000000000E+00 0. -1.
        -14    1    4    4    0    0  0.31783281551E+02 -0.68508072953E+02  0.22174769035E+03  0.23425535473E+03  0.00000000000E+00 0.  1.
        -13    1    3    3    0    0 -0.80813250838E+02  0.84831172049E+02  0.47612341883E+02  0.12646756249E+03  0.00000000000E+00 0. -1.
         13    1    3    3    0    0  0.39554952147E+01 -0.33951104944E+02 -0.12212954348E+01  0.34202558849E+02  0.00000000000E+00 0.  1.
         21    1    1    2  503  502  0.18306899470E+02  0.15076866050E+02  0.17034525326E+03  0.17198825474E+03  0.00000000000E+00 0.  1.
          4    1    1    2  501    0  0.10764030463E+02 -0.18392025481E+02  0.93140657606E+02  0.95547438753E+02  0.00000000000E+00 0. -1.
<scales pt_clust_5="13000.00000" pt_clust_6="13000.00000" pt_clust_7="13000.00000" pt_clust_8="13000.00000" pt_clust_9="23.59921" pt_clust_10="21.31035"></scales>
<clustering>
<clus scale="   21.310">  1 10  2 -1</clus>
<clus scale="   23.599">  1  9  2 -1</clus>
<clus scale="   81.989">  5  6 -1 -1</clus>
<clus scale="  118.108">  1  5  2 -1</clus>
<clus scale="  123.154">  7  8 -1 -1</clus>
<clus scale="   21.310">  1  5  2 -1</clus>
</clustering>
</event>
<event>
10    3  0.5078224E-005  0.9458865E+02  0.7546771E-02  0.1295857E+00
          1   -1    0    0  502    0 -0.00000000000E+00  0.00000000000E+00  0.38185653513E+03  0.38185653513E+03  0.00000000000E+00 0. -1.
         21   -1    0    0  503  502  0.00000000000E+00 -0.00000000000E+00 -0.71240366399E+02  0.71240366399E+02  0.00000000000E+00 0. -1.
         23    2    1    2    0    0 -0.27742919032E+01 -0.14370897195E+02  0.13262077831E+03  0.15963356538E+03  0.87637805612E+02 0.  0.
        -24    2    1    2    0    0  0.64791706298E+02  0.18658800452E+02  0.16229669447E+03  0.19339198555E+03  0.80710141860E+02 0.  0.
         11    1    4    4    0    0  0.82206028527E+02  0.21395464475E+02  0.11540727036E+03  0.14329841268E+03  0.00000000000E+00 0. -1.
        -12    1    4    4    0    0 -0.17414322229E+02 -0.27366640227E+01  0.46889424114E+02  0.50093572866E+02  0.00000000000E+00 0.  1.
        -13    1    3    3    0    0  0.38356323900E+01 -0.50313126689E+02  0.60486507183E+02  0.78770174205E+02  0.00000000000E+00 0.  1.
         13    1    3    3    0    0 -0.66099242932E+01  0.35942229494E+02  0.72134271130E+02  0.80863391171E+02  0.00000000000E+00 0. -1.
         21    1    1    2  503  501  0.29674734425E+01  0.26674362008E+02  0.48776857728E+01  0.27278550286E+02  0.00000000000E+00 0. -1.
          2    1    1    2  501    0 -0.64984887837E+02 -0.30962265265E+02  0.10821010178E+02  0.72792800323E+02  0.00000000000E+00 0. -1.
<scales pt_clust_5="13000.00000" pt_clust_6="13000.00000" pt_clust_7="13000.00000" pt_clust_8="13000.00000" pt_clust_9="26.83892" pt_clust_10="65.74219"></scales>
<clustering>
<clus scale="   26.839">  2  9  1 -1</clus>
<clus scale="   65.742">  2 10  1 -1</clus>
<clus scale="   80.710">  5  6 -1 -1</clus>
<clus scale="   87.638">  7  8 -1 -1</clus>
<clus scale="   88.209">  2  5  1 -1</clus>
<clus scale="   26.839">  2  5  1 -1</clus>
</clustering>
</event>
<event>
10    3  0.5078224E-005  0.2960937E+03  0.7546771E-02  0.1112429E+00
         21   -1    0    0  501  502  0.00000000000E+00  0.00000000000E+00  0.25588078852E+03  0.25588078852E+03  0.00000000000E+00 0. -1.
          1   -1    0    0  503    0 -0.00000000000E+00 -0.00000000000E+00 -0.10887165533E+04  0.10887165533E+04  0.00000000000E+00 0. -1.
         23    2    1    2    0    0 -0.12246727468E+03  0.14136783487E+02  0.67985948803E+01  0.15400564173E+03  0.92051261671E+02 0.  0.
        -24    2    1    2    0    0  0.86695550513E+02 -0.18887982365E+03 -0.25286834391E+03  0.33737025883E+03  0.81759317095E+02 0.  0.
         13    1    4    4    0    0  0.79040658773E+02 -0.11963380673E+03 -0.21399240905E+03  0.25758964378E+03  0.00000000000E+00 0. -1.
        -14    1    4    4    0    0  0.76548917398E+01 -0.69246016922E+02 -0.38875934865E+02  0.79780615057E+02  0.00000000000E+00 0.  1.
        -13    1    3    3    0    0 -0.11268067309E+02 -0.19007364044E+02  0.28394845070E+02  0.35979389313E+02  0.00000000000E+00 0.  1.
         13    1    3    3    0    0 -0.11119920738E+03  0.33144147532E+02 -0.21596250190E+02  0.11802625241E+03  0.00000000000E+00 0. -1.
         21    1    1    2  503  502 -0.27915538154E+03  0.89722203347E+02 -0.27564882900E+03  0.40244263907E+03  0.00000000000E+00 0. -1.
          2    1    1    2  501    0  0.31492710571E+03  0.85020836815E+02 -0.31111718670E+03  0.45077880214E+03  0.00000000000E+00 0. -1.
<scales pt_clust_5="13000.00000" pt_clust_6="13000.00000" pt_clust_7="13000.00000" pt_clust_8="13000.00000" pt_clust_9="296.09370" pt_clust_10="13000.00000"></scales>
<clustering>
<clus scale="   81.759">  5  6 -1 -1</clus>
<clus scale="   92.051">  7  8 -1 -1</clus>
<clus scale="  153.856">  2  7  1 -1</clus>
<clus scale="  208.410">  2  5  1 -1</clus>
<clus scale="  296.094">  1  9  2 -1</clus>
<clus scale="  296.094">  1  5  2 -1</clus>
</clustering>
</event>
<event>
10    3  0.5078224E-005  0.1837014E+03  0.7546771E-02  0.1183398E+00
         21   -1    0    0  501  502  0.00000000000E+00  0.00000000000E+00  0.36395224070E+03  0.36395224070E+03  0.00000000000E+00 0. -1.
          3   -1    0    0  503    0 -0.00000000000E+00 -0.00000000000E+00 -0.11351733402E+04  0.11351733402E+04  0.00000000000E+00 0. -1.
        -24    2    1    2    0    0  0.84190628038E+02 -0.33954688753E+02 -0.63435800227E+02  0.13626906004E+03  0.79398823888E+02 0.  0.
         23    2    1    2    0    0  0.15421524967E+03 -0.65913465706E+02  0.15090010535E+03  0.24340012057E+03  0.91355616723E+02 0.  0.
         13    1    3    3    0    0  0.68046897960E+02 -0.56426849134E+02 -0.31098776903E+02  0.93709676928E+02  0.00000000000E+00 0. -1.
        -14    1    3    3    0    0  0.16143730078E+02  0.22472160381E+02 -0.32337023324E+02  0.42559383107E+02  0.00000000000E+00 0.  1.
        -13    1    4    4    0    0  0.37402652953E+01 -0.36807307798E+02  0.21327633219E+02  0.42704044662E+02  0.00000000000E+00 0.  1.
         13    1    4    4    0    0  0.15047498437E+03 -0.29106157908E+02  0.12957247213E+03  0.20069607591E+03  0.00000000000E+00 0. -1.
         21    1    1    2  503  502 -0.85197715724E+01  0.19903066329E+02  0.11438048786E+03  0.11641140219E+03  0.00000000000E+00 0. -1.
          4    1    1    2  501    0 -0.22988610613E+03  0.79965088130E+02 -0.97306589249E+03  0.10030449981E+04  0.00000000000E+00 0. -1.
<scales pt_clust_5="13000.00000" pt_clust_6="13000.00000" pt_clust_7="13000.00000" pt_clust_8="13000.00000" pt_clust_9="21.64991" pt_clust_10="159.37500"></scales>
<clustering>
<clus scale="   21.650">  1  9  2 -1</clus>
<clus scale="   79.399">  5  6 -1 -1</clus>
<clus scale="   91.356">  7  8 -1 -1</clus>
<clus scale="  118.941">  2  5  1 -1</clus>
<clus scale="  159.375">  1 10  2 -1</clus>
<clus scale="   21.650">  1  5  2 -1</clus>
</clustering>
</event>
<event>
10    3  0.5078224E-005  0.1807899E+03  0.7546771E-02  0.1200375E+00
          1   -1    0    0  503    0 -0.00000000000E+00  0.00000000000E+00  0.79795349538E+03  0.79795349538E+03  0.00000000000E+00 0. -1.
         21   -1    0    0  501  502  0.00000000000E+00 -0.00000000000E+00 -0.17322827175E+03  0.17322827175E+03  0.00000000000E+00 0.  1.
        -24    2    1    2    0    0 -0.18619635755E+02  0.35374388094E+02  0.10432533782E+03  0.13619993184E+03  0.77901265428E+02 0.  0.
         23    2    1    2    0    0  0.14166787412E+02 -0.14553696320E+03  0.65976427460E+02  0.18471948586E+03  0.91578894692E+02 0.  0.
         13    1    3    3    0    0  0.19937522147E+02  0.42169202456E+02  0.42989293313E+02  0.63433632757E+02  0.00000000000E+00 0. -1.
        -14    1    3    3    0    0 -0.38557157902E+02 -0.67948143620E+01  0.61336044502E+02  0.72766299087E+02  0.00000000000E+00 0.  1.
        -13    1    4    4    0    0 -0.74081017864E+00 -0.10723237413E+03  0.29297522958E+00  0.10723533325E+03  0.00000000000E+00 0. -1.
         13    1    4    4    0    0  0.14907597591E+02 -0.38304589068E+02  0.65683452230E+02  0.77484152615E+02  0.00000000000E+00 0.  1.
         21    1    1    2  503  502 -0.42298635553E+00 -0.23600203497E+02 -0.88236098364E+02  0.91338697040E+02  0.00000000000E+00 0.  1.
          2    1    1    2  501    0  0.48758346982E+01  0.13376277860E+03  0.54265955671E+03  0.55892365238E+03  0.00000000000E+00 0. -1.
<scales pt_clust_5="13000.00000" pt_clust_6="13000.00000" pt_clust_7="13000.00000" pt_clust_8="13000.00000" pt_clust_9="23.60399" pt_clust_10="155.87919"></scales>
<clustering>
<clus scale="   23.604">  2  9  1 -1</clus>
<clus scale="   77.901">  5  6 -1 -1</clus>
<clus scale="   85.855">  1  5  2 -1</clus>
<clus scale="   91.579">  7  8 -1 -1</clus>
<clus scale="  155.879">  2 10  1 -1</clus>
<clus scale="   23.604">  2  5  1 -1</clus>
</clustering>
</event>
<event>
10    3  0.5078224E-005  0.1562444E+03  0.7546771E-02  0.1217622E+00
         21   -1    0    0  501  502  0.00000000000E+00  0.00000000000E+00  0.11461586573E+03  0.11461586573E+03  0.00000000000E+00 0. -1.
          1   -1    0    0  503    0 -0.00000000000E+00 -0.00000000000E+00 -0.41434251812E+03  0.41434251812E+03  0.00000000000E+00 0. -1.
        -24    2    1    2    0    0 -0.30929579677E+02  0.24360089421E+02 -0.38490366509E+02  0.97165819827E+02  0.80060198432E+02 0.  0.
         23    2    1    2    0    0  0.62384380540E+02  0.10259487876E+03 -0.20991846603E+03  0.26055332448E+03  0.96978102854E+02 0.  0.
         11    1    3    3    0    0 -0.57086606932E+02  0.12829865379E+02 -0.35467175616E+02  0.68420805921E+02  0.00000000000E+00 0. -1.
        -12    1    3    3    0    0  0.26157027255E+02  0.11530224043E+02 -0.30231908930E+01  0.28745013906E+02  0.00000000000E+00 0.  1.
        -11    1    4    4    0    0 -0.28751411194E+01  0.62183605940E+02 -0.39709539071E+02  0.73837082671E+02  0.00000000000E+00 0.  1.
         11    1    4    4    0    0  0.65259521659E+02  0.40411272820E+02 -0.17020892696E+03  0.18671624181E+03  0.00000000000E+00 0. -1.
         21    1    1    2  503  502 -0.23268580074E+02 -0.66834970168E+00  0.15660819439E+02  0.28055922289E+02  0.00000000000E+00 0. -1.
          2    1    1    2  501    0 -0.81862207882E+01 -0.12628661848E+03 -0.66978639298E+02  0.14318331725E+03  0.00000000000E+00 0. -1.
<scales pt_clust_5="13000.00000" pt_clust_6="13000.00000" pt_clust_7="13000.00000" pt_clust_8="13000.00000" pt_clust_9="23.27818" pt_clust_10="122.50538"></scales>
<clustering>
<clus scale="   23.278">  1  9  2 -1</clus>
<clus scale="   80.060">  5  6 -1 -1</clus>
<clus scale="   91.972">  2  5  1 -1</clus>
<clus scale="   96.978">  7  8 -1 -1</clus>
<clus scale="  122.505">  1 10  2 -1</clus>
<clus scale="   23.278">  1  5  2 -1</clus>
</clustering>
</event>
<event>
10    3  0.5078224E-005  0.1565332E+03  0.7546771E-02  0.1213974E+00
          1   -1    0    0  502    0 -0.00000000000E+00  0.00000000000E+00  0.83990353801E+03  0.83990353801E+03  0.00000000000E+00 0. -1.
         21   -1    0    0  503  502  0.00000000000E+00 -0.00000000000E+00 -0.70790553289E+02  0.70790553289E+02  0.00000000000E+00 0.  1.
        -24    2    1    2    0    0 -0.24231296340E+02  0.55990847038E+02  0.31530652880E+03  0.33082634599E+03  0.79408648312E+02 0.  0.
         23    2    1    2    0    0 -0.11125072123E+03  0.18455958664E+02  0.98484815251E+02  0.17502672484E+03  0.90651807428E+02 0.  0.
         11    1    3    3    0    0 -0.26075870816E+02  0.71739432428E+02  0.19381509363E+03  0.20830455521E+03  0.00000000000E+00 0. -1.
        -12    1    3    3    0    0  0.18445744760E+01 -0.15748585390E+02  0.12149143517E+03  0.12252179079E+03  0.00000000000E+00 0.  1.
        -11    1    4    4    0    0 -0.88159830634E+02  0.31147099023E+02  0.24742704008E+02  0.96718658575E+02  0.00000000000E+00 0.  1.
         11    1    4    4    0    0 -0.23090890596E+02 -0.12691140359E+02  0.73742111243E+02  0.78308066268E+02  0.00000000000E+00 0. -1.
         21    1    1    2  503  501 -0.11232390880E+02 -0.24986297404E+02  0.15656851468E+02  0.31553425500E+02  0.00000000000E+00 0. -1.
          2    1    1    2  501    0  0.14671440845E+03 -0.49460508297E+02  0.33966478921E+03  0.37328759497E+03  0.00000000000E+00 0. -1.
<scales pt_clust_5="13000.00000" pt_clust_6="13000.00000" pt_clust_7="13000.00000" pt_clust_8="13000.00000" pt_clust_9="27.39492" pt_clust_10="127.61232"></scales>
<clustering>
<clus scale="   27.395">  2  9  1 -1</clus>
<clus scale="   79.409">  5  6 -1 -1</clus>
<clus scale="   90.652">  7  8 -1 -1</clus>
<clus scale="   98.798">  1  5  2 -1</clus>
<clus scale="  127.612">  2 10  1 -1</clus>
<clus scale="   27.395">  2  5  1 -1</clus>
</clustering>
</event>
<event>
10    3  0.5078224E-005  0.2725198E+03  0.7546771E-02  0.1130259E+00
         21   -1    0    0  503  502  0.00000000000E+00  0.00000000000E+00  0.13961009054E+03  0.13961009054E+03  0.00000000000E+00 0.  1.
         -4   -1    0    0    0  501 -0.00000000000E+00 -0.00000000000E+00 -0.18248895925E+04  0.18248895925E+04  0.00000000000E+00 0.  1.
         23    2    1    2    0    0 -0.61978824518E+02  0.53231053250E+02 -0.35834132068E+03  0.37908826057E+03  0.92868118732E+02 0.  0.
        -24    2    1    2    0    0  0.29062406551E+03 -0.89847555282E+02 -0.54443826670E+03  0.62890037021E+03  0.81041463176E+02 0.  0.
         13    1    4    4    0    0  0.14871168885E+03 -0.58690724394E+02 -0.20730786440E+03  0.26179441968E+03  0.00000000000E+00 0. -1.
        -14    1    4    4    0    0  0.14191237665E+03 -0.31156830888E+02 -0.33713040230E+03  0.36710595053E+03  0.00000000000E+00 0.  1.
        -11    1    3    3    0    0 -0.45548116523E+01  0.55485116223E+02 -0.25338328043E+03  0.25942712124E+03  0.00000000000E+00 0. -1.
         11    1    3    3    0    0 -0.57424012866E+02 -0.22540629731E+01 -0.10495804025E+03  0.11966113933E+03  0.00000000000E+00 0.  1.
         21    1    1    2  503  501 -0.19658649083E+02  0.17291714097E+02  0.72000779693E+02  0.76613172083E+02  0.00000000000E+00 0. -1.
         -3    1    1    2    0  502 -0.20898659191E+03  0.19324787935E+02 -0.85450069426E+03  0.87989788017E+03  0.00000000000E+00 0.  1.
<scales pt_clust_5="13000.00000" pt_clust_6="13000.00000" pt_clust_7="13000.00000" pt_clust_8="13000.00000" pt_clust_9="26.18140" pt_clust_10="260.19102"></scales>
<clustering>
<clus scale="   26.181">  1  9  2 -1</clus>
<clus scale="   81.041">  5  6 -1 -1</clus>
<clus scale="   92.868">  7  8 -1 -1</clus>
<clus scale="  126.476">  2  7  1 -1</clus>
<clus scale="  260.191">  1 10  2 -1</clus>
<clus scale="   26.181">  1  5  2 -1</clus>
</clustering>
</event>
<event>
10    3  0.5078224E-005  0.1497144E+03  0.7546771E-02  0.1203467E+00
          1   -1    0    0  503    0 -0.00000000000E+00  0.00000000000E+00  0.90098221932E+03  0.90098221932E+03  0.00000000000E+00 0. -1.
         21   -1    0    0  501  502  0.00000000000E+00 -0.00000000000E+00 -0.27602195272E+03  0.27602195272E+03  0.00000000000E+00 0. -1.
        -24    2    1    2    0    0 -0.99555992432E+02 -0.29247300913E+01  0.10620441870E+03  0.16664394981E+03  0.81060951042E+02 0.  0.
         23    2    1    2    0    0  0.13625365075E+03  0.15124818696E+03  0.48320962760E+02  0.22971543638E+03  0.94832456831E+02 0.  0.
         11    1    3    3    0    0 -0.78269016817E+02  0.31854681918E+02  0.87952090938E+02  0.12196856174E+03  0.00000000000E+00 0. -1.
        -12    1    3    3    0    0 -0.21286975614E+02 -0.34779412010E+02  0.18252327757E+02  0.44675388069E+02  0.00000000000E+00 0.  1.
        -11    1    4    4    0    0  0.51930260996E+02  0.55073726868E+02  0.66207355585E+02  0.10056481160E+03  0.00000000000E+00 0.  1.
         11    1    4    4    0    0  0.84323389751E+02  0.96174460096E+02 -0.17886392825E+02  0.12915062478E+03  0.00000000000E+00 0. -1.
         21    1    1    2  503  502 -0.52333878212E+02 -0.14958601019E+02 -0.14283095282E+03  0.15285050094E+03  0.00000000000E+00 0. -1.
          2    1    1    2  501    0  0.15636219897E+02 -0.13336485585E+03  0.61326583797E+03  0.62779428491E+03  0.00000000000E+00 0. -1.
<scales pt_clust_5="13000.00000" pt_clust_6="13000.00000" pt_clust_7="13000.00000" pt_clust_8="13000.00000" pt_clust_9="54.42972" pt_clust_10="134.80940"></scales>
<clustering>
<clus scale="   54.430">  2  9  1 -1</clus>
<clus scale="   81.061">  5  6 -1 -1</clus>
<clus scale="   94.832">  7  8 -1 -1</clus>
<clus scale="  134.809">  2 10  1 -1</clus>
<clus scale="  141.393">  1  5  2 -1</clus>
<clus scale="   54.430">  2  5  1 -1</clus>
</clustering>
</event>
<event>
10    3  0.5078224E-005  0.3182631E+03  0.7546771E-02  0.1121023E+00
          1   -1    0    0  503    0 -0.00000000000E+00  0.00000000000E+00  0.11470404242E+04  0.11470404242E+04  0.00000000000E+00 0. -1.
         21   -1    0    0  501  502  0.00000000000E+00 -0.00000000000E+00 -0.13590812341E+03  0.13590812341E+03  0.00000000000E+00 0. -1.
        -24    2    1    2    0    0 -0.45347826848E+02 -0.39610162659E+02  0.79976020445E+02  0.12655287699E+03  0.77421421084E+02 0.  0.
         23    2    1    2    0    0 -0.26802541787E+03 -0.55859842440E+02  0.52928394609E+03  0.60267285024E+03  0.90083973064E+02 0.  0.
         13    1    3    3    0    0 -0.26871967917E+02 -0.23793316052E+02  0.92483462397E+02  0.99203908015E+02  0.00000000000E+00 0. -1.
        -14    1    3    3    0    0 -0.18475858931E+02 -0.15816846607E+02 -0.12507441952E+02  0.27348968975E+02  0.00000000000E+00 0.  1.
        -11    1    4    4    0    0 -0.12560064129E+03 -0.83292225079E+01  0.15686238826E+03  0.20112360848E+03  0.00000000000E+00 0. -1.
         11    1    4    4    0    0 -0.14242477659E+03 -0.47530619933E+02  0.37242155783E+03  0.40154924176E+03  0.00000000000E+00 0.  1.
         21    1    1    2  503  502  0.10652731005E+01 -0.22026701987E+02 -0.95200901250E+01  0.24019627874E+02  0.00000000000E+00 0. -1.
          2    1    1    2  501    0  0.31230797162E+03  0.11749670709E+03  0.41139242441E+03  0.52970319253E+03  0.00000000000E+00 0. -1.
<scales pt_clust_5="13000.00000" pt_clust_6="13000.00000" pt_clust_7="13000.00000" pt_clust_8="13000.00000" pt_clust_9="22.05245" pt_clust_10="305.24788"></scales>
<clustering>
<clus scale="   22.052">  2  9  1 -1</clus>
<clus scale="   77.421">  5  6 -1 -1</clus>
<clus scale="   90.084">  7  8 -1 -1</clus>
<clus scale="   99.801">  1  5  2 -1</clus>
<clus scale="  305.248">  2 10  1 -1</clus>
<clus scale="   22.052">  2  5  1 -1</clus>
</clustering>
</event>
<event>
10    3  0.5078224E-005  0.1495109E+03  0.7546771E-02  0.1211931E+00
         21   -1    0    0  501  502  0.00000000000E+00  0.00000000000E+00  0.14560812603E+03  0.14560812603E+03  0.00000000000E+00 0. -1.
         -4   -1    0    0    0  501 -0.00000000000E+00 -0.00000000000E+00 -0.63710888239E+03  0.63710888239E+03  0.00000000000E+00 0.  1.
         23    2    1    2    0    0 -0.75151489297E+02  0.57222146700E+02 -0.59998154952E+02  0.13267823720E+03  0.71285451616E+02 0.  0.
        -24    2    1    2    0    0  0.18250901305E+03 -0.41402221380E+02 -0.43630594347E+03  0.48149577565E+03  0.80321988791E+02 0.  0.
         13    1    4    4    0    0  0.18668194882E+03 -0.27150896299E+02 -0.39921593934E+03  0.44154352833E+03  0.00000000000E+00 0. -1.
        -14    1    4    4    0    0 -0.41729357781E+01 -0.14251325082E+02 -0.37090004133E+02  0.39952247323E+02  0.00000000000E+00 0.  1.
        -11    1    3    3    0    0 -0.23570934994E+02 -0.13683482983E+02 -0.15456273342E+01  0.27298638188E+02  0.00000000000E+00 0. -1.
         11    1    3    3    0    0 -0.51580554303E+02  0.70905629683E+02 -0.58452527618E+02  0.10537959901E+03  0.00000000000E+00 0.  1.
         21    1    1    2  503  502  0.16242404466E+02  0.19948804819E+02  0.27752071429E+02  0.37841088583E+02  0.00000000000E+00 0. -1.
         -3    1    1    2    0  503 -0.12359992821E+03 -0.35768730139E+02 -0.22948729366E+02  0.13070190699E+03  0.00000000000E+00 0.  1.
<scales pt_clust_5="13000.00000" pt_clust_6="13000.00000" pt_clust_7="13000.00000" pt_clust_8="13000.00000" pt_clust_9="25.72490" pt_clust_10="126.10272"></scales>
<clustering>
<clus scale="   25.725">  1  9  2 -1</clus>
<clus scale="   71.285">  7  8 -1 -1</clus>
<clus scale="   80.322">  5  6 -1 -1</clus>
<clus scale="  118.412">  2  7  1 -1</clus>
<clus scale="  126.103">  1 10  2 -1</clus>
<clus scale="   25.725">  1  5  2 -1</clus>
</clustering>
</event>
<event>
10    3  0.5078224E-005  0.1378597E+03  0.7546771E-02  0.1218285E+00
          1   -1    0    0  503    0 -0.00000000000E+00  0.00000000000E+00  0.13555891597E+03  0.13555891597E+03  0.00000000000E+00 0. -1.
         21   -1    0    0  501  502  0.00000000000E+00 -0.00000000000E+00 -0.43491774837E+03  0.43491774837E+03  0.00000000000E+00 0. -1.
         23    2    1    2    0    0 -0.21605889622E+02 -0.99009078803E+02  0.55152710565E+02  0.14774807575E+03  0.92293338069E+02 0.  0.
        -24    2    1    2    0    0 -0.22740623502E+02  0.11155699238E+03 -0.14182489737E+03  0.20005526794E+03  0.83340927569E+02 0.  0.
         11    1    4    4    0    0  0.48702266235E+01  0.97767791320E+02 -0.65648239485E+02  0.11786412293E+03  0.00000000000E+00 0. -1.
        -12    1    4    4    0    0 -0.27610850126E+02  0.13789201064E+02 -0.76176657887E+02  0.82191145006E+02  0.00000000000E+00 0.  1.
        -11    1    3    3    0    0  0.19977777070E+02 -0.14418635076E+02  0.47088928192E+02  0.53144856499E+02  0.00000000000E+00 0.  1.
         11    1    3    3    0    0 -0.41583666692E+02 -0.84590443727E+02  0.80637823731E+01  0.94603219246E+02  0.00000000000E+00 0. -1.
         21    1    1    2  503  502  0.23234096633E+02  0.70843695115E+01 -0.16624988839E+03  0.16801499019E+03  0.00000000000E+00 0. -1.
          2    1    1    2  501    0  0.21112416492E+02 -0.19632283093E+02 -0.46436757204E+02  0.54658330465E+02  0.00000000000E+00 0. -1.
<scales pt_clust_5="13000.00000" pt_clust_6="13000.00000" pt_clust_7="13000.00000" pt_clust_8="13000.00000" pt_clust_9="24.29015" pt_clust_10="31.38251"></scales>
<clustering>
<clus scale="   24.290">  2  9  1 -1</clus>
<clus scale="   31.383">  2 10  1 -1</clus>
<clus scale="   83.341">  5  6 -1 -1</clus>
<clus scale="   92.293">  7  8 -1 -1</clus>
<clus scale="  132.034">  2  5  1 -1</clus>
<clus scale="   24.290">  2  5  1 -1</clus>
</clustering>
</event>
<event>
10    3  0.5078224E-005  0.1240757E+03  0.7546771E-02  0.1239530E+00
          1   -1    0    0  503    0 -0.00000000000E+00  0.00000000000E+00  0.46306241002E+03  0.46306241002E+03  0.00000000000E+00 0. -1.
         21   -1    0    0  501  502  0.00000000000E+00 -0.00000000000E+00 -0.67705161904E+02  0.67705161904E+02  0.00000000000E+00 0. -1.
         23    2    1    2    0    0  0.79232917135E+02  0.33049199019E+02  0.15198319523E+03  0.19667080429E+03  0.90611306759E+02 0.  0.
        -24    2    1    2    0    0 -0.81939988153E+02 -0.14945295596E+01  0.53293330358E+02  0.12645387673E+03  0.80212272148E+02 0.  0.
         11    1    4    4    0    0 -0.84828375329E+02  0.19668367782E+02  0.24231573444E+02  0.90387317162E+02  0.00000000000E+00 0. -1.
        -12    1    4    4    0    0  0.28883871755E+01 -0.21162897342E+02  0.29061756915E+02  0.36066559572E+02  0.00000000000E+00 0.  1.
        -11    1    3    3    0    0  0.66551411856E+02 -0.13513248829E+02  0.51597275418E+02  0.85287614250E+02  0.00000000000E+00 0.  1.
         11    1    3    3    0    0  0.12681505279E+02  0.46562447849E+02  0.10038591982E+03  0.11138319004E+03  0.00000000000E+00 0. -1.
         21    1    1    2  503  502  0.68678511730E+01  0.23001814120E+02  0.29714272499E+02  0.38199330134E+02  0.00000000000E+00 0. -1.
          2    1    1    2  501    0 -0.41607801543E+01 -0.54556483580E+02  0.16036645002E+03  0.16944356076E+03  0.00000000000E+00 0. -1.
<scales pt_clust_5="13000.00000" pt_clust_6="13000.00000" pt_clust_7="13000.00000" pt_clust_8="13000.00000" pt_clust_9="24.00523" pt_clust_10="45.74223"></scales>
<clustering>
<clus scale="   24.005">  1  9  2 -1</clus>
<clus scale="   45.742">  2 10  1 -1</clus>
<clus scale="   80.212">  5  6 -1 -1</clus>
<clus scale="   90.611">  7  8 -1 -1</clus>
<clus scale="  116.698">  2  5  1 -1</clus>
<clus scale="   45.742">  2  5  1 -1</clus>
</clustering>
</event>
<event>
10    3  0.5078224E-005  0.2114993E+03  0.7546771E-02  0.1144013E+00
         21   -1    0    0  501  502  0.00000000000E+00  0.00000000000E+00  0.13389407919E+03  0.13389407919E+03  0.00000000000E+00 0.  1.
          1   -1    0    0  503    0 -0.00000000000E+00 -0.00000000000E+00 -0.95245767233E+03  0.95245767233E+03  0.00000000000E+00 0. -1.
        -24    2    1    2    0    0 -0.13262058199E+03  0.11335280626E+03 -0.67830737586E+03  0.70498107503E+03  0.80376256127E+02 0.  0.
         23    2    1    2    0    0  0.16678644571E+03 -0.98369353740E+02 -0.24621841607E+02  0.22741594836E+03  0.11669417405E+03 0.  0.
         11    1    3    3    0    0 -0.94455798607E+02  0.11855121010E+03 -0.49579304464E+03  0.51844674791E+03  0.00000000000E+00 0. -1.
        -12    1    3    3    0    0 -0.38164783388E+02 -0.51984038329E+01 -0.18251433122E+03  0.18653432712E+03  0.00000000000E+00 0.  1.
        -11    1    4    4    0    0  0.79007322890E+02 -0.10958728670E+03  0.16404292311E+01  0.13510818437E+03  0.00000000000E+00 0. -1.
         11    1    4    4    0    0  0.87779122824E+02  0.11217932958E+02 -0.26262270838E+02  0.92307763992E+02  0.00000000000E+00 0.  1.
         21    1    1    2  503  502 -0.23253182428E+02  0.22075414444E+02 -0.26632156945E-01  0.32062986841E+02  0.00000000000E+00 0.  1.
          2    1    1    2  501    0 -0.10912681291E+02 -0.37058866967E+02 -0.11560774352E+03  0.12189174129E+03  0.00000000000E+00 0. -1.
<scales pt_clust_5="13000.00000" pt_clust_6="13000.00000" pt_clust_7="13000.00000" pt_clust_8="13000.00000" pt_clust_9="32.06298" pt_clust_10="38.25040"></scales>
<clustering>
<clus scale="   32.063">  1  9  2 -1</clus>
<clus scale="   38.250">  1 10  2 -1</clus>
<clus scale="   80.376">  5  6 -1 -1</clus>
<clus scale="  116.694">  7  8 -1 -1</clus>
<clus scale="  193.842">  2  5  1 -1</clus>
<clus scale="   32.063">  1  5  2 -1</clus>
</clustering>
</event>
<event>
10    3  0.5078224E-005  0.1335020E+03  0.7546771E-02  0.1224143E+00
         21   -1    0    0  503  502  0.00000000000E+00  0.00000000000E+00  0.43419144732E+03  0.43419144732E+03  0.00000000000E+00 0. -1.
          1   -1    0    0  502    0 -0.00000000000E+00 -0.00000000000E+00 -0.18827807741E+03  0.18827807741E+03  0.00000000000E+00 0. -1.
         23    2    1    2    0    0  0.11572029842E+02 -0.65829095646E+02  0.12579346279E+02  0.11141742306E+03  0.88250895186E+02 0.  0.
        -24    2    1    2    0    0  0.55630670924E+02  0.12934767962E+03 -0.45294643409E+02  0.16846248068E+03  0.80637515489E+02 0.  0.
         13    1    4    4    0    0  0.35852342695E+02  0.88460666371E+02 -0.68473504532E+02  0.11747042519E+03  0.00000000000E+00 0. -1.
        -14    1    4    4    0    0  0.19778328229E+02  0.40887013251E+02  0.23178861123E+02  0.50992055490E+02  0.00000000000E+00 0.  1.
        -11    1    3    3    0    0  0.54467819496E+01 -0.40666903526E+02 -0.37149596263E+02  0.55349408114E+02  0.00000000000E+00 0.  1.
         11    1    3    3    0    0  0.61252478927E+01 -0.25162192120E+02  0.49728942542E+02  0.56068014950E+02  0.00000000000E+00 0. -1.
         21    1    1    2  503  501 -0.53249260689E+02  0.58596054038E+01  0.26520349234E+03  0.27055999536E+03  0.00000000000E+00 0. -1.
          2    1    1    2  501    0 -0.13953440077E+02 -0.69378189380E+02  0.13425174705E+02  0.72029625624E+02  0.00000000000E+00 0. -1.
<scales pt_clust_5="13000.00000" pt_clust_6="13000.00000" pt_clust_7="13000.00000" pt_clust_8="13000.00000" pt_clust_9="53.57069" pt_clust_10="73.28266"></scales>
<clustering>
<clus scale="   53.571">  1  9  2 -1</clus>
<clus scale="   73.283">  1 10  2 -1</clus>
<clus scale="   80.638">  5  6 -1 -1</clus>
<clus scale="   88.251">  7  8 -1 -1</clus>
<clus scale="  128.596">  1  5  2 -1</clus>
<clus scale="   53.571">  1  5  2 -1</clus>
</clustering>
</event>
<event>
10    3  0.5078224E-005  0.1357855E+03  0.7546771E-02  0.1239055E+00
          1   -1    0    0  502    0 -0.00000000000E+00  0.00000000000E+00  0.11185466621E+04  0.11185466621E+04  0.00000000000E+00 0. -1.
         21   -1    0    0  503  502  0.00000000000E+00 -0.00000000000E+00 -0.52883531401E+02  0.52883531401E+02  0.00000000000E+00 0. -1.
        -24    2    1    2    0    0  0.33241418396E+02 -0.22196681876E+02  0.36393344463E+03  0.37478686829E+03  0.80124652524E+02 0.  0.
         23    2    1    2    0    0  0.78875468628E+02 -0.19744684022E+02  0.87407079548E+02  0.15103452152E+03  0.92521549043E+02 0.  0.
         13    1    3    3    0    0  0.55873563730E+02 -0.61562289111E+01  0.29800474487E+03  0.30325992522E+03  0.00000000000E+00 0. -1.
        -14    1    3    3    0    0 -0.22632145334E+02 -0.16040452965E+02  0.65928699761E+02  0.71526943077E+02  0.00000000000E+00 0.  1.
        -11    1    4    4    0    0  0.39990422593E+01 -0.24268487029E+02  0.69766676590E+02  0.73975272653E+02  0.00000000000E+00 0.  1.
         11    1    4    4    0    0  0.74876426369E+02  0.45238030076E+01  0.17640402958E+02  0.77059248867E+02  0.00000000000E+00 0. -1.
         21    1    1    2  503  501  0.17658294580E+02  0.16193053558E+02  0.83674704723E+01  0.25378039977E+02  0.00000000000E+00 0. -1.
          2    1    1    2  501    0 -0.12977518160E+03  0.25748312340E+02  0.60595513608E+03  0.62023076374E+03  0.00000000000E+00 0. -1.
<scales pt_clust_5="13000.00000" pt_clust_6="13000.00000" pt_clust_7="13000.00000" pt_clust_8="13000.00000" pt_clust_9="23.95893" pt_clust_10="99.38542"></scales>
<clustering>
<clus scale="   23.959">  2  9  1 -1</clus>
<clus scale="   80.125">  5  6 -1 -1</clus>
<clus scale="   89.899">  1  5  2 -1</clus>
<clus scale="   92.522">  7  8 -1 -1</clus>
<clus scale="   99.385">  2 10  1 -1</clus>
<clus scale="   23.959">  2  5  1 -1</clus>
</clustering>
</event>
<event>
10    3  0.5078224E-005  0.1658562E+03  0.7546771E-02  0.1188807E+00
          1   -1    0    0  502    0 -0.00000000000E+00  0.00000000000E+00  0.18210169993E+03  0.18210169993E+03  0.00000000000E+00 0. -1.
         21   -1    0    0  503  502  0.00000000000E+00 -0.00000000000E+00 -0.73420361424E+03  0.73420361424E+03  0.00000000000E+00 0. -1.
         23    2    1    2    0    0 -0.11010712952E+03  0.18047041665E+02 -0.21710261320E+03  0.26062534327E+03  0.91338651244E+02 0.  0.
        -24    2    1    2    0    0  0.72373646915E+02  0.13671070894E+03  0.91296564255E+02  0.19658148733E+03  0.79884014718E+02 0.  0.
         11    1    4    4    0    0  0.74284724089E+02  0.11808131555E+03  0.10395523269E+03  0.17397731955E+03  0.00000000000E+00 0. -1.
        -12    1    4    4    0    0 -0.19110771732E+01  0.18629393395E+02 -0.12658668437E+02  0.22604167775E+02  0.00000000000E+00 0.  1.
        -11    1    3    3    0    0 -0.20281864800E+02 -0.34345491834E+02 -0.52638958852E+02  0.66044127961E+02  0.00000000000E+00 0.  1.
         11    1    3    3    0    0 -0.89825264724E+02  0.52392533499E+02 -0.16446365435E+03  0.19458121531E+03  0.00000000000E+00 0. -1.
         21    1    1    2  503  501  0.26611888791E+00 -0.21500464067E+02 -0.13361504415E+03  0.13533410804E+03  0.00000000000E+00 0. -1.
          2    1    1    2  501    0  0.37467363721E+02 -0.13325728654E+03 -0.29268082121E+03  0.32376437553E+03  0.00000000000E+00 0. -1.
<scales pt_clust_5="13000.00000" pt_clust_6="13000.00000" pt_clust_7="13000.00000" pt_clust_8="13000.00000" pt_clust_9="21.50211" pt_clust_10="145.35068"></scales>
<clustering>
<clus scale="   21.502">  2  9  1 -1</clus>
<clus scale="   79.884">  5  6 -1 -1</clus>
<clus scale="   91.339">  7  8 -1 -1</clus>
<clus scale="  143.293">  1  7  2 -1</clus>
<clus scale="  145.351">  2 10  1 -1</clus>
<clus scale="   21.502">  2  5  1 -1</clus>
</clustering>
</event>
<event>
10    3  0.5078224E-005  0.3205758E+03  0.7546771E-02  0.1106660E+00
         -2   -1    0    0    0  501 -0.00000000000E+00  0.00000000000E+00  0.69204127026E+03  0.69204127026E+03  0.00000000000E+00 0.  1.
         21   -1    0    0  501  502  0.00000000000E+00 -0.00000000000E+00 -0.67356864837E+03  0.67356864837E+03  0.00000000000E+00 0. -1.
        -24    2    1    2    0    0 -0.11523701900E+03  0.58321362317E+00  0.73997017613E+02  0.15873752196E+03  0.80262890405E+02 0.  0.
         23    2    1    2    0    0  0.40376475469E+01 -0.21244159675E+03 -0.13346816133E+03  0.26614782556E+03  0.88730943517E+02 0.  0.
         11    1    3    3    0    0 -0.78526624433E+02 -0.12859037198E+02  0.86653125059E+02  0.11764586548E+03  0.00000000000E+00 0. -1.
        -12    1    3    3    0    0 -0.36710394566E+02  0.13442250821E+02 -0.12656107446E+02  0.41091656477E+02  0.00000000000E+00 0.  1.
        -13    1    4    4    0    0 -0.25827923574E+02 -0.33885476859E+02 -0.53083080131E+02  0.68067030009E+02  0.00000000000E+00 0.  1.
         13    1    4    4    0    0  0.29865571121E+02 -0.17855611989E+03 -0.80385081195E+02  0.19808079556E+03  0.00000000000E+00 0. -1.
         21    1    1    2  503  502 -0.75152754553E+02 -0.13096580400E+03 -0.33812797294E+03  0.37031136145E+03  0.00000000000E+00 0. -1.
         -1    1    1    2    0  503  0.18635212600E+03  0.34282418713E+03  0.41607173854E+03  0.57041320966E+03  0.00000000000E+00 0.  1.
<scales pt_clust_5="13000.00000" pt_clust_6="13000.00000" pt_clust_7="13000.00000" pt_clust_8="13000.00000" pt_clust_9="152.61143" pt_clust_10="308.05156"></scales>
<clustering>
<clus scale="   80.263">  5  6 -1 -1</clus>
<clus scale="   88.731">  7  8 -1 -1</clus>
<clus scale="  140.435">  1  5  2 -1</clus>
<clus scale="  152.611">  2  9  1 -1</clus>
<clus scale="  308.052">  2 10  1 -1</clus>
<clus scale="  152.611">  2  5  1 -1</clus>
</clustering>
</event>
<event>
10    3  0.5078224E-005  0.2116583E+03  0.7546771E-02  0.1141062E+00
         21   -1    0    0  501  502  0.00000000000E+00  0.00000000000E+00  0.37604935627E+03  0.37604935627E+03  0.00000000000E+00 0.  1.
          1   -1    0    0  503    0 -0.00000000000E+00 -0.00000000000E+00 -0.10847238904E+04  0.10847238904E+04  0.00000000000E+00 0. -1.
         23    2    1    2    0    0 -0.93265440931E+02  0.22034960121E+03 -0.59058452639E+03  0.64358701016E+03  0.90342501645E+02 0.  0.
        -24    2    1    2    0    0  0.15573604430E+03 -0.68807796383E+02 -0.29623374882E+03  0.35100708717E+03  0.80394732213E+02 0.  0.
         13    1    4    4    0    0  0.12668134558E+03 -0.49383420611E+02 -0.28238474663E+03  0.31341351387E+03  0.00000000000E+00 0. -1.
        -14    1    4    4    0    0  0.29054698721E+02 -0.19424375772E+02 -0.13849002195E+02  0.37593573304E+02  0.00000000000E+00 0.  1.
        -11    1    3    3    0    0 -0.89269062559E+02  0.19718972340E+03 -0.57740078091E+03  0.61663961463E+03  0.00000000000E+00 0.  1.
         11    1    3    3    0    0 -0.39963783724E+01  0.23159877815E+02 -0.13183745484E+02  0.26947395523E+02  0.00000000000E+00 0. -1.
         21    1    1    2  503  502 -0.12940251098E+03 -0.13887405279E+03  0.28322435241E+03  0.34095021071E+03  0.00000000000E+00 0.  1.
          2    1    1    2  501    0  0.66931907611E+02 -0.12667752036E+02 -0.10508061135E+03  0.12522893867E+03  0.00000000000E+00 0. -1.
<scales pt_clust_5="13000.00000" pt_clust_6="13000.00000" pt_clust_7="13000.00000" pt_clust_8="13000.00000" pt_clust_9="166.23512" pt_clust_10="68.12016"></scales>
<clustering>
<clus scale="   68.120">  1 10  2 -1</clus>
<clus scale="   80.395">  5  6 -1 -1</clus>
<clus scale="   90.343">  7  8 -1 -1</clus>
<clus scale="  166.235">  1  9  2 -1</clus>
<clus scale="  207.607">  1  5  2 -1</clus>
<clus scale="   68.120">  1  5  2 -1</clus>
</clustering>
</event>
<event>
10    3  0.5078224E-005  0.1470808E+03  0.7546771E-02  0.1231918E+00
         21   -1    0    0  501  502  0.00000000000E+00  0.00000000000E+00  0.20756065076E+03  0.20756065076E+03  0.00000000000E+00 0. -1.
          1   -1    0    0  503    0 -0.00000000000E+00 -0.00000000000E+00 -0.17410419001E+03  0.17410419001E+03  0.00000000000E+00 0. -1.
        -24    2    1    2    0    0  0.51985753933E+01  0.12699355766E+02 -0.55592371386E+01  0.81641503338E+02  0.80287801855E+02 0.  0.
         23    2    1    2    0    0  0.87366347929E+02  0.69539029399E+02  0.23417224713E+02  0.14554996214E+03  0.90376267371E+02 0.  0.
         13    1    3    3    0    0  0.36573919570E+02 -0.15045402178E+02 -0.17647913206E+01  0.39586995439E+02  0.00000000000E+00 0. -1.
        -14    1    3    3    0    0 -0.31375344177E+02  0.27744757944E+02 -0.37944458181E+01  0.42054507900E+02  0.00000000000E+00 0.  1.
        -13    1    4    4    0    0 -0.23859085891E+01  0.49643024467E+02 -0.33159773488E+01  0.49810823561E+02  0.00000000000E+00 0.  1.
         13    1    4    4    0    0  0.89752256518E+02  0.19896004932E+02  0.26733202062E+02  0.95739138574E+02  0.00000000000E+00 0. -1.
         21    1    1    2  503  502 -0.18115072959E+02  0.15249303448E+02  0.21056762955E+02  0.31687290671E+02  0.00000000000E+00 0. -1.
          2    1    1    2  501    0 -0.74449850364E+02 -0.97487688613E+02 -0.54582897883E+01  0.12278608463E+03  0.00000000000E+00 0. -1.
<scales pt_clust_5="13000.00000" pt_clust_6="13000.00000" pt_clust_7="13000.00000" pt_clust_8="13000.00000" pt_clust_9="23.67904" pt_clust_10="116.03841"></scales>
<clustering>
<clus scale="   23.679">  1  9  2 -1</clus>
<clus scale="   80.288">  5  6 -1 -1</clus>
<clus scale="   81.859">  2  5  1 -1</clus>
<clus scale="   90.376">  7  8 -1 -1</clus>
<clus scale="  116.038">  1 10  2 -1</clus>
<clus scale="   23.679">  1  5  2 -1</clus>
</clustering>
</event>
<event>
10    3  0.5078224E-005  0.2218275E+03  0.7546771E-02  0.1132528E+00
          1   -1    0    0  503    0 -0.00000000000E+00  0.00000000000E+00  0.82763434807E+03  0.82763434807E+03  0.00000000000E+00 0. -1.
         21   -1    0    0  501  502  0.00000000000E+00 -0.00000000000E+00 -0.26205696877E+03  0.26205696877E+03  0.00000000000E+00 0. -1.
        -24    2    1    2    0    0 -0.74472825970E+02  0.63330608349E+02  0.29424267030E+03  0.32099608023E+03  0.83082890746E+02 0.  0.
         23    2    1    2    0    0 -0.30657998957E+01  0.25143209664E+02  0.13288112148E+03  0.16140633068E+03  0.88051297649E+02 0.  0.
         11    1    3    3    0    0 -0.90412866455E+02  0.60071884160E+02  0.27585383530E+03  0.29644300656E+03  0.00000000000E+00 0. -1.
        -12    1    3    3    0    0  0.15940040485E+02  0.32587241894E+01  0.18388834999E+02  0.24553073670E+02  0.00000000000E+00 0.  1.
        -13    1    4    4    0    0 -0.41076539335E+02  0.31113861781E+02  0.60806703364E+02  0.79704514632E+02  0.00000000000E+00 0.  1.
         13    1    4    4    0    0  0.38010739439E+02 -0.59706521173E+01  0.72074418113E+02  0.81701816049E+02  0.00000000000E+00 0. -1.
         21    1    1    2  503  502 -0.20374497069E+02 -0.11228525331E+03 -0.21301646885E+03  0.24165908682E+03  0.00000000000E+00 0. -1.
          2    1    1    2  501    0  0.97913122935E+02  0.23811435293E+02  0.35147005638E+03  0.36562981911E+03  0.00000000000E+00 0. -1.
<scales pt_clust_5="13000.00000" pt_clust_6="13000.00000" pt_clust_7="13000.00000" pt_clust_8="13000.00000" pt_clust_9="113.00421" pt_clust_10="100.76693"></scales>
<clustering>
<clus scale="   83.083">  5  6 -1 -1</clus>
<clus scale="   88.051">  7  8 -1 -1</clus>
<clus scale="   90.394">  5  7 -1 -1</clus>
<clus scale="  100.767">  2 10  1 -1</clus>
<clus scale="  113.004">  2  9  1 -1</clus>
<clus scale="  100.767">  2  5  1 -1</clus>
</clustering>
</event>
<event>
10    3  0.5078224E-005  0.2122248E+03  0.7546771E-02  0.1160032E+00
         21   -1    0    0  503  502  0.00000000000E+00  0.00000000000E+00  0.14455591663E+03  0.14455591663E+03  0.00000000000E+00 0.  1.
          1   -1    0    0  502    0 -0.00000000000E+00 -0.00000000000E+00 -0.94925631235E+03  0.94925631235E+03  0.00000000000E+00 0. -1.
        -24    2    1    2    0    0 -0.82270823812E+02 -0.29897976904E+02  0.18037372972E+02  0.12267102040E+03  0.84026513371E+02 0.  0.
         23    2    1    2    0    0 -0.21632269765E+01  0.21130014909E+03 -0.25717277439E+03  0.34601536148E+03  0.94532332753E+02 0.  0.
         11    1    3    3    0    0 -0.30723446908E+02 -0.12270355663E+02 -0.33924704715E+02  0.47385413452E+02  0.00000000000E+00 0. -1.
        -12    1    3    3    0    0 -0.51547376904E+02 -0.17627621241E+02  0.51962077688E+02  0.75285606951E+02  0.00000000000E+00 0.  1.
        -11    1    4    4    0    0 -0.24574842983E+02  0.21039936991E+02 -0.11189241850E+02  0.34231578833E+02  0.00000000000E+00 0. -1.
         11    1    4    4    0    0  0.22411616007E+02  0.19026021210E+03 -0.24598353254E+03  0.31178378265E+03  0.00000000000E+00 0.  1.
         21    1    1    2  503  501 -0.14449300072E+02 -0.28988669825E+02 -0.13909402889E+01  0.32420054992E+02  0.00000000000E+00 0.  1.
          2    1    1    2  501    0  0.98883350861E+02 -0.15241350236E+03 -0.56417405400E+03  0.59270579210E+03  0.00000000000E+00 0. -1.
<scales pt_clust_5="13000.00000" pt_clust_6="13000.00000" pt_clust_7="13000.00000" pt_clust_8="13000.00000" pt_clust_9="32.39020" pt_clust_10="190.00796"></scales>
<clustering>
<clus scale="   32.390">  1  9  2 -1</clus>
<clus scale="   84.027">  5  6 -1 -1</clus>
<clus scale="   94.532">  7  8 -1 -1</clus>
<clus scale="  131.438">  2  5  1 -1</clus>
<clus scale="  190.008">  1 10  2 -1</clus>
<clus scale="   32.390">  1  5  2 -1</clus>
</clustering>
</event>
<event>
10    3  0.5078224E-005  0.1598675E+03  0.7546771E-02  0.1205063E+00
          3   -1    0    0  503    0 -0.00000000000E+00  0.00000000000E+00  0.17009038357E+03  0.17009038357E+03  0.00000000000E+00 0. -1.
         21   -1    0    0  501  502  0.00000000000E+00 -0.00000000000E+00 -0.53635319307E+03  0.53635319307E+03  0.00000000000E+00 0.  1.
        -24    2    1    2    0    0  0.82966245598E+02  0.45066034112E+02 -0.47518567965E+02  0.13180366413E+03  0.78739102341E+02 0.  0.
         23    2    1    2    0    0  0.53981664532E+02 -0.14288077231E+03 -0.21390491146E+03  0.27879512673E+03  0.92964919962E+02 0.  0.
         13    1    3    3    0    0  0.59486322583E+02 -0.11527325676E+01  0.27927857724E+01  0.59563000422E+02  0.00000000000E+00 0. -1.
        -14    1    3    3    0    0  0.23479923015E+02  0.46218766679E+02 -0.50311353737E+02  0.72240663708E+02  0.00000000000E+00 0.  1.
        -13    1    4    4    0    0  0.16941700254E+01 -0.10288913626E+03 -0.82751657417E+02  0.13204878408E+03  0.00000000000E+00 0.  1.
         13    1    4    4    0    0  0.52287494507E+02 -0.39991636046E+02 -0.13115325404E+03  0.14674634265E+03  0.00000000000E+00 0. -1.
         21    1    1    2  503  502 -0.45089143719E+02  0.10427029873E+03 -0.15407178012E+03  0.19142476200E+03  0.00000000000E+00 0.  1.
          4    1    1    2  501    0 -0.91858766411E+02 -0.64555605323E+01  0.49232450039E+02  0.10442002377E+03  0.00000000000E+00 0. -1.
<scales pt_clust_5="13000.00000" pt_clust_6="13000.00000" pt_clust_7="13000.00000" pt_clust_8="13000.00000" pt_clust_9="130.05822" pt_clust_10="92.08537"></scales>
<clustering>
<clus scale="   78.739">  5  6 -1 -1</clus>
<clus scale="   92.085">  2 10  1 -1</clus>
<clus scale="   92.965">  7  8 -1 -1</clus>
<clus scale="  112.200">  1  5  2 -1</clus>
<clus scale="  130.058">  1  9  2 -1</clus>
<clus scale="   92.085">  2  5  1 -1</clus>
</clustering>
</event>
<event>
10    3  0.5078224E-005  0.3717622E+03  0.7546771E-02  0.1054021E+00
         21   -1    0    0  501  502  0.00000000000E+00  0.00000000000E+00  0.10215573438E+04  0.10215573438E+04  0.00000000000E+00 0. -1.
          3   -1    0    0  503    0 -0.00000000000E+00 -0.00000000000E+00 -0.14013055516E+03  0.14013055516E+03  0.00000000000E+00 0. -1.
        -24    2    1    2    0    0  0.11107150222E+03  0.45136195854E+02  0.20005097436E+03  0.24665484262E+03  0.80274929246E+02 0.  0.
         23    2    1    2    0    0  0.10850801424E+03  0.17077156227E+03  0.33787480375E+03  0.40429665956E+03  0.91430248216E+02 0.  0.
         13    1    3    3    0    0  0.79791839766E+02 -0.75532077394E+01  0.13708182086E+03  0.15879299182E+03  0.00000000000E+00 0. -1.
        -14    1    3    3    0    0  0.31279662451E+02  0.52689403594E+02  0.62969153502E+02  0.87861850805E+02  0.00000000000E+00 0.  1.
        -11    1    4    4    0    0  0.83920413331E+02  0.10610569640E+03  0.14002470301E+03  0.19469969706E+03  0.00000000000E+00 0. -1.
         11    1    4    4    0    0  0.24587600904E+02  0.64665865874E+02  0.19785010074E+03  0.20959696250E+03  0.00000000000E+00 0.  1.
         21    1    1    2  503  502  0.39645611491E+02 -0.30237921289E+02  0.91944698064E+02  0.10459413892E+03  0.00000000000E+00 0. -1.
          4    1    1    2  501    0 -0.25922512794E+03 -0.18566983684E+03  0.25155631242E+03  0.40614225782E+03  0.00000000000E+00 0. -1.
<scales pt_clust_5="13000.00000" pt_clust_6="13000.00000" pt_clust_7="13000.00000" pt_clust_8="13000.00000" pt_clust_9="49.86087" pt_clust_10="314.10965"></scales>
<clustering>
<clus scale="   49.861">  1  9  2 -1</clus>
<clus scale="   80.275">  5  6 -1 -1</clus>
<clus scale="   91.430">  7  8 -1 -1</clus>
<clus scale="  119.157">  5  7 -1 -1</clus>
<clus scale="  314.110">  1 10  2 -1</clus>
<clus scale="   49.861">  1  5  2 -1</clus>
</clustering>
</event>
<event>
10    3  0.5078224E-005  0.2242627E+03  0.7546771E-02  0.1146513E+00
         21   -1    0    0  501  502  0.00000000000E+00  0.00000000000E+00  0.17406615572E+03  0.17406615572E+03  0.00000000000E+00 0. -1.
          1   -1    0    0  503    0 -0.00000000000E+00 -0.00000000000E+00 -0.16849947957E+04  0.16849947957E+04  0.00000000000E+00 0. -1.
        -24    2    1    2    0    0  0.59277150181E+01  0.13073291161E+03 -0.10132906392E+04  0.10248821949E+04  0.80618620679E+02 0.  0.
         23    2    1    2    0    0 -0.14342101851E+03  0.64632312568E+02 -0.50382128744E+03  0.53429711672E+03  0.83009607185E+02 0.  0.
         13    1    3    3    0    0  0.38952631611E+02  0.39067534681E+02 -0.30937540256E+03  0.31425581854E+03  0.00000000000E+00 0. -1.
        -14    1    3    3    0    0 -0.33024916593E+02  0.91665376927E+02 -0.70391523660E+03  0.71062637635E+03  0.00000000000E+00 0.  1.
        -11    1    4    4    0    0 -0.43192097137E+02  0.25536566308E+02 -0.29658384399E+03  0.30079835437E+03  0.00000000000E+00 0.  1.
         11    1    4    4    0    0 -0.10022892137E+03  0.39095746260E+02 -0.20723744345E+03  0.23349876236E+03  0.00000000000E+00 0. -1.
         21    1    1    2  503  502  0.24481190247E+02 -0.12362585593E+02  0.70285898487E+02  0.75447131984E+02  0.00000000000E+00 0. -1.
          2    1    1    2  501    0  0.11301211324E+03 -0.18300263858E+03 -0.64102611915E+02  0.22443450787E+03  0.00000000000E+00 0. -1.
<scales pt_clust_5="13000.00000" pt_clust_6="13000.00000" pt_clust_7="13000.00000" pt_clust_8="13000.00000" pt_clust_9="27.42558" pt_clust_10="208.33429"></scales>
<clustering>
<clus scale="   27.426">  1  9  2 -1</clus>
<clus scale="   80.619">  5  6 -1 -1</clus>
<clus scale="   83.010">  7  8 -1 -1</clus>
<clus scale="  153.165">  2  5  1 -1</clus>
<clus scale="  208.334">  1 10  2 -1</clus>
<clus scale="   27.426">  1  5  2 -1</clus>
</clustering>
</event>
<event>
10    3  0.5078224E-005  0.1041037E+03  0.7546771E-02  0.1277009E+00
         21   -1    0    0  501  502  0.00000000000E+00  0.00000000000E+00  0.23420316283E+03  0.23420316283E+03  0.00000000000E+00 0.  1.
          1   -1    0    0  503    0 -0.00000000000E+00 -0.00000000000E+00 -0.11668200526E+03  0.11668200526E+03  0.00000000000E+00 0. -1.
        -24    2    1    2    0    0 -0.35607230113E+02  0.37471341670E+02 -0.27485368467E+02  0.98882160918E+02  0.79688518528E+02 0.  0.
         23    2    1    2    0    0 -0.91742967372E+01 -0.64467184358E+02  0.67385335034E+02  0.13062749458E+03  0.91008644545E+02 0.  0.
         11    1    3    3    0    0 -0.17751079913E+02  0.29263940790E+02 -0.55174168216E+02  0.64928174986E+02  0.00000000000E+00 0. -1.
        -12    1    3    3    0    0 -0.17856150201E+02  0.82074008802E+01  0.27688799749E+02  0.33953985933E+02  0.00000000000E+00 0.  1.
        -11    1    4    4    0    0  0.91870045237E+01 -0.42858780480E+02  0.86125911073E+02  0.96638236090E+02  0.00000000000E+00 0. -1.
         11    1    4    4    0    0 -0.18361301261E+02 -0.21608403877E+02 -0.18740576040E+02  0.33989258486E+02  0.00000000000E+00 0.  1.
         21    1    1    2  503  502  0.39403406028E+01  0.32284913313E+02  0.73021299250E+02  0.79937175681E+02  0.00000000000E+00 0.  1.
          2    1    1    2  501    0  0.40841186248E+02 -0.52890706249E+01  0.45998917537E+01  0.41438336916E+02  0.00000000000E+00 0. -1.
<scales pt_clust_5="13000.00000" pt_clust_6="13000.00000" pt_clust_7="13000.00000" pt_clust_8="13000.00000" pt_clust_9="32.52448" pt_clust_10="41.42030"></scales>
<clustering>
<clus scale="   32.524">  1  9  2 -1</clus>
<clus scale="   41.420">  1 10  2 -1</clus>
<clus scale="   79.689">  5  6 -1 -1</clus>
<clus scale="   91.009">  7  8 -1 -1</clus>
<clus scale="   94.368">  2  5  1 -1</clus>
<clus scale="   32.524">  1  5  2 -1</clus>
</clustering>
</event>
<event>
10    3  0.5078224E-005  0.2982510E+03  0.7546771E-02  0.1121238E+00
          1   -1    0    0  503    0 -0.00000000000E+00  0.00000000000E+00  0.98801228249E+03  0.98801228249E+03  0.00000000000E+00 0. -1.
         21   -1    0    0  501  502  0.00000000000E+00 -0.00000000000E+00 -0.30725032757E+03  0.30725032757E+03  0.00000000000E+00 0. -1.
        -24    2    1    2    0    0  0.60983480836E+01  0.90070210955E+02  0.85351264655E+01  0.12092084133E+03  0.79994804414E+02 0.  0.
         23    2    1    2    0    0  0.28639777760E+03  0.32765573467E+02  0.35060556124E+03  0.46449406898E+03  0.98657035906E+02 0.  0.
         13    1    3    3    0    0  0.25731750124E+02  0.89814368001E+02 -0.99467706239E+01  0.93955744421E+02  0.00000000000E+00 0. -1.
        -14    1    3    3    0    0 -0.19633402040E+02  0.25584295444E+00  0.18481897089E+02  0.26965096909E+02  0.00000000000E+00 0.  1.
        -13    1    4    4    0    0  0.26811455496E+03  0.82316525158E+01  0.28108526193E+03  0.38853841401E+03  0.00000000000E+00 0. -1.
         13    1    4    4    0    0  0.18283222634E+02  0.24533920951E+02  0.69520299303E+02  0.75955654972E+02  0.00000000000E+00 0.  1.
         21    1    1    2  503  502 -0.16600777011E+03 -0.27155297501E+03 -0.17268010203E+02  0.31874406998E+03  0.00000000000E+00 0. -1.
          2    1    1    2  501    0 -0.12648835557E+03  0.14871719058E+03  0.33888927742E+03  0.39110362977E+03  0.00000000000E+00 0. -1.
<scales pt_clust_5="13000.00000" pt_clust_6="13000.00000" pt_clust_7="13000.00000" pt_clust_8="13000.00000" pt_clust_9="281.46127" pt_clust_10="222.19509"></scales>
<clustering>
<clus scale="   79.995">  5  6 -1 -1</clus>
<clus scale="   98.657">  7  8 -1 -1</clus>
<clus scale="  120.619">  1  5  2 -1</clus>
<clus scale="  222.195">  2 10  1 -1</clus>
<clus scale="  281.461">  2  9  1 -1</clus>
<clus scale="  222.195">  2  5  1 -1</clus>
</clustering>
</event>
<event>
10    3  0.5078224E-005  0.1854143E+03  0.7546771E-02  0.1164427E+00
         21   -1    0    0  503  502  0.00000000000E+00  0.00000000000E+00  0.30778077253E+03  0.30778077253E+03  0.00000000000E+00 0.  1.
         -4   -1    0    0    0  501 -0.00000000000E+00 -0.00000000000E+00 -0.37206646127E+03  0.37206646127E+03  0.00000000000E+00 0.  1.
         23    2    1    2    0    0  0.24009798026E+02  0.17093050365E+03 -0.11581853991E+03  0.22884851316E+03  0.95728785152E+02 0.  0.
        -24    2    1    2    0    0  0.14077650982E+03 -0.12213943210E+03  0.73258291276E+02  0.21580854250E+03  0.80439313685E+02 0.  0.
         11    1    4    4    0    0  0.76494134739E+01 -0.46254726136E+02  0.22967268210E+01  0.46939196526E+02  0.00000000000E+00 0. -1.
        -12    1    4    4    0    0  0.13312709635E+03 -0.75884705960E+02  0.70961564455E+02  0.16886934598E+03  0.00000000000E+00 0.  1.
        -11    1    3    3    0    0  0.47453689864E+02  0.34163050075E+02 -0.30392422228E+02  0.65898907434E+02  0.00000000000E+00 0.  1.
         11    1    3    3    0    0 -0.23443891838E+02  0.13676745357E+03 -0.85426117685E+02  0.16294960572E+03  0.00000000000E+00 0. -1.
         21    1    1    2  503  501 -0.32400867309E+02 -0.38291217570E+02  0.60811989955E+02  0.78829763844E+02  0.00000000000E+00 0. -1.
         -3    1    1    2    0  502 -0.13238544054E+03 -0.10499853984E+02 -0.82537430058E+02  0.15636041430E+03  0.00000000000E+00 0.  1.
<scales pt_clust_5="13000.00000" pt_clust_6="13000.00000" pt_clust_7="13000.00000" pt_clust_8="13000.00000" pt_clust_9="50.16008" pt_clust_10="138.39130"></scales>
<clustering>
<clus scale="   50.160">  1  9  2 -1</clus>
<clus scale="   80.439">  5  6 -1 -1</clus>
<clus scale="   95.729">  7  8 -1 -1</clus>
<clus scale="  138.391">  1 10  2 -1</clus>
<clus scale="  178.003">  1  5  2 -1</clus>
<clus scale="   50.160">  1  5  2 -1</clus>
</clustering>
</event>
<event>
10    3  0.5078224E-005  0.2426059E+03  0.7546771E-02  0.1118814E+00
         21   -1    0    0  503  502  0.00000000000E+00  0.00000000000E+00  0.95254953019E+02  0.95254953019E+02  0.00000000000E+00 0. -1.
         -2   -1    0    0    0  501 -0.00000000000E+00 -0.00000000000E+00 -0.14253615558E+04  0.14253615558E+04  0.00000000000E+00 0.  1.
         23    2    1    2    0    0  0.21961120457E+03  0.10177682478E+03 -0.59557438111E+03  0.64945165072E+03  0.92146622015E+02 0.  0.
        -24    2    1    2    0    0 -0.16983209531E+03 -0.84998223022E+02 -0.14774492524E+03  0.25343401885E+03  0.79577637942E+02 0.  0.
         11    1    4    4    0    0 -0.17412321839E+03 -0.86465114043E+02 -0.12703827203E+03  0.23223658990E+03  0.00000000000E+00 0. -1.
        -12    1    4    4    0    0  0.42911230848E+01  0.14668910202E+01 -0.20706653210E+02  0.21197428942E+02  0.00000000000E+00 0.  1.
        -11    1    3    3    0    0  0.18830084825E+03  0.11557738351E+03 -0.54788816189E+03  0.59075949334E+03  0.00000000000E+00 0.  1.
         11    1    3    3    0    0  0.31310356322E+02 -0.13800558730E+02 -0.47686219224E+02  0.58692157382E+02  0.00000000000E+00 0. -1.
         21    1    1    2  503  501 -0.14111679399E+02  0.43717129558E+02 -0.26447785604E+02  0.53007662423E+02  0.00000000000E+00 0.  1.
         -1    1    1    2    0  502 -0.35667429861E+02 -0.60495731316E+02 -0.56033951083E+03  0.56472317684E+03  0.00000000000E+00 0.  1.
<scales pt_clust_5="13000.00000" pt_clust_6="13000.00000" pt_clust_7="13000.00000" pt_clust_8="13000.00000" pt_clust_9="45.93829" pt_clust_10="69.41831"></scales>
<clustering>
<clus scale="   45.938">  1  9  2 -1</clus>
<clus scale="   69.418">  1 10  2 -1</clus>
<clus scale="   79.578">  5  6 -1 -1</clus>
<clus scale="   92.147">  7  8 -1 -1</clus>
<clus scale="  238.116">  1  5  2 -1</clus>
<clus scale="   45.938">  1  5  2 -1</clus>
</clustering>
</event>
<event>
10    3  0.5078224E-005  0.9814253E+02  0.7546771E-02  0.1285397E+00
         21   -1    0    0  503  502  0.00000000000E+00  0.00000000000E+00  0.67460159275E+02  0.67460159275E+02  0.00000000000E+00 0.  1.
          1   -1    0    0  502    0 -0.00000000000E+00 -0.00000000000E+00 -0.83520388488E+03  0.83520388488E+03  0.00000000000E+00 0. -1.
        -24    2    1    2    0    0 -0.18541405174E+02  0.37410718940E+02 -0.44117672560E+03  0.45129555223E+03  0.85366425832E+02 0.  0.
         23    2    1    2    0    0  0.82630167159E+02 -0.10029778055E+02 -0.12157316949E+03  0.17147494056E+03  0.87722737799E+02 0.  0.
         13    1    3    3    0    0 -0.31268981425E+02  0.58853280745E+02 -0.36802996864E+03  0.37401539497E+03  0.00000000000E+00 0. -1.
        -14    1    3    3    0    0  0.12727576251E+02 -0.21442561805E+02 -0.73146756952E+02  0.77280157263E+02  0.00000000000E+00 0.  1.
        -13    1    4    4    0    0 -0.12361208641E+02 -0.19598669254E+02 -0.38426331315E+02  0.44871931693E+02  0.00000000000E+00 0. -1.
         13    1    4    4    0    0  0.94991375800E+02  0.95688911984E+01 -0.83146838177E+02  0.12660300887E+03  0.00000000000E+00 0.  1.
         21    1    1    2  503  501 -0.34051743282E+01  0.46564991563E+02  0.70997076341E+01  0.47226046838E+02  0.00000000000E+00 0. -1.
          2    1    1    2  501    0 -0.60683587658E+02 -0.73945932448E+02 -0.21209353815E+03  0.23266750453E+03  0.00000000000E+00 0. -1.
<scales pt_clust_5="13000.00000" pt_clust_6="13000.00000" pt_clust_7="13000.00000" pt_clust_8="13000.00000" pt_clust_9="46.68933" pt_clust_10="87.40747"></scales>
<clustering>
<clus scale="   46.689">  1  9  2 -1</clus>
<clus scale="   85.366">  5  6 -1 -1</clus>
<clus scale="   87.407">  1 10  2 -1</clus>
<clus scale="   87.723">  7  8 -1 -1</clus>
<clus scale="   96.042">  2  5  1 -1</clus>
<clus scale="   46.689">  1  5  2 -1</clus>
</clustering>
</event>
<event>
10    3  0.5078224E-005  0.1507075E+03  0.7546771E-02  0.1227765E+00
          1   -1    0    0  503    0 -0.00000000000E+00  0.00000000000E+00  0.56295498888E+03  0.56295498888E+03  0.00000000000E+00 0. -1.
         21   -1    0    0  501  502  0.00000000000E+00 -0.00000000000E+00 -0.10064666543E+03  0.10064666543E+03  0.00000000000E+00 0. -1.
        -24    2    1    2    0    0  0.21322851987E+02 -0.20676242145E+02  0.24277416758E+03  0.25662295862E+03  0.77678024211E+02 0.  0.
         23    2    1    2    0    0 -0.36942738187E+02 -0.12103250782E+03  0.17153050521E+03  0.23107819589E+03  0.89223228734E+02 0.  0.
         13    1    3    3    0    0 -0.19267437666E+02 -0.25684863505E+02  0.17122702331E+03  0.17421148033E+03  0.00000000000E+00 0. -1.
        -14    1    3    3    0    0  0.40590289653E+02  0.50086213600E+01  0.71547144266E+02  0.82411478295E+02  0.00000000000E+00 0.  1.
        -13    1    4    4    0    0 -0.64925483795E+02 -0.96454142718E+02  0.11620598926E+03  0.16438537658E+03  0.00000000000E+00 0. -1.
         13    1    4    4    0    0  0.27982745608E+02 -0.24578365102E+02  0.55324515951E+02  0.66692819314E+02  0.00000000000E+00 0.  1.
         21    1    1    2  503  502 -0.44766819664E+01  0.10377196013E+03 -0.93168288251E+01  0.10428549128E+03  0.00000000000E+00 0. -1.
          2    1    1    2  501    0  0.20096568167E+02  0.37936789833E+02  0.57320479493E+02  0.71615008512E+02  0.00000000000E+00 0. -1.
<scales pt_clust_5="13000.00000" pt_clust_6="13000.00000" pt_clust_7="13000.00000" pt_clust_8="13000.00000" pt_clust_9="121.45761" pt_clust_10="42.93104"></scales>
<clustering>
<clus scale="   42.931">  2 10  1 -1</clus>
<clus scale="   77.678">  5  6 -1 -1</clus>
<clus scale="   82.906">  1  5  2 -1</clus>
<clus scale="   89.223">  7  8 -1 -1</clus>
<clus scale="  121.458">  2  9  1 -1</clus>
<clus scale="   42.931">  2  5  1 -1</clus>
</clustering>
</event>
<event>
10    3  0.5078224E-005  0.1678147E+03  0.7546771E-02  0.1182037E+00
          1   -1    0    0  502    0 -0.00000000000E+00  0.00000000000E+00  0.35748281882E+03  0.35748281882E+03  0.00000000000E+00 0. -1.
         21   -1    0    0  503  502  0.00000000000E+00 -0.00000000000E+00 -0.29511455194E+03  0.29511455194E+03  0.00000000000E+00 0.  1.
        -24    2    1    2    0    0  0.10760449163E+03  0.14162012521E+03  0.16824460837E+03  0.25736770131E+03  0.79353002124E+02 0.  0.
         23    2    1    2    0    0  0.34466110513E+02 -0.12064190707E+03  0.50063172317E+02  0.16381997602E+03  0.92672977758E+02 0.  0.
         11    1    3    3    0    0  0.41977286674E+02  0.11373459284E+03  0.12417379529E+03  0.17354187288E+03  0.00000000000E+00 0. -1.
        -12    1    3    3    0    0  0.65627204957E+02  0.27885532366E+02  0.44070813082E+02  0.83825828428E+02  0.00000000000E+00 0.  1.
        -13    1    4    4    0    0  0.26286781949E+02 -0.57905108526E+02  0.72733269432E+02  0.96613275386E+02  0.00000000000E+00 0. -1.
         13    1    4    4    0    0  0.81793285639E+01 -0.62736798546E+02 -0.22670097114E+02  0.67206700639E+02  0.00000000000E+00 0.  1.
         21    1    1    2  503  501 -0.37257545887E+02 -0.70781412556E+00 -0.10825443679E+03  0.11448864053E+03  0.00000000000E+00 0.  1.
          2    1    1    2  501    0 -0.10481305626E+03 -0.20270404013E+02 -0.47685077011E+02  0.11692105290E+03  0.00000000000E+00 0. -1.
<scales pt_clust_5="13000.00000" pt_clust_6="13000.00000" pt_clust_7="13000.00000" pt_clust_8="13000.00000" pt_clust_9="37.26427" pt_clust_10="123.23348"></scales>
<clustering>
<clus scale="   37.264">  2  9  1 -1</clus>
<clus scale="   79.353">  5  6 -1 -1</clus>
<clus scale="   92.673">  7  8 -1 -1</clus>
<clus scale="  123.233">  2 10  1 -1</clus>
<clus scale="  160.843">  1  5  2 -1</clus>
<clus scale="   37.264">  2  5  1 -1</clus>
</clustering>
</event>
<event>
10    3  0.5078224E-005  0.1214168E+03  0.7546771E-02  0.1251428E+00
          1   -1    0    0  503    0 -0.00000000000E+00  0.00000000000E+00  0.76391474592E+03  0.76391474592E+03  0.00000000000E+00 0. -1.
         21   -1    0    0  501  502  0.00000000000E+00 -0.00000000000E+00 -0.48739172653E+02  0.48739172653E+02  0.00000000000E+00 0. -1.
         23    2    1    2    0    0 -0.11918849649E+02 -0.34820105408E+02  0.83597079034E+02  0.12874369418E+03  0.90730195920E+02 0.  0.
        -24    2    1    2    0    0 -0.65478958132E+02  0.45328362623E+01  0.32026359882E+03  0.33685308028E+03  0.81198426111E+02 0.  0.
         13    1    4    4    0    0 -0.59237701671E+02  0.33169197501E+01  0.32406059368E+03  0.32944707561E+03  0.00000000000E+00 0. -1.
        -14    1    4    4    0    0 -0.62412564611E+01  0.12159165121E+01 -0.37969948576E+01  0.74060046669E+01  0.00000000000E+00 0.  1.
        -11    1    3    3    0    0 -0.37321454931E+02 -0.93458849416E+01  0.81508015490E+00  0.38482475481E+02  0.00000000000E+00 0. -1.
         11    1    3    3    0    0  0.25402605281E+02 -0.25474220467E+02  0.82781998879E+02  0.90261218704E+02  0.00000000000E+00 0.  1.
         21    1    1    2  503  502 -0.33569362654E+02  0.23720151791E+02  0.66350912458E+02  0.78051209433E+02  0.00000000000E+00 0. -1.
          2    1    1    2  501    0  0.11096717044E+03  0.65671173553E+01  0.24496398295E+03  0.26900593467E+03  0.00000000000E+00 0. -1.
<scales pt_clust_5="13000.00000" pt_clust_6="13000.00000" pt_clust_7="13000.00000" pt_clust_8="13000.00000" pt_clust_9="41.10411" pt_clust_10="90.27096"></scales>
<clustering>
<clus scale="   41.104">  2  9  1 -1</clus>
<clus scale="   81.198">  5  6 -1 -1</clus>
<clus scale="   90.730">  7  8 -1 -1</clus>
<clus scale="   98.012">  1  7  2 -1</clus>
<clus scale="   90.271">  2 10  1 -1</clus>
<clus scale="   41.104">  2  5  1 -1</clus>
</clustering>
</event>
<event>
10    3  0.5078224E-005  0.2794454E+03  0.7546771E-02  0.1126648E+00
         21   -1    0    0  501  502  0.00000000000E+00  0.00000000000E+00  0.35294864750E+03  0.35294864750E+03  0.00000000000E+00 0. -1.
          1   -1    0    0  503    0 -0.00000000000E+00 -0.00000000000E+00 -0.75392986515E+03  0.75392986515E+03  0.00000000000E+00 0. -1.
        -24    2    1    2    0    0 -0.53734175892E+02 -0.80786445663E+02  0.14724438191E+02  0.12516156550E+03  0.77683955463E+02 0.  0.
         23    2    1    2    0    0  0.82181577738E+02 -0.20328707127E+03 -0.32869677679E+03  0.40547691661E+03  0.91052258430E+02 0.  0.
         11    1    3    3    0    0 -0.52882340639E+02 -0.90553310190E+02  0.28113285346E+02  0.10856703344E+03  0.00000000000E+00 0. -1.
        -12    1    3    3    0    0 -0.85183525278E+00  0.97668645265E+01 -0.13388847155E+02  0.16594532055E+02  0.00000000000E+00 0.  1.
        -13    1    4    4    0    0  0.84382672105E+02 -0.14019892153E+03 -0.28522334811E+03  0.32882903044E+03  0.00000000000E+00 0. -1.
         13    1    4    4    0    0 -0.22010943667E+01 -0.63088149737E+02 -0.43473428684E+02  0.76647886176E+02  0.00000000000E+00 0.  1.
         21    1    1    2  503  502  0.13243373955E+02 -0.22980290690E+02  0.17098301608E+03  0.17302795295E+03  0.00000000000E+00 0. -1.
          2    1    1    2  501    0 -0.41690775802E+02  0.30705380762E+03 -0.25799189512E+03  0.40321207759E+03  0.00000000000E+00 0. -1.
<scales pt_clust_5="13000.00000" pt_clust_6="13000.00000" pt_clust_7="13000.00000" pt_clust_8="13000.00000" pt_clust_9="26.52321" pt_clust_10="264.19537"></scales>
<clustering>
<clus scale="   26.523">  1  9  2 -1</clus>
<clus scale="   77.684">  5  6 -1 -1</clus>
<clus scale="   91.052">  7  8 -1 -1</clus>
<clus scale="  128.214">  2  5  1 -1</clus>
<clus scale="  264.195">  1 10  2 -1</clus>
<clus scale="   26.523">  1  5  2 -1</clus>
</clustering>
</event>
<event>
10    3  0.5078224E-005  0.3358620E+03  0.7546771E-02  0.1068572E+00
          1   -1    0    0  502    0 -0.00000000000E+00  0.00000000000E+00  0.56578643499E+03  0.56578643499E+03  0.00000000000E+00 0. -1.
         21   -1    0    0  503  502  0.00000000000E+00 -0.00000000000E+00 -0.23267629121E+03  0.23267629121E+03  0.00000000000E+00 0. -1.
        -24    2    1    2    0    0 -0.13243043316E+03 -0.11684428604E+03  0.16148876803E+03  0.25259632824E+03  0.80844765017E+02 0.  0.
         23    2    1    2    0    0 -0.10810037551E+03 -0.44471023792E+02  0.17500787503E+03  0.22925153582E+03  0.90912855032E+02 0.  0.
         13    1    3    3    0    0 -0.30303476655E+02 -0.54254125642E+02  0.16050848396E+02  0.64182868281E+02  0.00000000000E+00 0. -1.
        -14    1    3    3    0    0 -0.10212695651E+03 -0.62590160393E+02  0.14543791964E+03  0.18841345996E+03  0.00000000000E+00 0.  1.
        -11    1    4    4    0    0 -0.82797576946E+02 -0.49802110421E+01  0.52733887058E+02  0.98290915625E+02  0.00000000000E+00 0.  1.
         11    1    4    4    0    0 -0.25302798567E+02 -0.39490812749E+02  0.12227398798E+03  0.13096062020E+03  0.00000000000E+00 0. -1.
         21    1    1    2  503  501  0.34279924276E+02 -0.65111135774E+00 -0.39038734290E+02  0.51957289472E+02  0.00000000000E+00 0.  1.
          2    1    1    2  501    0  0.20625088440E+03  0.16196642118E+03  0.35652235006E+02  0.26465757266E+03  0.00000000000E+00 0. -1.
<scales pt_clust_5="13000.00000" pt_clust_6="13000.00000" pt_clust_7="13000.00000" pt_clust_8="13000.00000" pt_clust_9="34.28611" pt_clust_10="278.80750"></scales>
<clustering>
<clus scale="   34.286">  2  9  1 -1</clus>
<clus scale="   80.845">  5  6 -1 -1</clus>
<clus scale="   90.913">  7  8 -1 -1</clus>
<clus scale="  106.352">  5  7 -1 -1</clus>
<clus scale="  278.807">  2 10  1 -1</clus>
<clus scale="   34.286">  2  5  1 -1</clus>
</clustering>
</event>
<event>
10    3  0.5078224E-005  0.1097301E+03  0.7546771E-02  0.1263987E+00
         21   -1    0    0  501  502  0.00000000000E+00  0.00000000000E+00  0.34625705100E+03  0.34625705100E+03  0.00000000000E+00 0.  1.
          1   -1    0    0  503    0 -0.00000000000E+00 -0.00000000000E+00 -0.79327390885E+03  0.79327390885E+03  0.00000000000E+00 0. -1.
         23    2    1    2    0    0 -0.39740211506E+02  0.45564196850E+02 -0.21542152602E+03  0.24124965257E+03  0.90219623964E+02 0.  0.
        -24    2    1    2    0    0  0.93584549528E+02  0.24335403233E+02 -0.15069833068E+03  0.19723261194E+03  0.82706931892E+02 0.  0.
         13    1    4    4    0    0  0.27029896302E+02  0.85711223504E+01 -0.11811616849E+03  0.12147225483E+03  0.00000000000E+00 0. -1.
        -14    1    4    4    0    0  0.66554653225E+02  0.15764280883E+02 -0.32582162183E+02  0.75760357115E+02  0.00000000000E+00 0.  1.
        -13    1    3    3    0    0 -0.40353915690E+02 -0.77580775610E+01 -0.15638991404E+03  0.16169858222E+03  0.00000000000E+00 0.  1.
         13    1    3    3    0    0  0.61370418388E+00  0.53322274411E+02 -0.59031611987E+02  0.79551070358E+02  0.00000000000E+00 0. -1.
         21    1    1    2  503  502  0.37334206333E+02 -0.90461103522E+02  0.29650872128E+03  0.31224105433E+03  0.00000000000E+00 0.  1.
          2    1    1    2  501    0 -0.91178544355E+02  0.20561503438E+02 -0.37740572243E+03  0.38880764100E+03  0.00000000000E+00 0. -1.
<scales pt_clust_5="13000.00000" pt_clust_6="13000.00000" pt_clust_7="13000.00000" pt_clust_8="13000.00000" pt_clust_9="84.53396" pt_clust_10="93.46824"></scales>
<clustering>
<clus scale="   82.707">  5  6 -1 -1</clus>
<clus scale="   90.220">  7  8 -1 -1</clus>
<clus scale="   93.468">  1 10  2 -1</clus>
<clus scale="   84.534">  1  9  2 -1</clus>
<clus scale="  103.641">  1  5  2 -1</clus>
<clus scale="   93.468">  1  5  2 -1</clus>
</clustering>
</event>
<event>
10    3  0.5078224E-005  0.2007837E+03  0.7546771E-02  0.1149784E+00
          1   -1    0    0  503    0 -0.00000000000E+00  0.00000000000E+00  0.31076812953E+03  0.31076812953E+03  0.00000000000E+00 0. -1.
         21   -1    0    0  501  502  0.00000000000E+00 -0.00000000000E+00 -0.21569853779E+03  0.21569853779E+03  0.00000000000E+00 0.  1.
        -24    2    1    2    0    0  0.15140702266E+03 -0.78410469874E+02  0.13255030062E+03  0.23172061917E+03  0.83979609784E+02 0.  0.
         23    2    1    2    0    0 -0.18106638135E+03  0.87391439683E+02 -0.44231681576E+02  0.22529198995E+03  0.91529999993E+02 0.  0.
         11    1    3    3    0    0  0.13140756960E+03 -0.78336086866E+02  0.74183836169E+02  0.17002274378E+03  0.00000000000E+00 0. -1.
        -12    1    3    3    0    0  0.19999453054E+02 -0.74383007272E-01  0.58366464447E+02  0.61697875387E+02  0.00000000000E+00 0.  1.
        -11    1    4    4    0    0 -0.79823456342E+02  0.70130709549E+02 -0.58992730599E+02  0.12153288801E+03  0.00000000000E+00 0. -1.
         11    1    4    4    0    0 -0.10124292500E+03  0.17260730134E+02  0.14761049023E+02  0.10375910194E+03  0.00000000000E+00 0.  1.
         21    1    1    2  503  502  0.33134334347E+02 -0.31867623718E+02  0.41299508147E+01  0.46157188473E+02  0.00000000000E+00 0.  1.
          2    1    1    2  501    0 -0.34749756584E+01  0.22886653908E+02  0.26210218823E+01  0.23296869718E+02  0.00000000000E+00 0. -1.
<scales pt_clust_5="13000.00000" pt_clust_6="13000.00000" pt_clust_7="13000.00000" pt_clust_8="13000.00000" pt_clust_9="44.11594" pt_clust_10="23.14896"></scales>
<clustering>
<clus scale="   23.149">  2 10  1 -1</clus>
<clus scale="   44.116">  2  9  1 -1</clus>
<clus scale="   83.980">  5  6 -1 -1</clus>
<clus scale="   91.530">  7  8 -1 -1</clus>
<clus scale="  197.456">  1  5  2 -1</clus>
<clus scale="   23.149">  2  5  1 -1</clus>
</clustering>
</event>
<event>
10    3  0.5078224E-005  0.3090927E+03  0.7546771E-02  0.1099366E+00
          1   -1    0    0  503    0 -0.00000000000E+00  0.00000000000E+00  0.25102514650E+04  0.25102514650E+04  0.00000000000E+00 0. -1.
         21   -1    0    0  501  502  0.00000000000E+00 -0.00000000000E+00 -0.11360029977E+03  0.11360029977E+03  0.00000000000E+00 0. -1.
        -24    2    1    2    0    0 -0.24820755302E+02 -0.17138386823E+03  0.95163427434E+03  0.97076254671E+03  0.82362793844E+02 0.  0.
         23    2    1    2    0    0  0.29216236325E+03  0.18554726991E+03  0.77783992280E+03  0.85643942394E+03  0.93096216350E+02 0.  0.
         13    1    3    3    0    0 -0.80651249838E+01 -0.15261781815E+03  0.63509089889E+03  0.65322101505E+03  0.00000000000E+00 0. -1.
        -14    1    3    3    0    0 -0.16755630318E+02 -0.18766050080E+02  0.31654337545E+03  0.31754153166E+03  0.00000000000E+00 0.  1.
        -13    1    4    4    0    0  0.18494198901E+03  0.88663727495E+02  0.54599943087E+03  0.58324966728E+03  0.00000000000E+00 0.  1.
         13    1    4    4    0    0  0.10722037424E+03  0.96883542416E+02  0.23184049193E+03  0.27318975666E+03  0.00000000000E+00 0. -1.
         21    1    1    2  503  502 -0.86309404565E+01  0.23671782728E+02 -0.37415966248E+02  0.45108768116E+02  0.00000000000E+00 0.  1.
          2    1    1    2  501    0 -0.25871066749E+03 -0.37835184413E+02  0.70459293431E+03  0.75154102599E+03  0.00000000000E+00 0. -1.
<scales pt_clust_5="13000.00000" pt_clust_6="13000.00000" pt_clust_7="13000.00000" pt_clust_8="13000.00000" pt_clust_9="25.19616" pt_clust_10="294.73956"></scales>
<clustering>
<clus scale="   25.196">  2  9  1 -1</clus>
<clus scale="   82.363">  5  6 -1 -1</clus>
<clus scale="   93.096">  7  8 -1 -1</clus>
<clus scale="  189.122">  1  5  2 -1</clus>
<clus scale="  294.740">  2 10  1 -1</clus>
<clus scale="   25.196">  2  5  1 -1</clus>
</clustering>
</event>
<event>
10    3  0.5078224E-005  0.2144681E+03  0.7546771E-02  0.1167979E+00
         21   -1    0    0  503  502  0.00000000000E+00  0.00000000000E+00  0.52556188741E+03  0.52556188741E+03  0.00000000000E+00 0. -1.
          1   -1    0    0  502    0 -0.00000000000E+00 -0.00000000000E+00 -0.47147148665E+03  0.47147148665E+03  0.00000000000E+00 0. -1.
        -24    2    1    2    0    0 -0.48035246230E+02 -0.54075865168E+02 -0.18519997154E+03  0.21413675798E+03  0.79523188966E+02 0.  0.
         23    2    1    2    0    0  0.59013178025E+02 -0.16023085610E+03  0.60953845426E+02  0.20341275084E+03  0.92221979520E+02 0.  0.
         13    1    3    3    0    0  0.15448969272E+02 -0.26820238578E+02 -0.98662621155E+02  0.10340362016E+03  0.00000000000E+00 0. -1.
        -14    1    3    3    0    0 -0.63484215502E+02 -0.27255626590E+02 -0.86537350387E+02  0.11073313782E+03  0.00000000000E+00 0.  1.
        -11    1    4    4    0    0  0.20267727535E+02 -0.21353595946E+02  0.51001383046E+02  0.58888860677E+02  0.00000000000E+00 0.  1.
         11    1    4    4    0    0  0.38745450489E+02 -0.13887726015E+03  0.99524623800E+01  0.14452389016E+03  0.00000000000E+00 0. -1.
         21    1    1    2  503  501  0.51553558940E+02 -0.84214879298E+00  0.31357151147E+03  0.31778227052E+03  0.00000000000E+00 0. -1.
          2    1    1    2  501    0 -0.62531490734E+02  0.21514887006E+03 -0.13523498459E+03  0.26170159472E+03  0.00000000000E+00 0. -1.
<scales pt_clust_5="13000.00000" pt_clust_6="13000.00000" pt_clust_7="13000.00000" pt_clust_8="13000.00000" pt_clust_9="51.56044" pt_clust_10="193.62781"></scales>
<clustering>
<clus scale="   51.560">  1  9  2 -1</clus>
<clus scale="   79.523">  5  6 -1 -1</clus>
<clus scale="   92.222">  7  8 -1 -1</clus>
<clus scale="  105.986">  2  5  1 -1</clus>
<clus scale="  193.628">  1 10  2 -1</clus>
<clus scale="   51.560">  1  5  2 -1</clus>
</clustering>
</event>
<event>
10    3  0.5078224E-005  0.1173272E+03  0.7546771E-02  0.1251157E+00
         21   -1    0    0  501  502  0.00000000000E+00  0.00000000000E+00  0.36015102125E+02  0.36015102125E+02  0.00000000000E+00 0. -1.
          1   -1    0    0  503    0 -0.00000000000E+00 -0.00000000000E+00 -0.89851238568E+03  0.89851238568E+03  0.00000000000E+00 0. -1.
         23    2    1    2    0    0  0.38023833195E+02  0.21337769234E+02 -0.26130361252E+03  0.27999570472E+03  0.90647142598E+02 0.  0.
        -24    2    1    2    0    0 -0.58137847454E+02 -0.10028338296E+03 -0.43883223281E+03  0.46085648403E+03  0.79863659514E+02 0.  0.
         11    1    4    4    0    0 -0.28117245542E+02 -0.33045038484E+02 -0.55148286597E+02  0.70170418125E+02  0.00000000000E+00 0. -1.
        -12    1    4    4    0    0 -0.30020601912E+02 -0.67238344474E+02 -0.38368394622E+03  0.39068606590E+03  0.00000000000E+00 0.  1.
        -13    1    3    3    0    0 -0.29275655958E+02  0.14396187520E+02 -0.75026325847E+02  0.81812369585E+02  0.00000000000E+00 0.  1.
         13    1    3    3    0    0  0.67299489153E+02  0.69415817138E+01 -0.18627728667E+03  0.19818333514E+03  0.00000000000E+00 0. -1.
         21    1    1    2  503  502  0.19921043608E+02  0.42091306227E+02 -0.27969281015E+02  0.54321328397E+02  0.00000000000E+00 0. -1.
          2    1    1    2  501    0  0.19297065156E+00  0.36854307497E+02 -0.13439215721E+03  0.13935397066E+03  0.00000000000E+00 0. -1.
<scales pt_clust_5="13000.00000" pt_clust_6="13000.00000" pt_clust_7="13000.00000" pt_clust_8="13000.00000" pt_clust_9="60.00207" pt_clust_10="36.85483"></scales>
<clustering>
<clus scale="   36.855">  1 10  2 -1</clus>
<clus scale="   60.002">  1  9  2 -1</clus>
<clus scale="   79.864">  5  6 -1 -1</clus>
<clus scale="   90.647">  7  8 -1 -1</clus>
<clus scale="  109.211">  1  5  2 -1</clus>
<clus scale="   36.855">  1  5  2 -1</clus>
</clustering>
</event>
<event>
10    3  0.5078224E-005  0.3181669E+03  0.7546771E-02  0.1076496E+00
          1   -1    0    0  503    0 -0.00000000000E+00  0.00000000000E+00  0.31528755274E+03  0.31528755274E+03  0.00000000000E+00 0. -1.
         21   -1    0    0  501  502  0.00000000000E+00 -0.00000000000E+00 -0.64522506821E+03  0.64522506821E+03  0.00000000000E+00 0. -1.
        -24    2    1    2    0    0 -0.19153229642E+03  0.16681728997E+03 -0.27370604136E+03  0.38205126192E+03  0.80842692013E+02 0.  0.
         23    2    1    2    0    0 -0.56682420212E+02  0.51458844476E+02 -0.52849033653E+02  0.13066044012E+03  0.91750862760E+02 0.  0.
         11    1    3    3    0    0 -0.17155576402E+03  0.12176389877E+03 -0.25180283549E+03  0.32811963546E+03  0.00000000000E+00 0. -1.
        -12    1    3    3    0    0 -0.19976532403E+02  0.45053391200E+02 -0.21903205869E+02  0.53931626461E+02  0.00000000000E+00 0.  1.
        -11    1    4    4    0    0 -0.43737138833E+02  0.78028525828E+02 -0.34504419105E+02  0.95874621741E+02  0.00000000000E+00 0. -1.
         11    1    4    4    0    0 -0.12945281379E+02 -0.26569681351E+02 -0.18344614548E+02  0.34785818375E+02  0.00000000000E+00 0.  1.
         21    1    1    2  503  502  0.21290117778E+03 -0.14799670703E+02 -0.79442920954E+02  0.22772158318E+03  0.00000000000E+00 0. -1.
          2    1    1    2  501    0  0.35313538853E+02 -0.20347646374E+03  0.76060480494E+02  0.22007933573E+03  0.00000000000E+00 0. -1.
<scales pt_clust_5="13000.00000" pt_clust_6="13000.00000" pt_clust_7="13000.00000" pt_clust_8="13000.00000" pt_clust_9="232.91649" pt_clust_10="206.51818"></scales>
<clustering>
<clus scale="   80.843">  5  6 -1 -1</clus>
<clus scale="   91.751">  7  8 -1 -1</clus>
<clus scale="   98.286">  5  7 -1 -1</clus>
<clus scale="  206.518">  2 10  1 -1</clus>
<clus scale="  232.916">  1  9  2 -1</clus>
<clus scale="  206.518">  2  5  1 -1</clus>
</clustering>
</event>
<event>
10    3  0.5078224E-005  0.1282302E+03  0.7546771E-02  0.1233402E+00
         21   -1    0    0  503  502  0.00000000000E+00  0.00000000000E+00  0.12074204182E+03  0.12074204182E+03  0.00000000000E+00 0. -1.
          1   -1    0    0  502    0 -0.00000000000E+00 -0.00000000000E+00 -0.71790731122E+03  0.71790731122E+03  0.00000000000E+00 0. -1.
        -24    2    1    2    0    0 -0.97830008153E+02 -0.33428313820E+01 -0.45509370304E+03  0.47245264171E+03  0.80742399622E+02 0.  0.
         23    2    1    2    0    0  0.25180726247E+02 -0.52707074936E+02  0.70558946670E+01  0.10985628936E+03  0.92771299120E+02 0.  0.
         13    1    3    3    0    0 -0.94979830680E+02  0.15947344610E+02 -0.27640801312E+03  0.29270612524E+03  0.00000000000E+00 0. -1.
        -14    1    3    3    0    0 -0.28501774731E+01 -0.19290175992E+02 -0.17868568992E+03  0.17974651647E+03  0.00000000000E+00 0.  1.
        -13    1    4    4    0    0  0.24470605598E+02 -0.13687628928E+00 -0.34877834391E+02  0.42606250777E+02  0.00000000000E+00 0.  1.
         13    1    4    4    0    0  0.71012064960E+00 -0.52570198647E+02  0.41933729058E+02  0.67250038586E+02  0.00000000000E+00 0. -1.
         21    1    1    2  503  501 -0.42600729816E+01  0.53849561106E+02  0.29713659293E+02  0.61650831314E+02  0.00000000000E+00 0. -1.
          2    1    1    2  501    0  0.76909354887E+02  0.22003452121E+01 -0.17884112033E+03  0.19468959065E+03  0.00000000000E+00 0. -1.
<scales pt_clust_5="13000.00000" pt_clust_6="13000.00000" pt_clust_7="13000.00000" pt_clust_8="13000.00000" pt_clust_9="54.01781" pt_clust_10="76.86519"></scales>
<clustering>
<clus scale="   54.018">  1  9  2 -1</clus>
<clus scale="   76.865">  1 10  2 -1</clus>
<clus scale="   80.742">  5  6 -1 -1</clus>
<clus scale="   92.771">  7  8 -1 -1</clus>
<clus scale="  119.816">  2  5  1 -1</clus>
<clus scale="   54.018">  1  5  2 -1</clus>
</clustering>
</event>
<event>
10    3  0.5078224E-005  0.1418727E+03  0.7546771E-02  0.1213676E+00
         21   -1    0    0  501  502  0.00000000000E+00  0.00000000000E+00  0.13920652599E+03  0.13920652599E+03  0.00000000000E+00 0.  1.
         -2   -1    0    0    0  501 -0.00000000000E+00 -0.00000000000E+00 -0.45275235270E+03  0.45275235270E+03  0.00000000000E+00 0.  1.
        -24    2    1    2    0    0 -0.11123483475E+03 -0.69060503752E+02 -0.24367055665E+03  0.28752621770E+03  0.78443891051E+02 0.  0.
         23    2    1    2    0    0  0.49960884292E+00  0.49728083254E+02  0.40601961155E+02  0.11211554831E+03  0.91914335392E+02 0.  0.
         13    1    3    3    0    0 -0.23115213204E+02  0.31222149591E+01 -0.10746278299E+03  0.10996504461E+03  0.00000000000E+00 0. -1.
        -14    1    3    3    0    0 -0.88119621551E+02 -0.72182718711E+02 -0.13620777366E+03  0.17756117308E+03  0.00000000000E+00 0.  1.
        -11    1    4    4    0    0  0.34961499525E+02 -0.87207613488E+01  0.19967507241E+02  0.41195381695E+02  0.00000000000E+00 0.  1.
         11    1    4    4    0    0 -0.34461890682E+02  0.58448844603E+02  0.20634453913E+02  0.70920166618E+02  0.00000000000E+00 0. -1.
         21    1    1    2  503  502  0.42167822678E+02  0.43105178414E+02 -0.19759096006E+00  0.60301083886E+02  0.00000000000E+00 0.  1.
         -1    1    1    2    0  503  0.68567403233E+02 -0.23772757917E+02 -0.11027964025E+03  0.13201602879E+03  0.00000000000E+00 0.  1.
<scales pt_clust_5="13000.00000" pt_clust_6="13000.00000" pt_clust_7="13000.00000" pt_clust_8="13000.00000" pt_clust_9="60.30076" pt_clust_10="75.32855"></scales>
<clustering>
<clus scale="   60.301">  1  9  2 -1</clus>
<clus scale="   75.329">  1 10  2 -1</clus>
<clus scale="   78.444">  5  6 -1 -1</clus>
<clus scale="   91.914">  7  8 -1 -1</clus>
<clus scale="  133.540">  2  5  1 -1</clus>
<clus scale="   60.301">  1  5  2 -1</clus>
</clustering>
</event>
<event>
10    3  0.5078224E-005  0.1720255E+03  0.7546771E-02  0.1202351E+00
         21   -1    0    0  503  502  0.00000000000E+00  0.00000000000E+00  0.56485280936E+03  0.56485280936E+03  0.00000000000E+00 0. -1.
         -2   -1    0    0    0  501 -0.00000000000E+00 -0.00000000000E+00 -0.23638741160E+03  0.23638741160E+03  0.00000000000E+00 0.  1.
         23    2    1    2    0    0 -0.13305307881E+02  0.12335064178E+02 -0.11518381561E+03  0.14961213523E+03  0.93740570739E+02 0.  0.
        -24    2    1    2    0    0  0.52938534606E+02  0.42900003931E+02  0.39919076856E+02  0.11636477609E+03  0.85465370966E+02 0.  0.
         13    1    4    4    0    0  0.50840126998E+02  0.13248078056E+02  0.60561476552E+02  0.80174325862E+02  0.00000000000E+00 0. -1.
        -14    1    4    4    0    0  0.20984076085E+01  0.29651925876E+02 -0.20642399696E+02  0.36190450230E+02  0.00000000000E+00 0.  1.
        -11    1    3    3    0    0 -0.12232684263E+02 -0.35778104156E+02 -0.19583425439E+02  0.42581942807E+02  0.00000000000E+00 0.  1.
         11    1    3    3    0    0 -0.10726236180E+01  0.48113168334E+02 -0.95600390172E+02  0.10703019242E+03  0.00000000000E+00 0. -1.
         21    1    1    2  503  501  0.13199188202E+03 -0.10785184463E+03  0.17218490333E+03  0.24228396200E+03  0.00000000000E+00 0. -1.
         -1    1    1    2    0  502 -0.17162510875E+03  0.52616776522E+02  0.23154523319E+03  0.29297934763E+03  0.00000000000E+00 0.  1.
<scales pt_clust_5="13000.00000" pt_clust_6="13000.00000" pt_clust_7="13000.00000" pt_clust_8="13000.00000" pt_clust_9="13000.00000" pt_clust_10="172.02554"></scales>
<clustering>
<clus scale="   85.465">  5  6 -1 -1</clus>
<clus scale="   93.741">  7  8 -1 -1</clus>
<clus scale="   95.480">  2  7  1 -1</clus>
<clus scale="  108.917">  2  5  1 -1</clus>
<clus scale="  172.026">  1 10  2 -1</clus>
<clus scale="  172.026">  1  5  2 -1</clus>
</clustering>
</event>
<event>
10    3  0.5078224E-005  0.1217701E+03  0.7546771E-02  0.1251439E+00
         21   -1    0    0  501  502  0.00000000000E+00  0.00000000000E+00  0.34999542712E+03  0.34999542712E+03  0.00000000000E+00 0. -1.
          1   -1    0    0  503    0 -0.00000000000E+00 -0.00000000000E+00 -0.39567283829E+03  0.39567283829E+03  0.00000000000E+00 0. -1.
         23    2    1    2    0    0  0.80417638451E+01  0.31438118109E+02 -0.32157032426E+03  0.33591131118E+03  0.91519999436E+02 0.  0.
        -24    2    1    2    0    0 -0.31260108997E+02  0.74179485596E+02  0.33370740846E+02  0.10634055813E+03  0.60950122725E+02 0.  0.
         11    1    4    4    0    0 -0.48196795109E+02  0.46933534006E+02  0.13531289602E+02  0.68620576152E+02  0.00000000000E+00 0. -1.
        -12    1    4    4    0    0  0.16936686112E+02  0.27245951590E+02  0.19839451244E+02  0.37719981974E+02  0.00000000000E+00 0.  1.
        -13    1    3    3    0    0 -0.24018520285E+02  0.46501751952E+02 -0.25687925458E+03  0.26215692569E+03  0.00000000000E+00 0. -1.
         13    1    3    3    0    0  0.32060284130E+02 -0.15063633843E+02 -0.64691069681E+02  0.73754385494E+02  0.00000000000E+00 0.  1.
         21    1    1    2  503  502 -0.41992446661E+02  0.14759942357E+02  0.47041528064E+02  0.64762078700E+02  0.00000000000E+00 0. -1.
          2    1    1    2  501    0  0.65210791813E+02 -0.12037754606E+03  0.19548064418E+03  0.23865431740E+03  0.00000000000E+00 0. -1.
<scales pt_clust_5="13000.00000" pt_clust_6="13000.00000" pt_clust_7="13000.00000" pt_clust_8="13000.00000" pt_clust_9="44.51091" pt_clust_10="105.41839"></scales>
<clustering>
<clus scale="   44.511">  1  9  2 -1</clus>
<clus scale="   60.950">  5  6 -1 -1</clus>
<clus scale="   91.520">  7  8 -1 -1</clus>
<clus scale="   97.140">  2  7  1 -1</clus>
<clus scale="  105.418">  1 10  2 -1</clus>
<clus scale="   44.511">  1  5  2 -1</clus>
</clustering>
</event>
<event>
10    3  0.5078224E-005  0.1514683E+03  0.7546771E-02  0.1203434E+00
         21   -1    0    0  503  502  0.00000000000E+00  0.00000000000E+00  0.99745842038E+02  0.99745842038E+02  0.00000000000E+00 0.  1.
          1   -1    0    0  502    0 -0.00000000000E+00 -0.00000000000E+00 -0.71951391046E+03  0.71951391046E+03  0.00000000000E+00 0. -1.
         23    2    1    2    0    0 -0.91056867676E+02  0.77310297719E+02 -0.24980578250E+03  0.29149386852E+03  0.91090675308E+02 0.  0.
        -24    2    1    2    0    0  0.14004088486E+03 -0.14375894728E+02 -0.86440012454E+02  0.17695671926E+03  0.63432554398E+02 0.  0.
         13    1    4    4    0    0  0.23620667455E+02  0.19510656410E+02 -0.31159287974E+02  0.43697858891E+02  0.00000000000E+00 0. -1.
        -14    1    4    4    0    0  0.11642021740E+03 -0.33886551139E+02 -0.55280724480E+02  0.13325886037E+03  0.00000000000E+00 0.  1.
        -11    1    3    3    0    0 -0.83663372073E+01  0.65786168075E+02 -0.12139556747E+03  0.13832823034E+03  0.00000000000E+00 0. -1.
         11    1    3    3    0    0 -0.82690530469E+02  0.11524129644E+02 -0.12841021503E+03  0.15316563817E+03  0.00000000000E+00 0.  1.
         21    1    1    2  503  501  0.24076130597E+02 -0.31551645948E+02  0.14581932647E+02  0.42282374416E+02  0.00000000000E+00 0.  1.
          2    1    1    2  501    0 -0.73060147776E+02 -0.31382757042E+02 -0.29810420611E+03  0.30852679030E+03  0.00000000000E+00 0. -1.
<scales pt_clust_5="13000.00000" pt_clust_6="13000.00000" pt_clust_7="13000.00000" pt_clust_8="13000.00000" pt_clust_9="39.68837" pt_clust_10="78.85883"></scales>
<clustering>
<clus scale="   39.688">  1  9  2 -1</clus>
<clus scale="   63.433">  5  6 -1 -1</clus>
<clus scale="   78.859">  1 10  2 -1</clus>
<clus scale="   91.091">  7  8 -1 -1</clus>
<clus scale="  136.634">  1  5  2 -1</clus>
<clus scale="   39.688">  1  5  2 -1</clus>
</clustering>
</event>
<event>
10    3  0.5078224E-005  0.1818043E+03  0.7546771E-02  0.1182607E+00
         21   -1    0    0  501  502  0.00000000000E+00  0.00000000000E+00  0.16370643195E+03  0.16370643195E+03  0.00000000000E+00 0.  1.
          1   -1    0    0  503    0 -0.00000000000E+00 -0.00000000000E+00 -0.95061410033E+03  0.95061410033E+03  0.00000000000E+00 0. -1.
         23    2    1    2    0    0 -0.67132232459E+02  0.92887511216E+02  0.44349817882E+01  0.13854481073E+03  0.77718525083E+02 0.  0.
        -24    2    1    2    0    0  0.77739335016E+02  0.12044864139E+03 -0.43041595525E+03  0.46091253981E+03  0.81432152118E+02 0.  0.
         13    1    4    4    0    0  0.80928576118E+02  0.12784868736E+03 -0.42518407141E+03  0.45130501423E+03  0.00000000000E+00 0. -1.
        -14    1    4    4    0    0 -0.31892411017E+01 -0.74000459703E+01 -0.52318838400E+01  0.96075255754E+01  0.00000000000E+00 0.  1.
        -13    1    3    3    0    0 -0.57032637061E+02  0.46406605690E+02  0.35586208824E+02  0.81686430944E+02  0.00000000000E+00 0.  1.
         13    1    3    3    0    0 -0.10099595397E+02  0.46480905526E+02 -0.31151227036E+02  0.56858379783E+02  0.00000000000E+00 0. -1.
         21    1    1    2  503  502  0.10381400592E+02 -0.23909155290E+02  0.53058033573E+02  0.59114939834E+02  0.00000000000E+00 0.  1.
          2    1    1    2  501    0 -0.20988503149E+02 -0.18942699732E+03 -0.41398472850E+03  0.45574824191E+03  0.00000000000E+00 0. -1.
<scales pt_clust_5="13000.00000" pt_clust_6="13000.00000" pt_clust_7="13000.00000" pt_clust_8="13000.00000" pt_clust_9="26.06571" pt_clust_10="162.54736"></scales>
<clustering>
<clus scale="   26.066">  1  9  2 -1</clus>
<clus scale="   77.719">  7  8 -1 -1</clus>
<clus scale="   81.432">  5  6 -1 -1</clus>
<clus scale="  124.893">  2  7  1 -1</clus>
<clus scale="  162.547">  1 10  2 -1</clus>
<clus scale="   26.066">  1  5  2 -1</clus>
</clustering>
</event>
<event>
10    3  0.5078224E-005  0.1408481E+03  0.7546771E-02  0.1227276E+00
         21   -1    0    0  501  502  0.00000000000E+00  0.00000000000E+00  0.95496821355E+02  0.95496821355E+02  0.00000000000E+00 0. -1.
          3   -1    0    0  503    0 -0.00000000000E+00 -0.00000000000E+00 -0.80463341478E+03  0.80463341478E+03  0.00000000000E+00 0. -1.
         23    2    1    2    0    0  0.32268103645E+02 -0.36047021427E+02 -0.61094215790E+02  0.11941055309E+03  0.90475182890E+02 0.  0.
        -24    2    1    2    0    0 -0.64727996235E+02  0.94330778172E+02 -0.27350755462E+03  0.30721957012E+03  0.80557263003E+02 0.  0.
         13    1    4    4    0    0 -0.52801280492E+02  0.14415100765E+02 -0.74587330193E+02  0.92515080808E+02  0.00000000000E+00 0. -1.
        -14    1    4    4    0    0 -0.11926715743E+02  0.79915677407E+02 -0.19892022443E+03  0.21470448931E+03  0.00000000000E+00 0.  1.
        -11    1    3    3    0    0 -0.19343419888E+02 -0.44158488387E+02 -0.17238758947E+02  0.51198777326E+02  0.00000000000E+00 0. -1.
         11    1    3    3    0    0  0.51611523533E+02  0.81114669599E+01 -0.43855456843E+02  0.68211775762E+02  0.00000000000E+00 0.  1.
         21    1    1    2  503  502 -0.10997526609E+03 -0.91516686180E+02 -0.19710917168E+03  0.24356085187E+03  0.00000000000E+00 0. -1.
          4    1    1    2  501    0  0.14243515868E+03  0.33232929435E+02 -0.17742565134E+03  0.22993926106E+03  0.00000000000E+00 0. -1.
<scales pt_clust_5="13000.00000" pt_clust_6="13000.00000" pt_clust_7="13000.00000" pt_clust_8="13000.00000" pt_clust_9="140.84815" pt_clust_10="13000.00000"></scales>
<clustering>
<clus scale="   80.557">  5  6 -1 -1</clus>
<clus scale="   90.475">  7  8 -1 -1</clus>
<clus scale="  102.598">  2  7  1 -1</clus>
<clus scale="  124.507">  2  5  1 -1</clus>
<clus scale="  140.848">  2  9  1 -1</clus>
<clus scale="  140.848">  1  5  2 -1</clus>
</clustering>
</event>
<event>
10    3  0.5078224E-005  0.2625663E+03  0.7546771E-02  0.1134798E+00
         21   -1    0    0  501  502  0.00000000000E+00  0.00000000000E+00  0.61754622037E+03  0.61754622037E+03  0.00000000000E+00 0.  1.
          1   -1    0    0  503    0 -0.00000000000E+00 -0.00000000000E+00 -0.37621845811E+03  0.37621845811E+03  0.00000000000E+00 0. -1.
        -24    2    1    2    0    0  0.70219946318E+02  0.40794713366E+02  0.31582411487E+03  0.33567606484E+03  0.79614693824E+02 0.  0.
         23    2    1    2    0    0 -0.13453387332E+03 -0.26164587338E+03 -0.10724639958E+02  0.30827277281E+03  0.91428433375E+02 0.  0.
         11    1    3    3    0    0  0.43132777776E+02  0.13881488310E+02  0.51448327883E+02  0.68557003131E+02  0.00000000000E+00 0. -1.
        -12    1    3    3    0    0  0.27087168542E+02  0.26913225056E+02  0.26437578699E+03  0.26711906171E+03  0.00000000000E+00 0.  1.
        -13    1    4    4    0    0 -0.89597532353E+01 -0.10929840844E+03 -0.15681510112E+02  0.11078054444E+03  0.00000000000E+00 0.  1.
         13    1    4    4    0    0 -0.12557412009E+03 -0.15234746493E+03  0.49568701540E+01  0.19749222838E+03  0.00000000000E+00 0. -1.
         21    1    1    2  503  502  0.69059453729E+01  0.37357732651E+02  0.93819019490E+02  0.10121907275E+03  0.00000000000E+00 0. -1.
          2    1    1    2  501    0  0.57407981631E+02  0.18349342736E+03 -0.15759073215E+03  0.24859676807E+03  0.00000000000E+00 0. -1.
<scales pt_clust_5="13000.00000" pt_clust_6="13000.00000" pt_clust_7="13000.00000" pt_clust_8="13000.00000" pt_clust_9="37.99069" pt_clust_10="246.13407"></scales>
<clustering>
<clus scale="   37.991">  1  9  2 -1</clus>
<clus scale="   79.615">  5  6 -1 -1</clus>
<clus scale="   91.428">  7  8 -1 -1</clus>
<clus scale="  126.557">  2  5  1 -1</clus>
<clus scale="  246.134">  1 10  2 -1</clus>
<clus scale="   37.991">  1  5  2 -1</clus>
</clustering>
</event>
<event>
10    3  0.5078224E-005  0.1754761E+03  0.7546771E-02  0.1172276E+00
         21   -1    0    0  501  502  0.00000000000E+00  0.00000000000E+00  0.40634117068E+03  0.40634117068E+03  0.00000000000E+00 0.  1.
         -2   -1    0    0    0  501 -0.00000000000E+00 -0.00000000000E+00 -0.31625284199E+03  0.31625284199E+03  0.00000000000E+00 0.  1.
         23    2    1    2    0    0 -0.51716320311E+02 -0.14857768555E+03 -0.92102290540E+02  0.20379917059E+03  0.91111819111E+02 0.  0.
        -24    2    1    2    0    0 -0.11071964845E+03  0.14888719268E+03 -0.68115103801E+02  0.21308259690E+03  0.79613372228E+02 0.  0.
         11    1    4    4    0    0 -0.92480133616E+02  0.82635037207E+02 -0.12441956842E+02  0.12464319788E+03  0.00000000000E+00 0. -1.
        -12    1    4    4    0    0 -0.18239514836E+02  0.66252155477E+02 -0.55673146959E+02  0.88439399020E+02  0.00000000000E+00 0.  1.
        -11    1    3    3    0    0 -0.47898650026E+02 -0.23243275566E+02 -0.10710402983E+02  0.54306935702E+02  0.00000000000E+00 0.  1.
         11    1    3    3    0    0 -0.38176702858E+01 -0.12533440998E+03 -0.81391887557E+02  0.14949223489E+03  0.00000000000E+00 0. -1.
         21    1    1    2  503  502  0.59219810078E+02 -0.51614471612E+00  0.15217629993E+03  0.16329384120E+03  0.00000000000E+00 0.  1.
         -1    1    1    2    0  503  0.10321615869E+03  0.20663758267E+00  0.98129423099E+02  0.14241840397E+03  0.00000000000E+00 0.  1.
<scales pt_clust_5="13000.00000" pt_clust_6="13000.00000" pt_clust_7="13000.00000" pt_clust_8="13000.00000" pt_clust_9="50.36762" pt_clust_10="175.51929"></scales>
<clustering>
<clus scale="   50.368">  9 10 -1 -1</clus>
<clus scale="   79.613">  5  6 -1 -1</clus>
<clus scale="   91.112">  7  8 -1 -1</clus>
<clus scale="  175.519">  1  9  2 -1</clus>
<clus scale="  175.519">  1  5  2 -1</clus>
<clus scale="  175.476">  1  5  2 -1</clus>
</clustering>
</event>
<event>
10    3  0.5078224E-005  0.1168667E+03  0.7546771E-02  0.1252110E+00
          1   -1    0    0  502    0 -0.00000000000E+00  0.00000000000E+00  0.26674447818E+03  0.26674447818E+03  0.00000000000E+00 0. -1.
         21   -1    0    0  503  502  0.00000000000E+00 -0.00000000000E+00 -0.33108835434E+03  0.33108835434E+03  0.00000000000E+00 0. -1.
         23    2    1    2    0    0 -0.25920936257E+01 -0.74180483654E+02  0.16758832076E+03  0.20487027499E+03  0.91523336980E+02 0.  0.
        -24    2    1    2    0    0 -0.19237256155E+02  0.66480641968E+02 -0.37820723434E+02  0.11267520252E+03  0.80470779544E+02 0.  0.
         13    1    4    4    0    0  0.55240096914E+01  0.22797525223E+02 -0.54848254473E+02  0.59653774886E+02  0.00000000000E+00 0. -1.
        -14    1    4    4    0    0 -0.24761265846E+02  0.43683116745E+02  0.17027531039E+02  0.53021427632E+02  0.00000000000E+00 0.  1.
        -13    1    3    3    0    0 -0.19696978974E+02  0.11373535130E+02  0.71740865540E+02  0.75260082849E+02  0.00000000000E+00 0.  1.
         13    1    3    3    0    0  0.17104885349E+02 -0.85554018783E+02  0.95847455224E+02  0.12961019214E+03  0.00000000000E+00 0. -1.
         21    1    1    2  503  501  0.14226229897E+02 -0.26389472946E+02 -0.22898015214E+03  0.23093440621E+03  0.00000000000E+00 0. -1.
          2    1    1    2  501    0  0.76031198839E+01  0.34089314632E+02  0.34868678653E+02  0.49352948798E+02  0.00000000000E+00 0. -1.
<scales pt_clust_5="13000.00000" pt_clust_6="13000.00000" pt_clust_7="13000.00000" pt_clust_8="13000.00000" pt_clust_9="29.97982" pt_clust_10="33.33388"></scales>
<clustering>
<clus scale="   29.980">  2  9  1 -1</clus>
<clus scale="   33.334">  2 10  1 -1</clus>
<clus scale="   80.471">  5  6 -1 -1</clus>
<clus scale="   91.523">  7  8 -1 -1</clus>
<clus scale="  108.429">  2  5  1 -1</clus>
<clus scale="   29.980">  2  5  1 -1</clus>
</clustering>
</event>
<event>
10    3  0.5078224E-005  0.1570973E+03  0.7546771E-02  0.1212999E+00
          1   -1    0    0  502    0 -0.00000000000E+00  0.00000000000E+00  0.48396183938E+03  0.48396183938E+03  0.00000000000E+00 0. -1.
         21   -1    0    0  503  502  0.00000000000E+00 -0.00000000000E+00 -0.19002842200E+03  0.19002842200E+03  0.00000000000E+00 0. -1.
        -24    2    1    2    0    0 -0.58601795751E+02 -0.16716046727E+02  0.26195648113E+03  0.28073944225E+03  0.80497451780E+02 0.  0.
         23    2    1    2    0    0 -0.55884012197E+01 -0.12013492381E+03  0.17219273538E+00  0.14971008397E+03  0.89159685080E+02 0.  0.
         11    1    3    3    0    0 -0.54066210751E+02 -0.46118803421E+02  0.19142744072E+03  0.20419246860E+03  0.00000000000E+00 0. -1.
        -12    1    3    3    0    0 -0.45355849991E+01  0.29402756695E+02  0.70529040412E+02  0.76546973644E+02  0.00000000000E+00 0.  1.
        -11    1    4    4    0    0 -0.60385974893E+01 -0.39696286125E+02  0.42788965120E+02  0.58678405975E+02  0.00000000000E+00 0.  1.
         11    1    4    4    0    0  0.45019626962E+00 -0.80438637686E+02 -0.42616772384E+02  0.91031677991E+02  0.00000000000E+00 0. -1.
         21    1    1    2  503  501  0.28371863467E+02 -0.43007870709E+01 -0.63375391643E+02  0.69569387463E+02  0.00000000000E+00 0. -1.
          2    1    1    2  501    0  0.35818333503E+02  0.14115175761E+03  0.95180135159E+02  0.17397134770E+03  0.00000000000E+00 0. -1.
<scales pt_clust_5="13000.00000" pt_clust_6="13000.00000" pt_clust_7="13000.00000" pt_clust_8="13000.00000" pt_clust_9="28.69598" pt_clust_10="129.34503"></scales>
<clustering>
<clus scale="   28.696">  2  9  1 -1</clus>
<clus scale="   80.497">  5  6 -1 -1</clus>
<clus scale="   89.160">  7  8 -1 -1</clus>
<clus scale="   99.782">  1  5  2 -1</clus>
<clus scale="  129.345">  2 10  1 -1</clus>
<clus scale="   28.696">  2  5  1 -1</clus>
</clustering>
</event>
<event>
10    3  0.5078224E-005  0.2025542E+03  0.7546771E-02  0.1148008E+00
         21   -1    0    0  501  502  0.00000000000E+00  0.00000000000E+00  0.29640523421E+03  0.29640523421E+03  0.00000000000E+00 0. -1.
          1   -1    0    0  503    0 -0.00000000000E+00 -0.00000000000E+00 -0.67957025349E+03  0.67957025349E+03  0.00000000000E+00 0. -1.
         23    2    1    2    0    0  0.43393113600E+02 -0.16825018210E+03 -0.42424899023E+03  0.46997497089E+03  0.10343201374E+03 0.  0.
        -24    2    1    2    0    0 -0.22132917602E+03  0.34679405191E+02  0.14390988161E+02  0.23842371431E+03  0.80308789700E+02 0.  0.
         13    1    4    4    0    0 -0.21916791709E+03  0.19884102682E+02  0.22838740766E+02  0.22124999775E+03  0.00000000000E+00 0. -1.
        -14    1    4    4    0    0 -0.21612589232E+01  0.14795302509E+02 -0.84477526050E+01  0.17173716561E+02  0.00000000000E+00 0.  1.
        -13    1    3    3    0    0  0.31136148407E+02 -0.15036451355E+03 -0.42089990983E+03  0.44803535661E+03  0.00000000000E+00 0. -1.
         13    1    3    3    0    0  0.12256965193E+02 -0.17885668559E+02 -0.33490803998E+01  0.21939614287E+02  0.00000000000E+00 0.  1.
         21    1    1    2  503  502  0.13084885312E+03  0.14082891140E+03  0.68617212516E+02  0.20411400369E+03  0.00000000000E+00 0. -1.
          2    1    1    2  501    0  0.47087209293E+02 -0.72581344831E+01 -0.41924229717E+02  0.63462798808E+02  0.00000000000E+00 0. -1.
<scales pt_clust_5="13000.00000" pt_clust_6="13000.00000" pt_clust_7="13000.00000" pt_clust_8="13000.00000" pt_clust_9="184.89014" pt_clust_10="47.64334"></scales>
<clustering>
<clus scale="   47.643">  1 10  2 -1</clus>
<clus scale="   80.309">  5  6 -1 -1</clus>
<clus scale="  103.432">  7  8 -1 -1</clus>
<clus scale="  203.535">  2  7  1 -1</clus>
<clus scale="  184.890">  1  9  2 -1</clus>
<clus scale="   47.643">  1  5  2 -1</clus>
</clustering>
</event>
<event>
10    3  0.5078224E-005  0.1361339E+03  0.7546771E-02  0.1246486E+00
         21   -1    0    0  501  502  0.00000000000E+00  0.00000000000E+00  0.18446477023E+04  0.18446477023E+04  0.00000000000E+00 0. -1.
          3   -1    0    0  503    0 -0.00000000000E+00 -0.00000000000E+00 -0.64026649227E+02  0.64026649227E+02  0.00000000000E+00 0. -1.
         23    2    1    2    0    0 -0.11174966224E+02  0.23401901492E+00  0.62551776598E+01  0.77020688608E+02  0.75948170426E+02 0.  0.
        -24    2    1    2    0    0 -0.14250952203E+02  0.10072051939E+03  0.23886588670E+03  0.27191657886E+03  0.80833169946E+02 0.  0.
         13    1    4    4    0    0 -0.40834727748E+02  0.25411457732E+02  0.11354688199E+03  0.12331306332E+03  0.00000000000E+00 0. -1.
        -14    1    4    4    0    0  0.26583775546E+02  0.75309061660E+02  0.12531900471E+03  0.14860351554E+03  0.00000000000E+00 0.  1.
        -13    1    3    3    0    0  0.28552172787E+02 -0.72556033117E+01 -0.13050133422E+02  0.32220743825E+02  0.00000000000E+00 0.  1.
         13    1    3    3    0    0 -0.39727139011E+02  0.74896223266E+01  0.19305311082E+02  0.44799944783E+02  0.00000000000E+00 0. -1.
         21    1    1    2  503  502  0.98954822544E+02  0.41878280080E+02  0.46522490884E+03  0.47747257832E+03  0.00000000000E+00 0. -1.
          4    1    1    2  501    0 -0.73528904117E+02 -0.14283281849E+03  0.10702750799E+04  0.10822645058E+04  0.00000000000E+00 0. -1.
<scales pt_clust_5="13000.00000" pt_clust_6="13000.00000" pt_clust_7="13000.00000" pt_clust_8="13000.00000" pt_clust_9="105.27544" pt_clust_10="109.53740"></scales>
<clustering>
<clus scale="   75.948">  7  8 -1 -1</clus>
<clus scale="   76.766">  2  7  1 -1</clus>
<clus scale="   80.833">  5  6 -1 -1</clus>
<clus scale="  105.275">  1  9  2 -1</clus>
<clus scale="  109.537">  1 10  2 -1</clus>
<clus scale="  105.275">  1  5  2 -1</clus>
</clustering>
</event>
<event>
10    3  0.5078224E-005  0.2191652E+03  0.7546771E-02  0.1167328E+00
         21   -1    0    0  503  502  0.00000000000E+00  0.00000000000E+00  0.13939376282E+03  0.13939376282E+03  0.00000000000E+00 0. -1.
         -2   -1    0    0    0  501 -0.00000000000E+00 -0.00000000000E+00 -0.76197219082E+03  0.76197219082E+03  0.00000000000E+00 0.  1.
         23    2    1    2    0    0  0.12439503061E+01 -0.51143459523E+02 -0.10141405262E+03  0.14626228736E+03  0.92144700173E+02 0.  0.
        -24    2    1    2    0    0 -0.16932236617E+03 -0.64462679112E+02 -0.34597262379E+03  0.39894716768E+03  0.81463399756E+02 0.  0.
         13    1    4    4    0    0 -0.12242780284E+03 -0.63949215623E+02 -0.18247365500E+03  0.22885520282E+03  0.00000000000E+00 0. -1.
        -14    1    4    4    0    0 -0.46894563338E+02 -0.51346348931E+00 -0.16349896879E+03  0.17009196486E+03  0.00000000000E+00 0.  1.
        -13    1    3    3    0    0 -0.28690553258E+02  0.85849028902E+01 -0.61587024516E+02  0.68482187411E+02  0.00000000000E+00 0. -1.
         13    1    3    3    0    0  0.29934503564E+02 -0.59728362413E+02 -0.39827028105E+02  0.77780099947E+02  0.00000000000E+00 0.  1.
         21    1    1    2  503  501 -0.54728610210E+02  0.58375092872E+02 -0.43006128742E+02  0.90842717664E+02  0.00000000000E+00 0.  1.
         -1    1    1    2    0  502  0.22280702608E+03  0.57231045763E+02 -0.13218562285E+03  0.26531378094E+03  0.00000000000E+00 0.  1.
<scales pt_clust_5="13000.00000" pt_clust_6="13000.00000" pt_clust_7="13000.00000" pt_clust_8="13000.00000" pt_clust_9="80.01795" pt_clust_10="203.46272"></scales>
<clustering>
<clus scale="   80.018">  1  9  2 -1</clus>
<clus scale="   81.463">  5  6 -1 -1</clus>
<clus scale="   92.145">  7  8 -1 -1</clus>
<clus scale="  100.813">  2  7  1 -1</clus>
<clus scale="  203.463">  1 10  2 -1</clus>
<clus scale="   80.018">  1  5  2 -1</clus>
</clustering>
</event>
<event>
10    3  0.5078224E-005  0.1798123E+03  0.7546771E-02  0.1195342E+00
         21   -1    0    0  503  502  0.00000000000E+00  0.00000000000E+00  0.11630998701E+03  0.11630998701E+03  0.00000000000E+00 0. -1.
          1   -1    0    0  502    0 -0.00000000000E+00 -0.00000000000E+00 -0.67623355633E+03  0.67623355633E+03  0.00000000000E+00 0. -1.
        -24    2    1    2    0    0 -0.56060134683E+02 -0.40404388221E+02 -0.18218548193E+03  0.21038860943E+03  0.79350890772E+02 0.  0.
         23    2    1    2    0    0 -0.44952035498E+02  0.17168679321E+03 -0.15914408601E+03  0.25510651451E+03  0.90859524395E+02 0.  0.
         11    1    3    3    0    0 -0.49860451819E+02 -0.15913935293E+02 -0.39728668381E+02  0.65709094374E+02  0.00000000000E+00 0. -1.
        -12    1    3    3    0    0 -0.61996828640E+01 -0.24490452928E+02 -0.14245681355E+03  0.14467951506E+03  0.00000000000E+00 0.  1.
        -13    1    4    4    0    0 -0.41776957157E+02  0.19399688100E+02 -0.26588505867E+02  0.53184684750E+02  0.00000000000E+00 0.  1.
         13    1    4    4    0    0 -0.31750783413E+01  0.15228710511E+03 -0.13255558014E+03  0.20192182976E+03  0.00000000000E+00 0. -1.
         21    1    1    2  503  501  0.95510851644E+02  0.59006200962E+01 -0.45059257615E+02  0.10577086932E+03  0.00000000000E+00 0. -1.
          2    1    1    2  501    0  0.55013185372E+01 -0.13718302508E+03 -0.17353474377E+03  0.22127755008E+03  0.00000000000E+00 0. -1.
<scales pt_clust_5="13000.00000" pt_clust_6="13000.00000" pt_clust_7="13000.00000" pt_clust_8="13000.00000" pt_clust_9="95.69295" pt_clust_10="155.16781"></scales>
<clustering>
<clus scale="   79.351">  5  6 -1 -1</clus>
<clus scale="   90.860">  7  8 -1 -1</clus>
<clus scale="   95.693">  1  9  2 -1</clus>
<clus scale="   97.382">  2  5  1 -1</clus>
<clus scale="  155.168">  1 10  2 -1</clus>
<clus scale="   95.693">  1  5  2 -1</clus>
</clustering>
</event>
<event>
10    3  0.5078224E-005  0.1161352E+03  0.7546771E-02  0.1254388E+00
         -2   -1    0    0    0  501 -0.00000000000E+00  0.00000000000E+00  0.14576080447E+03  0.14576080447E+03  0.00000000000E+00 0.  1.
         21   -1    0    0  503  502  0.00000000000E+00 -0.00000000000E+00 -0.34920862872E+03  0.34920862872E+03  0.00000000000E+00 0. -1.
        -24    2    1    2    0    0 -0.31671504619E+01 -0.68779924741E+02  0.89488818881E+02  0.13869483886E+03  0.80543781454E+02 0.  0.
         23    2    1    2    0    0 -0.24963013145E+02  0.65389630751E+02 -0.12186756086E+03  0.16903783507E+03  0.93931525383E+02 0.  0.
         11    1    3    3    0    0 -0.27323904542E+02 -0.27187738570E+02  0.16879117939E+01  0.38582611812E+02  0.00000000000E+00 0. -1.
        -12    1    3    3    0    0  0.24156754080E+02 -0.41592186171E+02  0.87800907088E+02  0.10011222704E+03  0.00000000000E+00 0.  1.
        -11    1    4    4    0    0  0.31223943060E+01  0.43636514278E+02 -0.17563443628E+01  0.43783324109E+02  0.00000000000E+00 0.  1.
         11    1    4    4    0    0 -0.28085407451E+02  0.21753116473E+02 -0.12011121650E+03  0.12525451096E+03  0.00000000000E+00 0. -1.
         21    1    1    2  503  501  0.35869763797E+01 -0.23951016118E+02 -0.12955478277E+03  0.13179893517E+03  0.00000000000E+00 0. -1.
         -1    1    1    2    0  502  0.24543187227E+02  0.27341310107E+02 -0.41514299489E+02  0.55437824089E+02  0.00000000000E+00 0.  1.
<scales pt_clust_5="13000.00000" pt_clust_6="13000.00000" pt_clust_7="13000.00000" pt_clust_8="13000.00000" pt_clust_9="24.21812" pt_clust_10="33.57539"></scales>
<clustering>
<clus scale="   24.218">  2  9  1 -1</clus>
<clus scale="   33.575">  2 10  1 -1</clus>
<clus scale="   80.544">  5  6 -1 -1</clus>
<clus scale="   93.932">  7  8 -1 -1</clus>
<clus scale="  105.601">  1  5  2 -1</clus>
<clus scale="   24.218">  2  5  1 -1</clus>
</clustering>
</event>
<event>
10    3  0.5078224E-005  0.1467901E+03  0.7546771E-02  0.1215390E+00
         -2   -1    0    0    0  501 -0.00000000000E+00  0.00000000000E+00  0.66654317840E+03  0.66654317840E+03  0.00000000000E+00 0.  1.
         21   -1    0    0  503  502  0.00000000000E+00 -0.00000000000E+00 -0.10032824748E+03  0.10032824748E+03  0.00000000000E+00 0.  1.
         23    2    1    2    0    0  0.45026639796E+02 -0.51094378197E+02  0.38153510359E+03  0.39878030333E+03  0.93907727454E+02 0.  0.
        -24    2    1    2    0    0 -0.86949101261E+01 -0.92005713997E+02  0.41106361185E+02  0.13134036890E+03  0.83784883500E+02 0.  0.
         13    1    4    4    0    0  0.29543891116E+02 -0.46370987840E+02  0.45881372941E+02  0.71611524202E+02  0.00000000000E+00 0. -1.
        -14    1    4    4    0    0 -0.38238801242E+02 -0.45634726157E+02 -0.47750117563E+01  0.59728844700E+02  0.00000000000E+00 0.  1.
        -11    1    3    3    0    0  0.19041984122E+02 -0.73147388582E+02  0.31598703220E+03  0.32490143450E+03  0.00000000000E+00 0.  1.
         11    1    3    3    0    0  0.25984655675E+02  0.22053010385E+02  0.65548071387E+02  0.73878868834E+02  0.00000000000E+00 0. -1.
         21    1    1    2  503  501 -0.12636891636E+02 -0.16972063662E+02  0.11616244458E+01  0.21191775445E+02  0.00000000000E+00 0. -1.
         -1    1    1    2    0  502 -0.23694838034E+02  0.16007215586E+03  0.14241184169E+03  0.21555897820E+03  0.00000000000E+00 0.  1.
<scales pt_clust_5="13000.00000" pt_clust_6="13000.00000" pt_clust_7="13000.00000" pt_clust_8="13000.00000" pt_clust_9="21.15991" pt_clust_10="120.52984"></scales>
<clustering>
<clus scale="   21.160">  2  9  1 -1</clus>
<clus scale="   83.785">  5  6 -1 -1</clus>
<clus scale="   93.908">  7  8 -1 -1</clus>
<clus scale="  116.266">  1  7  2 -1</clus>
<clus scale="  120.530">  2 10  1 -1</clus>
<clus scale="   21.160">  2  5  1 -1</clus>
</clustering>
</event>
<event>
10    3  0.5078224E-005  0.5630530E+03  0.7546771E-02  0.9985788E-01
         21   -1    0    0  503  502  0.00000000000E+00  0.00000000000E+00  0.31154622258E+03  0.31154622258E+03  0.00000000000E+00 0. -1.
          1   -1    0    0  502    0 -0.00000000000E+00 -0.00000000000E+00 -0.21901164867E+04  0.21901164867E+04  0.00000000000E+00 0. -1.
        -24    2    1    2    0    0 -0.45169771430E+03 -0.14425119665E+03 -0.58044968075E+03  0.75418562404E+03  0.83874255782E+02 0.  0.
         23    2    1    2    0    0  0.56118041623E+03  0.31500284575E+03 -0.11164755580E+04  0.12918738181E+04  0.90939749412E+02 0.  0.
         11    1    3    3    0    0 -0.17671704612E+03 -0.22128696281E+02 -0.25414093161E+03  0.31033241324E+03  0.00000000000E+00 0. -1.
        -12    1    3    3    0    0 -0.27498066818E+03 -0.12212250037E+03 -0.32630874914E+03  0.44385321080E+03  0.00000000000E+00 0.  1.
        -13    1    4    4    0    0  0.53689305738E+03  0.27524870308E+03 -0.10341484995E+04  0.11972798849E+04  0.00000000000E+00 0. -1.
         13    1    4    4    0    0  0.24287358845E+02  0.39754142662E+02 -0.82327058469E+02  0.94593933286E+02  0.00000000000E+00 0.  1.
         21    1    1    2  503  501 -0.44842985257E+02  0.71628039489E+01  0.10368445724E+03  0.11319304643E+03  0.00000000000E+00 0. -1.
          2    1    1    2  501    0 -0.64639716673E+02 -0.17791445305E+03 -0.28532948266E+03  0.34241022071E+03  0.00000000000E+00 0. -1.
<scales pt_clust_5="13000.00000" pt_clust_6="13000.00000" pt_clust_7="13000.00000" pt_clust_8="13000.00000" pt_clust_9="45.41144" pt_clust_10="190.60189"></scales>
<clustering>
<clus scale="   45.411">  1  9  2 -1</clus>
<clus scale="   83.874">  5  6 -1 -1</clus>
<clus scale="   90.940">  7  8 -1 -1</clus>
<clus scale="  190.602">  1 10  2 -1</clus>
<clus scale="  561.955">  2  5  1 -1</clus>
<clus scale="   45.411">  1  5  2 -1</clus>
</clustering>
</event>
<event>
10    3  0.5078224E-005  0.1160505E+03  0.7546771E-02  0.1254247E+00
         21   -1    0    0  503  502  0.00000000000E+00  0.00000000000E+00  0.92685634703E+02  0.92685634703E+02  0.00000000000E+00 0. -1.
         -4   -1    0    0    0  501 -0.00000000000E+00 -0.00000000000E+00 -0.64226738543E+03  0.64226738543E+03  0.00000000000E+00 0.  1.
         23    2    1    2    0    0  0.64299054633E+02  0.51761141710E+02 -0.41219743029E+03  0.43069907952E+03  0.93709078240E+02 0.  0.
        -24    2    1    2    0    0 -0.54416471911E+02 -0.88566342725E+02  0.10310426167E+02  0.13224398817E+03  0.81098816521E+02 0.  0.
         11    1    4    4    0    0 -0.20876555249E+02 -0.95317589550E+02  0.92569448518E+01  0.98015123653E+02  0.00000000000E+00 0. -1.
        -12    1    4    4    0    0 -0.33539916663E+02  0.67512468253E+01  0.10534813153E+01  0.34228864520E+02  0.00000000000E+00 0.  1.
        -11    1    3    3    0    0  0.88897767349E+02  0.42254208659E+02 -0.31868495819E+03  0.33353910381E+03  0.00000000000E+00 0. -1.
         11    1    3    3    0    0 -0.24598712716E+02  0.95069330508E+01 -0.93512472094E+02  0.97159975712E+02  0.00000000000E+00 0.  1.
         21    1    1    2  503  501 -0.39309339173E+02 -0.14937971351E+01 -0.57000132347E+02  0.69256556828E+02  0.00000000000E+00 0.  1.
         -3    1    1    2    0  502  0.29426756452E+02  0.38298998150E+02 -0.90694614261E+02  0.10275339562E+03  0.00000000000E+00 0.  1.
<scales pt_clust_5="13000.00000" pt_clust_6="13000.00000" pt_clust_7="13000.00000" pt_clust_8="13000.00000" pt_clust_9="39.33771" pt_clust_10="44.38940"></scales>
<clustering>
<clus scale="   39.338">  2  9  1 -1</clus>
<clus scale="   44.389">  1 10  2 -1</clus>
<clus scale="   81.099">  5  6 -1 -1</clus>
<clus scale="   93.709">  7  8 -1 -1</clus>
<clus scale="  106.129">  1  5  2 -1</clus>
<clus scale="   44.389">  1  5  2 -1</clus>
</clustering>
</event>
<event>
10    3  0.5078224E-005  0.1426156E+03  0.7546771E-02  0.1212358E+00
         21   -1    0    0  501  502  0.00000000000E+00  0.00000000000E+00  0.16087598602E+03  0.16087598602E+03  0.00000000000E+00 0. -1.
          1   -1    0    0  503    0 -0.00000000000E+00 -0.00000000000E+00 -0.76502673640E+03  0.76502673640E+03  0.00000000000E+00 0. -1.
         23    2    1    2    0    0  0.10561785290E+03 -0.25651897618E+02 -0.59866424716E+03  0.61524127335E+03  0.91158065468E+02 0.  0.
        -24    2    1    2    0    0 -0.86243800476E+02  0.12197665973E+03 -0.42970523289E+02  0.17438971363E+03  0.79050665455E+02 0.  0.
         11    1    4    4    0    0 -0.46347479684E+02  0.11274112040E+03 -0.10914081728E+02  0.12238368470E+03  0.00000000000E+00 0. -1.
        -12    1    4    4    0    0 -0.39896320793E+02  0.92355393380E+01 -0.32056441561E+02  0.52006028932E+02  0.00000000000E+00 0.  1.
        -13    1    3    3    0    0  0.96900803179E+02  0.19142760764E+01 -0.55126754850E+03  0.55972255640E+03  0.00000000000E+00 0. -1.
         13    1    3    3    0    0  0.87170497185E+01 -0.27566173695E+02 -0.47396698658E+02  0.55518716948E+02  0.00000000000E+00 0.  1.
         21    1    1    2  503  502 -0.19902532186E+02  0.83148698256E+01 -0.68432567341E+01  0.22629140734E+02  0.00000000000E+00 0.  1.
          2    1    1    2  501    0  0.52847976518E+00 -0.10463963194E+03  0.44327276796E+02  0.11364259471E+03  0.00000000000E+00 0. -1.
<scales pt_clust_5="13000.00000" pt_clust_6="13000.00000" pt_clust_7="13000.00000" pt_clust_8="13000.00000" pt_clust_9="21.56960" pt_clust_10="100.81896"></scales>
<clustering>
<clus scale="   21.570">  1  9  2 -1</clus>
<clus scale="   79.051">  5  6 -1 -1</clus>
<clus scale="   91.158">  7  8 -1 -1</clus>
<clus scale="  100.819">  1 10  2 -1</clus>
<clus scale="  135.198">  1  5  2 -1</clus>
<clus scale="   21.570">  1  5  2 -1</clus>
</clustering>
</event>
<event>
10    3  0.5078224E-005  0.9754804E+02  0.7546771E-02  0.1291081E+00
          1   -1    0    0  503    0 -0.00000000000E+00  0.00000000000E+00  0.61633285083E+03  0.61633285083E+03  0.00000000000E+00 0. -1.
         21   -1    0    0  501  502  0.00000000000E+00 -0.00000000000E+00 -0.73935489093E+02  0.73935489093E+02  0.00000000000E+00 0.  1.
         23    2    1    2    0    0  0.35247866679E+02  0.23925359055E+02  0.24664625291E+03  0.26652314594E+03  0.91571711425E+02 0.  0.
        -24    2    1    2    0    0  0.33137477527E+02 -0.44705585702E+02  0.78524790028E+02  0.12593607918E+03  0.81222358874E+02 0.  0.
         11    1    4    4    0    0 -0.90967302592E+00 -0.55825822656E+02  0.24167322709E+02  0.60839209948E+02  0.00000000000E+00 0. -1.
        -12    1    4    4    0    0  0.34047150553E+02  0.11120236954E+02  0.54357467319E+02  0.65096869234E+02  0.00000000000E+00 0.  1.
        -13    1    3    3    0    0 -0.11494298016E+02  0.46861480367E+02  0.10327649056E+03  0.11399188888E+03  0.00000000000E+00 0. -1.
         13    1    3    3    0    0  0.46742164695E+02 -0.22936121312E+02  0.14336976236E+03  0.15253125706E+03  0.00000000000E+00 0.  1.
         21    1    1    2  503  502 -0.24569851004E+02  0.10080489440E+02 -0.33674449164E+02  0.42886622299E+02  0.00000000000E+00 0.  1.
          2    1    1    2  501    0 -0.43815493202E+02  0.10699737207E+02  0.25090076796E+03  0.25492249250E+03  0.00000000000E+00 0. -1.
<scales pt_clust_5="13000.00000" pt_clust_6="13000.00000" pt_clust_7="13000.00000" pt_clust_8="13000.00000" pt_clust_9="26.55737" pt_clust_10="46.58457"></scales>
<clustering>
<clus scale="   26.557">  2  9  1 -1</clus>
<clus scale="   46.585">  2 10  1 -1</clus>
<clus scale="   81.222">  5  6 -1 -1</clus>
<clus scale="   87.905">  2  5  1 -1</clus>
<clus scale="   91.572">  7  8 -1 -1</clus>
<clus scale="   26.557">  2  5  1 -1</clus>
</clustering>
</event>
<event>
10    3  0.5078224E-005  0.1267884E+03  0.7546771E-02  0.1256235E+00
          1   -1    0    0  502    0 -0.00000000000E+00  0.00000000000E+00  0.11720629409E+04  0.11720629409E+04  0.00000000000E+00 0. -1.
         21   -1    0    0  503  502  0.00000000000E+00 -0.00000000000E+00 -0.24994250041E+02  0.24994250041E+02  0.00000000000E+00 0. -1.
        -24    2    1    2    0    0  0.17497717040E+02  0.98171305229E+01  0.26506856874E+03  0.27675362313E+03  0.76997893659E+02 0.  0.
         23    2    1    2    0    0  0.93633938099E+02 -0.13581913355E+02  0.56173839498E+03  0.57720532920E+03  0.93081603628E+02 0.  0.
         13    1    3    3    0    0  0.31444083434E+02  0.36076868887E+02  0.19183305424E+03  0.19771239605E+03  0.00000000000E+00 0. -1.
        -14    1    3    3    0    0 -0.13946366394E+02 -0.26259738364E+02  0.73235514495E+02  0.79041227077E+02  0.00000000000E+00 0.  1.
        -11    1    4    4    0    0  0.59903815212E+02  0.33957813650E+02  0.38480375271E+03  0.39091626761E+03  0.00000000000E+00 0.  1.
         11    1    4    4    0    0  0.33730122887E+02 -0.47539727005E+02  0.17693464227E+03  0.18628906159E+03  0.00000000000E+00 0. -1.
         21    1    1    2  503  501 -0.30746335254E+02  0.47572325722E+01  0.35488998334E+02  0.47195734935E+02  0.00000000000E+00 0. -1.
          2    1    1    2  501    0 -0.80385319885E+02 -0.99244973995E+00  0.28477272885E+03  0.29590250372E+03  0.00000000000E+00 0. -1.
<scales pt_clust_5="13000.00000" pt_clust_6="13000.00000" pt_clust_7="13000.00000" pt_clust_8="13000.00000" pt_clust_9="31.11219" pt_clust_10="86.08787"></scales>
<clustering>
<clus scale="   31.112">  2  9  1 -1</clus>
<clus scale="   76.998">  5  6 -1 -1</clus>
<clus scale="   78.240">  1  5  2 -1</clus>
<clus scale="   86.088">  2 10  1 -1</clus>
<clus scale="   93.082">  7  8 -1 -1</clus>
<clus scale="   31.112">  2  5  1 -1</clus>
</clustering>
</event>
<event>
10    3  0.5078224E-005  0.1043966E+03  0.7546771E-02  0.1275991E+00
         -2   -1    0    0    0  501 -0.00000000000E+00  0.00000000000E+00  0.15703456803E+03  0.15703456803E+03  0.00000000000E+00 0.  1.
         21   -1    0    0  503  502  0.00000000000E+00 -0.00000000000E+00 -0.24783428889E+03  0.24783428889E+03  0.00000000000E+00 0.  1.
        -24    2    1    2    0    0  0.48169814567E+02 -0.64860046057E+01  0.83034674273E+02  0.12537838042E+03  0.80390185053E+02 0.  0.
         23    2    1    2    0    0 -0.69245212610E+02  0.37087129084E+02 -0.15342354878E+03  0.19484874504E+03  0.90867450227E+02 0.  0.
         13    1    3    3    0    0 -0.10605950824E+02  0.24776205752E+02  0.29439935159E+02  0.39913109958E+02  0.00000000000E+00 0. -1.
        -14    1    3    3    0    0  0.58775765391E+02 -0.31262210358E+02  0.53594739114E+02  0.85465270458E+02  0.00000000000E+00 0.  1.
        -11    1    4    4    0    0  0.20953092655E+02  0.17548823127E+02 -0.42805373419E+02  0.50786743138E+02  0.00000000000E+00 0. -1.
         11    1    4    4    0    0 -0.90198305265E+02  0.19538305957E+02 -0.11061817536E+03  0.14406200191E+03  0.00000000000E+00 0.  1.
         21    1    1    2  503  501 -0.15454359177E+02  0.14305678332E+02 -0.16258033414E+02  0.26604760864E+02  0.00000000000E+00 0. -1.
         -1    1    1    2    0  502  0.36529757219E+02 -0.44906802810E+02 -0.41528129354E+01  0.58036970600E+02  0.00000000000E+00 0.  1.
<scales pt_clust_5="13000.00000" pt_clust_6="13000.00000" pt_clust_7="13000.00000" pt_clust_8="13000.00000" pt_clust_9="21.05919" pt_clust_10="55.02614"></scales>
<clustering>
<clus scale="   21.059">  2  9  1 -1</clus>
<clus scale="   55.026">  2 10  1 -1</clus>
<clus scale="   80.390">  5  6 -1 -1</clus>
<clus scale="   90.867">  7  8 -1 -1</clus>
<clus scale="   95.417">  1  5  2 -1</clus>
<clus scale="   21.059">  2  5  1 -1</clus>
</clustering>
</event>
<event>
10    3  0.5078224E-005  0.1741411E+03  0.7546771E-02  0.1185118E+00
         21   -1    0    0  503  502  0.00000000000E+00  0.00000000000E+00  0.88425778279E+03  0.88425778279E+03  0.00000000000E+00 0. -1.
          1   -1    0    0  502    0 -0.00000000000E+00 -0.00000000000E+00 -0.17558960749E+03  0.17558960749E+03  0.00000000000E+00 0. -1.
         23    2    1    2    0    0  0.54751501197E+02  0.92173694561E+02 -0.52461626336E+02  0.14971923492E+03  0.90387555635E+02 0.  0.
        -24    2    1    2    0    0 -0.17672437365E+03  0.82759248776E+01  0.14025950542E+03  0.24024201362E+03  0.82118822894E+02 0.  0.
         13    1    4    4    0    0 -0.11359471972E+03 -0.34179860082E+02  0.78441986799E+02  0.14221521887E+03  0.00000000000E+00 0. -1.
        -14    1    4    4    0    0 -0.63129653925E+02  0.42455784959E+02  0.61817518619E+02  0.98026794753E+02  0.00000000000E+00 0.  1.
        -11    1    3    3    0    0 -0.36651297987E+01  0.36237104301E+02 -0.58178049666E+02  0.68638519561E+02  0.00000000000E+00 0.  1.
         11    1    3    3    0    0  0.58416630996E+02  0.55936590261E+02  0.57164233297E+01  0.81080715356E+02  0.00000000000E+00 0. -1.
         21    1    1    2  503  501 -0.24609171329E+02 -0.82309072099E+02  0.35996537498E+03  0.37007494626E+03  0.00000000000E+00 0. -1.
          2    1    1    2  501    0  0.14658204378E+03 -0.18140547339E+02  0.26090492123E+03  0.29981119548E+03  0.00000000000E+00 0. -1.
<scales pt_clust_5="13000.00000" pt_clust_6="13000.00000" pt_clust_7="13000.00000" pt_clust_8="13000.00000" pt_clust_9="85.90922" pt_clust_10="153.56305"></scales>
<clustering>
<clus scale="   82.119">  5  6 -1 -1</clus>
<clus scale="   85.909">  1  9  2 -1</clus>
<clus scale="   90.388">  7  8 -1 -1</clus>
<clus scale="  134.369">  2  7  1 -1</clus>
<clus scale="  153.563">  1 10  2 -1</clus>
<clus scale="   85.909">  1  5  2 -1</clus>
</clustering>
</event>
<event>
10    3  0.5078224E-005  0.8895152E+02  0.7546771E-02  0.1306897E+00
         21   -1    0    0  501  502  0.00000000000E+00  0.00000000000E+00  0.22194895874E+03  0.22194895874E+03  0.00000000000E+00 0.  1.
         -4   -1    0    0    0  501 -0.00000000000E+00 -0.00000000000E+00 -0.20247067800E+03  0.20247067800E+03  0.00000000000E+00 0.  1.
        -24    2    1    2    0    0 -0.50286797401E+02 -0.13686510938E+01 -0.15616238088E+03  0.18143185606E+03  0.77460919132E+02 0.  0.
         23    2    1    2    0    0 -0.54186206790E+01  0.44845981094E+02  0.64307991002E+02  0.10843557382E+03  0.74714339273E+02 0.  0.
         13    1    3    3    0    0  0.76958625954E+01 -0.26596605944E+02 -0.33765144611E+02  0.43665670033E+02  0.00000000000E+00 0. -1.
        -14    1    3    3    0    0 -0.57982659996E+02  0.25227954850E+02 -0.12239723627E+03  0.13776618603E+03  0.00000000000E+00 0.  1.
        -13    1    4    4    0    0  0.36452960430E+01 -0.20247894272E+02  0.86707419859E+01  0.22325930491E+02  0.00000000000E+00 0. -1.
         13    1    4    4    0    0 -0.90639167220E+01  0.65093875366E+02  0.55637249016E+02  0.86109643330E+02  0.00000000000E+00 0.  1.
         21    1    1    2  503  502  0.19151871527E+02 -0.18315560953E+02  0.65968190723E+02  0.71091885213E+02  0.00000000000E+00 0.  1.
         -3    1    1    2    0  503  0.36553546553E+02 -0.25161769047E+02  0.45364479894E+02  0.63460321645E+02  0.00000000000E+00 0.  1.
<scales pt_clust_5="13000.00000" pt_clust_6="13000.00000" pt_clust_7="13000.00000" pt_clust_8="13000.00000" pt_clust_9="20.67719" pt_clust_10="75.56013"></scales>
<clustering>
<clus scale="   20.677">  9 10 -1 -1</clus>
<clus scale="   74.714">  7  8 -1 -1</clus>
<clus scale="   75.560">  1  9  2 -1</clus>
<clus scale="   77.461">  5  6 -1 -1</clus>
<clus scale="   86.570">  1  7  2 -1</clus>
<clus scale="   75.560">  1  5  2 -1</clus>
</clustering>
</event>
<event>
10    3  0.7680098E-005  0.3861816E+03  0.7546771E-02  0.1090016E+00
         21   -1    0    0  501  502  0.00000000000E+00  0.00000000000E+00  0.13322544812E+04  0.13322544812E+04  0.00000000000E+00 0. -1.
          3   -1    0    0  503    0 -0.00000000000E+00 -0.00000000000E+00 -0.84405121583E+03  0.84405121583E+03  0.00000000000E+00 0. -1.
        -24    2    1    2    0    0 -0.92977419276E+02 -0.87814459873E+01  0.33892227237E+03  0.36319118473E+03  0.91200963092E+02 0.  0.
         23    2    1    2    0    0  0.20202116269E+03 -0.34599847607E+03 -0.73136810804E+03  0.83886844791E+03  0.90958604965E+02 0.  0.
         11    1    3    3    0    0 -0.94398184419E+02 -0.11851534453E+02  0.17463387658E+03  0.19886796358E+03  0.00000000000E+00 0. -1.
        -12    1    3    3    0    0  0.14207651431E+01  0.30700884658E+01  0.16428839580E+03  0.16432322115E+03  0.00000000000E+00 0.  1.
        -11    1    4    4    0    0  0.13757538783E+02 -0.22940687011E+02 -0.14699771232E+02  0.30522586197E+02  0.00000000000E+00 0.  1.
         11    1    4    4    0    0  0.18826362391E+03 -0.32305778906E+03 -0.71666833681E+03  0.80834586171E+03  0.00000000000E+00 0. -1.
         21    1    1    2  503  502  0.33598493950E+02  0.80429763025E+00  0.95928321971E+02  0.10164520966E+03  0.00000000000E+00 0. -1.
          4    1    1    2  501    0 -0.14264223736E+03  0.35397562443E+03  0.78472077905E+03  0.87260085471E+03  0.00000000000E+00 0. -1.
<scales pt_clust_5="13000.00000" pt_clust_6="13000.00000" pt_clust_7="13000.00000" pt_clust_8="13000.00000" pt_clust_9="33.60812" pt_clust_10="375.31688"></scales>
<clustering>
<clus scale="   33.608">  1  9  2 -1</clus>
<clus scale="   90.959">  7  8 -1 -1</clus>
<clus scale="   91.201">  5  6 -1 -1</clus>
<clus scale="  123.890">  2  5  1 -1</clus>
<clus scale="  375.317">  1 10  2 -1</clus>
<clus scale="   33.608">  1  5  2 -1</clus>
</clustering>
</event>
<event>
10    3  0.5078224E-005  0.1610727E+03  0.7546771E-02  0.1188149E+00
          3   -1    0    0  503    0 -0.00000000000E+00  0.00000000000E+00  0.44890584874E+03  0.44890584874E+03  0.00000000000E+00 0. -1.
         21   -1    0    0  501  502  0.00000000000E+00 -0.00000000000E+00 -0.12051542405E+03  0.12051542405E+03  0.00000000000E+00 0.  1.
        -24    2    1    2    0    0 -0.55928999099E+02  0.11788886704E+03  0.26993537431E+03  0.31073399681E+03  0.81637445798E+02 0.  0.
         23    2    1    2    0    0  0.99735249587E+02 -0.12085957668E+03  0.67319678430E+02  0.19104262317E+03  0.86088254004E+02 0.  0.
         11    1    3    3    0    0 -0.54182744674E+02  0.53250252481E+02  0.81052464683E+02  0.11108942902E+03  0.00000000000E+00 0. -1.
        -12    1    3    3    0    0 -0.17462544241E+01  0.64638614558E+02  0.18888290962E+03  0.19964456778E+03  0.00000000000E+00 0.  1.
        -13    1    4    4    0    0  0.25418202358E+02 -0.97659319470E+02  0.39465472757E+02  0.10835567004E+03  0.00000000000E+00 0.  1.
         13    1    4    4    0    0  0.74317047230E+02 -0.23200257211E+02  0.27854205673E+02  0.82686953126E+02  0.00000000000E+00 0. -1.
         21    1    1    2  503  502 -0.98474263211E+01  0.22916766254E+02 -0.12853236880E+02  0.28059858855E+02  0.00000000000E+00 0.  1.
          4    1    1    2  501    0 -0.33958824167E+02 -0.19946056612E+02  0.39886088328E+01  0.39584793970E+02  0.00000000000E+00 0. -1.
<scales pt_clust_5="13000.00000" pt_clust_6="13000.00000" pt_clust_7="13000.00000" pt_clust_8="13000.00000" pt_clust_9="24.94293" pt_clust_10="39.07792"></scales>
<clustering>
<clus scale="   24.943">  2  9  1 -1</clus>
<clus scale="   39.078">  2 10  1 -1</clus>
<clus scale="   81.637">  5  6 -1 -1</clus>
<clus scale="   86.088">  7  8 -1 -1</clus>
<clus scale="  158.738">  1  5  2 -1</clus>
<clus scale="   24.943">  2  5  1 -1</clus>
</clustering>
</event>
<event>
10    3  0.5078224E-005  0.9862364E+02  0.7546771E-02  0.1289168E+00
         21   -1    0    0  503  502  0.00000000000E+00  0.00000000000E+00  0.16963889699E+03  0.16963889699E+03  0.00000000000E+00 0. -1.
         -2   -1    0    0    0  501 -0.00000000000E+00 -0.00000000000E+00 -0.17002472587E+03  0.17002472587E+03  0.00000000000E+00 0.  1.
         23    2    1    2    0    0  0.35680746018E+02  0.33563546136E+02 -0.48421246196E+02  0.11454652354E+03  0.91524104505E+02 0.  0.
        -24    2    1    2    0    0  0.16315920777E+02 -0.15594809206E+02  0.79965425222E+02  0.11544041037E+03  0.80141198966E+02 0.  0.
         11    1    4    4    0    0  0.41726489123E+02  0.99123470604E+00  0.73333734201E+02  0.84379612541E+02  0.00000000000E+00 0. -1.
        -12    1    4    4    0    0 -0.25410568345E+02 -0.16586043912E+02  0.66316910210E+01  0.31060797834E+02  0.00000000000E+00 0.  1.
        -11    1    3    3    0    0 -0.45900482300E+01 -0.20248375875E+02  0.12160404310E+02  0.24061186614E+02  0.00000000000E+00 0. -1.
         11    1    3    3    0    0  0.40270794248E+02  0.53811922011E+02 -0.60581650506E+02  0.90485336922E+02  0.00000000000E+00 0.  1.
         21    1    1    2  503  501 -0.23869542715E+02 -0.10501629857E+02  0.30900641125E+02  0.40433759669E+02  0.00000000000E+00 0. -1.
         -1    1    1    2    0  502 -0.28127124080E+02 -0.74671070730E+01 -0.62830649034E+02  0.69242929279E+02  0.00000000000E+00 0.  1.
<scales pt_clust_5="13000.00000" pt_clust_6="13000.00000" pt_clust_7="13000.00000" pt_clust_8="13000.00000" pt_clust_9="26.07756" pt_clust_10="29.71819"></scales>
<clustering>
<clus scale="   26.078">  1  9  2 -1</clus>
<clus scale="   29.718">  1 10  2 -1</clus>
<clus scale="   80.141">  5  6 -1 -1</clus>
<clus scale="   88.162">  1  5  2 -1</clus>
<clus scale="   91.524">  7  8 -1 -1</clus>
<clus scale="   26.078">  1  5  2 -1</clus>
</clustering>
</event>
<event>
10    3  0.5078224E-005  0.1156760E+03  0.7546771E-02  0.1259453E+00
         21   -1    0    0  501  502  0.00000000000E+00  0.00000000000E+00  0.95990347189E+02  0.95990347189E+02  0.00000000000E+00 0. -1.
          1   -1    0    0  503    0 -0.00000000000E+00 -0.00000000000E+00 -0.39269952403E+03  0.39269952403E+03  0.00000000000E+00 0. -1.
        -24    2    1    2    0    0  0.33543433425E+01  0.56182342914E+02 -0.58049978112E+01  0.97588453171E+02  0.79511640142E+02 0.  0.
         23    2    1    2    0    0 -0.15977766226E+02  0.42014232462E+02 -0.16758268923E+03  0.19388359917E+03  0.86524028758E+02 0.  0.
         11    1    3    3    0    0 -0.15836015503E+02  0.66158559179E+02  0.12605218815E+02  0.69185445587E+02  0.00000000000E+00 0. -1.
        -12    1    3    3    0    0  0.19190358846E+02 -0.99762162653E+01 -0.18410216626E+02  0.28403007584E+02  0.00000000000E+00 0.  1.
        -13    1    4    4    0    0  0.79999847027E+01 -0.22401820105E+02 -0.19992332619E+02  0.31073053645E+02  0.00000000000E+00 0.  1.
         13    1    4    4    0    0 -0.23977750928E+02  0.64416052567E+02 -0.14759035661E+03  0.16281054552E+03  0.00000000000E+00 0. -1.
         21    1    1    2  503  502 -0.30413096195E+02 -0.53628302375E+01  0.68605691301E+01  0.31635166778E+02  0.00000000000E+00 0. -1.
          2    1    1    2  501    0  0.43036519078E+02 -0.92833745139E+02 -0.13018205893E+03  0.16558265210E+03  0.00000000000E+00 0. -1.
<scales pt_clust_5="13000.00000" pt_clust_6="13000.00000" pt_clust_7="13000.00000" pt_clust_8="13000.00000" pt_clust_9="30.88230" pt_clust_10="76.77595"></scales>
<clustering>
<clus scale="   30.882">  1  9  2 -1</clus>
<clus scale="   79.512">  5  6 -1 -1</clus>
<clus scale="   86.524">  7  8 -1 -1</clus>
<clus scale="   96.688">  2  5  1 -1</clus>
<clus scale="   76.776">  1 10  2 -1</clus>
<clus scale="   30.882">  1  5  2 -1</clus>
</clustering>
</event>
<event>
10    3  0.5078224E-005  0.3349045E+03  0.7546771E-02  0.1068987E+00
         21   -1    0    0  501  502  0.00000000000E+00  0.00000000000E+00  0.18911183006E+03  0.18911183006E+03  0.00000000000E+00 0. -1.
          1   -1    0    0  503    0 -0.00000000000E+00 -0.00000000000E+00 -0.60720339541E+03  0.60720339541E+03  0.00000000000E+00 0. -1.
        -24    2    1    2    0    0 -0.15677737637E+03  0.11060502266E+03 -0.16205187264E+03  0.26436166656E+03  0.82544924398E+02 0.  0.
         23    2    1    2    0    0 -0.75240750085E+02 -0.50698464086E+01 -0.71532363320E+02  0.13855355432E+03  0.91615143926E+02 0.  0.
         11    1    3    3    0    0 -0.86561695382E+02  0.25609347537E+02 -0.11041914579E+03  0.14262241600E+03  0.00000000000E+00 0. -1.
        -12    1    3    3    0    0 -0.70215680985E+02  0.84995675125E+02 -0.51632726850E+02  0.12173925057E+03  0.00000000000E+00 0.  1.
        -13    1    4    4    0    0  0.45764106511E+01 -0.33586982940E+02 -0.20963351826E+02  0.39855878829E+02  0.00000000000E+00 0.  1.
         13    1    4    4    0    0 -0.79817160736E+02  0.28517136531E+02 -0.50569011494E+02  0.98697675491E+02  0.00000000000E+00 0. -1.
         21    1    1    2  503  502 -0.74370164058E+01  0.18880439919E+02  0.38373607890E+02  0.43408685848E+02  0.00000000000E+00 0. -1.
          2    1    1    2  501    0  0.23945514286E+03 -0.12441561617E+03 -0.22288093729E+03  0.34999131874E+03  0.00000000000E+00 0. -1.
<scales pt_clust_5="13000.00000" pt_clust_6="13000.00000" pt_clust_7="13000.00000" pt_clust_8="13000.00000" pt_clust_9="20.29237" pt_clust_10="263.34793"></scales>
<clustering>
<clus scale="   20.292">  1  9  2 -1</clus>
<clus scale="   82.545">  5  6 -1 -1</clus>
<clus scale="   91.615">  7  8 -1 -1</clus>
<clus scale="  105.271">  5  7 -1 -1</clus>
<clus scale="  263.348">  1 10  2 -1</clus>
<clus scale="   20.292">  1  5  2 -1</clus>
</clustering>
</event>
<event>
10    3  0.5078224E-005  0.6975322E+03  0.7546771E-02  0.9721929E-01
         21   -1    0    0  503  502  0.00000000000E+00  0.00000000000E+00  0.78304918341E+03  0.78304918341E+03  0.00000000000E+00 0. -1.
          1   -1    0    0  502    0 -0.00000000000E+00 -0.00000000000E+00 -0.10630016601E+04  0.10630016601E+04  0.00000000000E+00 0. -1.
        -24    2    1    2    0    0  0.54771760536E+03  0.43812576564E+03 -0.33282279064E+03  0.78071323127E+03  0.82421949539E+02 0.  0.
         23    2    1    2    0    0 -0.53693408571E+03 -0.39950858097E+03  0.29195393966E+03  0.73583454588E+03  0.91159516038E+02 0.  0.
         11    1    3    3    0    0  0.31629919209E+03  0.22044457326E+03 -0.21790688185E+03  0.44285934331E+03  0.00000000000E+00 0. -1.
        -12    1    3    3    0    0  0.23141841327E+03  0.21768119238E+03 -0.11491590879E+03  0.33785388796E+03  0.00000000000E+00 0.  1.
        -11    1    4    4    0    0 -0.42642963865E+02 -0.29662560316E+02  0.51997826753E+02  0.73498733585E+02  0.00000000000E+00 0.  1.
         11    1    4    4    0    0 -0.49429112184E+03 -0.36984602066E+03  0.23995611291E+03  0.66233581230E+03  0.00000000000E+00 0. -1.
         21    1    1    2  503  501 -0.11369574836E+02  0.52357279625E+02  0.18218905500E+02  0.56590462795E+02  0.00000000000E+00 0. -1.
          2    1    1    2  501    0  0.58605518444E+00 -0.90974464292E+02 -0.25730253117E+03  0.27291260352E+03  0.00000000000E+00 0. -1.
<scales pt_clust_5="13000.00000" pt_clust_6="13000.00000" pt_clust_7="13000.00000" pt_clust_8="13000.00000" pt_clust_9="53.57753" pt_clust_10="90.42767"></scales>
<clustering>
<clus scale="   53.578">  1  9  2 -1</clus>
<clus scale="   82.422">  5  6 -1 -1</clus>
<clus scale="   90.428">  1 10  2 -1</clus>
<clus scale="   91.160">  7  8 -1 -1</clus>
<clus scale="  696.444">  2  5  1 -1</clus>
<clus scale="   53.578">  1  5  2 -1</clus>
</clustering>
</event>
<event>
10    3  0.5078224E-005  0.1020739E+03  0.7546771E-02  0.1281080E+00
         21   -1    0    0  501  502  0.00000000000E+00  0.00000000000E+00  0.70386122438E+02  0.70386122438E+02  0.00000000000E+00 0.  1.
          1   -1    0    0  503    0 -0.00000000000E+00 -0.00000000000E+00 -0.39326315375E+03  0.39326315375E+03  0.00000000000E+00 0. -1.
         23    2    1    2    0    0 -0.18626757827E+02  0.25610647145E+02 -0.23888570718E+03  0.25752127625E+03  0.90818309118E+02 0.  0.
        -24    2    1    2    0    0  0.33655699932E+02 -0.73359766192E+02 -0.41244223746E+02  0.12093787432E+03  0.80065735608E+02 0.  0.
         11    1    4    4    0    0  0.19566862471E+02  0.14050588084E+02 -0.15827364173E+02  0.28823368803E+02  0.00000000000E+00 0. -1.
        -12    1    4    4    0    0  0.14088837461E+02 -0.87410354277E+02 -0.25416859573E+02  0.92114505516E+02  0.00000000000E+00 0.  1.
        -13    1    3    3    0    0  0.19692548858E+02  0.47745009730E+01 -0.68018541536E+01  0.21374226536E+02  0.00000000000E+00 0.  1.
         13    1    3    3    0    0 -0.38319306686E+02  0.20836146172E+02 -0.23208385303E+03  0.23614704971E+03  0.00000000000E+00 0. -1.
         21    1    1    2  503  502  0.13838638798E+02  0.15016051073E+02 -0.35492169552E+02  0.40947329743E+02  0.00000000000E+00 0.  1.
          2    1    1    2  501    0 -0.28867580902E+02  0.32733067975E+02 -0.72549308388E+01  0.44242795884E+02  0.00000000000E+00 0. -1.
<scales pt_clust_5="13000.00000" pt_clust_6="13000.00000" pt_clust_7="13000.00000" pt_clust_8="13000.00000" pt_clust_9="20.42033" pt_clust_10="43.82161"></scales>
<clustering>
<clus scale="   20.420">  2  9  1 -1</clus>
<clus scale="   43.822">  1 10  2 -1</clus>
<clus scale="   80.066">  5  6 -1 -1</clus>
<clus scale="   90.818">  7  8 -1 -1</clus>
<clus scale="   92.637">  1  5  2 -1</clus>
<clus scale="   43.822">  1  5  2 -1</clus>
</clustering>
</event>
<event>
10    3  0.5078224E-005  0.3166619E+03  0.7546771E-02  0.1116121E+00
          1   -1    0    0  502    0 -0.00000000000E+00  0.00000000000E+00  0.16639021901E+03  0.16639021901E+03  0.00000000000E+00 0. -1.
         21   -1    0    0  503  502  0.00000000000E+00 -0.00000000000E+00 -0.12045862843E+04  0.12045862843E+04  0.00000000000E+00 0. -1.
        -24    2    1    2    0    0  0.48098386794E+02 -0.63084502177E+02 -0.20864393500E+03  0.23803211741E+03  0.82667333814E+02 0.  0.
         23    2    1    2    0    0  0.23194596315E+03  0.15574561662E+03 -0.61035302904E+02  0.29996869675E+03  0.90555419003E+02 0.  0.
         13    1    3    3    0    0  0.52861632778E+01 -0.42682740264E+02 -0.28127267462E+02  0.51389717002E+02  0.00000000000E+00 0. -1.
        -14    1    3    3    0    0  0.42812223516E+02 -0.20401761913E+02 -0.18051666754E+03  0.18664240041E+03  0.00000000000E+00 0.  1.
        -11    1    4    4    0    0  0.28631864943E+02  0.62497997073E+02 -0.26448213962E+01  0.68795191754E+02  0.00000000000E+00 0.  1.
         11    1    4    4    0    0  0.20331409821E+03  0.93247619545E+02 -0.58390481508E+02  0.23117350499E+03  0.00000000000E+00 0. -1.
         21    1    1    2  503  501 -0.17541130720E+03 -0.35674138532E+02 -0.60319155709E+03  0.62919140601E+03  0.00000000000E+00 0. -1.
          2    1    1    2  501    0 -0.10463304274E+03 -0.56986975909E+02 -0.16532527028E+03  0.20378428313E+03  0.00000000000E+00 0. -1.
<scales pt_clust_5="13000.00000" pt_clust_6="13000.00000" pt_clust_7="13000.00000" pt_clust_8="13000.00000" pt_clust_9="103.90286" pt_clust_10="103.90286"></scales>
<clustering>
<clus scale="   82.667">  5  6 -1 -1</clus>
<clus scale="   90.555">  7  8 -1 -1</clus>
<clus scale="  103.903">  9 10 -1 -1</clus>
<clus scale="  114.573">  1  5  2 -1</clus>
<clus scale="  303.736">  1  7  2 -1</clus>
<clus scale="  316.662">  2  5  1 -1</clus>
</clustering>
</event>
<event>
10    3  0.5078224E-005  0.1526122E+03  0.7546771E-02  0.1199724E+00
          1   -1    0    0  502    0 -0.00000000000E+00  0.00000000000E+00  0.14732653074E+04  0.14732653074E+04  0.00000000000E+00 0. -1.
         21   -1    0    0  503  502  0.00000000000E+00 -0.00000000000E+00 -0.69528331494E+02  0.69528331494E+02  0.00000000000E+00 0.  1.
         23    2    1    2    0    0  0.69395908222E+02  0.10206999533E+03  0.61760243338E+03  0.63690245705E+03  0.94751770751E+02 0.  0.
        -24    2    1    2    0    0  0.71301115182E+02 -0.14613322164E+03  0.48680975777E+03  0.51967884441E+03  0.81508242378E+02 0.  0.
         11    1    4    4    0    0  0.45317341180E+02 -0.46113694928E+02  0.29290754836E+03  0.29995827403E+03  0.00000000000E+00 0. -1.
        -12    1    4    4    0    0  0.25983774002E+02 -0.10001952672E+03  0.19390220941E+03  0.21972057038E+03  0.00000000000E+00 0.  1.
        -13    1    3    3    0    0  0.92267431294E+02  0.91021966409E+02  0.49418022886E+03  0.51089370308E+03  0.00000000000E+00 0.  1.
         13    1    3    3    0    0 -0.22871523071E+02  0.11048028921E+02  0.12342220452E+03  0.12600875398E+03  0.00000000000E+00 0. -1.
         21    1    1    2  503  501 -0.22218065671E+02  0.49193387114E+02 -0.10033455471E+02  0.54902659376E+02  0.00000000000E+00 0.  1.
          2    1    1    2  501    0 -0.11847895773E+03 -0.51301607991E+01  0.30935824027E+03  0.33130967810E+03  0.00000000000E+00 0. -1.
<scales pt_clust_5="13000.00000" pt_clust_6="13000.00000" pt_clust_7="13000.00000" pt_clust_8="13000.00000" pt_clust_9="53.97807" pt_clust_10="125.41473"></scales>
<clustering>
<clus scale="   53.978">  2  9  1 -1</clus>
<clus scale="   81.508">  5  6 -1 -1</clus>
<clus scale="   94.752">  7  8 -1 -1</clus>
<clus scale="  125.415">  2 10  1 -1</clus>
<clus scale="  144.763">  2  5  1 -1</clus>
<clus scale="   53.978">  2  5  1 -1</clus>
</clustering>
</event>
<event>
10    3  0.5078224E-005  0.1788036E+03  0.7546771E-02  0.1169796E+00
          1   -1    0    0  502    0 -0.00000000000E+00  0.00000000000E+00  0.84670683213E+03  0.84670683213E+03  0.00000000000E+00 0. -1.
         21   -1    0    0  503  502  0.00000000000E+00 -0.00000000000E+00 -0.13944225791E+03  0.13944225791E+03  0.00000000000E+00 0.  1.
        -24    2    1    2    0    0  0.16295461926E+02  0.15137132947E+03  0.45805609255E+03  0.48960429237E+03  0.81964368627E+02 0.  0.
         23    2    1    2    0    0 -0.66544136789E+02 -0.16837514632E+03 -0.20877807519E+02  0.20279139585E+03  0.88939054099E+02 0.  0.
         13    1    3    3    0    0  0.28961040133E+02  0.13845746340E+03  0.31367781582E+03  0.34409734546E+03  0.00000000000E+00 0. -1.
        -14    1    3    3    0    0 -0.12665578207E+02  0.12913866072E+02  0.14437827673E+03  0.14550694691E+03  0.00000000000E+00 0.  1.
        -13    1    4    4    0    0  0.59994001209E+01 -0.10465579941E+03 -0.16676349781E+02  0.10614579499E+03  0.00000000000E+00 0.  1.
         13    1    4    4    0    0 -0.72543536910E+02 -0.63719346907E+02 -0.42014577380E+01  0.96645600856E+02  0.00000000000E+00 0. -1.
         21    1    1    2  503  501  0.11815351586E+02  0.23583458881E+02  0.63248560001E+01  0.27125373164E+02  0.00000000000E+00 0.  1.
          2    1    1    2  501    0  0.38433323278E+02 -0.65796420357E+01  0.26376143319E+03  0.26662802866E+03  0.00000000000E+00 0. -1.
<scales pt_clust_5="13000.00000" pt_clust_6="13000.00000" pt_clust_7="13000.00000" pt_clust_8="13000.00000" pt_clust_9="26.37768" pt_clust_10="39.07864"></scales>
<clustering>
<clus scale="   26.378">  2  9  1 -1</clus>
<clus scale="   39.079">  2 10  1 -1</clus>
<clus scale="   81.964">  5  6 -1 -1</clus>
<clus scale="   88.939">  7  8 -1 -1</clus>
<clus scale="  175.439">  1  5  2 -1</clus>
<clus scale="   26.378">  2  5  1 -1</clus>
</clustering>
</event>
<event>
10    3  0.5078224E-005  0.1226585E+03  0.7546771E-02  0.1243098E+00
         -4   -1    0    0    0  501 -0.00000000000E+00  0.00000000000E+00  0.59615119162E+03  0.59615119162E+03  0.00000000000E+00 0.  1.
         21   -1    0    0  501  502  0.00000000000E+00 -0.00000000000E+00 -0.49141475070E+02  0.49141475070E+02  0.00000000000E+00 0. -1.
         23    2    1    2    0    0  0.20795604347E+02  0.70018245014E+02  0.27924443127E+03  0.30377770834E+03  0.94701805148E+02 0.  0.
        -24    2    1    2    0    0  0.40037749307E+02 -0.95477194170E+02  0.13147642426E+03  0.18588666497E+03  0.80925188315E+02 0.  0.
         11    1    4    4    0    0  0.59796941878E+02 -0.38631917477E+02  0.73379826583E+02  0.10223843825E+03  0.00000000000E+00 0. -1.
        -12    1    4    4    0    0 -0.19759192571E+02 -0.56845276693E+02  0.58096597673E+02  0.83648226727E+02  0.00000000000E+00 0.  1.
        -11    1    3    3    0    0 -0.34885645021E+02  0.87966157711E+01  0.10217667908E+03  0.10832572374E+03  0.00000000000E+00 0. -1.
         11    1    3    3    0    0  0.55681249368E+02  0.61221629243E+02  0.17706775219E+03  0.19545198460E+03  0.00000000000E+00 0.  1.
         21    1    1    2  503  502 -0.21504774498E+02  0.88535559848E+00  0.16327792780E+02  0.27015477006E+02  0.00000000000E+00 0.  1.
         -3    1    1    2    0  503 -0.39328579156E+02  0.24573593557E+02  0.11996106825E+03  0.12861281637E+03  0.00000000000E+00 0.  1.
<scales pt_clust_5="13000.00000" pt_clust_6="13000.00000" pt_clust_7="13000.00000" pt_clust_8="13000.00000" pt_clust_9="21.52299" pt_clust_10="48.23367"></scales>
<clustering>
<clus scale="   21.523">  2  9  1 -1</clus>
<clus scale="   48.234">  2 10  1 -1</clus>
<clus scale="   80.925">  5  6 -1 -1</clus>
<clus scale="   94.702">  7  8 -1 -1</clus>
<clus scale="  112.364">  2  5  1 -1</clus>
<clus scale="   21.523">  2  5  1 -1</clus>
</clustering>
</event>
<event>
10    3  0.5078224E-005  0.1126022E+03  0.7546771E-02  0.1258090E+00
          1   -1    0    0  502    0 -0.00000000000E+00  0.00000000000E+00  0.57576790027E+03  0.57576790027E+03  0.00000000000E+00 0. -1.
         21   -1    0    0  503  502  0.00000000000E+00 -0.00000000000E+00 -0.78132713910E+02  0.78132713910E+02  0.00000000000E+00 0. -1.
         23    2    1    2    0    0  0.85544217618E+02 -0.19700860809E+02  0.23420606832E+03  0.26619695731E+03  0.91117509627E+02 0.  0.
        -24    2    1    2    0    0  0.24388671636E+02  0.74759792102E+02  0.17608423868E+03  0.21581677025E+03  0.96888520410E+02 0.  0.
         13    1    4    4    0    0  0.57867750527E+02  0.22631235135E+02  0.76793158457E+02  0.98782784636E+02  0.00000000000E+00 0. -1.
        -14    1    4    4    0    0 -0.33479078891E+02  0.52128556968E+02  0.99291080227E+02  0.11703398561E+03  0.00000000000E+00 0.  1.
        -13    1    3    3    0    0  0.46880931526E+02 -0.50231107904E+02  0.86356777643E+02  0.11035614612E+03  0.00000000000E+00 0. -1.
         13    1    3    3    0    0  0.38663286091E+02  0.30530247095E+02  0.14784929068E+03  0.15584081119E+03  0.00000000000E+00 0.  1.
         21    1    1    2  503  501 -0.39038199568E+02 -0.26968747367E+01 -0.10183782407E+02  0.40434682922E+02  0.00000000000E+00 0. -1.
          2    1    1    2  501    0 -0.70894689685E+02 -0.52362056557E+02  0.97528661769E+02  0.13145220370E+03  0.00000000000E+00 0. -1.
<scales pt_clust_5="13000.00000" pt_clust_6="13000.00000" pt_clust_7="13000.00000" pt_clust_8="13000.00000" pt_clust_9="39.13124" pt_clust_10="98.96354"></scales>
<clustering>
<clus scale="   39.131">  2  9  1 -1</clus>
<clus scale="   91.118">  7  8 -1 -1</clus>
<clus scale="   96.889">  5  6 -1 -1</clus>
<clus scale="   98.964">  2 10  1 -1</clus>
<clus scale="  107.677">  1  7  2 -1</clus>
<clus scale="   39.131">  2  5  1 -1</clus>
</clustering>
</event>
<event>
10    3  0.5078224E-005  0.1281010E+03  0.7546771E-02  0.1250823E+00
          1   -1    0    0  503    0 -0.00000000000E+00  0.00000000000E+00  0.23052580816E+03  0.23052580816E+03  0.00000000000E+00 0. -1.
         21   -1    0    0  501  502  0.00000000000E+00 -0.00000000000E+00 -0.17532293866E+03  0.17532293866E+03  0.00000000000E+00 0.  1.
        -24    2    1    2    0    0 -0.67787495843E+01 -0.26406460620E+02  0.23412028573E+02  0.89806874750E+02  0.82303700172E+02 0.  0.
         23    2    1    2    0    0  0.86089741292E+02 -0.18388764767E+02 -0.65847827686E+02  0.14236372447E+03  0.90453874475E+02 0.  0.
         13    1    3    3    0    0 -0.44011517210E+02 -0.68518247987E+01  0.98397068118E+01  0.45615578263E+02  0.00000000000E+00 0. -1.
        -14    1    3    3    0    0  0.37232767625E+02 -0.19554635822E+02  0.13572321761E+02  0.44191296486E+02  0.00000000000E+00 0.  1.
        -13    1    4    4    0    0  0.60324771119E+02 -0.15955245227E+02 -0.88285973706E+02  0.10811133620E+03  0.00000000000E+00 0.  1.
         13    1    4    4    0    0  0.25764970173E+02 -0.24335195401E+01  0.22438146021E+02  0.34252388270E+02  0.00000000000E+00 0. -1.
         21    1    1    2  503  502  0.90167598396E+01  0.37210360477E+02 -0.43629981202E+01  0.38535031302E+02  0.00000000000E+00 0.  1.
          2    1    1    2  501    0 -0.88327751547E+02  0.75848649105E+01  0.10200166673E+03  0.13514311631E+03  0.00000000000E+00 0. -1.
<scales pt_clust_5="13000.00000" pt_clust_6="13000.00000" pt_clust_7="13000.00000" pt_clust_8="13000.00000" pt_clust_9="38.28724" pt_clust_10="90.70815"></scales>
<clustering>
<clus scale="   38.287">  2  9  1 -1</clus>
<clus scale="   82.304">  5  6 -1 -1</clus>
<clus scale="   84.469">  1  5  2 -1</clus>
<clus scale="   90.454">  7  8 -1 -1</clus>
<clus scale="   90.708">  2 10  1 -1</clus>
<clus scale="   38.287">  2  5  1 -1</clus>
</clustering>
</event>
<event>
10    3  0.5078224E-005  0.2778894E+03  0.7546771E-02  0.1138278E+00
         21   -1    0    0  503  502  0.00000000000E+00  0.00000000000E+00  0.48678253687E+03  0.48678253687E+03  0.00000000000E+00 0.  1.
         -4   -1    0    0    0  501 -0.00000000000E+00 -0.00000000000E+00 -0.27106054833E+03  0.27106054833E+03  0.00000000000E+00 0.  1.
        -24    2    1    2    0    0  0.50233039556E+02 -0.19157214664E+02  0.40904188303E+02  0.10611990213E+03  0.81840844762E+02 0.  0.
         23    2    1    2    0    0 -0.15809701461E+03  0.21588730935E+03  0.24760090907E+03  0.37570218836E+03  0.90796078096E+02 0.  0.
         11    1    3    3    0    0 -0.44606425419E+01 -0.24777127954E+02 -0.13673646096E+02  0.28649118644E+02  0.00000000000E+00 0. -1.
        -12    1    3    3    0    0  0.54693682098E+02  0.56199132903E+01  0.54577834398E+02  0.77470783489E+02  0.00000000000E+00 0.  1.
        -11    1    4    4    0    0 -0.12218985244E+03  0.93378269183E+02  0.11854553245E+03  0.19417235761E+03  0.00000000000E+00 0.  1.
         11    1    4    4    0    0 -0.35907162169E+02  0.12250904017E+03  0.12905537662E+03  0.18152983075E+03  0.00000000000E+00 0. -1.
         21    1    1    2  503  501  0.94197439438E+01  0.20577374089E+02  0.82205815320E+01  0.24077746180E+02  0.00000000000E+00 0. -1.
         -3    1    1    2    0  502  0.98444231108E+02 -0.21730746878E+03 -0.81003690368E+02  0.25194324853E+03  0.00000000000E+00 0.  1.
<scales pt_clust_5="13000.00000" pt_clust_6="13000.00000" pt_clust_7="13000.00000" pt_clust_8="13000.00000" pt_clust_9="22.63095" pt_clust_10="262.63785"></scales>
<clustering>
<clus scale="   22.631">  1  9  2 -1</clus>
<clus scale="   81.841">  5  6 -1 -1</clus>
<clus scale="   90.796">  7  8 -1 -1</clus>
<clus scale="   98.109">  2  5  1 -1</clus>
<clus scale="  262.638">  1 10  2 -1</clus>
<clus scale="   22.631">  1  5  2 -1</clus>
</clustering>
</event>
<event>
10    3  0.5078224E-005  0.1128370E+03  0.7546771E-02  0.1259283E+00
         21   -1    0    0  501  502  0.00000000000E+00  0.00000000000E+00  0.40784762885E+03  0.40784762885E+03  0.00000000000E+00 0. -1.
          3   -1    0    0  503    0 -0.00000000000E+00 -0.00000000000E+00 -0.20492896354E+03  0.20492896354E+03  0.00000000000E+00 0. -1.
         23    2    1    2    0    0  0.56488862968E+02 -0.24901075476E+02 -0.13127858064E+03  0.17131418889E+03  0.91123160503E+02 0.  0.
        -24    2    1    2    0    0 -0.59231923411E+02  0.66728537067E+02  0.18664155234E+02  0.12167700004E+03  0.80596670148E+02 0.  0.
         11    1    4    4    0    0 -0.69491468617E+02  0.58984741531E+02 -0.85801706437E+01  0.91552625699E+02  0.00000000000E+00 0. -1.
        -12    1    4    4    0    0  0.10259545206E+02  0.77437955353E+01  0.27244325878E+02  0.30124374345E+02  0.00000000000E+00 0.  1.
        -11    1    3    3    0    0  0.48923737299E+02  0.12478510995E+02 -0.21099664973E+02  0.54721487278E+02  0.00000000000E+00 0. -1.
         11    1    3    3    0    0  0.75651256689E+01 -0.37379586470E+02 -0.11017891567E+03  0.11659270161E+03  0.00000000000E+00 0.  1.
         21    1    1    2  503  502 -0.13845441159E+02 -0.14824373515E+02  0.12226804120E+03  0.12393922781E+03  0.00000000000E+00 0.  1.
          4    1    1    2  501    0  0.16588501603E+02 -0.27003088076E+02  0.19326504951E+03  0.19584617564E+03  0.00000000000E+00 0. -1.
<scales pt_clust_5="13000.00000" pt_clust_6="13000.00000" pt_clust_7="13000.00000" pt_clust_8="13000.00000" pt_clust_9="20.28443" pt_clust_10="37.81011"></scales>
<clustering>
<clus scale="   20.284">  1  9  2 -1</clus>
<clus scale="   37.810">  1 10  2 -1</clus>
<clus scale="   80.597">  5  6 -1 -1</clus>
<clus scale="   91.123">  7  8 -1 -1</clus>
<clus scale="  104.521">  1  5  2 -1</clus>
<clus scale="   20.284">  1  5  2 -1</clus>
</clustering>
</event>
<event>
10    3  0.5078224E-005  0.4239181E+03  0.7546771E-02  0.1088346E+00
         21   -1    0    0  501  502  0.00000000000E+00  0.00000000000E+00  0.24166176914E+03  0.24166176914E+03  0.00000000000E+00 0.  1.
          1   -1    0    0  503    0 -0.00000000000E+00 -0.00000000000E+00 -0.14994336337E+04  0.14994336337E+04  0.00000000000E+00 0. -1.
         23    2    1    2    0    0 -0.58201696283E+01 -0.35583811199E+02 -0.17790783660E+03  0.20393915239E+03  0.92951049272E+02 0.  0.
        -24    2    1    2    0    0  0.24574987695E+03  0.30461527388E+03 -0.49406992802E+03  0.63536703228E+03  0.80016903399E+02 0.  0.
         11    1    4    4    0    0  0.19130163016E+02  0.57425491918E+02 -0.10952632501E+03  0.12513858769E+03  0.00000000000E+00 0. -1.
        -12    1    4    4    0    0  0.22661971393E+03  0.24718978197E+03 -0.38454360302E+03  0.51022844459E+03  0.00000000000E+00 0.  1.
        -13    1    3    3    0    0  0.12371231890E+01 -0.62337686421E+02 -0.75798903663E+02  0.98147803942E+02  0.00000000000E+00 0. -1.
         13    1    3    3    0    0 -0.70572928173E+01  0.26753875222E+02 -0.10210893294E+03  0.10579134845E+03  0.00000000000E+00 0.  1.
         21    1    1    2  503  502  0.57298608728E+02  0.56295358147E+02  0.73439861304E+02  0.10883800411E+03  0.00000000000E+00 0.  1.
          2    1    1    2  501    0 -0.29722831605E+03 -0.32532682083E+03 -0.65923396119E+03  0.79295121401E+03  0.00000000000E+00 0. -1.
<scales pt_clust_5="13000.00000" pt_clust_6="13000.00000" pt_clust_7="13000.00000" pt_clust_8="13000.00000" pt_clust_9="80.32620" pt_clust_10="416.29782"></scales>
<clustering>
<clus scale="   80.017">  5  6 -1 -1</clus>
<clus scale="   80.326">  1  9  2 -1</clus>
<clus scale="   92.951">  7  8 -1 -1</clus>
<clus scale="   97.899">  2  7  1 -1</clus>
<clus scale="  416.298">  1 10  2 -1</clus>
<clus scale="   80.326">  1  5  2 -1</clus>
</clustering>
</event>
<event>
10    3  0.5078224E-005  0.1843536E+03  0.7546771E-02  0.1164517E+00
          1   -1    0    0  503    0 -0.00000000000E+00  0.00000000000E+00  0.22267007482E+04  0.22267007482E+04  0.00000000000E+00 0. -1.
         21   -1    0    0  501  502  0.00000000000E+00 -0.00000000000E+00 -0.75461416196E+02  0.75461416196E+02  0.00000000000E+00 0.  1.
        -24    2    1    2    0    0  0.16493796517E+03  0.19989980538E+02  0.93346943728E+03  0.95150251144E+03  0.79923133420E+02 0.  0.
         23    2    1    2    0    0 -0.12944378661E+03 -0.82960874042E+02  0.11740842278E+03  0.21245675906E+03  0.87834709648E+02 0.  0.
         11    1    3    3    0    0  0.16999024907E+03  0.14184197545E+02  0.80863968742E+03  0.82643573272E+03  0.00000000000E+00 0. -1.
        -12    1    3    3    0    0 -0.50522839072E+01  0.58057829922E+01  0.12482974986E+03  0.12506677872E+03  0.00000000000E+00 0.  1.
        -11    1    4    4    0    0  0.23410762447E+01 -0.36307887386E+02  0.33204689707E+02  0.49257433378E+02  0.00000000000E+00 0. -1.
         11    1    4    4    0    0 -0.13178486285E+03 -0.46652986656E+02  0.84203733069E+02  0.16319932568E+03  0.00000000000E+00 0.  1.
         21    1    1    2  503  502 -0.60610889612E+02 -0.75485848646E+02  0.15731304284E+03  0.18471379681E+03  0.00000000000E+00 0.  1.
          2    1    1    2  501    0  0.25116711054E+02  0.13845674215E+03  0.94304842909E+03  0.95348909707E+03  0.00000000000E+00 0. -1.
<scales pt_clust_5="13000.00000" pt_clust_6="13000.00000" pt_clust_7="13000.00000" pt_clust_8="13000.00000" pt_clust_9="96.80802" pt_clust_10="133.58112"></scales>
<clustering>
<clus scale="   79.923">  5  6 -1 -1</clus>
<clus scale="   87.835">  7  8 -1 -1</clus>
<clus scale="   96.808">  2  9  1 -1</clus>
<clus scale="  133.581">  2 10  1 -1</clus>
<clus scale="  180.718">  1  5  2 -1</clus>
<clus scale="   96.808">  2  5  1 -1</clus>
</clustering>
</event>
<event>
10    3  0.5078224E-005  0.3182508E+03  0.7546771E-02  0.1094008E+00
         21   -1    0    0  503  502  0.00000000000E+00  0.00000000000E+00  0.20232414941E+03  0.20232414941E+03  0.00000000000E+00 0. -1.
          1   -1    0    0  502    0 -0.00000000000E+00 -0.00000000000E+00 -0.13873537569E+04  0.13873537569E+04  0.00000000000E+00 0. -1.
         23    2    1    2    0    0  0.14886794980E+02  0.18183476815E+03 -0.71687118160E+03  0.74448808536E+03  0.84099456925E+02 0.  0.
        -24    2    1    2    0    0  0.21152514475E+03 -0.31853582629E+03 -0.20289213302E+03  0.44051794425E+03  0.81748896421E+02 0.  0.
         13    1    4    4    0    0  0.20841970970E+03 -0.32368438940E+03 -0.20029722647E+03  0.43396928263E+03  0.00000000000E+00 0. -1.
        -14    1    4    4    0    0  0.31054350532E+01  0.51485631096E+01 -0.25949065529E+01  0.65486616176E+01  0.00000000000E+00 0.  1.
        -11    1    3    3    0    0 -0.81127844374E+01  0.71891001589E+02 -0.14925535060E+03  0.16586528589E+03  0.00000000000E+00 0.  1.
         11    1    3    3    0    0  0.22999579418E+02  0.10994376656E+03 -0.56761583101E+03  0.57862279947E+03  0.00000000000E+00 0. -1.
         21    1    1    2  503  501 -0.42655973571E+02 -0.20206573538E+02 -0.18783849083E+01  0.47237337195E+02  0.00000000000E+00 0. -1.
          2    1    1    2  501    0 -0.18375596616E+03  0.15690763168E+03 -0.26338790795E+03  0.35743453951E+03  0.00000000000E+00 0. -1.
<scales pt_clust_5="13000.00000" pt_clust_6="13000.00000" pt_clust_7="13000.00000" pt_clust_8="13000.00000" pt_clust_9="47.19998" pt_clust_10="307.57239"></scales>
<clustering>
<clus scale="   47.200">  1  9  2 -1</clus>
<clus scale="   81.749">  5  6 -1 -1</clus>
<clus scale="   84.099">  7  8 -1 -1</clus>
<clus scale="  199.271">  2  7  1 -1</clus>
<clus scale="  307.572">  1 10  2 -1</clus>
<clus scale="   47.200">  1  5  2 -1</clus>
</clustering>
</event>
<event>
10    3  0.5078224E-005  0.1039118E+03  0.7546771E-02  0.1275973E+00
         21   -1    0    0  503  502  0.00000000000E+00  0.00000000000E+00  0.54391633795E+03  0.54391633795E+03  0.00000000000E+00 0.  1.
         -4   -1    0    0    0  501 -0.00000000000E+00 -0.00000000000E+00 -0.17683315050E+03  0.17683315050E+03  0.00000000000E+00 0.  1.
         23    2    1    2    0    0 -0.16027108554E+02 -0.61019905957E+02 -0.81620029482E+02  0.13508844344E+03  0.87216748434E+02 0.  0.
        -24    2    1    2    0    0 -0.56312068336E+02  0.44273542324E+02  0.27553155284E+02  0.10985493512E+03  0.78598567501E+02 0.  0.
         13    1    4    4    0    0 -0.35279344870E+00  0.39286303566E+02  0.35701401127E+02  0.53086044810E+02  0.00000000000E+00 0. -1.
        -14    1    4    4    0    0 -0.55959274887E+02  0.49872387580E+01 -0.81482458432E+01  0.56768890307E+02  0.00000000000E+00 0.  1.
        -11    1    3    3    0    0 -0.47112889469E+02 -0.12889722547E+02 -0.26438204638E+02  0.55540507433E+02  0.00000000000E+00 0.  1.
         11    1    3    3    0    0  0.31085780915E+02 -0.48130183410E+02 -0.55181824844E+02  0.79547936009E+02  0.00000000000E+00 0. -1.
         21    1    1    2  503  501 -0.33020781998E+02  0.38555083767E+02  0.33262282672E+03  0.33647408723E+03  0.00000000000E+00 0.  1.
         -3    1    1    2    0  502  0.10535995889E+03 -0.21808720134E+02  0.88527234939E+02  0.13933202265E+03  0.00000000000E+00 0.  1.
<scales pt_clust_5="13000.00000" pt_clust_6="13000.00000" pt_clust_7="13000.00000" pt_clust_8="13000.00000" pt_clust_9="50.76285" pt_clust_10="87.39530"></scales>
<clustering>
<clus scale="   50.763">  1  9  2 -1</clus>
<clus scale="   78.599">  5  6 -1 -1</clus>
<clus scale="   87.217">  7  8 -1 -1</clus>
<clus scale="   87.395">  1 10  2 -1</clus>
<clus scale="   96.792">  1  5  2 -1</clus>
<clus scale="   50.763">  1  5  2 -1</clus>
</clustering>
</event>
<event>
10    3  0.5078224E-005  0.3627286E+03  0.7546771E-02  0.1057509E+00
         21   -1    0    0  503  502  0.00000000000E+00  0.00000000000E+00  0.17032981264E+03  0.17032981264E+03  0.00000000000E+00 0. -1.
          1   -1    0    0  502    0 -0.00000000000E+00 -0.00000000000E+00 -0.10872887148E+04  0.10872887148E+04  0.00000000000E+00 0. -1.
        -24    2    1    2    0    0 -0.83012695404E+02  0.10852176709E+03 -0.47137594830E+03  0.49713331398E+03  0.79234876754E+02 0.  0.
         23    2    1    2    0    0 -0.11494611032E+03  0.96589294654E+02 -0.24142856944E+03  0.30123850266E+03  0.99572994437E+02 0.  0.
         11    1    3    3    0    0 -0.60372527344E+02  0.42630812410E+02 -0.34496942051E+03  0.35279757555E+03  0.00000000000E+00 0. -1.
        -12    1    3    3    0    0 -0.22640168059E+02  0.65890954685E+02 -0.12640652779E+03  0.14433573843E+03  0.00000000000E+00 0.  1.
        -13    1    4    4    0    0 -0.11187040907E+03  0.43842720834E+02 -0.20304027253E+03  0.23592906745E+03  0.00000000000E+00 0.  1.
         13    1    4    4    0    0 -0.30757012451E+01  0.52746573819E+02 -0.38388296910E+02  0.65309435210E+02  0.00000000000E+00 0. -1.
         21    1    1    2  503  501  0.98587817451E+01  0.23005536170E+02  0.58585350226E+02  0.63707876539E+02  0.00000000000E+00 0. -1.
          2    1    1    2  501    0  0.18810002398E+03 -0.22811659792E+03 -0.26273973466E+03  0.39553883430E+03  0.00000000000E+00 0. -1.
<scales pt_clust_5="13000.00000" pt_clust_6="13000.00000" pt_clust_7="13000.00000" pt_clust_8="13000.00000" pt_clust_9="25.02899" pt_clust_10="289.00343"></scales>
<clustering>
<clus scale="   25.029">  1  9  2 -1</clus>
<clus scale="   79.235">  5  6 -1 -1</clus>
<clus scale="   99.573">  7  8 -1 -1</clus>
<clus scale="  153.689">  5  7 -1 -1</clus>
<clus scale="  289.003">  1 10  2 -1</clus>
<clus scale="   25.029">  1  5  2 -1</clus>
</clustering>
</event>
<event>
10    3  0.5078224E-005  0.1240599E+03  0.7546771E-02  0.1238790E+00
          1   -1    0    0  503    0 -0.00000000000E+00  0.00000000000E+00  0.19998917547E+03  0.19998917547E+03  0.00000000000E+00 0. -1.
         21   -1    0    0  501  502  0.00000000000E+00 -0.00000000000E+00 -0.61439721182E+03  0.61439721182E+03  0.00000000000E+00 0.  1.
        -24    2    1    2    0    0  0.85801028149E+02  0.10414348142E+02  0.22330417798E+02  0.12312372907E+03  0.84796993009E+02 0.  0.
         23    2    1    2    0    0 -0.57870542023E+02  0.88627743715E+02 -0.40519794864E+03  0.42886585205E+03  0.92394073829E+02 0.  0.
         13    1    3    3    0    0 -0.18943615751E+01 -0.20286031541E+02  0.22305184901E+02  0.30209815539E+02  0.00000000000E+00 0. -1.
        -14    1    3    3    0    0  0.87695389724E+02  0.30700379683E+02  0.25232896752E-01  0.92913913534E+02  0.00000000000E+00 0.  1.
        -13    1    4    4    0    0 -0.35218519719E+02  0.10346434147E+03 -0.35951168797E+03  0.37575772497E+03  0.00000000000E+00 0.  1.
         13    1    4    4    0    0 -0.22652022304E+02 -0.14836597758E+02 -0.45686260673E+02  0.53108127078E+02  0.00000000000E+00 0. -1.
         21    1    1    2  503  502 -0.23473219565E+02 -0.31309945252E+00 -0.12451443684E+03  0.12670807018E+03  0.00000000000E+00 0. -1.
          2    1    1    2  501    0 -0.44572665612E+01 -0.98728992405E+02  0.92973931338E+02  0.13568873599E+03  0.00000000000E+00 0. -1.
<scales pt_clust_5="13000.00000" pt_clust_6="13000.00000" pt_clust_7="13000.00000" pt_clust_8="13000.00000" pt_clust_9="23.47531" pt_clust_10="98.89483"></scales>
<clustering>
<clus scale="   23.475">  2  9  1 -1</clus>
<clus scale="   84.797">  5  6 -1 -1</clus>
<clus scale="   92.394">  7  8 -1 -1</clus>
<clus scale="   98.895">  2 10  1 -1</clus>
<clus scale="  118.510">  1  5  2 -1</clus>
<clus scale="   23.475">  2  5  1 -1</clus>
</clustering>
</event>
<event>
10    3  0.5078224E-005  0.1548548E+03  0.7546771E-02  0.1216689E+00
          1   -1    0    0  503    0 -0.00000000000E+00  0.00000000000E+00  0.26109272455E+03  0.26109272455E+03  0.00000000000E+00 0. -1.
         21   -1    0    0  501  502  0.00000000000E+00 -0.00000000000E+00 -0.19001272358E+03  0.19001272358E+03  0.00000000000E+00 0. -1.
         23    2    1    2    0    0 -0.21881520756E+02  0.12429436553E+02 -0.47426919681E+02  0.10641175827E+03  0.91874140775E+02 0.  0.
        -24    2    1    2    0    0 -0.10667894969E+03 -0.15862673436E+02  0.58046001985E+02  0.14766084486E+03  0.82476445376E+02 0.  0.
         11    1    4    4    0    0 -0.89872489144E+02 -0.11493609547E+02  0.79166391258E+02  0.12031826491E+03  0.00000000000E+00 0. -1.
        -12    1    4    4    0    0 -0.16806460545E+02 -0.43690638885E+01 -0.21120389272E+02  0.27342579950E+02  0.00000000000E+00 0.  1.
        -13    1    3    3    0    0 -0.11610713448E+02 -0.31784284651E+02 -0.50642054268E+02  0.60907036358E+02  0.00000000000E+00 0. -1.
         13    1    3    3    0    0 -0.10270807309E+02  0.44213721203E+02  0.32151345869E+01  0.45504721907E+02  0.00000000000E+00 0.  1.
         21    1    1    2  503  502 -0.27341979737E+02  0.14601458086E+02  0.13673051980E+02  0.33878293709E+02  0.00000000000E+00 0. -1.
          2    1    1    2  501    0  0.15590245018E+03 -0.11168221203E+02  0.46787866686E+02  0.16315455129E+03  0.00000000000E+00 0. -1.
<scales pt_clust_5="13000.00000" pt_clust_6="13000.00000" pt_clust_7="13000.00000" pt_clust_8="13000.00000" pt_clust_9="30.99656" pt_clust_10="131.06352"></scales>
<clustering>
<clus scale="   30.997">  1  9  2 -1</clus>
<clus scale="   82.476">  5  6 -1 -1</clus>
<clus scale="   91.874">  7  8 -1 -1</clus>
<clus scale="   96.347">  1  7  2 -1</clus>
<clus scale="  131.064">  2 10  1 -1</clus>
<clus scale="  131.064">  2  5  1 -1</clus>
</clustering>
</event>
<event>
10    3  0.5078224E-005  0.3259869E+03  0.7546771E-02  0.1072926E+00
         21   -1    0    0  503  502  0.00000000000E+00  0.00000000000E+00  0.21777829293E+03  0.21777829293E+03  0.00000000000E+00 0.  1.
          1   -1    0    0  502    0 -0.00000000000E+00 -0.00000000000E+00 -0.52431258823E+03  0.52431258823E+03  0.00000000000E+00 0. -1.
        -24    2    1    2    0    0  0.70873680205E+02 -0.11830635972E+03 -0.29029731750E+02  0.16297724664E+03  0.81849766647E+02 0.  0.
         23    2    1    2    0    0  0.13547966092E+03 -0.47944705969E+02  0.18551840182E+01  0.17043158815E+03  0.91597222544E+02 0.  0.
         11    1    3    3    0    0 -0.92132042961E+01 -0.23372949459E+02 -0.29533434128E+02  0.38773723463E+02  0.00000000000E+00 0. -1.
        -12    1    3    3    0    0  0.80086884501E+02 -0.94933410259E+02  0.50370237763E+00  0.12420352317E+03  0.00000000000E+00 0.  1.
        -13    1    4    4    0    0  0.12735865811E+02 -0.20053956387E+02  0.33096403599E+02  0.40739849974E+02  0.00000000000E+00 0.  1.
         13    1    4    4    0    0  0.12274379511E+03 -0.27890749581E+02 -0.31241219581E+02  0.12969173817E+03  0.00000000000E+00 0. -1.
         21    1    1    2  503  501  0.10532142383E+02  0.32272041732E+02 -0.52544198620E+01  0.34351413782E+02  0.00000000000E+00 0. -1.
          2    1    1    2  501    0 -0.21688548351E+03  0.13397902395E+03 -0.27410532771E+03  0.37433063259E+03  0.00000000000E+00 0. -1.
<scales pt_clust_5="13000.00000" pt_clust_6="13000.00000" pt_clust_7="13000.00000" pt_clust_8="13000.00000" pt_clust_9="33.94718" pt_clust_10="257.03236"></scales>
<clustering>
<clus scale="   33.947">  1  9  2 -1</clus>
<clus scale="   81.850">  5  6 -1 -1</clus>
<clus scale="   91.597">  7  8 -1 -1</clus>
<clus scale="  132.519">  5  7 -1 -1</clus>
<clus scale="  257.032">  1 10  2 -1</clus>
<clus scale="   33.947">  1  5  2 -1</clus>
</clustering>
</event>
<event>
10    3  0.5078224E-005  0.1614558E+03  0.7546771E-02  0.1211002E+00
          1   -1    0    0  502    0 -0.00000000000E+00  0.00000000000E+00  0.23578792827E+03  0.23578792827E+03  0.00000000000E+00 0. -1.
         21   -1    0    0  503  502  0.00000000000E+00 -0.00000000000E+00 -0.35087241725E+03  0.35087241725E+03  0.00000000000E+00 0. -1.
         23    2    1    2    0    0 -0.30259565946E+02  0.10656425387E+02  0.99033192052E+02  0.13864092290E+03  0.91567088203E+02 0.  0.
        -24    2    1    2    0    0  0.10116711963E+03  0.10712337076E+03 -0.17656181339E+03  0.24651130893E+03  0.88789350831E+02 0.  0.
         13    1    4    4    0    0  0.92372701258E+02  0.43200996698E+02 -0.76630604422E+02  0.12755897298E+03  0.00000000000E+00 0. -1.
        -14    1    4    4    0    0  0.87944183755E+01  0.63922374066E+02 -0.99931208973E+02  0.11895233595E+03  0.00000000000E+00 0.  1.
        -11    1    3    3    0    0 -0.52442304535E+02 -0.81440645461E+01  0.24144437757E+02  0.58305016653E+02  0.00000000000E+00 0. -1.
         11    1    3    3    0    0  0.22182738590E+02  0.18800489933E+02  0.74888754295E+02  0.80335906250E+02  0.00000000000E+00 0.  1.
         21    1    1    2  503  501  0.37862425354E+02 -0.58243274833E+02 -0.34282341053E+02  0.77466904063E+02  0.00000000000E+00 0. -1.
          2    1    1    2  501    0 -0.10876997904E+03 -0.59536521318E+02 -0.32735265843E+01  0.12404120963E+03  0.00000000000E+00 0. -1.
<scales pt_clust_5="13000.00000" pt_clust_6="13000.00000" pt_clust_7="13000.00000" pt_clust_8="13000.00000" pt_clust_9="69.46828" pt_clust_10="134.84975"></scales>
<clustering>
<clus scale="   69.468">  2  9  1 -1</clus>
<clus scale="   88.789">  5  6 -1 -1</clus>
<clus scale="   91.567">  7  8 -1 -1</clus>
<clus scale="   95.908">  1  7  2 -1</clus>
<clus scale="  134.850">  2 10  1 -1</clus>
<clus scale="   69.468">  2  5  1 -1</clus>
</clustering>
</event>
<event>
10    3  0.6234153E-005  0.2759335E+03  0.7546771E-02  0.1118207E+00
         21   -1    0    0  503  502  0.00000000000E+00  0.00000000000E+00  0.39535459032E+03  0.39535459032E+03  0.00000000000E+00 0.  1.
         -2   -1    0    0    0  501 -0.00000000000E+00 -0.00000000000E+00 -0.47871593521E+03  0.47871593521E+03  0.00000000000E+00 0.  1.
        -24    2    1    2    0    0  0.44211775196E+02 -0.12999846887E+03  0.19508444982E+02  0.16024594939E+03  0.80273917904E+02 0.  0.
         23    2    1    2    0    0 -0.61426772205E+02  0.37193705466E+03 -0.20734540564E+03  0.43977522701E+03  0.91102755581E+02 0.  0.
         11    1    3    3    0    0 -0.20039073116E+00 -0.65600088268E+02 -0.25047001661E+02  0.70219399238E+02  0.00000000000E+00 0. -1.
        -12    1    3    3    0    0  0.44412165927E+02 -0.64398380601E+02  0.44555446644E+02  0.90026550150E+02  0.00000000000E+00 0.  1.
        -13    1    4    4    0    0 -0.82041677575E+02  0.33824987819E+03 -0.18107390842E+03  0.39234114909E+03  0.00000000000E+00 0.  1.
         13    1    4    4    0    0  0.20614905370E+02  0.33687176472E+02 -0.26271497220E+02  0.47434077921E+02  0.00000000000E+00 0. -1.
         21    1    1    2  503  501  0.86007638631E+01 -0.22363179921E+02  0.37179677809E+02  0.44231362145E+02  0.00000000000E+00 0. -1.
         -1    1    1    2    0  502  0.86142331458E+01 -0.21957540587E+03  0.67295937969E+02  0.22981798699E+03  0.00000000000E+00 0.  1.
<scales pt_clust_5="13000.00000" pt_clust_6="13000.00000" pt_clust_7="13000.00000" pt_clust_8="13000.00000" pt_clust_9="23.96007" pt_clust_10="260.46030"></scales>
<clustering>
<clus scale="   23.960">  1  9  2 -1</clus>
<clus scale="   80.274">  5  6 -1 -1</clus>
<clus scale="   91.103">  7  8 -1 -1</clus>
<clus scale="  164.321">  2  5  1 -1</clus>
<clus scale="  260.460">  1 10  2 -1</clus>
<clus scale="   23.960">  1  5  2 -1</clus>
</clustering>
</event>
<event>
10    3  0.5078224E-005  0.1846754E+03  0.7546771E-02  0.1171878E+00
         21   -1    0    0  501  502  0.00000000000E+00  0.00000000000E+00  0.28372540550E+03  0.28372540550E+03  0.00000000000E+00 0. -1.
          1   -1    0    0  503    0 -0.00000000000E+00 -0.00000000000E+00 -0.69953571923E+03  0.69953571923E+03  0.00000000000E+00 0. -1.
         23    2    1    2    0    0 -0.10515666473E+03 -0.72864752964E+02 -0.40391830591E+02  0.16218270722E+03  0.91129216932E+02 0.  0.
        -24    2    1    2    0    0  0.26279290277E+02  0.18095183030E+03 -0.44980229611E+03  0.49200716978E+03  0.79465612348E+02 0.  0.
         13    1    4    4    0    0 -0.40897614673E+01  0.15328911730E+03 -0.39341071202E+03  0.42223958598E+03  0.00000000000E+00 0. -1.
        -14    1    4    4    0    0  0.30369051744E+02  0.27662712996E+02 -0.56391584088E+02  0.69767583806E+02  0.00000000000E+00 0.  1.
        -11    1    3    3    0    0 -0.86549313635E+02 -0.66656799700E+01 -0.11378828563E+02  0.87548230819E+02  0.00000000000E+00 0. -1.
         11    1    3    3    0    0 -0.18607351099E+02 -0.66199072994E+02 -0.29013002028E+02  0.74634476396E+02  0.00000000000E+00 0.  1.
         21    1    1    2  503  502 -0.21421205290E+02  0.80361672740E+02  0.80167895000E+02  0.11551518459E+03  0.00000000000E+00 0. -1.
          2    1    1    2  501    0  0.10029857975E+03 -0.18844875007E+03 -0.57840820288E+01  0.21355606315E+03  0.00000000000E+00 0. -1.
<scales pt_clust_5="13000.00000" pt_clust_6="13000.00000" pt_clust_7="13000.00000" pt_clust_8="13000.00000" pt_clust_9="83.16770" pt_clust_10="166.70397"></scales>
<clustering>
<clus scale="   79.466">  5  6 -1 -1</clus>
<clus scale="   83.168">  1  9  2 -1</clus>
<clus scale="   91.129">  7  8 -1 -1</clus>
<clus scale="  151.834">  2  7  1 -1</clus>
<clus scale="  166.704">  1 10  2 -1</clus>
<clus scale="   83.168">  1  5  2 -1</clus>
</clustering>
</event>
<event>
10    3  0.5078224E-005  0.2035985E+03  0.7546771E-02  0.1174255E+00
         21   -1    0    0  501  502  0.00000000000E+00  0.00000000000E+00  0.79252785960E+02  0.79252785960E+02  0.00000000000E+00 0. -1.
          1   -1    0    0  503    0 -0.00000000000E+00 -0.00000000000E+00 -0.22570493844E+04  0.22570493844E+04  0.00000000000E+00 0. -1.
         23    2    1    2    0    0  0.52227559755E+02  0.23839427689E+02 -0.20954530763E+03  0.23544113901E+03  0.90704231880E+02 0.  0.
        -24    2    1    2    0    0  0.12685103295E+03 -0.14291191079E+03 -0.65435633509E+03  0.68642697587E+03  0.80528138679E+02 0.  0.
         11    1    4    4    0    0  0.88368835159E+02 -0.13513631898E+03 -0.44421733174E+03  0.47265200047E+03  0.00000000000E+00 0. -1.
        -12    1    4    4    0    0  0.38482197790E+02 -0.77755918107E+01 -0.21013900336E+03  0.21377497540E+03  0.00000000000E+00 0.  1.
        -11    1    3    3    0    0  0.42776326786E+02 -0.13666882728E+02 -0.18324610366E+03  0.18866831298E+03  0.00000000000E+00 0.  1.
         11    1    3    3    0    0  0.94512329694E+01  0.37506310417E+02 -0.26299203968E+02  0.46772826032E+02  0.00000000000E+00 0. -1.
         21    1    1    2  503  502 -0.23002474049E+03 -0.40350196751E+02 -0.26904647641E+03  0.35626608888E+03  0.00000000000E+00 0. -1.
          2    1    1    2  501    0  0.50946147781E+02  0.15942267985E+03 -0.10448484793E+04  0.10581679666E+04  0.00000000000E+00 0. -1.
<scales pt_clust_5="13000.00000" pt_clust_6="13000.00000" pt_clust_7="13000.00000" pt_clust_8="13000.00000" pt_clust_9="186.99614" pt_clust_10="188.60087"></scales>
<clustering>
<clus scale="   80.528">  5  6 -1 -1</clus>
<clus scale="   90.704">  7  8 -1 -1</clus>
<clus scale="  107.347">  2  7  1 -1</clus>
<clus scale="  188.601">  1 10  2 -1</clus>
<clus scale="  186.996">  1  9  2 -1</clus>
<clus scale="  188.601">  1  5  2 -1</clus>
</clustering>
</event>
<event>
10    3  0.5078224E-005  0.1874446E+03  0.7546771E-02  0.1162008E+00
          1   -1    0    0  503    0 -0.00000000000E+00  0.00000000000E+00  0.16337837627E+04  0.16337837627E+04  0.00000000000E+00 0. -1.
         21   -1    0    0  501  502  0.00000000000E+00 -0.00000000000E+00 -0.82989840528E+02  0.82989840528E+02  0.00000000000E+00 0. -1.
         23    2    1    2    0    0  0.14214571780E+03  0.11845759237E+03  0.12004905057E+04  0.12181535631E+04  0.92103434577E+02 0.  0.
        -24    2    1    2    0    0  0.21437831538E+02 -0.12467774622E+03  0.11195449581E+03  0.18730331648E+03  0.80898715753E+02 0.  0.
         13    1    4    4    0    0  0.37597832048E+02 -0.73935117663E+02  0.27358676208E+02  0.87341260366E+02  0.00000000000E+00 0. -1.
        -14    1    4    4    0    0 -0.16160000510E+02 -0.50742628559E+02  0.84595819600E+02  0.99962056118E+02  0.00000000000E+00 0.  1.
        -11    1    3    3    0    0  0.11393779265E+03  0.13215676733E+03  0.10537985891E+04  0.10681473204E+04  0.00000000000E+00 0. -1.
         11    1    3    3    0    0  0.28207925158E+02 -0.13699174955E+02  0.14669191661E+03  0.15000624266E+03  0.00000000000E+00 0.  1.
         21    1    1    2  503  502 -0.48150857807E+02 -0.17473105316E+00  0.19826097361E+01  0.48191974227E+02  0.00000000000E+00 0. -1.
          2    1    1    2  501    0 -0.11543269153E+03  0.63948849029E+01  0.23636631088E+03  0.26312474940E+03  0.00000000000E+00 0. -1.
<scales pt_clust_5="13000.00000" pt_clust_6="13000.00000" pt_clust_7="13000.00000" pt_clust_8="13000.00000" pt_clust_9="48.15117" pt_clust_10="126.35026"></scales>
<clustering>
<clus scale="   48.151">  2  9  1 -1</clus>
<clus scale="   80.899">  5  6 -1 -1</clus>
<clus scale="   92.103">  7  8 -1 -1</clus>
<clus scale="  126.350">  2 10  1 -1</clus>
<clus scale="  182.201">  2  5  1 -1</clus>
<clus scale="   48.151">  2  5  1 -1</clus>
</clustering>
</event>
<event>
10    3  0.5078224E-005  0.2116549E+03  0.7546771E-02  0.1141308E+00
          1   -1    0    0  503    0 -0.00000000000E+00  0.00000000000E+00  0.11131417162E+04  0.11131417162E+04  0.00000000000E+00 0. -1.
         21   -1    0    0  501  502  0.00000000000E+00 -0.00000000000E+00 -0.10598317739E+03  0.10598317739E+03  0.00000000000E+00 0. -1.
         23    2    1    2    0    0 -0.15423195042E+03  0.11618245251E+03  0.69126790236E+03  0.72360904158E+03  0.92048223363E+02 0.  0.
        -24    2    1    2    0    0  0.92195359977E+02 -0.17471688760E+03  0.21237901018E+03  0.30066960048E+03  0.79192104869E+02 0.  0.
         11    1    4    4    0    0  0.73681003917E+02 -0.16058055652E+03  0.21377327221E+03  0.27733376531E+03  0.00000000000E+00 0. -1.
        -12    1    4    4    0    0  0.18514356060E+02 -0.14136331073E+02 -0.13942620212E+01  0.23335835171E+02  0.00000000000E+00 0.  1.
        -11    1    3    3    0    0 -0.24836493080E+02  0.39902846611E+02  0.69123309607E+02  0.83588997405E+02  0.00000000000E+00 0.  1.
         11    1    3    3    0    0 -0.12939545734E+03  0.76279605900E+02  0.62214459275E+03  0.64002004417E+03  0.00000000000E+00 0. -1.
         21    1    1    2  503  502  0.61703933329E+02  0.87899574078E+02  0.23943673428E+02  0.11003185906E+03  0.00000000000E+00 0. -1.
          2    1    1    2  501    0  0.33265711057E+00 -0.29365138990E+02  0.79567952802E+02  0.84814392421E+02  0.00000000000E+00 0. -1.
<scales pt_clust_5="13000.00000" pt_clust_6="13000.00000" pt_clust_7="13000.00000" pt_clust_8="13000.00000" pt_clust_9="97.72674" pt_clust_10="29.36704"></scales>
<clustering>
<clus scale="   29.367">  2 10  1 -1</clus>
<clus scale="   79.192">  5  6 -1 -1</clus>
<clus scale="   92.048">  7  8 -1 -1</clus>
<clus scale="   97.727">  2  9  1 -1</clus>
<clus scale="  206.389">  2  5  1 -1</clus>
<clus scale="   29.367">  2  5  1 -1</clus>
</clustering>
</event>
<event>
10    3  0.5078224E-005  0.9206816E+02  0.7546771E-02  0.1303774E+00
         21   -1    0    0  503  502  0.00000000000E+00  0.00000000000E+00  0.97393606307E+02  0.97393606307E+02  0.00000000000E+00 0.  1.
         -4   -1    0    0    0  501 -0.00000000000E+00 -0.00000000000E+00 -0.55885677888E+03  0.55885677888E+03  0.00000000000E+00 0.  1.
        -24    2    1    2    0    0  0.20228513387E+02 -0.10543645894E+01 -0.45009881549E+03  0.45783795141E+03  0.81340897530E+02 0.  0.
         23    2    1    2    0    0  0.50483643371E+02  0.21642780973E+01 -0.14418383761E+02  0.10498310637E+03  0.90886085216E+02 0.  0.
         13    1    3    3    0    0  0.26004140383E+02 -0.14141173092E+02 -0.54825524476E+02  0.62305908448E+02  0.00000000000E+00 0. -1.
        -14    1    3    3    0    0 -0.57756269957E+01  0.13086808502E+02 -0.39527329101E+03  0.39553204296E+03  0.00000000000E+00 0.  1.
        -11    1    4    4    0    0  0.35961503592E+02 -0.28408970843E+02  0.25660764519E+02  0.52524034505E+02  0.00000000000E+00 0.  1.
         11    1    4    4    0    0  0.14522139779E+02  0.30573248940E+02 -0.40079148280E+02  0.52459071869E+02  0.00000000000E+00 0. -1.
         21    1    1    2  503  501 -0.12842919694E+02  0.19977942057E+02  0.18295527217E+02  0.29979744350E+02  0.00000000000E+00 0.  1.
         -3    1    1    2    0  502 -0.57869237064E+02 -0.21087855565E+02 -0.15241500543E+02  0.63449583052E+02  0.00000000000E+00 0.  1.
<scales pt_clust_5="13000.00000" pt_clust_6="13000.00000" pt_clust_7="13000.00000" pt_clust_8="13000.00000" pt_clust_9="23.74992" pt_clust_10="63.76881"></scales>
<clustering>
<clus scale="   23.750">  1  9  2 -1</clus>
<clus scale="   63.769">  1 10  2 -1</clus>
<clus scale="   81.341">  5  6 -1 -1</clus>
<clus scale="   82.660">  2  5  1 -1</clus>
<clus scale="   90.886">  7  8 -1 -1</clus>
<clus scale="   23.750">  1  5  2 -1</clus>
</clustering>
</event>
<event>
10    3  0.5078224E-005  0.9579962E+02  0.7546771E-02  0.1295049E+00
         21   -1    0    0  503  502  0.00000000000E+00  0.00000000000E+00  0.34334205575E+03  0.34334205575E+03  0.00000000000E+00 0.  1.
         -2   -1    0    0    0  501 -0.00000000000E+00 -0.00000000000E+00 -0.83883963651E+02  0.83883963651E+02  0.00000000000E+00 0.  1.
         23    2    1    2    0    0  0.23225045955E+02  0.62002443378E+01  0.19547939279E+01  0.94031923446E+02  0.90886388520E+02 0.  0.
        -24    2    1    2    0    0 -0.40010974248E+02 -0.12873339285E+02  0.67024145045E+02  0.11300562501E+03  0.80693459088E+02 0.  0.
         11    1    4    4    0    0 -0.65261281442E+01  0.33123467439E+02  0.20376668594E+02  0.39433020006E+02  0.00000000000E+00 0. -1.
        -12    1    4    4    0    0 -0.33484846104E+02 -0.45996806724E+02  0.46647476451E+02  0.73572605001E+02  0.00000000000E+00 0.  1.
        -13    1    3    3    0    0  0.64662363879E+01  0.23037166794E+02  0.41497745789E+02  0.47901838926E+02  0.00000000000E+00 0. -1.
         13    1    3    3    0    0  0.16758809567E+02 -0.16836922456E+02 -0.39542951862E+02  0.46130084520E+02  0.00000000000E+00 0.  1.
         21    1    1    2  503  501  0.52652152978E+02 -0.84683541212E+01  0.16562766291E+03  0.17400139355E+03  0.00000000000E+00 0.  1.
         -1    1    1    2    0  502 -0.35866224685E+02  0.15141449069E+02  0.24851490217E+02  0.46187077403E+02  0.00000000000E+00 0.  1.
<scales pt_clust_5="13000.00000" pt_clust_6="13000.00000" pt_clust_7="13000.00000" pt_clust_8="13000.00000" pt_clust_9="32.86628" pt_clust_10="38.93136"></scales>
<clustering>
<clus scale="   38.931">  1 10  2 -1</clus>
<clus scale="   32.866">  1  9  2 -1</clus>
<clus scale="   80.693">  5  6 -1 -1</clus>
<clus scale="   86.190">  1  5  2 -1</clus>
<clus scale="   90.886">  7  8 -1 -1</clus>
<clus scale="   38.931">  1  5  2 -1</clus>
</clustering>
</event>
<event>
10    3  0.5078224E-005  0.1710590E+03  0.7546771E-02  0.1210556E+00
         21   -1    0    0  501  502  0.00000000000E+00  0.00000000000E+00  0.10331001698E+03  0.10331001698E+03  0.00000000000E+00 0. -1.
          1   -1    0    0  503    0 -0.00000000000E+00 -0.00000000000E+00 -0.13702129087E+04  0.13702129087E+04  0.00000000000E+00 0. -1.
        -24    2    1    2    0    0  0.16354212153E+02  0.25001276843E+02 -0.34583179695E+03  0.35546514093E+03  0.76572256937E+02 0.  0.
         23    2    1    2    0    0  0.60431459180E+02 -0.11908183027E+03 -0.19056303678E+03  0.24997057428E+03  0.91315789769E+02 0.  0.
         13    1    3    3    0    0  0.36000096015E+02  0.42489359766E+02 -0.22295542203E+03  0.22980529328E+03  0.00000000000E+00 0. -1.
        -14    1    3    3    0    0 -0.19645883862E+02 -0.17488082923E+02 -0.12287637492E+03  0.12565984765E+03  0.00000000000E+00 0.  1.
        -11    1    4    4    0    0  0.12122677959E+02 -0.10533153598E+03 -0.96639979664E+02  0.14346071749E+03  0.00000000000E+00 0. -1.
         11    1    4    4    0    0  0.48308781221E+02 -0.13750294288E+02 -0.93923057117E+02  0.10650985679E+03  0.00000000000E+00 0.  1.
         21    1    1    2  503  502 -0.65777423418E+00 -0.22186989145E+02  0.60770465056E+02  0.64697330528E+02  0.00000000000E+00 0. -1.
          2    1    1    2  501    0 -0.76127897099E+02  0.11626754257E+03 -0.79127852307E+03  0.80338987998E+03  0.00000000000E+00 0. -1.
<scales pt_clust_5="13000.00000" pt_clust_6="13000.00000" pt_clust_7="13000.00000" pt_clust_8="13000.00000" pt_clust_9="22.19674" pt_clust_10="144.64657"></scales>
<clustering>
<clus scale="   22.197">  1  9  2 -1</clus>
<clus scale="   76.572">  5  6 -1 -1</clus>
<clus scale="   81.416">  2  5  1 -1</clus>
<clus scale="   91.316">  7  8 -1 -1</clus>
<clus scale="  144.647">  1 10  2 -1</clus>
<clus scale="   22.197">  1  5  2 -1</clus>
</clustering>
</event>
<event>
10    3  0.5078224E-005  0.9771776E+02  0.7546771E-02  0.1290891E+00
          1   -1    0    0  502    0 -0.00000000000E+00  0.00000000000E+00  0.14361250373E+03  0.14361250373E+03  0.00000000000E+00 0. -1.
         21   -1    0    0  503  502  0.00000000000E+00 -0.00000000000E+00 -0.18840941470E+03  0.18840941470E+03  0.00000000000E+00 0.  1.
         23    2    1    2    0    0  0.71495918838E+01 -0.41867959979E+02  0.25219724611E+02  0.10394765796E+03  0.91460583586E+02 0.  0.
        -24    2    1    2    0    0 -0.42999725518E+02  0.81361046741E+00 -0.64210563301E+02  0.11176116800E+03  0.80733660126E+02 0.  0.
         13    1    4    4    0    0  0.20643081932E+02  0.15357334997E+02 -0.13235730603E+02  0.28933875207E+02  0.00000000000E+00 0. -1.
        -14    1    4    4    0    0 -0.63642807450E+02 -0.14543724530E+02 -0.50974832697E+02  0.82827292796E+02  0.00000000000E+00 0.  1.
        -11    1    3    3    0    0  0.36643357049E+02 -0.36944630186E+02 -0.14699265905E+02  0.54071339298E+02  0.00000000000E+00 0. -1.
         11    1    3    3    0    0 -0.29493765165E+02 -0.49233297928E+01  0.39918990516E+02  0.49876318666E+02  0.00000000000E+00 0.  1.
         21    1    1    2  503  501 -0.29963941490E+02  0.38368754856E+01 -0.23958604512E+02  0.38556116678E+02  0.00000000000E+00 0.  1.
          2    1    1    2  501    0  0.65814075124E+02  0.37217474026E+02  0.18152532229E+02  0.77756975787E+02  0.00000000000E+00 0. -1.
<scales pt_clust_5="13000.00000" pt_clust_6="13000.00000" pt_clust_7="13000.00000" pt_clust_8="13000.00000" pt_clust_9="30.20860" pt_clust_10="71.10317"></scales>
<clustering>
<clus scale="   30.209">  2  9  1 -1</clus>
<clus scale="   71.103">  2 10  1 -1</clus>
<clus scale="   80.734">  5  6 -1 -1</clus>
<clus scale="   87.759">  2  5  1 -1</clus>
<clus scale="   91.461">  7  8 -1 -1</clus>
<clus scale="   30.209">  2  5  1 -1</clus>
</clustering>
</event>
<event>
10    3  0.5078224E-005  0.1506728E+03  0.7546771E-02  0.1201252E+00
         21   -1    0    0  503  502  0.00000000000E+00  0.00000000000E+00  0.16940412287E+03  0.16940412287E+03  0.00000000000E+00 0. -1.
          1   -1    0    0  502    0 -0.00000000000E+00 -0.00000000000E+00 -0.71984289837E+03  0.71984289837E+03  0.00000000000E+00 0. -1.
         23    2    1    2    0    0 -0.70377275211E+02 -0.74480247409E+02 -0.19634956326E+03  0.23939304950E+03  0.90860404114E+02 0.  0.
        -24    2    1    2    0    0  0.12429343963E+03  0.10250644402E+03 -0.11866989947E+03  0.21625989125E+03  0.82032708864E+02 0.  0.
         11    1    4    4    0    0  0.12480191974E+03  0.93644640296E+02 -0.77634631331E+02  0.17427556860E+03  0.00000000000E+00 0. -1.
        -12    1    4    4    0    0 -0.50848011717E+00  0.88618037230E+01 -0.41035268142E+02  0.41984322655E+02  0.00000000000E+00 0.  1.
        -11    1    3    3    0    0 -0.54032358253E+02 -0.90223174729E+02 -0.11912923096E+03  0.15890717625E+03  0.00000000000E+00 0.  1.
         11    1    3    3    0    0 -0.16344916959E+02  0.15742927320E+02 -0.77220332308E+02  0.80485873250E+02  0.00000000000E+00 0. -1.
         21    1    1    2  503  501  0.15556556693E+01 -0.22297714171E+02  0.95463184958E+02  0.98045029472E+02  0.00000000000E+00 0. -1.
          2    1    1    2  501    0 -0.55471820085E+02 -0.57284824390E+01 -0.33088249772E+03  0.33554905101E+03  0.00000000000E+00 0. -1.
<scales pt_clust_5="13000.00000" pt_clust_6="13000.00000" pt_clust_7="13000.00000" pt_clust_8="13000.00000" pt_clust_9="22.35192" pt_clust_10="55.79533"></scales>
<clustering>
<clus scale="   22.352">  1  9  2 -1</clus>
<clus scale="   55.795">  1 10  2 -1</clus>
<clus scale="   82.033">  5  6 -1 -1</clus>
<clus scale="   90.860">  7  8 -1 -1</clus>
<clus scale="  145.520">  1  5  2 -1</clus>
<clus scale="   22.352">  1  5  2 -1</clus>
</clustering>
</event>
<event>
10    3  0.5078224E-005  0.1166728E+03  0.7546771E-02  0.1257759E+00
          1   -1    0    0  502    0 -0.00000000000E+00  0.00000000000E+00  0.46930934164E+03  0.46930934164E+03  0.00000000000E+00 0. -1.
         21   -1    0    0  503  502  0.00000000000E+00 -0.00000000000E+00 -0.53865309880E+03  0.53865309880E+03  0.00000000000E+00 0. -1.
         23    2    1    2    0    0  0.20950032373E+02 -0.48951065280E+02 -0.55138204559E+02  0.11914714300E+03  0.91217922773E+02 0.  0.
        -24    2    1    2    0    0 -0.11712214163E+03  0.97005263649E+01 -0.53259968351E+02  0.14439179478E+03  0.64812575164E+02 0.  0.
         11    1    4    4    0    0 -0.98625810774E+02 -0.13653146915E+02 -0.56408101870E+02  0.11443484141E+03  0.00000000000E+00 0. -1.
        -12    1    4    4    0    0 -0.18496330861E+02  0.23353673279E+02  0.31481335186E+01  0.29956953377E+02  0.00000000000E+00 0.  1.
        -13    1    3    3    0    0  0.53353665878E+02 -0.32651177993E+02 -0.54351713748E+02  0.82866289130E+02  0.00000000000E+00 0. -1.
         13    1    3    3    0    0 -0.32403633505E+02 -0.16299887287E+02 -0.78649081097E+00  0.36280853871E+02  0.00000000000E+00 0.  1.
         21    1    1    2  503  501  0.66398500557E+02 -0.65932592131E+02 -0.33858667182E+03  0.35127880937E+03  0.00000000000E+00 0. -1.
          2    1    1    2  501    0  0.29773608704E+02  0.10518313105E+03  0.37764108757E+03  0.39314469328E+03  0.00000000000E+00 0. -1.
<scales pt_clust_5="13000.00000" pt_clust_6="13000.00000" pt_clust_7="13000.00000" pt_clust_8="13000.00000" pt_clust_9="93.57279" pt_clust_10="107.55088"></scales>
<clustering>
<clus scale="   64.813">  5  6 -1 -1</clus>
<clus scale="   91.218">  7  8 -1 -1</clus>
<clus scale="   93.573">  2  9  1 -1</clus>
<clus scale="  107.551">  2 10  1 -1</clus>
<clus scale="   97.429">  2  5  1 -1</clus>
<clus scale="   93.573">  2  5  1 -1</clus>
</clustering>
</event>
<event>
10    3  0.5078224E-005  0.5544519E+03  0.7546771E-02  0.1000469E+00
          1   -1    0    0  502    0 -0.00000000000E+00  0.00000000000E+00  0.17643233201E+04  0.17643233201E+04  0.00000000000E+00 0. -1.
         21   -1    0    0  503  502  0.00000000000E+00 -0.00000000000E+00 -0.23602476219E+03  0.23602476219E+03  0.00000000000E+00 0.  1.
        -24    2    1    2    0    0  0.51295498390E+02  0.42948690358E+02  0.11362169484E+03  0.15452079627E+03  0.80566548782E+02 0.  0.
         23    2    1    2    0    0  0.32547393414E+03  0.36539566120E+03  0.81575062107E+03  0.95602316797E+03  0.95309762805E+02 0.  0.
         11    1    3    3    0    0  0.11977392434E+02  0.45519378852E+02  0.10370980881E+03  0.11389115955E+03  0.00000000000E+00 0. -1.
        -12    1    3    3    0    0  0.39318105956E+02 -0.25706884939E+01  0.99118860344E+01  0.40629636721E+02  0.00000000000E+00 0.  1.
        -11    1    4    4    0    0  0.29690712134E+03  0.35251803722E+03  0.79332606517E+03  0.91749062717E+03  0.00000000000E+00 0.  1.
         11    1    4    4    0    0  0.28566812803E+02  0.12877623982E+02  0.22424555904E+02  0.38532540802E+02  0.00000000000E+00 0. -1.
         21    1    1    2  503  501 -0.50732738613E+02 -0.98155412146E+02 -0.31815113799E+02  0.11498042080E+03  0.00000000000E+00 0.  1.
          2    1    1    2  501    0 -0.32603669392E+03 -0.31018893941E+03  0.63074135580E+03  0.77482369726E+03  0.00000000000E+00 0. -1.
<scales pt_clust_5="13000.00000" pt_clust_6="13000.00000" pt_clust_7="13000.00000" pt_clust_8="13000.00000" pt_clust_9="110.49116" pt_clust_10="496.53040"></scales>
<clustering>
<clus scale="   80.567">  5  6 -1 -1</clus>
<clus scale="   95.310">  7  8 -1 -1</clus>
<clus scale="   98.984">  5  7 -1 -1</clus>
<clus scale="  110.491">  2  9  1 -1</clus>
<clus scale="  496.530">  2 10  1 -1</clus>
<clus scale="  110.491">  2  5  1 -1</clus>
</clustering>
</event>
<event>
10    3  0.5078224E-005  0.1563576E+03  0.7546771E-02  0.1215171E+00
         21   -1    0    0  501  502  0.00000000000E+00  0.00000000000E+00  0.11552968225E+03  0.11552968225E+03  0.00000000000E+00 0.  1.
          1   -1    0    0  503    0 -0.00000000000E+00 -0.00000000000E+00 -0.10846067629E+04  0.10846067629E+04  0.00000000000E+00 0. -1.
         23    2    1    2    0    0  0.81747437012E+02  0.15816332119E+03 -0.17821373608E+03  0.26768165334E+03  0.90526527498E+02 0.  0.
        -24    2    1    2    0    0  0.51854498080E+02 -0.37763047860E+02 -0.39628485923E+01  0.10447843151E+03  0.82371728927E+02 0.  0.
         11    1    4    4    0    0  0.69544306095E+02 -0.46788361230E+02 -0.80458578078E+01  0.84203901838E+02  0.00000000000E+00 0. -1.
        -12    1    4    4    0    0 -0.17689808015E+02  0.90253133706E+01  0.40830092155E+01  0.20274529669E+02  0.00000000000E+00 0.  1.
        -11    1    3    3    0    0  0.24903188291E+02  0.13039154712E+03 -0.95425560938E+02  0.16348749808E+03  0.00000000000E+00 0.  1.
         11    1    3    3    0    0  0.56844248721E+02  0.27771774066E+02 -0.82788175141E+02  0.10419415526E+03  0.00000000000E+00 0. -1.
         21    1    1    2  503  502 -0.48614344346E+02 -0.96123264116E+02 -0.14832062048E+03  0.18330860002E+03  0.00000000000E+00 0.  1.
          2    1    1    2  501    0 -0.84987590746E+02 -0.24277009213E+02 -0.63857987548E+03  0.64466776026E+03  0.00000000000E+00 0. -1.
<scales pt_clust_5="13000.00000" pt_clust_6="13000.00000" pt_clust_7="13000.00000" pt_clust_8="13000.00000" pt_clust_9="127.48586" pt_clust_10="88.38706"></scales>
<clustering>
<clus scale="   82.372">  5  6 -1 -1</clus>
<clus scale="   88.387">  1 10  2 -1</clus>
<clus scale="   90.527">  7  8 -1 -1</clus>
<clus scale="   96.648">  1  5  2 -1</clus>
<clus scale="  127.486">  2  9  1 -1</clus>
<clus scale="   88.387">  1  5  2 -1</clus>
</clustering>
</event>
<event>
10    3  0.5078224E-005  0.1263835E+03  0.7546771E-02  0.1248706E+00
          3   -1    0    0  502    0 -0.00000000000E+00  0.00000000000E+00  0.42560126649E+03  0.42560126649E+03  0.00000000000E+00 0. -1.
         21   -1    0    0  503  502  0.00000000000E+00 -0.00000000000E+00 -0.13506932066E+03  0.13506932066E+03  0.00000000000E+00 0. -1.
        -24    2    1    2    0    0 -0.18701155955E+02 -0.56259609395E+01  0.23766191034E+03  0.25482242954E+03  0.89832634955E+02 0.  0.
         23    2    1    2    0    0  0.22362928796E+01 -0.69458984538E+02  0.27441081079E+02  0.11760522564E+03  0.90820838071E+02 0.  0.
         11    1    3    3    0    0 -0.38992084665E+02 -0.28797242663E+02  0.20184496374E+03  0.20758384629E+03  0.00000000000E+00 0. -1.
        -12    1    3    3    0    0  0.20290928710E+02  0.23171281724E+02  0.35816946595E+02  0.47238583256E+02  0.00000000000E+00 0.  1.
        -13    1    4    4    0    0  0.40318766261E+02 -0.10969862665E+02 -0.20529270980E+01  0.41834857587E+02  0.00000000000E+00 0.  1.
         13    1    4    4    0    0 -0.38082473381E+02 -0.58489121873E+02  0.29494008177E+02  0.75770368051E+02  0.00000000000E+00 0. -1.
         21    1    1    2  503  501  0.17583642849E+02 -0.24457174228E+02 -0.53368627329E+02  0.61282528098E+02  0.00000000000E+00 0. -1.
          4    1    1    2  501    0 -0.11187797738E+01  0.99542119706E+02  0.78797581739E+02  0.12696040387E+03  0.00000000000E+00 0. -1.
<scales pt_clust_5="13000.00000" pt_clust_6="13000.00000" pt_clust_7="13000.00000" pt_clust_8="13000.00000" pt_clust_9="30.12205" pt_clust_10="87.88847"></scales>
<clustering>
<clus scale="   30.122">  2  9  1 -1</clus>
<clus scale="   89.833">  5  6 -1 -1</clus>
<clus scale="   90.821">  7  8 -1 -1</clus>
<clus scale="   91.761">  1  5  2 -1</clus>
<clus scale="   87.888">  2 10  1 -1</clus>
<clus scale="   30.122">  2  5  1 -1</clus>
</clustering>
</event>
<event>
10    3  0.5078224E-005  0.2676658E+03  0.7546771E-02  0.1141453E+00
         21   -1    0    0  503  502  0.00000000000E+00  0.00000000000E+00  0.67284862751E+03  0.67284862751E+03  0.00000000000E+00 0.  1.
          1   -1    0    0  502    0 -0.00000000000E+00 -0.00000000000E+00 -0.59602823741E+03  0.59602823741E+03  0.00000000000E+00 0. -1.
         23    2    1    2    0    0 -0.71313864356E+01  0.47077689966E+02 -0.86508542611E+02  0.13350981143E+03  0.89855307243E+02 0.  0.
        -24    2    1    2    0    0 -0.18013622393E+02 -0.76954434688E+02 -0.29156549631E+02  0.11713730336E+03  0.81391448215E+02 0.  0.
         11    1    4    4    0    0 -0.26597453672E+02 -0.51769901882E+02  0.19749376176E+02  0.61462062624E+02  0.00000000000E+00 0. -1.
        -12    1    4    4    0    0  0.85838312787E+01 -0.25184532806E+02 -0.48905925807E+02  0.55675240737E+02  0.00000000000E+00 0.  1.
        -11    1    3    3    0    0  0.18374872074E+02  0.25199243293E+02 -0.94036172523E+02  0.99072900074E+02  0.00000000000E+00 0.  1.
         11    1    3    3    0    0 -0.25506258510E+02  0.21878446672E+02  0.75276299122E+01  0.34436911361E+02  0.00000000000E+00 0. -1.
         21    1    1    2  503  501 -0.25055578944E+03 -0.86456617276E+02  0.51442695337E+03  0.57869511891E+03  0.00000000000E+00 0.  1.
          2    1    1    2  501    0  0.27570079827E+03  0.11633336200E+03 -0.32194147103E+03  0.43953463123E+03  0.00000000000E+00 0. -1.
<scales pt_clust_5="13000.00000" pt_clust_6="13000.00000" pt_clust_7="13000.00000" pt_clust_8="13000.00000" pt_clust_9="13000.00000" pt_clust_10="267.66578"></scales>
<clustering>
<clus scale="   81.391">  5  6 -1 -1</clus>
<clus scale="   89.855">  7  8 -1 -1</clus>
<clus scale="  101.691">  2  7  1 -1</clus>
<clus scale="  108.952">  2  5  1 -1</clus>
<clus scale="  267.666">  2 10  1 -1</clus>
<clus scale="  267.666">  1  5  2 -1</clus>
</clustering>
</event>
<event>
10    3  0.5078224E-005  0.9389027E+02  0.7546771E-02  0.1297905E+00
          1   -1    0    0  502    0 -0.00000000000E+00  0.00000000000E+00  0.74502828011E+02  0.74502828011E+02  0.00000000000E+00 0. -1.
         21   -1    0    0  503  502  0.00000000000E+00 -0.00000000000E+00 -0.46331396739E+03  0.46331396739E+03  0.00000000000E+00 0. -1.
        -24    2    1    2    0    0 -0.31973047377E+01 -0.35411422129E+02  0.12849451345E+02  0.91726547613E+02  0.83573079172E+02 0.  0.
         23    2    1    2    0    0  0.24203197086E+02 -0.28029201728E+02 -0.13607750358E+03  0.16777460127E+03  0.90883436070E+02 0.  0.
         13    1    3    3    0    0  0.23826296733E+01 -0.43843923109E+02  0.42067550732E+02  0.60808267056E+02  0.00000000000E+00 0. -1.
        -14    1    3    3    0    0 -0.55799344111E+01  0.84325009795E+01 -0.29218099387E+02  0.30918280557E+02  0.00000000000E+00 0.  1.
        -13    1    4    4    0    0 -0.25427294124E+02  0.65118545013E+01 -0.83891648381E+02  0.87901992034E+02  0.00000000000E+00 0.  1.
         13    1    4    4    0    0  0.49630491210E+02 -0.34541056229E+02 -0.52185855196E+02  0.79872609233E+02  0.00000000000E+00 0. -1.
         21    1    1    2  503  501  0.16117170053E+02  0.16164287703E+02 -0.83729279769E+02  0.86785019779E+02  0.00000000000E+00 0. -1.
          2    1    1    2  501    0 -0.37123062402E+02  0.47276336154E+02 -0.18185380738E+03  0.19153062674E+03  0.00000000000E+00 0. -1.
<scales pt_clust_5="13000.00000" pt_clust_6="13000.00000" pt_clust_7="13000.00000" pt_clust_8="13000.00000" pt_clust_9="22.82646" pt_clust_10="62.48244"></scales>
<clustering>
<clus scale="   22.826">  2  9  1 -1</clus>
<clus scale="   62.482">  2 10  1 -1</clus>
<clus scale="   83.573">  5  6 -1 -1</clus>
<clus scale="   86.833">  1  5  2 -1</clus>
<clus scale="   90.883">  7  8 -1 -1</clus>
<clus scale="   22.826">  2  5  1 -1</clus>
</clustering>
</event>
<event>
10    3  0.5078224E-005  0.2425491E+03  0.7546771E-02  0.1118106E+00
         21   -1    0    0  501  502  0.00000000000E+00  0.00000000000E+00  0.11080466016E+03  0.11080466016E+03  0.00000000000E+00 0.  1.
          1   -1    0    0  503    0 -0.00000000000E+00 -0.00000000000E+00 -0.74145155647E+03  0.74145155647E+03  0.00000000000E+00 0. -1.
        -24    2    1    2    0    0 -0.75571942677E+02 -0.42462806226E+02 -0.37874383717E+02  0.12544691322E+03  0.82390840884E+02 0.  0.
         23    2    1    2    0    0 -0.24247220632E+02 -0.73619613689E+02 -0.98660319547E+02  0.15489689269E+03  0.90837291270E+02 0.  0.
         13    1    3    3    0    0 -0.80179384570E+01  0.23663093596E+02 -0.97618999414E+01  0.26823945014E+02  0.00000000000E+00 0. -1.
        -14    1    3    3    0    0 -0.67554004220E+02 -0.66125899822E+02 -0.28112483775E+02  0.98622968204E+02  0.00000000000E+00 0.  1.
        -11    1    4    4    0    0 -0.29659312725E+02 -0.29086534833E+02 -0.10177659055E+03  0.10992804794E+03  0.00000000000E+00 0.  1.
         11    1    4    4    0    0  0.54120920933E+01 -0.44533078857E+02  0.31162710073E+01  0.44968844751E+02  0.00000000000E+00 0. -1.
         21    1    1    2  503  502 -0.11380135274E+02  0.16874961097E+02  0.24767227277E+02  0.32057562881E+02  0.00000000000E+00 0. -1.
          2    1    1    2  501    0  0.11119929858E+03  0.99207458818E+02 -0.51887942033E+03  0.53985484784E+03  0.00000000000E+00 0. -1.
<scales pt_clust_5="13000.00000" pt_clust_6="13000.00000" pt_clust_7="13000.00000" pt_clust_8="13000.00000" pt_clust_9="20.35367" pt_clust_10="149.39269"></scales>
<clustering>
<clus scale="   20.354">  1  9  2 -1</clus>
<clus scale="   82.391">  5  6 -1 -1</clus>
<clus scale="   90.837">  7  8 -1 -1</clus>
<clus scale="  111.654">  5  7 -1 -1</clus>
<clus scale="  149.393">  1 10  2 -1</clus>
<clus scale="   20.354">  1  5  2 -1</clus>
</clustering>
</event>
<event>
10    3  0.5078224E-005  0.2040662E+03  0.7546771E-02  0.1188757E+00
         21   -1    0    0  501  502  0.00000000000E+00  0.00000000000E+00  0.40703335180E+03  0.40703335180E+03  0.00000000000E+00 0. -1.
          1   -1    0    0  503    0 -0.00000000000E+00 -0.00000000000E+00 -0.45515365808E+03  0.45515365808E+03  0.00000000000E+00 0. -1.
        -24    2    1    2    0    0  0.61702180889E+01 -0.22624924310E+02 -0.34765416853E+01  0.78301944641E+02  0.74626733824E+02 0.  0.
         23    2    1    2    0    0  0.17617970544E+03 -0.54622244710E+01 -0.34844467151E+03  0.40088713550E+03  0.90706569749E+02 0.  0.
         13    1    3    3    0    0 -0.11937974642E+02 -0.37626544559E+02  0.20702182318E+02  0.44574123062E+02  0.00000000000E+00 0. -1.
        -14    1    3    3    0    0  0.18108192731E+02  0.15001620249E+02 -0.24178724003E+02  0.33727821580E+02  0.00000000000E+00 0.  1.
        -13    1    4    4    0    0  0.10688581264E+03 -0.75487784249E+01 -0.29343866934E+03  0.31239048267E+03  0.00000000000E+00 0. -1.
         13    1    4    4    0    0  0.69293892795E+02  0.20865539539E+01 -0.55006002176E+02  0.88496652827E+02  0.00000000000E+00 0.  1.
         21    1    1    2  503  502  0.53082105655E+00  0.36136474776E+02  0.11275959068E+03  0.11840967811E+03  0.00000000000E+00 0. -1.
          2    1    1    2  501    0 -0.18288074459E+03 -0.80493259947E+01  0.19104131625E+03  0.26458825163E+03  0.00000000000E+00 0. -1.
<scales pt_clust_5="13000.00000" pt_clust_6="13000.00000" pt_clust_7="13000.00000" pt_clust_8="13000.00000" pt_clust_9="36.14037" pt_clust_10="182.79856"></scales>
<clustering>
<clus scale="   36.140">  1  9  2 -1</clus>
<clus scale="   74.627">  5  6 -1 -1</clus>
<clus scale="   77.017">  2  5  1 -1</clus>
<clus scale="   90.707">  7  8 -1 -1</clus>
<clus scale="  182.799">  1 10  2 -1</clus>
<clus scale="   36.140">  1  5  2 -1</clus>
</clustering>
</event>
<event>
10    3  0.5078224E-005  0.1710977E+03  0.7546771E-02  0.1192435E+00
         21   -1    0    0  501  502  0.00000000000E+00  0.00000000000E+00  0.84572297976E+02  0.84572297976E+02  0.00000000000E+00 0. -1.
          3   -1    0    0  503    0 -0.00000000000E+00 -0.00000000000E+00 -0.78283678320E+03  0.78283678320E+03  0.00000000000E+00 0. -1.
         23    2    1    2    0    0 -0.74932727370E+02 -0.22036315801E+02 -0.33736304505E+03  0.35804752013E+03  0.91014777134E+02 0.  0.
        -24    2    1    2    0    0  0.11463820074E+03 -0.10880331149E+03 -0.19769506849E+03  0.26592745564E+03  0.81572016623E+02 0.  0.
         11    1    4    4    0    0  0.11099659814E+03 -0.11945726299E+03 -0.16779348533E+03  0.23397635820E+03  0.00000000000E+00 0. -1.
        -12    1    4    4    0    0  0.36416026038E+01  0.10653951491E+02 -0.29901583164E+02  0.31951097440E+02  0.00000000000E+00 0.  1.
        -13    1    3    3    0    0 -0.94608614613E+02 -0.28807296210E+02 -0.26991383618E+03  0.28746152653E+03  0.00000000000E+00 0.  1.
         13    1    3    3    0    0  0.19675887242E+02  0.67709804085E+01 -0.67449208874E+02  0.70585993598E+02  0.00000000000E+00 0. -1.
         21    1    1    2  503  502  0.24578570564E+00 -0.22310544495E+02 -0.21730303827E+02  0.31145255026E+02  0.00000000000E+00 0. -1.
          4    1    1    2  501    0 -0.39951259080E+02  0.15315017179E+03 -0.14147606786E+03  0.21228885039E+03  0.00000000000E+00 0. -1.
<scales pt_clust_5="13000.00000" pt_clust_6="13000.00000" pt_clust_7="13000.00000" pt_clust_8="13000.00000" pt_clust_9="22.31190" pt_clust_10="150.40087"></scales>
<clustering>
<clus scale="   22.312">  1  9  2 -1</clus>
<clus scale="   81.572">  5  6 -1 -1</clus>
<clus scale="   91.015">  7  8 -1 -1</clus>
<clus scale="  120.479">  2  7  1 -1</clus>
<clus scale="  150.401">  1 10  2 -1</clus>
<clus scale="   22.312">  1  5  2 -1</clus>
</clustering>
</event>
<event>
10    3  0.5078224E-005  0.1336577E+03  0.7546771E-02  0.1228403E+00
         21   -1    0    0  503  502  0.00000000000E+00  0.00000000000E+00  0.13797028116E+03  0.13797028116E+03  0.00000000000E+00 0. -1.
          1   -1    0    0  502    0 -0.00000000000E+00 -0.00000000000E+00 -0.46750359879E+03  0.46750359879E+03  0.00000000000E+00 0. -1.
        -24    2    1    2    0    0 -0.72980736636E+02  0.31923739459E+02 -0.14840767499E+03  0.19021214080E+03  0.88377075370E+02 0.  0.
         23    2    1    2    0    0 -0.79042760961E+02 -0.13576699523E+02 -0.14156732357E+02  0.12352016230E+03  0.92869438419E+02 0.  0.
         13    1    3    3    0    0 -0.50614698009E+02  0.59512810496E+02 -0.12588206140E+03  0.14815503923E+03  0.00000000000E+00 0. -1.
        -14    1    3    3    0    0 -0.22366038627E+02 -0.27589071037E+02 -0.22525613583E+02  0.42057101563E+02  0.00000000000E+00 0.  1.
        -13    1    4    4    0    0  0.12845306165E+02 -0.16822095061E+02 -0.22871984295E+02  0.31162677008E+02  0.00000000000E+00 0.  1.
         13    1    4    4    0    0 -0.91888067126E+02  0.32453955379E+01  0.87152519382E+01  0.92357485287E+02  0.00000000000E+00 0. -1.
         21    1    1    2  503  501  0.40054006862E+01 -0.22331357983E+02  0.34755863858E+02  0.41505455744E+02  0.00000000000E+00 0. -1.
          2    1    1    2  501    0  0.14801809691E+03  0.39843180467E+01 -0.20172477414E+03  0.25023612111E+03  0.00000000000E+00 0. -1.
<scales pt_clust_5="13000.00000" pt_clust_6="13000.00000" pt_clust_7="13000.00000" pt_clust_8="13000.00000" pt_clust_9="22.68772" pt_clust_10="96.12317"></scales>
<clustering>
<clus scale="   22.688">  1  9  2 -1</clus>
<clus scale="   88.377">  5  6 -1 -1</clus>
<clus scale="   92.869">  7  8 -1 -1</clus>
<clus scale="  117.292">  2  5  1 -1</clus>
<clus scale="   96.123">  1 10  2 -1</clus>
<clus scale="   22.688">  1  5  2 -1</clus>
</clustering>
</event>
<event>
10    3  0.5078224E-005  0.1607793E+03  0.7546771E-02  0.1219051E+00
         21   -1    0    0  501  502  0.00000000000E+00  0.00000000000E+00  0.68255839848E+02  0.68255839848E+02  0.00000000000E+00 0. -1.
          1   -1    0    0  503    0 -0.00000000000E+00 -0.00000000000E+00 -0.66939123776E+03  0.66939123776E+03  0.00000000000E+00 0. -1.
        -24    2    1    2    0    0  0.22129045920E+02 -0.28077375062E+01 -0.12968199120E+03  0.15401168277E+03  0.80028754362E+02 0.  0.
         23    2    1    2    0    0 -0.12201209304E+03 -0.21852938333E+02 -0.21120344648E+03  0.26087549948E+03  0.89914563126E+02 0.  0.
         11    1    3    3    0    0  0.13506628243E+02 -0.18096077287E+02 -0.13403823467E+03  0.13592698545E+03  0.00000000000E+00 0. -1.
        -12    1    3    3    0    0  0.86224176768E+01  0.15288339780E+02  0.43562434747E+01  0.18084697317E+02  0.00000000000E+00 0.  1.
        -11    1    4    4    0    0 -0.44506607341E+02 -0.49580963880E+02 -0.12521666469E+03  0.14183907499E+03  0.00000000000E+00 0.  1.
         11    1    4    4    0    0 -0.77505485700E+02  0.27728025547E+02 -0.85986781793E+02  0.11903642450E+03  0.00000000000E+00 0. -1.
         21    1    1    2  503  502 -0.34863389294E+02 -0.29316213779E+02 -0.56058387000E+02  0.72231842400E+02  0.00000000000E+00 0. -1.
          2    1    1    2  501    0  0.13474643642E+03  0.53976889619E+02 -0.20419157323E+03  0.25052805295E+03  0.00000000000E+00 0. -1.
<scales pt_clust_5="13000.00000" pt_clust_6="13000.00000" pt_clust_7="13000.00000" pt_clust_8="13000.00000" pt_clust_9="45.55103" pt_clust_10="133.28668"></scales>
<clustering>
<clus scale="   45.551">  1  9  2 -1</clus>
<clus scale="   80.029">  5  6 -1 -1</clus>
<clus scale="   81.904">  2  5  1 -1</clus>
<clus scale="   89.915">  7  8 -1 -1</clus>
<clus scale="  133.287">  1 10  2 -1</clus>
<clus scale="   45.551">  1  5  2 -1</clus>
</clustering>
</event>
<event>
10    3  0.5078224E-005  0.9674511E+02  0.7546771E-02  0.1295701E+00
         21   -1    0    0  501  502  0.00000000000E+00  0.00000000000E+00  0.65330237753E+03  0.65330237753E+03  0.00000000000E+00 0.  1.
          3   -1    0    0  503    0 -0.00000000000E+00 -0.00000000000E+00 -0.67048200952E+02  0.67048200952E+02  0.00000000000E+00 0. -1.
        -24    2    1    2    0    0  0.11528017454E+02  0.49344506419E+02  0.64306635464E+02  0.11490516679E+03  0.80623064256E+02 0.  0.
         23    2    1    2    0    0 -0.31964482675E+01  0.33386567012E+02  0.11659836011E+03  0.15408978580E+03  0.94992654296E+02 0.  0.
         13    1    3    3    0    0 -0.28181560305E+02 -0.41304240912E+01  0.16484282468E+02  0.32908848550E+02  0.00000000000E+00 0. -1.
        -14    1    3    3    0    0  0.39709577759E+02  0.53474930510E+02  0.47822352996E+02  0.81996318240E+02  0.00000000000E+00 0.  1.
        -13    1    4    4    0    0 -0.20677405775E+02  0.40832400367E+01  0.11807022143E+03  0.11993667140E+03  0.00000000000E+00 0.  1.
         13    1    4    4    0    0  0.17480957508E+02  0.29303326976E+02 -0.14718613241E+01  0.34153114397E+02  0.00000000000E+00 0. -1.
         21    1    1    2  503  502  0.68601926866E+02 -0.14973779292E+02  0.28374515351E+03  0.29230420896E+03  0.00000000000E+00 0.  1.
          4    1    1    2  501    0 -0.76933496052E+02 -0.67757294139E+02  0.12160402749E+03  0.15905141693E+03  0.00000000000E+00 0. -1.
<scales pt_clust_5="13000.00000" pt_clust_6="13000.00000" pt_clust_7="13000.00000" pt_clust_8="13000.00000" pt_clust_9="70.21708" pt_clust_10="89.22950"></scales>
<clustering>
<clus scale="   70.217">  1  9  2 -1</clus>
<clus scale="   80.623">  5  6 -1 -1</clus>
<clus scale="   89.230">  1 10  2 -1</clus>
<clus scale="   82.681">  2  5  1 -1</clus>
<clus scale="   94.993">  7  8 -1 -1</clus>
<clus scale="   70.217">  1  5  2 -1</clus>
</clustering>
</event>
<event>
10    3  0.5078224E-005  0.2004455E+03  0.7546771E-02  0.1150022E+00
         21   -1    0    0  501  502  0.00000000000E+00  0.00000000000E+00  0.89831104755E+02  0.89831104755E+02  0.00000000000E+00 0. -1.
          1   -1    0    0  503    0 -0.00000000000E+00 -0.00000000000E+00 -0.16508803124E+04  0.16508803124E+04  0.00000000000E+00 0. -1.
        -24    2    1    2    0    0 -0.11665241051E+03  0.91984859862E+02 -0.61201722758E+03  0.63498064666E+03  0.81032928154E+02 0.  0.
         23    2    1    2    0    0  0.25728420116E+03 -0.10117267068E+03 -0.61137038897E+03  0.67676131576E+03  0.88323589928E+02 0.  0.
         13    1    3    3    0    0 -0.82454400927E+02  0.19017954769E+02 -0.24438447751E+03  0.25861976662E+03  0.00000000000E+00 0. -1.
        -14    1    3    3    0    0 -0.34198009587E+02  0.72966905094E+02 -0.36763275007E+03  0.37636088004E+03  0.00000000000E+00 0.  1.
        -13    1    4    4    0    0  0.36847922565E+02  0.78852419087E+01 -0.41328892315E+02  0.55928738384E+02  0.00000000000E+00 0.  1.
         13    1    4    4    0    0  0.22043627860E+03 -0.10905791259E+03 -0.57004149666E+03  0.62083257738E+03  0.00000000000E+00 0. -1.
         21    1    1    2  503  502  0.24193588073E+02 -0.27564096309E+01  0.22216109657E+02  0.32961841973E+02  0.00000000000E+00 0. -1.
          2    1    1    2  501    0 -0.16482537872E+03  0.11944220449E+02 -0.35987770072E+03  0.39600761274E+03  0.00000000000E+00 0. -1.
<scales pt_clust_5="13000.00000" pt_clust_6="13000.00000" pt_clust_7="13000.00000" pt_clust_8="13000.00000" pt_clust_9="24.35010" pt_clust_10="158.19653"></scales>
<clustering>
<clus scale="   24.350">  1  9  2 -1</clus>
<clus scale="   81.033">  5  6 -1 -1</clus>
<clus scale="   88.324">  7  8 -1 -1</clus>
<clus scale="  158.197">  1 10  2 -1</clus>
<clus scale="  197.341">  2  5  1 -1</clus>
<clus scale="   24.350">  1  5  2 -1</clus>
</clustering>
</event>
<event>
10    3  0.5078224E-005  0.3032380E+03  0.7546771E-02  0.1103240E+00
         21   -1    0    0  501  502  0.00000000000E+00  0.00000000000E+00  0.60381681781E+03  0.60381681781E+03  0.00000000000E+00 0. -1.
          1   -1    0    0  503    0 -0.00000000000E+00 -0.00000000000E+00 -0.30933925284E+03  0.30933925284E+03  0.00000000000E+00 0. -1.
         23    2    1    2    0    0 -0.15312934952E+03  0.21308238760E+02 -0.45011653627E+02  0.18455271586E+03  0.90172153386E+02 0.  0.
        -24    2    1    2    0    0  0.13032487938E+03  0.27769666210E+03  0.15166453280E+03  0.35169960033E+03  0.81181697673E+02 0.  0.
         13    1    4    4    0    0  0.80688879030E+02  0.93931242149E+02  0.35974288560E+02  0.12894930356E+03  0.00000000000E+00 0. -1.
        -14    1    4    4    0    0  0.49636000353E+02  0.18376541995E+03  0.11569024424E+03  0.22275029677E+03  0.00000000000E+00 0.  1.
        -13    1    3    3    0    0 -0.52125247883E+02  0.96979624726E+01 -0.61886586485E+02  0.81492585735E+02  0.00000000000E+00 0.  1.
         13    1    3    3    0    0 -0.10100410164E+03  0.11610276287E+02  0.16874932857E+02  0.10306013013E+03  0.00000000000E+00 0. -1.
         21    1    1    2  503  502 -0.20990096697E+02  0.12281908238E+01  0.24647283847E+02  0.32397240825E+02  0.00000000000E+00 0. -1.
          2    1    1    2  501    0  0.43794566832E+02 -0.30023309168E+03  0.16317740196E+03  0.34450651363E+03  0.00000000000E+00 0. -1.
<scales pt_clust_5="13000.00000" pt_clust_6="13000.00000" pt_clust_7="13000.00000" pt_clust_8="13000.00000" pt_clust_9="21.02600" pt_clust_10="292.16912"></scales>
<clustering>
<clus scale="   21.026">  1  9  2 -1</clus>
<clus scale="   81.182">  5  6 -1 -1</clus>
<clus scale="   90.172">  7  8 -1 -1</clus>
<clus scale="  181.180">  2  7  1 -1</clus>
<clus scale="  292.169">  1 10  2 -1</clus>
<clus scale="   21.026">  1  5  2 -1</clus>
</clustering>
</event>
<event>
10    3  0.5078224E-005  0.2110631E+03  0.7546771E-02  0.1160568E+00
          1   -1    0    0  503    0 -0.00000000000E+00  0.00000000000E+00  0.65873687481E+03  0.65873687481E+03  0.00000000000E+00 0. -1.
         21   -1    0    0  501  502  0.00000000000E+00 -0.00000000000E+00 -0.32686440343E+03  0.32686440343E+03  0.00000000000E+00 0. -1.
        -24    2    1    2    0    0  0.43157271354E+02  0.10302375587E+03  0.22334729783E+03  0.26113043907E+03  0.76345572363E+02 0.  0.
         23    2    1    2    0    0 -0.13421029807E+03  0.11624743015E+03  0.14499417825E+03  0.24761686028E+03  0.93621197622E+02 0.  0.
         13    1    3    3    0    0  0.55663243435E+02  0.66481940774E+02  0.10246834892E+03  0.13423117242E+03  0.00000000000E+00 0. -1.
        -14    1    3    3    0    0 -0.12505972081E+02  0.36541815094E+02  0.12087894891E+03  0.12689926665E+03  0.00000000000E+00 0.  1.
        -11    1    4    4    0    0 -0.46783569907E+02  0.68339950896E+02  0.11830636718E+03  0.14441415379E+03  0.00000000000E+00 0.  1.
         11    1    4    4    0    0 -0.87426728165E+02  0.47907479256E+02  0.26687811070E+02  0.10320270649E+03  0.00000000000E+00 0. -1.
         21    1    1    2  503  502  0.75826248963E+02 -0.13817850856E+03 -0.22289050437E+03  0.27298918879E+03  0.00000000000E+00 0. -1.
          2    1    1    2  501    0  0.15226777754E+02 -0.81092677456E+02  0.18642149968E+03  0.20386479009E+03  0.00000000000E+00 0. -1.
<scales pt_clust_5="13000.00000" pt_clust_6="13000.00000" pt_clust_7="13000.00000" pt_clust_8="13000.00000" pt_clust_9="189.16315" pt_clust_10="82.50990"></scales>
<clustering>
<clus scale="   76.346">  5  6 -1 -1</clus>
<clus scale="   82.510">  2 10  1 -1</clus>
<clus scale="   93.621">  7  8 -1 -1</clus>
<clus scale="  131.966">  1  5  2 -1</clus>
<clus scale="  189.163">  2  9  1 -1</clus>
<clus scale="   82.510">  2  5  1 -1</clus>
</clustering>
</event>
<event>
10    3  0.5078224E-005  0.3703788E+03  0.7546771E-02  0.1097098E+00
         21   -1    0    0  503  502  0.00000000000E+00  0.00000000000E+00  0.17515839595E+03  0.17515839595E+03  0.00000000000E+00 0. -1.
          1   -1    0    0  502    0 -0.00000000000E+00 -0.00000000000E+00 -0.11701230667E+04  0.11701230667E+04  0.00000000000E+00 0. -1.
        -24    2    1    2    0    0  0.54999898432E+02  0.70174361089E+02 -0.16597269849E+03  0.20475070036E+03  0.80165347094E+02 0.  0.
         23    2    1    2    0    0  0.50403648430E+02 -0.37892010113E+03 -0.36466908399E+03  0.53605415722E+03  0.90827021521E+02 0.  0.
         11    1    3    3    0    0 -0.17911878509E+02  0.34023895161E+02 -0.50091096442E+02  0.63147278456E+02  0.00000000000E+00 0. -1.
        -12    1    3    3    0    0  0.72911776941E+02  0.36150465928E+02 -0.11588160205E+03  0.14160342191E+03  0.00000000000E+00 0.  1.
        -11    1    4    4    0    0  0.32285328863E+02 -0.58358038562E+02 -0.98736550917E+02  0.11915078519E+03  0.00000000000E+00 0.  1.
         11    1    4    4    0    0  0.18118319567E+02 -0.32056206257E+03 -0.26593253308E+03  0.41690337203E+03  0.00000000000E+00 0. -1.
         21    1    1    2  503  501 -0.38696943052E+02 -0.16974306126E+02 -0.13596953147E+02  0.44389836730E+02  0.00000000000E+00 0. -1.
          2    1    1    2  501    0 -0.66706603810E+02  0.32572004617E+03 -0.45072593513E+03  0.56008676834E+03  0.00000000000E+00 0. -1.
<scales pt_clust_5="13000.00000" pt_clust_6="13000.00000" pt_clust_7="13000.00000" pt_clust_8="13000.00000" pt_clust_9="42.25613" pt_clust_10="359.06971"></scales>
<clustering>
<clus scale="   42.256">  1  9  2 -1</clus>
<clus scale="   80.165">  5  6 -1 -1</clus>
<clus scale="   90.827">  7  8 -1 -1</clus>
<clus scale="  116.604">  2  5  1 -1</clus>
<clus scale="  359.070">  1 10  2 -1</clus>
<clus scale="   42.256">  1  5  2 -1</clus>
</clustering>
</event>
<event>
10    3  0.5078224E-005  0.1003851E+03  0.7546771E-02  0.1285755E+00
         21   -1    0    0  501  502  0.00000000000E+00  0.00000000000E+00  0.79592200023E+02  0.79592200023E+02  0.00000000000E+00 0.  1.
         -4   -1    0    0    0  501 -0.00000000000E+00 -0.00000000000E+00 -0.34761096315E+03  0.34761096315E+03  0.00000000000E+00 0.  1.
        -24    2    1    2    0    0 -0.15525445746E+01  0.60882596530E+02 -0.19427191322E+03  0.21744357923E+03  0.76361200404E+02 0.  0.
         23    2    1    2    0    0 -0.67104587886E+01 -0.17260220383E+02 -0.70694029459E+02  0.11533549219E+03  0.89228271818E+02 0.  0.
         13    1    3    3    0    0 -0.38743699262E+01  0.57032188340E+02 -0.59190231118E+02  0.82287087134E+02  0.00000000000E+00 0. -1.
        -14    1    3    3    0    0  0.23218253516E+01  0.38504081902E+01 -0.13508168210E+03  0.13515649209E+03  0.00000000000E+00 0.  1.
        -13    1    4    4    0    0  0.21738830993E+02 -0.11084142745E+02 -0.80889447363E+02  0.84489867369E+02  0.00000000000E+00 0. -1.
         13    1    4    4    0    0 -0.28449289781E+02 -0.61760776378E+01  0.10195417904E+02  0.30845624816E+02  0.00000000000E+00 0.  1.
         21    1    1    2  503  502  0.37266654968E+02  0.10058913659E+01  0.11909068256E+02  0.39136189092E+02  0.00000000000E+00 0.  1.
         -3    1    1    2    0  503 -0.29003651605E+02 -0.44628267513E+02 -0.14961888703E+02  0.55287902666E+02  0.00000000000E+00 0.  1.
<scales pt_clust_5="13000.00000" pt_clust_6="13000.00000" pt_clust_7="13000.00000" pt_clust_8="13000.00000" pt_clust_9="37.28023" pt_clust_10="46.76058"></scales>
<clustering>
<clus scale="   37.280">  1  9  2 -1</clus>
<clus scale="   46.761">  1 10  2 -1</clus>
<clus scale="   76.361">  5  6 -1 -1</clus>
<clus scale="   89.143">  2  5  1 -1</clus>
<clus scale="   89.228">  7  8 -1 -1</clus>
<clus scale="   37.280">  1  5  2 -1</clus>
</clustering>
</event>
<event>
10    3  0.5078224E-005  0.1842202E+03  0.7546771E-02  0.1164420E+00
          1   -1    0    0  503    0 -0.00000000000E+00  0.00000000000E+00  0.47875234189E+03  0.47875234189E+03  0.00000000000E+00 0. -1.
         21   -1    0    0  501  502  0.00000000000E+00 -0.00000000000E+00 -0.14254594882E+03  0.14254594882E+03  0.00000000000E+00 0. -1.
         23    2    1    2    0    0  0.13196836578E+03  0.10906741042E+03  0.35762060997E+03  0.40545107759E+03  0.84774560191E+02 0.  0.
        -24    2    1    2    0    0 -0.94321437652E+02 -0.90998617492E+02 -0.45647009276E+02  0.15955786009E+03  0.78725975850E+02 0.  0.
         13    1    4    4    0    0 -0.69784723493E+02 -0.35339408390E+02 -0.58136931042E+02  0.97461193145E+02  0.00000000000E+00 0. -1.
        -14    1    4    4    0    0 -0.24536714159E+02 -0.55659209102E+02  0.12489921765E+02  0.62096666942E+02  0.00000000000E+00 0.  1.
        -11    1    3    3    0    0  0.58869515665E+02  0.31781727520E+01  0.79177040542E+02  0.98715370666E+02  0.00000000000E+00 0.  1.
         11    1    3    3    0    0  0.73098850113E+02  0.10588923767E+03  0.27844356943E+03  0.30673570692E+03  0.00000000000E+00 0. -1.
         21    1    1    2  503  502 -0.23881283062E+02 -0.18366921681E+01 -0.11316077214E+00  0.23952075571E+02  0.00000000000E+00 0.  1.
          2    1    1    2  501    0 -0.13765645064E+02 -0.16232100764E+02  0.24345953141E+02  0.32337277461E+02  0.00000000000E+00 0. -1.
<scales pt_clust_5="13000.00000" pt_clust_6="13000.00000" pt_clust_7="13000.00000" pt_clust_8="13000.00000" pt_clust_9="25.28605" pt_clust_10="21.28320"></scales>
<clustering>
<clus scale="   21.283">  2 10  1 -1</clus>
<clus scale="   25.286">  2  9  1 -1</clus>
<clus scale="   78.726">  5  6 -1 -1</clus>
<clus scale="   84.775">  7  8 -1 -1</clus>
<clus scale="  181.516">  2  5  1 -1</clus>
<clus scale="   21.283">  2  5  1 -1</clus>
</clustering>
</event>
<event>
10    3  0.5078224E-005  0.1016301E+03  0.7546771E-02  0.1289466E+00
          1   -1    0    0  502    0 -0.00000000000E+00  0.00000000000E+00  0.98479538398E+03  0.98479538398E+03  0.00000000000E+00 0. -1.
         21   -1    0    0  503  502  0.00000000000E+00 -0.00000000000E+00 -0.83283404355E+02  0.83283404355E+02  0.00000000000E+00 0.  1.
        -24    2    1    2    0    0  0.17254810061E+01  0.17809365026E+01  0.77903038181E+03  0.78312391883E+03  0.79928639623E+02 0.  0.
         23    2    1    2    0    0 -0.20389586707E+02 -0.23541632680E+02  0.14570843601E+03  0.18027527448E+03  0.10148045401E+03 0.  0.
         11    1    3    3    0    0  0.20205579931E+02 -0.16201828409E+02  0.91086649493E+02  0.94697108826E+02  0.00000000000E+00 0. -1.
        -12    1    3    3    0    0 -0.18480098925E+02  0.17982764911E+02  0.68794373232E+03  0.68842681000E+03  0.00000000000E+00 0.  1.
        -13    1    4    4    0    0 -0.60518900283E+02 -0.20979698414E+02  0.72430597670E+02  0.96689588456E+02  0.00000000000E+00 0. -1.
         13    1    4    4    0    0  0.40129313576E+02 -0.25619342665E+01  0.73277838344E+02  0.83585686021E+02  0.00000000000E+00 0.  1.
         21    1    1    2  503  501 -0.54194389616E+01  0.21677266155E+02 -0.58128400982E+02  0.62275076775E+02  0.00000000000E+00 0.  1.
          2    1    1    2  501    0  0.24083544662E+02  0.83430022763E-01  0.34901562777E+02  0.42404518254E+02  0.00000000000E+00 0. -1.
<scales pt_clust_5="13000.00000" pt_clust_6="13000.00000" pt_clust_7="13000.00000" pt_clust_8="13000.00000" pt_clust_9="22.34444" pt_clust_10="23.48136"></scales>
<clustering>
<clus scale="   22.344">  2  9  1 -1</clus>
<clus scale="   23.481">  2 10  1 -1</clus>
<clus scale="   79.929">  5  6 -1 -1</clus>
<clus scale="   80.119">  1  5  2 -1</clus>
<clus scale="  101.480">  7  8 -1 -1</clus>
<clus scale="   22.344">  2  5  1 -1</clus>
</clustering>
</event>
<event>
10    3  0.5078224E-005  0.1909436E+03  0.7546771E-02  0.1168231E+00
          1   -1    0    0  503    0 -0.00000000000E+00  0.00000000000E+00  0.15729052296E+04  0.15729052296E+04  0.00000000000E+00 0. -1.
         21   -1    0    0  501  502  0.00000000000E+00 -0.00000000000E+00 -0.79809882422E+02  0.79809882422E+02  0.00000000000E+00 0. -1.
         23    2    1    2    0    0 -0.87757939201E+02  0.67134310530E+02  0.23636419784E+03  0.27648437142E+03  0.91471864932E+02 0.  0.
        -24    2    1    2    0    0 -0.88493521153E+02 -0.16268169169E+03  0.20921655145E+03  0.29067702528E+03  0.80156918125E+02 0.  0.
         13    1    4    4    0    0 -0.70007318361E+02 -0.11865443408E+03  0.96326102486E+02  0.16810299632E+03  0.00000000000E+00 0. -1.
        -14    1    4    4    0    0 -0.18486202793E+02 -0.44027257607E+02  0.11289044897E+03  0.12257402896E+03  0.00000000000E+00 0.  1.
        -11    1    3    3    0    0 -0.20221476790E+02 -0.14197239439E+02  0.10498457742E+03  0.10785282206E+03  0.00000000000E+00 0.  1.
         11    1    3    3    0    0 -0.67536462411E+02  0.81331549969E+02  0.13137962042E+03  0.16863154935E+03  0.00000000000E+00 0. -1.
         21    1    1    2  503  502 -0.11224588377E+02  0.28267044299E+02  0.14833018208E+02  0.33838374766E+02  0.00000000000E+00 0. -1.
          2    1    1    2  501    0  0.18747604873E+03  0.67280336861E+02  0.10326815797E+04  0.10517153405E+04  0.00000000000E+00 0. -1.
<scales pt_clust_5="13000.00000" pt_clust_6="13000.00000" pt_clust_7="13000.00000" pt_clust_8="13000.00000" pt_clust_9="30.41410" pt_clust_10="173.30420"></scales>
<clustering>
<clus scale="   30.414">  2  9  1 -1</clus>
<clus scale="   80.157">  5  6 -1 -1</clus>
<clus scale="   91.472">  7  8 -1 -1</clus>
<clus scale="  149.318">  1  7  2 -1</clus>
<clus scale="  173.304">  2 10  1 -1</clus>
<clus scale="   30.414">  2  5  1 -1</clus>
</clustering>
</event>
<event>
10    3  0.5078224E-005  0.2807857E+03  0.7546771E-02  0.1115870E+00
         -2   -1    0    0    0  501 -0.00000000000E+00  0.00000000000E+00  0.36175837383E+03  0.36175837383E+03  0.00000000000E+00 0.  1.
         21   -1    0    0  503  502  0.00000000000E+00 -0.00000000000E+00 -0.85496615144E+03  0.85496615144E+03  0.00000000000E+00 0. -1.
        -24    2    1    2    0    0 -0.11163046419E+03 -0.95953450920E+02  0.97909387417E+02  0.19416037029E+03  0.80271887782E+02 0.  0.
         23    2    1    2    0    0  0.12958539926E+03  0.28624544797E+03 -0.30068962492E+03  0.44821908303E+03  0.10843091662E+03 0.  0.
         11    1    3    3    0    0 -0.88380291258E+02 -0.39729775995E+02  0.90995417189E+02  0.13292741227E+03  0.00000000000E+00 0. -1.
        -12    1    3    3    0    0 -0.23250172927E+02 -0.56223674925E+02  0.69139702284E+01  0.61232958017E+02  0.00000000000E+00 0.  1.
        -11    1    4    4    0    0  0.70882171191E+01  0.13196326715E+03 -0.90675765068E+02  0.16027052464E+03  0.00000000000E+00 0.  1.
         11    1    4    4    0    0  0.12249718214E+03  0.15428218082E+03 -0.21001385985E+03  0.28794855839E+03  0.00000000000E+00 0. -1.
         21    1    1    2  503  501 -0.54109804964E+02 -0.21884299220E+03 -0.39795123836E+03  0.45736781079E+03  0.00000000000E+00 0. -1.
         -1    1    1    2    0  502  0.36154869892E+02  0.28550995157E+02  0.10752369826E+03  0.11697726116E+03  0.00000000000E+00 0.  1.
<scales pt_clust_5="13000.00000" pt_clust_6="13000.00000" pt_clust_7="13000.00000" pt_clust_8="13000.00000" pt_clust_9="259.00455" pt_clust_10="46.06882"></scales>
<clustering>
<clus scale="   46.069">  2 10  1 -1</clus>
<clus scale="   80.272">  5  6 -1 -1</clus>
<clus scale="  108.431">  7  8 -1 -1</clus>
<clus scale="  165.384">  1  5  2 -1</clus>
<clus scale="  259.005">  2  9  1 -1</clus>
<clus scale="   46.069">  2  5  1 -1</clus>
</clustering>
</event>
<event>
10    3  0.5078224E-005  0.1253351E+03  0.7546771E-02  0.1240839E+00
          1   -1    0    0  503    0 -0.00000000000E+00  0.00000000000E+00  0.45812140900E+03  0.45812140900E+03  0.00000000000E+00 0. -1.
         21   -1    0    0  501  502  0.00000000000E+00 -0.00000000000E+00 -0.12814000635E+03  0.12814000635E+03  0.00000000000E+00 0. -1.
        -24    2    1    2    0    0 -0.87429339437E+02  0.14292567786E+02  0.34614913333E+03  0.36461782695E+03  0.72655146644E+02 0.  0.
         23    2    1    2    0    0  0.44738118395E+02 -0.21294852663E+02 -0.79229053797E+01  0.10654397320E+03  0.93988700426E+02 0.  0.
         13    1    3    3    0    0 -0.65827695762E+02  0.20305005553E+02  0.12835842454E+03  0.14567588658E+03  0.00000000000E+00 0. -1.
        -14    1    3    3    0    0 -0.21601643676E+02 -0.60124377676E+01  0.21779070879E+03  0.21894194037E+03  0.00000000000E+00 0.  1.
        -13    1    4    4    0    0  0.40671548823E+02 -0.56312244745E+02 -0.13753164963E+02  0.70812381251E+02  0.00000000000E+00 0. -1.
         13    1    4    4    0    0  0.40665695716E+01  0.35017392082E+02  0.58302595831E+01  0.35731591948E+02  0.00000000000E+00 0.  1.
         21    1    1    2  503  502  0.11411361561E+02 -0.40583684354E+02  0.25144564967E+02  0.49086696322E+02  0.00000000000E+00 0.  1.
          2    1    1    2  501    0  0.31279859482E+02  0.47585969231E+02 -0.33389390265E+02  0.66012918881E+02  0.00000000000E+00 0. -1.
<scales pt_clust_5="13000.00000" pt_clust_6="13000.00000" pt_clust_7="13000.00000" pt_clust_8="13000.00000" pt_clust_9="42.15750" pt_clust_10="47.12869"></scales>
<clustering>
<clus scale="   42.157">  2  9  1 -1</clus>
<clus scale="   47.129">  2 10  1 -1</clus>
<clus scale="   72.655">  5  6 -1 -1</clus>
<clus scale="   93.989">  7  8 -1 -1</clus>
<clus scale="  110.244">  1  5  2 -1</clus>
<clus scale="   42.157">  2  5  1 -1</clus>
</clustering>
</event>
<event>
10    3  0.5078224E-005  0.1345112E+03  0.7546771E-02  0.1222663E+00
         -2   -1    0    0    0  501 -0.00000000000E+00  0.00000000000E+00  0.46700180029E+03  0.46700180029E+03  0.00000000000E+00 0.  1.
         21   -1    0    0  503  502  0.00000000000E+00 -0.00000000000E+00 -0.30040670550E+03  0.30040670550E+03  0.00000000000E+00 0.  1.
        -24    2    1    2    0    0  0.72421050648E+02  0.59943355957E+02  0.32947641274E+03  0.35231545449E+03  0.82057653038E+02 0.  0.
         23    2    1    2    0    0 -0.75090054428E+02 -0.16921223927E+03 -0.35310750458E+02  0.20864159273E+03  0.89516294184E+02 0.  0.
         13    1    3    3    0    0  0.44127764827E+02  0.37805453244E+02  0.72846752343E+02  0.93183481640E+02  0.00000000000E+00 0. -1.
        -14    1    3    3    0    0  0.28293285821E+02  0.22137902713E+02  0.25662966040E+03  0.25913197285E+03  0.00000000000E+00 0.  1.
        -11    1    4    4    0    0 -0.83679955914E+02 -0.13184367943E+03  0.52660405015E+00  0.15615815105E+03  0.00000000000E+00 0.  1.
         11    1    4    4    0    0  0.85899014863E+01 -0.37368559844E+02 -0.35837354508E+02  0.52483441679E+02  0.00000000000E+00 0. -1.
         21    1    1    2  503  501  0.20186167240E+02  0.61379394366E+02 -0.13980281795E+03  0.15401214013E+03  0.00000000000E+00 0.  1.
         -1    1    1    2    0  502 -0.17517163460E+02  0.47889488948E+02  0.12232250463E+02  0.52439318443E+02  0.00000000000E+00 0.  1.
<scales pt_clust_5="13000.00000" pt_clust_6="13000.00000" pt_clust_7="13000.00000" pt_clust_8="13000.00000" pt_clust_9="87.17585" pt_clust_10="50.99271"></scales>
<clustering>
<clus scale="   50.993">  2 10  1 -1</clus>
<clus scale="   82.058">  5  6 -1 -1</clus>
<clus scale="   87.176">  2  9  1 -1</clus>
<clus scale="   89.516">  7  8 -1 -1</clus>
<clus scale="  129.667">  1  5  2 -1</clus>
<clus scale="   50.993">  2  5  1 -1</clus>
</clustering>
</event>
<event>
10    3  0.5078224E-005  0.1743141E+03  0.7546771E-02  0.1207861E+00
          1   -1    0    0  503    0 -0.00000000000E+00  0.00000000000E+00  0.72789141769E+03  0.72789141769E+03  0.00000000000E+00 0. -1.
         21   -1    0    0  501  502  0.00000000000E+00 -0.00000000000E+00 -0.10737027159E+03  0.10737027159E+03  0.00000000000E+00 0.  1.
        -24    2    1    2    0    0 -0.21368953256E+02 -0.11671436580E+02  0.23794202970E+03  0.25176527672E+03  0.78590651299E+02 0.  0.
         23    2    1    2    0    0  0.12646200461E+03  0.77896173177E+02  0.18261349211E+03  0.25053016832E+03  0.85774269624E+02 0.  0.
         11    1    3    3    0    0  0.45487154219E+01  0.30152864463E+02  0.12321265585E+03  0.12693007764E+03  0.00000000000E+00 0. -1.
        -12    1    3    3    0    0 -0.25917668677E+02 -0.41824301042E+02  0.11472937385E+03  0.12483519909E+03  0.00000000000E+00 0.  1.
        -13    1    4    4    0    0  0.13834891413E+01  0.32713527622E+02  0.13567036608E+02  0.35442254640E+02  0.00000000000E+00 0. -1.
         13    1    4    4    0    0  0.12507851546E+03  0.45182645556E+02  0.16904645551E+03  0.21508791367E+03  0.00000000000E+00 0.  1.
         21    1    1    2  503  502  0.15935046060E+02  0.23943396442E+02 -0.40131589604E+02  0.49373640844E+02  0.00000000000E+00 0.  1.
          2    1    1    2  501    0 -0.12102809741E+03 -0.90168133039E+02  0.24009721389E+03  0.28359260339E+03  0.00000000000E+00 0. -1.
<scales pt_clust_5="13000.00000" pt_clust_6="13000.00000" pt_clust_7="13000.00000" pt_clust_8="13000.00000" pt_clust_9="28.76129" pt_clust_10="151.75042"></scales>
<clustering>
<clus scale="   28.761">  2  9  1 -1</clus>
<clus scale="   78.591">  5  6 -1 -1</clus>
<clus scale="   81.502">  1  5  2 -1</clus>
<clus scale="   85.774">  7  8 -1 -1</clus>
<clus scale="  151.750">  2 10  1 -1</clus>
<clus scale="   28.761">  2  5  1 -1</clus>
</clustering>
</event>
<event>
10    3  0.5078224E-005  0.4267500E+03  0.7546771E-02  0.1094540E+00
         21   -1    0    0  501  502  0.00000000000E+00  0.00000000000E+00  0.56048865764E+03  0.56048865764E+03  0.00000000000E+00 0. -1.
          1   -1    0    0  503    0 -0.00000000000E+00 -0.00000000000E+00 -0.70267397205E+03  0.70267397205E+03  0.00000000000E+00 0. -1.
        -24    2    1    2    0    0  0.99192348448E+01  0.38876284610E+01 -0.66953953162E+02  0.10547859962E+03  0.80804692058E+02 0.  0.
         23    2    1    2    0    0  0.28836260257E+03  0.26848160071E+03 -0.65956719068E+02  0.40982566051E+03  0.91495479349E+02 0.  0.
         11    1    3    3    0    0 -0.55253617244E+01  0.40460971032E+02 -0.42036331185E+02  0.58606082778E+02  0.00000000000E+00 0. -1.
        -12    1    3    3    0    0  0.15444596569E+02 -0.36573342571E+02 -0.24917621977E+02  0.46872516841E+02  0.00000000000E+00 0.  1.
        -11    1    4    4    0    0  0.75300078432E+01  0.32320018930E+02 -0.23023732838E+02  0.40390307198E+02  0.00000000000E+00 0.  1.
         11    1    4    4    0    0  0.28083259473E+03  0.23616158178E+03 -0.42932986230E+02  0.36943535331E+03  0.00000000000E+00 0. -1.
         21    1    1    2  503  502 -0.30442712356E+02  0.75877813387E+02  0.23245507695E+03  0.24641340082E+03  0.00000000000E+00 0. -1.
          2    1    1    2  501    0 -0.26783912506E+03 -0.34824704256E+03 -0.24172971913E+03  0.50144496874E+03  0.00000000000E+00 0. -1.
<scales pt_clust_5="13000.00000" pt_clust_6="13000.00000" pt_clust_7="13000.00000" pt_clust_8="13000.00000" pt_clust_9="81.75609" pt_clust_10="416.82652"></scales>
<clustering>
<clus scale="   80.805">  5  6 -1 -1</clus>
<clus scale="   81.504">  2  5  1 -1</clus>
<clus scale="   81.756">  1  9  2 -1</clus>
<clus scale="   91.495">  7  8 -1 -1</clus>
<clus scale="  416.827">  1 10  2 -1</clus>
<clus scale="   81.756">  1  5  2 -1</clus>
</clustering>
</event>
<event>
10    3  0.5078224E-005  0.2568687E+03  0.7546771E-02  0.1143914E+00
          1   -1    0    0  502    0 -0.00000000000E+00  0.00000000000E+00  0.19561827640E+04  0.19561827640E+04  0.00000000000E+00 0. -1.
         21   -1    0    0  503  502  0.00000000000E+00 -0.00000000000E+00 -0.19878021095E+03  0.19878021095E+03  0.00000000000E+00 0.  1.
        -24    2    1    2    0    0  0.65430364078E+01  0.75417254578E+02  0.50166987473E+03  0.51277088400E+03  0.74368963032E+02 0.  0.
         23    2    1    2    0    0  0.29532466098E+03 -0.42060643253E+01  0.62651862277E+03  0.69872564460E+03  0.91965185715E+02 0.  0.
         11    1    3    3    0    0 -0.89859998305E+01  0.28574929010E+02  0.49082744721E+02  0.57501222510E+02  0.00000000000E+00 0. -1.
        -12    1    3    3    0    0  0.15529036238E+02  0.46842325568E+02  0.45258713000E+03  0.45526966149E+03  0.00000000000E+00 0.  1.
        -13    1    4    4    0    0  0.24549336365E+03 -0.35812137944E+02  0.47013483500E+03  0.53157902884E+03  0.00000000000E+00 0.  1.
         13    1    4    4    0    0  0.49831297330E+02  0.31606073619E+02  0.15638378777E+03  0.16714661576E+03  0.00000000000E+00 0. -1.
         21    1    1    2  503  501 -0.96729683859E+02  0.37209505116E+02 -0.12034243558E+03  0.15881901905E+03  0.00000000000E+00 0.  1.
          2    1    1    2  501    0 -0.20513801353E+03 -0.10842069537E+03  0.74955649112E+03  0.78464742730E+03  0.00000000000E+00 0. -1.
<scales pt_clust_5="13000.00000" pt_clust_6="13000.00000" pt_clust_7="13000.00000" pt_clust_8="13000.00000" pt_clust_9="103.63966" pt_clust_10="239.84154"></scales>
<clustering>
<clus scale="   74.369">  5  6 -1 -1</clus>
<clus scale="   91.965">  7  8 -1 -1</clus>
<clus scale="  103.640">  2  9  1 -1</clus>
<clus scale="  108.459">  1  5  2 -1</clus>
<clus scale="  239.842">  2 10  1 -1</clus>
<clus scale="  103.640">  2  5  1 -1</clus>
</clustering>
</event>
<event>
10    3  0.5078224E-005  0.1505843E+03  0.7546771E-02  0.1212655E+00
         21   -1    0    0  501  502  0.00000000000E+00  0.00000000000E+00  0.33165811606E+03  0.33165811606E+03  0.00000000000E+00 0. -1.
          1   -1    0    0  503    0 -0.00000000000E+00 -0.00000000000E+00 -0.23120197210E+03  0.23120197210E+03  0.00000000000E+00 0. -1.
        -24    2    1    2    0    0  0.56549040916E+02 -0.40637943798E+02  0.84957796906E+02  0.13709421310E+03  0.82022920607E+02 0.  0.
         23    2    1    2    0    0  0.50400485548E+02 -0.30784653845E+02 -0.26212185761E+02  0.11161784189E+03  0.91014065347E+02 0.  0.
         11    1    3    3    0    0  0.32063633364E+02 -0.63272728930E+02  0.72689690509E+02  0.10156429450E+03  0.00000000000E+00 0. -1.
        -12    1    3    3    0    0  0.24485407552E+02  0.22634785132E+02  0.12268106396E+02  0.35529918597E+02  0.00000000000E+00 0.  1.
        -13    1    4    4    0    0  0.57634159158E+02 -0.89646093111E+01  0.18627111806E+02  0.61229321539E+02  0.00000000000E+00 0.  1.
         13    1    4    4    0    0 -0.72336736094E+01 -0.21820044534E+02 -0.44839297567E+02  0.50388520356E+02  0.00000000000E+00 0. -1.
         21    1    1    2  503  502  0.41187939919E+01 -0.10376973013E+03  0.17320137881E+02  0.10528584203E+03  0.00000000000E+00 0. -1.
          2    1    1    2  501    0 -0.11106832046E+03  0.17519232778E+03  0.24390394930E+02  0.20886219113E+03  0.00000000000E+00 0. -1.
<scales pt_clust_5="13000.00000" pt_clust_6="13000.00000" pt_clust_7="13000.00000" pt_clust_8="13000.00000" pt_clust_9="103.85144" pt_clust_10="119.96702"></scales>
<clustering>
<clus scale="   82.023">  5  6 -1 -1</clus>
<clus scale="   91.014">  7  8 -1 -1</clus>
<clus scale="  103.851">  2  9  1 -1</clus>
<clus scale="  114.128">  2  5  1 -1</clus>
<clus scale="  119.967">  1 10  2 -1</clus>
<clus scale="  119.967">  1  5  2 -1</clus>
</clustering>
</event>
<event>
10    3  0.5078224E-005  0.1536585E+03  0.7546771E-02  0.1217608E+00
         -2   -1    0    0    0  501 -0.00000000000E+00  0.00000000000E+00  0.36618287978E+03  0.36618287978E+03  0.00000000000E+00 0.  1.
         21   -1    0    0  503  502  0.00000000000E+00 -0.00000000000E+00 -0.29376931243E+03  0.29376931243E+03  0.00000000000E+00 0.  1.
        -24    2    1    2    0    0  0.38154711795E+02 -0.41221848499E+02  0.15934055494E+03  0.18684115178E+03  0.79782082715E+02 0.  0.
         23    2    1    2    0    0  0.35827699343E+02  0.40954846798E+02 -0.15389738218E+03  0.18580545718E+03  0.88760014413E+02 0.  0.
         11    1    3    3    0    0  0.94288641150E+01 -0.60663339273E+02  0.11680289836E+03  0.13195401197E+03  0.00000000000E+00 0. -1.
        -12    1    3    3    0    0  0.28725847680E+02  0.19441490774E+02  0.42537656584E+02  0.54887139806E+02  0.00000000000E+00 0.  1.
        -11    1    4    4    0    0  0.17897977641E+02 -0.25835614265E+02 -0.27663172874E+02  0.41869651318E+02  0.00000000000E+00 0. -1.
         11    1    4    4    0    0  0.17929721703E+02  0.66790461063E+02 -0.12623420931E+03  0.14393580586E+03  0.00000000000E+00 0.  1.
         21    1    1    2  503  501  0.46189359528E+02  0.81299210585E+02 -0.45366746877E+02  0.10392863079E+03  0.00000000000E+00 0.  1.
         -1    1    1    2    0  502 -0.12017177067E+03 -0.81032208884E+02  0.11233714147E+03  0.18337695246E+03  0.00000000000E+00 0.  1.
<scales pt_clust_5="13000.00000" pt_clust_6="13000.00000" pt_clust_7="13000.00000" pt_clust_8="13000.00000" pt_clust_9="93.50411" pt_clust_10="125.42965"></scales>
<clustering>
<clus scale="   79.782">  5  6 -1 -1</clus>
<clus scale="   88.760">  7  8 -1 -1</clus>
<clus scale="   93.504">  2  9  1 -1</clus>
<clus scale="   96.722">  1  5  2 -1</clus>
<clus scale="  125.430">  2 10  1 -1</clus>
<clus scale="   93.504">  2  5  1 -1</clus>
</clustering>
</event>
<event>
10    3  0.6154201E-005  0.1230722E+03  0.7546771E-02  0.1260134E+00
         -2   -1    0    0    0  501 -0.00000000000E+00  0.00000000000E+00  0.44417392949E+03  0.44417392949E+03  0.00000000000E+00 0.  1.
         21   -1    0    0  501  502  0.00000000000E+00 -0.00000000000E+00 -0.52537022771E+03  0.52537022771E+03  0.00000000000E+00 0. -1.
        -24    2    1    2    0    0 -0.16546241337E+01  0.12122673790E+02  0.23926216005E+03  0.25216607779E+03  0.78687054553E+02 0.  0.
         23    2    1    2    0    0 -0.13920505834E+02 -0.36368682396E+02 -0.54211663685E+02  0.11183513632E+03  0.89731442064E+02 0.  0.
         11    1    3    3    0    0 -0.36932205541E+01  0.44806359929E+02  0.16477540758E+03  0.17079866718E+03  0.00000000000E+00 0. -1.
        -12    1    3    3    0    0  0.20385964204E+01 -0.32683686140E+02  0.74486752471E+02  0.81367410606E+02  0.00000000000E+00 0.  1.
        -13    1    4    4    0    0 -0.91250470225E+01 -0.57121070793E+02 -0.65780710612E+02  0.87596718548E+02  0.00000000000E+00 0. -1.
         13    1    4    4    0    0 -0.47954588116E+01  0.20752388397E+02  0.11569046928E+02  0.24238417775E+02  0.00000000000E+00 0.  1.
         21    1    1    2  503  502 -0.19310163291E+02 -0.53717454020E+02 -0.42310477035E+03  0.42693804464E+03  0.00000000000E+00 0. -1.
         -1    1    1    2    0  503  0.34885293259E+02  0.77963462626E+02  0.15685797576E+03  0.17860489845E+03  0.00000000000E+00 0.  1.
<scales pt_clust_5="13000.00000" pt_clust_6="13000.00000" pt_clust_7="13000.00000" pt_clust_8="13000.00000" pt_clust_9="57.08281" pt_clust_10="84.23210"></scales>
<clustering>
<clus scale="   57.083">  2  9  1 -1</clus>
<clus scale="   78.687">  5  6 -1 -1</clus>
<clus scale="   79.216">  1  5  2 -1</clus>
<clus scale="   84.232">  2 10  1 -1</clus>
<clus scale="   89.731">  7  8 -1 -1</clus>
<clus scale="   57.083">  2  5  1 -1</clus>
</clustering>
</event>
<event>
10    3  0.5078224E-005  0.1631606E+03  0.7546771E-02  0.1216515E+00
          1   -1    0    0  503    0 -0.00000000000E+00  0.00000000000E+00  0.73862946563E+03  0.73862946563E+03  0.00000000000E+00 0. -1.
         21   -1    0    0  501  502  0.00000000000E+00 -0.00000000000E+00 -0.13102651621E+03  0.13102651621E+03  0.00000000000E+00 0.  1.
        -24    2    1    2    0    0 -0.37426948071E+02  0.10635532242E+02  0.53053590960E+02  0.98231615618E+02  0.72944333606E+02 0.  0.
         23    2    1    2    0    0 -0.16341393165E+01  0.16874774617E+03  0.17624995638E+03  0.26045392851E+03  0.91069915460E+02 0.  0.
         11    1    3    3    0    0 -0.23240558849E+02  0.14152776765E+01  0.70309694338E+02  0.74064699448E+02  0.00000000000E+00 0. -1.
        -12    1    3    3    0    0 -0.14186389222E+02  0.92202545654E+01 -0.17256103377E+02  0.24166916170E+02  0.00000000000E+00 0.  1.
        -11    1    4    4    0    0  0.32067595007E+02  0.14646171090E+03  0.12507414882E+03  0.19525087993E+03  0.00000000000E+00 0. -1.
         11    1    4    4    0    0 -0.33701734323E+02  0.22286035266E+02  0.51175807559E+02  0.65203048576E+02  0.00000000000E+00 0.  1.
         21    1    1    2  503  502  0.36706538339E+01 -0.88582809148E+02 -0.28134837553E+02  0.93015895739E+02  0.00000000000E+00 0.  1.
          2    1    1    2  501    0  0.35390433554E+02 -0.90800469265E+02  0.40643423964E+03  0.41795454197E+03  0.00000000000E+00 0. -1.
<scales pt_clust_5="13000.00000" pt_clust_6="13000.00000" pt_clust_7="13000.00000" pt_clust_8="13000.00000" pt_clust_9="135.37960" pt_clust_10="85.05627"></scales>
<clustering>
<clus scale="   72.944">  5  6 -1 -1</clus>
<clus scale="   82.673">  1  5  2 -1</clus>
<clus scale="   85.056">  2 10  1 -1</clus>
<clus scale="   91.070">  7  8 -1 -1</clus>
<clus scale="  135.380">  2  9  1 -1</clus>
<clus scale="   85.056">  2  5  1 -1</clus>
</clustering>
</event>
<event>
10    3  0.5078224E-005  0.1623590E+03  0.7546771E-02  0.1212623E+00
          3   -1    0    0  502    0 -0.00000000000E+00  0.00000000000E+00  0.41159017927E+03  0.41159017927E+03  0.00000000000E+00 0. -1.
         21   -1    0    0  503  502  0.00000000000E+00 -0.00000000000E+00 -0.13334339625E+03  0.13334339625E+03  0.00000000000E+00 0.  1.
         23    2    1    2    0    0  0.17620294691E+02 -0.10037086197E+02  0.16747073495E+02  0.93936608793E+02  0.90179843183E+02 0.  0.
        -24    2    1    2    0    0  0.10609197517E+03 -0.97050723463E+02  0.12331590346E+03  0.20526666072E+03  0.79077429374E+02 0.  0.
         11    1    4    4    0    0 -0.21519061386E+01 -0.41738814875E+02  0.23287370779E+02  0.47844132399E+02  0.00000000000E+00 0. -1.
        -12    1    4    4    0    0  0.10824388131E+03 -0.55311908588E+02  0.10002853268E+03  0.15742252832E+03  0.00000000000E+00 0.  1.
        -11    1    3    3    0    0 -0.63290966898E+01 -0.40884904037E+02 -0.14585609143E+02  0.43867674170E+02  0.00000000000E+00 0.  1.
         11    1    3    3    0    0  0.23949391381E+02  0.30847817840E+02  0.31332682638E+02  0.50068934623E+02  0.00000000000E+00 0. -1.
         21    1    1    2  503  501 -0.31729980210E+02 -0.38665854730E+01 -0.15082634551E+02  0.35344419537E+02  0.00000000000E+00 0.  1.
          4    1    1    2  501    0 -0.91982289652E+02  0.11095439513E+03  0.15326644061E+03  0.21038588647E+03  0.00000000000E+00 0. -1.
<scales pt_clust_5="13000.00000" pt_clust_6="13000.00000" pt_clust_7="13000.00000" pt_clust_8="13000.00000" pt_clust_9="31.96470" pt_clust_10="141.79993"></scales>
<clustering>
<clus scale="   31.965">  2  9  1 -1</clus>
<clus scale="   79.077">  5  6 -1 -1</clus>
<clus scale="   90.180">  7  8 -1 -1</clus>
<clus scale="   91.117">  1  7  2 -1</clus>
<clus scale="  141.800">  2 10  1 -1</clus>
<clus scale="   31.965">  2  5  1 -1</clus>
</clustering>
</event>
<event>
10    3  0.5078224E-005  0.2642193E+03  0.7546771E-02  0.1139859E+00
          1   -1    0    0  503    0 -0.00000000000E+00  0.00000000000E+00  0.17075764716E+03  0.17075764716E+03  0.00000000000E+00 0. -1.
         21   -1    0    0  501  502  0.00000000000E+00 -0.00000000000E+00 -0.13996844558E+04  0.13996844558E+04  0.00000000000E+00 0. -1.
        -24    2    1    2    0    0 -0.20491365339E+02 -0.85250790112E+02 -0.18076622223E+03  0.21808517249E+03  0.84835853804E+02 0.  0.
         23    2    1    2    0    0  0.13895081649E+03 -0.18399393117E+03 -0.52276819405E+03  0.57884347946E+03  0.92801362540E+02 0.  0.
         11    1    3    3    0    0 -0.40103657742E+02 -0.48498920573E+02 -0.15917658045E+03  0.17116551179E+03  0.00000000000E+00 0. -1.
        -12    1    3    3    0    0  0.19612292403E+02 -0.36751869540E+02 -0.21589641778E+02  0.46919660698E+02  0.00000000000E+00 0.  1.
        -13    1    4    4    0    0  0.82445698322E+02 -0.16842274028E+03 -0.36125125446E+03  0.40702086122E+03  0.00000000000E+00 0. -1.
         13    1    4    4    0    0  0.56505118168E+02 -0.15571190887E+02 -0.16151693959E+03  0.17182261824E+03  0.00000000000E+00 0.  1.
         21    1    1    2  503  502  0.87356344435E+02  0.71643522444E+02 -0.46933406019E+03  0.48274049476E+03  0.00000000000E+00 0. -1.
          2    1    1    2  501    0 -0.20581579559E+03  0.19760119884E+03 -0.56058332177E+02  0.29077295627E+03  0.00000000000E+00 0. -1.
<scales pt_clust_5="13000.00000" pt_clust_6="13000.00000" pt_clust_7="13000.00000" pt_clust_8="13000.00000" pt_clust_9="112.97754" pt_clust_10="247.38596"></scales>
<clustering>
<clus scale="   84.836">  5  6 -1 -1</clus>
<clus scale="   92.801">  7  8 -1 -1</clus>
<clus scale="  112.978">  2  9  1 -1</clus>
<clus scale="  109.861">  1  5  2 -1</clus>
<clus scale="  247.386">  2 10  1 -1</clus>
<clus scale="  112.978">  2  5  1 -1</clus>
</clustering>
</event>
<event>
10    3  0.5078224E-005  0.1343541E+03  0.7546771E-02  0.1224876E+00
          3   -1    0    0  503    0 -0.00000000000E+00  0.00000000000E+00  0.22503204500E+03  0.22503204500E+03  0.00000000000E+00 0. -1.
         21   -1    0    0  501  502  0.00000000000E+00 -0.00000000000E+00 -0.22689051932E+03  0.22689051932E+03  0.00000000000E+00 0.  1.
         23    2    1    2    0    0 -0.12729903109E+03 -0.19147481083E+02  0.10966314128E+03  0.19291157196E+03  0.92828878544E+02 0.  0.
        -24    2    1    2    0    0  0.43276453045E+02 -0.41328276514E+02 -0.41847727432E+02  0.10647327816E+03  0.77488378756E+02 0.  0.
         13    1    4    4    0    0  0.62104956277E+02 -0.24231644646E+02 -0.12830627419E+02  0.67888314137E+02  0.00000000000E+00 0. -1.
        -14    1    4    4    0    0 -0.18828503232E+02 -0.17096631867E+02 -0.29017100013E+02  0.38584964019E+02  0.00000000000E+00 0.  1.
        -11    1    3    3    0    0 -0.31900553231E+02 -0.19771032079E+02 -0.10982549302E+02  0.39104416568E+02  0.00000000000E+00 0.  1.
         11    1    3    3    0    0 -0.95398477859E+02  0.62355099535E+00  0.12064569058E+03  0.15380715539E+03  0.00000000000E+00 0. -1.
         21    1    1    2  503  502  0.65811388186E+02  0.43516886738E+02 -0.90518027565E+02  0.12007652377E+03  0.00000000000E+00 0.  1.
          4    1    1    2  501    0  0.18211189859E+02  0.16958870859E+02  0.20844139410E+02  0.32461190438E+02  0.00000000000E+00 0. -1.
<scales pt_clust_5="13000.00000" pt_clust_6="13000.00000" pt_clust_7="13000.00000" pt_clust_8="13000.00000" pt_clust_9="90.60889" pt_clust_10="24.88476"></scales>
<clustering>
<clus scale="   24.885">  2 10  1 -1</clus>
<clus scale="   77.488">  5  6 -1 -1</clus>
<clus scale="   90.609">  2  9  1 -1</clus>
<clus scale="   92.829">  7  8 -1 -1</clus>
<clus scale="  124.251">  2  5  1 -1</clus>
<clus scale="   24.885">  2  5  1 -1</clus>
</clustering>
</event>
<event>
10    3  0.5078224E-005  0.3277699E+03  0.7546771E-02  0.1118599E+00
          1   -1    0    0  502    0 -0.00000000000E+00  0.00000000000E+00  0.28851837435E+04  0.28851837435E+04  0.00000000000E+00 0. -1.
         21   -1    0    0  503  502  0.00000000000E+00 -0.00000000000E+00 -0.17205570682E+03  0.17205570682E+03  0.00000000000E+00 0.  1.
        -24    2    1    2    0    0 -0.34503691434E+02  0.33372170304E+02  0.19024104814E+03  0.21296416311E+03  0.82812269027E+02 0.  0.
         23    2    1    2    0    0  0.19694795872E+03 -0.27620185696E+03  0.53771634259E+03  0.64206641356E+03  0.89635094173E+02 0.  0.
         11    1    3    3    0    0 -0.45769007330E+02  0.17969049621E+02  0.45569009928E+02  0.67038969578E+02  0.00000000000E+00 0. -1.
        -12    1    3    3    0    0  0.11265315897E+02  0.15403120683E+02  0.14467203821E+03  0.14592519354E+03  0.00000000000E+00 0.  1.
        -11    1    4    4    0    0  0.17068880079E+03 -0.27575066958E+03  0.50408622148E+03  0.59939637735E+03  0.00000000000E+00 0.  1.
         11    1    4    4    0    0  0.26259157922E+02 -0.45118737883E+00  0.33630121109E+02  0.42670036215E+02  0.00000000000E+00 0. -1.
         21    1    1    2  503  501 -0.12330752846E+01  0.22572720694E+02 -0.98335097945E+02  0.10090014709E+03  0.00000000000E+00 0.  1.
          2    1    1    2  501    0 -0.16121119200E+03  0.22025696596E+03  0.20835057438E+04  0.21013087265E+04  0.00000000000E+00 0. -1.
<scales pt_clust_5="13000.00000" pt_clust_6="13000.00000" pt_clust_7="13000.00000" pt_clust_8="13000.00000" pt_clust_9="22.60638" pt_clust_10="315.27571"></scales>
<clustering>
<clus scale="   22.606">  2  9  1 -1</clus>
<clus scale="   82.812">  5  6 -1 -1</clus>
<clus scale="   89.635">  7  8 -1 -1</clus>
<clus scale="   97.079">  1  5  2 -1</clus>
<clus scale="  315.276">  2 10  1 -1</clus>
<clus scale="   22.606">  2  5  1 -1</clus>
</clustering>
</event>
<event>
10    3  0.5078224E-005  0.1220150E+03  0.7546771E-02  0.1260724E+00
         21   -1    0    0  503  502  0.00000000000E+00  0.00000000000E+00  0.47029691389E+02  0.47029691389E+02  0.00000000000E+00 0. -1.
          1   -1    0    0  502    0 -0.00000000000E+00 -0.00000000000E+00 -0.59527528079E+03  0.59527528079E+03  0.00000000000E+00 0. -1.
        -24    2    1    2    0    0  0.94615042145E+01 -0.20421826362E+02 -0.13114688966E+03  0.15436989867E+03  0.78255912849E+02 0.  0.
         23    2    1    2    0    0  0.38196911592E+01  0.70244954486E+02 -0.19758019685E+03  0.22835406679E+03  0.90325533272E+02 0.  0.
         13    1    3    3    0    0  0.10609550879E+02 -0.49929146290E+02 -0.93474181418E+02  0.10650307419E+03  0.00000000000E+00 0. -1.
        -14    1    3    3    0    0 -0.11480466648E+01  0.29507319929E+02 -0.37672708238E+02  0.47866824487E+02  0.00000000000E+00 0.  1.
        -11    1    4    4    0    0 -0.22613358916E+02  0.81752106352E+02 -0.15877558643E+03  0.18001238219E+03  0.00000000000E+00 0. -1.
         11    1    4    4    0    0  0.26433050076E+02 -0.11507151866E+02 -0.38804610420E+02  0.48341684602E+02  0.00000000000E+00 0.  1.
         21    1    1    2  503  501  0.20767338024E+02  0.37010903672E+02 -0.46023472398E+02  0.62603908272E+02  0.00000000000E+00 0. -1.
          2    1    1    2  501    0 -0.34048533398E+02 -0.86834031797E+02 -0.17349503049E+03  0.19697709844E+03  0.00000000000E+00 0. -1.
<scales pt_clust_5="13000.00000" pt_clust_6="13000.00000" pt_clust_7="13000.00000" pt_clust_8="13000.00000" pt_clust_9="42.43924" pt_clust_10="82.03027"></scales>
<clustering>
<clus scale="   42.439">  1  9  2 -1</clus>
<clus scale="   78.256">  5  6 -1 -1</clus>
<clus scale="   80.356">  2  5  1 -1</clus>
<clus scale="   82.030">  1 10  2 -1</clus>
<clus scale="   90.326">  7  8 -1 -1</clus>
<clus scale="   42.439">  1  5  2 -1</clus>
</clustering>
</event>
<event>
10    3  0.5078224E-005  0.1192794E+03  0.7546771E-02  0.1247678E+00
         21   -1    0    0  501  502  0.00000000000E+00  0.00000000000E+00  0.51123852943E+02  0.51123852943E+02  0.00000000000E+00 0. -1.
          1   -1    0    0  503    0 -0.00000000000E+00 -0.00000000000E+00 -0.89386199055E+03  0.89386199055E+03  0.00000000000E+00 0. -1.
        -24    2    1    2    0    0 -0.93321261108E+02  0.54774117028E+02 -0.29571454671E+03  0.32492159860E+03  0.80111737177E+02 0.  0.
         23    2    1    2    0    0  0.36798490545E+02 -0.16225792777E+01 -0.51440400655E+02  0.11060205234E+03  0.90719002927E+02 0.  0.
         13    1    3    3    0    0 -0.80209515346E+02  0.59848968389E+02 -0.16164769423E+03  0.19011954770E+03  0.00000000000E+00 0. -1.
        -14    1    3    3    0    0 -0.13111745762E+02 -0.50748513615E+01 -0.13406685248E+03  0.13480205090E+03  0.00000000000E+00 0.  1.
        -11    1    4    4    0    0  0.41836733146E+02 -0.40447316967E+02 -0.36535316190E+02  0.68710457859E+02  0.00000000000E+00 0. -1.
         11    1    4    4    0    0 -0.50382426003E+01  0.38824737689E+02 -0.14905084464E+02  0.41891594479E+02  0.00000000000E+00 0.  1.
         21    1    1    2  503  502  0.41511998704E+02  0.12777058060E+02 -0.11519634269E+03  0.12311253640E+03  0.00000000000E+00 0. -1.
          2    1    1    2  501    0  0.15010771859E+02 -0.65928595810E+02 -0.38038684755E+03  0.38634965615E+03  0.00000000000E+00 0. -1.
<scales pt_clust_5="13000.00000" pt_clust_6="13000.00000" pt_clust_7="13000.00000" pt_clust_8="13000.00000" pt_clust_9="43.43385" pt_clust_10="69.40380"></scales>
<clustering>
<clus scale="   43.434">  2  9  1 -1</clus>
<clus scale="   69.404">  1 10  2 -1</clus>
<clus scale="   80.112">  5  6 -1 -1</clus>
<clus scale="   90.719">  7  8 -1 -1</clus>
<clus scale="  111.425">  2  5  1 -1</clus>
<clus scale="   69.404">  1  5  2 -1</clus>
</clustering>
</event>
<event>
10    3  0.5078224E-005  0.1378481E+03  0.7546771E-02  0.1224538E+00
         21   -1    0    0  501  502  0.00000000000E+00  0.00000000000E+00  0.32952910768E+03  0.32952910768E+03  0.00000000000E+00 0. -1.
          1   -1    0    0  503    0 -0.00000000000E+00 -0.00000000000E+00 -0.38753249450E+03  0.38753249450E+03  0.00000000000E+00 0. -1.
        -24    2    1    2    0    0 -0.88261715593E+02  0.11918199871E+02 -0.26308833413E+03  0.28933468265E+03  0.81036492394E+02 0.  0.
         23    2    1    2    0    0 -0.26529247821E+02  0.21985871231E+02  0.22019203962E+03  0.24863322029E+03  0.11021236046E+03 0.  0.
         13    1    3    3    0    0 -0.96449584213E+02  0.28759350201E+02 -0.23417013350E+03  0.25488286318E+03  0.00000000000E+00 0. -1.
        -14    1    3    3    0    0  0.81878686204E+01 -0.16841150330E+02 -0.28918200632E+02  0.34451819470E+02  0.00000000000E+00 0.  1.
        -13    1    4    4    0    0  0.71222277564E+01  0.34825419240E+02  0.12254458040E+02  0.37599304452E+02  0.00000000000E+00 0.  1.
         13    1    4    4    0    0 -0.33651475578E+02 -0.12839548008E+02  0.20793758158E+03  0.21103391584E+03  0.00000000000E+00 0. -1.
         21    1    1    2  503  502  0.16213058246E+02 -0.35530480437E+02  0.48116893155E+02  0.61971878337E+02  0.00000000000E+00 0.  1.
          2    1    1    2  501    0  0.98577905168E+02  0.16264093346E+01 -0.63223985461E+02  0.11712182091E+03  0.00000000000E+00 0. -1.
<scales pt_clust_5="13000.00000" pt_clust_6="13000.00000" pt_clust_7="13000.00000" pt_clust_8="13000.00000" pt_clust_9="39.05481" pt_clust_10="100.18706"></scales>
<clustering>
<clus scale="   39.055">  1  9  2 -1</clus>
<clus scale="   81.036">  5  6 -1 -1</clus>
<clus scale="  100.187">  1 10  2 -1</clus>
<clus scale="  110.212">  7  8 -1 -1</clus>
<clus scale="  115.854">  2  5  1 -1</clus>
<clus scale="   39.055">  1  5  2 -1</clus>
</clustering>
</event>
<event>
10    3  0.5078224E-005  0.3387438E+03  0.7546771E-02  0.1090587E+00
          1   -1    0    0  503    0 -0.00000000000E+00  0.00000000000E+00  0.88875133436E+03  0.88875133436E+03  0.00000000000E+00 0. -1.
         21   -1    0    0  501  502  0.00000000000E+00 -0.00000000000E+00 -0.43114580650E+03  0.43114580650E+03  0.00000000000E+00 0. -1.
         23    2    1    2    0    0  0.41431530596E+02  0.16411120067E+03  0.49369534492E+01  0.19051674369E+03  0.87310928322E+02 0.  0.
        -24    2    1    2    0    0  0.24816403973E+03  0.41075144810E+02  0.49713643991E+03  0.56281835084E+03  0.79669931736E+02 0.  0.
         11    1    4    4    0    0  0.24982743103E+03  0.35312694559E+02  0.49631208612E+03  0.55676423962E+03  0.00000000000E+00 0. -1.
        -12    1    4    4    0    0 -0.16633912972E+01  0.57624502507E+01  0.82435378681E+00  0.60541112201E+01  0.00000000000E+00 0.  1.
        -11    1    3    3    0    0 -0.46673599432E+00  0.11792019755E+03  0.32525193174E+02  0.12232448252E+03  0.00000000000E+00 0.  1.
         11    1    3    3    0    0  0.41898266590E+02  0.46191003119E+02 -0.27588239725E+02  0.68192261170E+02  0.00000000000E+00 0. -1.
         21    1    1    2  503  502  0.61676659573E+02 -0.54498738650E+02 -0.14906697523E+03  0.17027943492E+03  0.00000000000E+00 0.  1.
          2    1    1    2  501    0 -0.35127222990E+03 -0.15068760683E+03  0.10459910973E+03  0.39628261142E+03  0.00000000000E+00 0. -1.
<scales pt_clust_5="13000.00000" pt_clust_6="13000.00000" pt_clust_7="13000.00000" pt_clust_8="13000.00000" pt_clust_9="82.30506" pt_clust_10="329.24160"></scales>
<clustering>
<clus scale="   79.670">  5  6 -1 -1</clus>
<clus scale="   82.305">  2  9  1 -1</clus>
<clus scale="   87.311">  7  8 -1 -1</clus>
<clus scale="  180.822">  1  7  2 -1</clus>
<clus scale="  329.242">  2 10  1 -1</clus>
<clus scale="   82.305">  2  5  1 -1</clus>
</clustering>
</event>
<event>
10    3  0.5078224E-005  0.1246547E+03  0.7546771E-02  0.1248585E+00
         21   -1    0    0  501  502  0.00000000000E+00  0.00000000000E+00  0.20831326785E+03  0.20831326785E+03  0.00000000000E+00 0.  1.
         -4   -1    0    0    0  501 -0.00000000000E+00 -0.00000000000E+00 -0.21919080475E+03  0.21919080475E+03  0.00000000000E+00 0.  1.
        -24    2    1    2    0    0 -0.37880045169E+02  0.72841753920E+01  0.86477192580E+02  0.12324571415E+03  0.78887541395E+02 0.  0.
         23    2    1    2    0    0 -0.24682154208E+02  0.45739435719E+02 -0.69941925035E+02  0.12645364576E+03  0.91637039090E+02 0.  0.
         13    1    3    3    0    0 -0.23552283256E+02  0.16696628175E+02 -0.57513542703E+01  0.29437484860E+02  0.00000000000E+00 0. -1.
        -14    1    3    3    0    0 -0.14327761914E+02 -0.94124527830E+01  0.92228546850E+02  0.93808229292E+02  0.00000000000E+00 0.  1.
        -11    1    4    4    0    0 -0.58245299528E+02  0.28375744031E+02 -0.57624971000E+02  0.86708333216E+02  0.00000000000E+00 0.  1.
         11    1    4    4    0    0  0.33563145320E+02  0.17363691689E+02 -0.12316954036E+02  0.39745312548E+02  0.00000000000E+00 0. -1.
         21    1    1    2  503  502 -0.15804325516E+02  0.30054303510E+02  0.34068061074E+02  0.48100630451E+02  0.00000000000E+00 0.  1.
         -3    1    1    2    0  503  0.78366524893E+02 -0.83077914621E+02 -0.61480865521E+02  0.12970408223E+03  0.00000000000E+00 0.  1.
<scales pt_clust_5="13000.00000" pt_clust_6="13000.00000" pt_clust_7="13000.00000" pt_clust_8="13000.00000" pt_clust_9="33.95641" pt_clust_10="84.50707"></scales>
<clustering>
<clus scale="   33.956">  1  9  2 -1</clus>
<clus scale="   78.888">  5  6 -1 -1</clus>
<clus scale="   91.637">  7  8 -1 -1</clus>
<clus scale="   95.864">  2  5  1 -1</clus>
<clus scale="   84.507">  1 10  2 -1</clus>
<clus scale="   33.956">  1  5  2 -1</clus>
</clustering>
</event>
<event>
10    3  0.5078224E-005  0.2771341E+03  0.7546771E-02  0.1113630E+00
         -4   -1    0    0    0  501 -0.00000000000E+00  0.00000000000E+00  0.14823924064E+03  0.14823924064E+03  0.00000000000E+00 0.  1.
         21   -1    0    0  503  502  0.00000000000E+00 -0.00000000000E+00 -0.17815403551E+04  0.17815403551E+04  0.00000000000E+00 0.  1.
        -24    2    1    2    0    0 -0.80717277631E+02 -0.14350054330E+03 -0.14063826930E+03  0.23145319220E+03  0.81754342714E+02 0.  0.
         23    2    1    2    0    0 -0.22521147986E+03 -0.69658799660E+01 -0.33243901434E+03  0.40912475611E+03  0.78093749171E+02 0.  0.
         13    1    3    3    0    0 -0.85112311623E+02 -0.70487811815E+02 -0.79744446539E+02  0.13627844275E+03  0.00000000000E+00 0. -1.
        -14    1    3    3    0    0  0.43950339917E+01 -0.73012731488E+02 -0.60893822760E+02  0.95174749453E+02  0.00000000000E+00 0.  1.
        -13    1    4    4    0    0 -0.17257995272E+03  0.57227184376E+01 -0.18999202570E+03  0.25673636169E+03  0.00000000000E+00 0.  1.
         13    1    4    4    0    0 -0.52631527143E+02 -0.12688598404E+02 -0.14244698865E+03  0.15238839442E+03  0.00000000000E+00 0. -1.
         21    1    1    2  503  501  0.26177142887E+03  0.15269090354E+03 -0.11950773727E+04  0.12329025589E+04  0.00000000000E+00 0.  1.
         -3    1    1    2    0  502  0.44157328627E+02 -0.22244802751E+01  0.34853541901E+02  0.56299088510E+02  0.00000000000E+00 0.  1.
<scales pt_clust_5="13000.00000" pt_clust_6="13000.00000" pt_clust_7="13000.00000" pt_clust_8="13000.00000" pt_clust_9="265.90352" pt_clust_10="44.21335"></scales>
<clustering>
<clus scale="   44.213">  2 10  1 -1</clus>
<clus scale="   78.094">  7  8 -1 -1</clus>
<clus scale="   81.754">  5  6 -1 -1</clus>
<clus scale="  182.020">  1  5  2 -1</clus>
<clus scale="  265.904">  2  9  1 -1</clus>
<clus scale="   44.213">  2  5  1 -1</clus>
</clustering>
</event>
<event>
10    3  0.5078224E-005  0.1288622E+03  0.7546771E-02  0.1230650E+00
          1   -1    0    0  503    0 -0.00000000000E+00  0.00000000000E+00  0.70033471541E+03  0.70033471541E+03  0.00000000000E+00 0. -1.
         21   -1    0    0  501  502  0.00000000000E+00 -0.00000000000E+00 -0.64635280997E+02  0.64635280997E+02  0.00000000000E+00 0.  1.
        -24    2    1    2    0    0 -0.58453241093E+02  0.86279686343E+02  0.35050192884E+03  0.37613575991E+03  0.88122313264E+02 0.  0.
         23    2    1    2    0    0  0.88092687075E+02 -0.72248522524E+01  0.21633118454E+03  0.25173938802E+03  0.93600310198E+02 0.  0.
         11    1    3    3    0    0 -0.69232660640E+02  0.91523665125E+02  0.34370104267E+03  0.36235362467E+03  0.00000000000E+00 0. -1.
        -12    1    3    3    0    0  0.10779419548E+02 -0.52439787816E+01  0.68008861718E+01  0.13782135247E+02  0.00000000000E+00 0.  1.
        -11    1    4    4    0    0  0.52995626383E+02  0.34321912996E+02  0.63621189719E+02  0.89633620415E+02  0.00000000000E+00 0.  1.
         11    1    4    4    0    0  0.35097060691E+02 -0.41546765249E+02  0.15270999482E+03  0.16210576761E+03  0.00000000000E+00 0. -1.
         21    1    1    2  503  502 -0.10543147255E+02  0.17245764379E+02  0.91857354024E+01  0.22202524135E+02  0.00000000000E+00 0.  1.
          2    1    1    2  501    0 -0.19096298727E+02 -0.96300598470E+02  0.59680585625E+02  0.11489232434E+03  0.00000000000E+00 0. -1.
<scales pt_clust_5="13000.00000" pt_clust_6="13000.00000" pt_clust_7="13000.00000" pt_clust_8="13000.00000" pt_clust_9="20.21322" pt_clust_10="91.34758"></scales>
<clustering>
<clus scale="   20.213">  2  9  1 -1</clus>
<clus scale="   88.122">  5  6 -1 -1</clus>
<clus scale="   91.348">  2 10  1 -1</clus>
<clus scale="   93.600">  7  8 -1 -1</clus>
<clus scale="  124.940">  1  5  2 -1</clus>
<clus scale="   20.213">  2  5  1 -1</clus>
</clustering>
</event>
<event>
10    3  0.5078224E-005  0.9077380E+02  0.7546771E-02  0.1307326E+00
         21   -1    0    0  501  502  0.00000000000E+00  0.00000000000E+00  0.12417969990E+03  0.12417969990E+03  0.00000000000E+00 0. -1.
          1   -1    0    0  503    0 -0.00000000000E+00 -0.00000000000E+00 -0.19870021450E+03  0.19870021450E+03  0.00000000000E+00 0. -1.
         23    2    1    2    0    0  0.36027370232E+01 -0.10574933689E+02 -0.11229299540E+03  0.14395030452E+03  0.89370937220E+02 0.  0.
        -24    2    1    2    0    0 -0.39118815397E+02  0.17222929603E+01 -0.92243361203E+01  0.88873387706E+02  0.79247351087E+02 0.  0.
         11    1    4    4    0    0 -0.32544854214E+02 -0.35872416260E+02  0.37066277593E+01  0.48577122943E+02  0.00000000000E+00 0. -1.
        -12    1    4    4    0    0 -0.65739611830E+01  0.37594709220E+02 -0.12930963880E+02  0.40296264763E+02  0.00000000000E+00 0.  1.
        -11    1    3    3    0    0  0.52781190728E+01  0.35756058755E+02 -0.78993035727E+02  0.86869177342E+02  0.00000000000E+00 0.  1.
         11    1    3    3    0    0 -0.16753820496E+01 -0.46330992444E+02 -0.33299959669E+02  0.57081127177E+02  0.00000000000E+00 0. -1.
         21    1    1    2  503  502  0.21885795977E+02 -0.16628464434E+02  0.53758820187E+02  0.60378014566E+02  0.00000000000E+00 0. -1.
          2    1    1    2  501    0  0.13630282397E+02  0.25481105163E+02 -0.67620032715E+01  0.29678207607E+02  0.00000000000E+00 0. -1.
<scales pt_clust_5="13000.00000" pt_clust_6="13000.00000" pt_clust_7="13000.00000" pt_clust_8="13000.00000" pt_clust_9="27.48625" pt_clust_10="28.53547"></scales>
<clustering>
<clus scale="   27.486">  1  9  2 -1</clus>
<clus scale="   28.535">  1 10  2 -1</clus>
<clus scale="   79.247">  5  6 -1 -1</clus>
<clus scale="   80.826">  1  5  2 -1</clus>
<clus scale="   89.371">  7  8 -1 -1</clus>
<clus scale="   27.486">  1  5  2 -1</clus>
</clustering>
</event>
<event>
10    3  0.5078224E-005  0.1730292E+03  0.7546771E-02  0.1176025E+00
          1   -1    0    0  503    0 -0.00000000000E+00  0.00000000000E+00  0.10030997323E+04  0.10030997323E+04  0.00000000000E+00 0. -1.
         21   -1    0    0  501  502  0.00000000000E+00 -0.00000000000E+00 -0.50324822328E+02  0.50324822328E+02  0.00000000000E+00 0. -1.
         23    2    1    2    0    0  0.41098664624E+02  0.11289141824E+03  0.33216887200E+03  0.36453783205E+03  0.90100493460E+02 0.  0.
        -24    2    1    2    0    0 -0.62355023144E+02 -0.16694141161E+03  0.33124217282E+03  0.38455685210E+03  0.80031316478E+02 0.  0.
         11    1    4    4    0    0 -0.32214792602E+02 -0.15463969544E+03  0.23669677066E+03  0.28456385840E+03  0.00000000000E+00 0. -1.
        -12    1    4    4    0    0 -0.30140230542E+02 -0.12301716171E+02  0.94545402166E+02  0.99992993698E+02  0.00000000000E+00 0.  1.
        -11    1    3    3    0    0  0.46248545369E+02  0.12066464433E+02  0.13122649480E+03  0.13966001736E+03  0.00000000000E+00 0.  1.
         11    1    3    3    0    0 -0.51498807454E+01  0.10082495381E+03  0.20094237721E+03  0.22487781469E+03  0.00000000000E+00 0. -1.
         21    1    1    2  503  502 -0.19767943322E+02  0.44934528455E+02  0.11629022692E+03  0.12622717737E+03  0.00000000000E+00 0. -1.
          2    1    1    2  501    0  0.41024301843E+02  0.91154649173E+01  0.17307363827E+03  0.17810269315E+03  0.00000000000E+00 0. -1.
<scales pt_clust_5="13000.00000" pt_clust_6="13000.00000" pt_clust_7="13000.00000" pt_clust_8="13000.00000" pt_clust_9="48.43073" pt_clust_10="42.02484"></scales>
<clustering>
<clus scale="   42.025">  2 10  1 -1</clus>
<clus scale="   48.431">  1  9  2 -1</clus>
<clus scale="   80.031">  5  6 -1 -1</clus>
<clus scale="   90.100">  7  8 -1 -1</clus>
<clus scale="  168.006">  2  5  1 -1</clus>
<clus scale="   42.025">  2  5  1 -1</clus>
</clustering>
</event>
<event>
10    3  0.5078224E-005  0.1188092E+03  0.7546771E-02  0.1255073E+00
         21   -1    0    0  503  502  0.00000000000E+00  0.00000000000E+00  0.17956455909E+03  0.17956455909E+03  0.00000000000E+00 0. -1.
          1   -1    0    0  502    0 -0.00000000000E+00 -0.00000000000E+00 -0.54640680399E+03  0.54640680399E+03  0.00000000000E+00 0. -1.
         23    2    1    2    0    0  0.28620579632E+02  0.50944250639E+01 -0.60012887660E+02  0.12684560279E+03  0.10790351948E+03 0.  0.
        -24    2    1    2    0    0 -0.10009069209E+03  0.10677962531E+03  0.46922204680E+02  0.17497503524E+03  0.83633334500E+02 0.  0.
         11    1    4    4    0    0 -0.83922378785E+02  0.30018269862E+02  0.15485222237E+02  0.90464657707E+02  0.00000000000E+00 0. -1.
        -12    1    4    4    0    0 -0.16168313308E+02  0.76761355445E+02  0.31436982444E+02  0.84510377529E+02  0.00000000000E+00 0.  1.
        -13    1    3    3    0    0  0.59694407078E+02  0.31062034540E+02 -0.53197945476E+02  0.85780496787E+02  0.00000000000E+00 0. -1.
         13    1    3    3    0    0 -0.31073827446E+02 -0.25967609477E+02 -0.68149421841E+01  0.41065106003E+02  0.00000000000E+00 0.  1.
         21    1    1    2  503  501  0.58085054329E+02 -0.63432443335E+01 -0.39857014717E+01  0.58566168573E+02  0.00000000000E+00 0.  1.
          2    1    1    2  501    0  0.13385058132E+02 -0.10553080604E+03 -0.34976586045E+03  0.36558455649E+03  0.00000000000E+00 0. -1.
<scales pt_clust_5="13000.00000" pt_clust_6="13000.00000" pt_clust_7="13000.00000" pt_clust_8="13000.00000" pt_clust_9="58.43039" pt_clust_10="107.12348"></scales>
<clustering>
<clus scale="   58.430">  1  9  2 -1</clus>
<clus scale="   83.633">  5  6 -1 -1</clus>
<clus scale="  107.123">  1 10  2 -1</clus>
<clus scale="   97.299">  1  5  2 -1</clus>
<clus scale="  107.904">  7  8 -1 -1</clus>
<clus scale="   58.430">  1  5  2 -1</clus>
</clustering>
</event>
<event>
10    3  0.5078224E-005  0.9989370E+02  0.7546771E-02  0.1280807E+00
          1   -1    0    0  503    0 -0.00000000000E+00  0.00000000000E+00  0.67266651879E+03  0.67266651879E+03  0.00000000000E+00 0. -1.
         21   -1    0    0  501  502  0.00000000000E+00 -0.00000000000E+00 -0.88701005725E+02  0.88701005725E+02  0.00000000000E+00 0. -1.
        -24    2    1    2    0    0  0.41281394892E+02  0.85041809349E+00  0.33321527834E+03  0.34734974751E+03  0.88963748810E+02 0.  0.
         23    2    1    2    0    0 -0.48271340277E+02 -0.91475609228E+02  0.58760061902E+02  0.14890814714E+03  0.89571100438E+02 0.  0.
         13    1    3    3    0    0  0.33109960233E+02 -0.37583816543E+02  0.11225254939E+03  0.12292049291E+03  0.00000000000E+00 0. -1.
        -14    1    3    3    0    0  0.81714346598E+01  0.38434234636E+02  0.22096272895E+03  0.22442925460E+03  0.00000000000E+00 0.  1.
        -11    1    4    4    0    0 -0.30919096749E+02  0.39546841785E+01 -0.67102399331E+01  0.31885065324E+02  0.00000000000E+00 0.  1.
         11    1    4    4    0    0 -0.17352243528E+02 -0.95430293407E+02  0.65470301835E+02  0.11702308181E+03  0.00000000000E+00 0. -1.
         21    1    1    2  503  502 -0.23945425554E+02  0.95408167754E+01 -0.22191862405E+02  0.34013076114E+02  0.00000000000E+00 0.  1.
          2    1    1    2  501    0  0.30935370939E+02  0.81084374359E+02  0.21418203523E+03  0.23109655375E+03  0.00000000000E+00 0. -1.
<scales pt_clust_5="13000.00000" pt_clust_6="13000.00000" pt_clust_7="13000.00000" pt_clust_8="13000.00000" pt_clust_9="25.77616" pt_clust_10="86.91255"></scales>
<clustering>
<clus scale="   25.776">  2  9  1 -1</clus>
<clus scale="   86.913">  2 10  1 -1</clus>
<clus scale="   88.964">  5  6 -1 -1</clus>
<clus scale="   89.571">  7  8 -1 -1</clus>
<clus scale="   99.349">  1  5  2 -1</clus>
<clus scale="   25.776">  2  5  1 -1</clus>
</clustering>
</event>
<event>
10    3  0.5078224E-005  0.5041948E+03  0.7546771E-02  0.1020246E+00
         21   -1    0    0  501  502  0.00000000000E+00  0.00000000000E+00  0.23645393609E+03  0.23645393609E+03  0.00000000000E+00 0. -1.
          1   -1    0    0  503    0 -0.00000000000E+00 -0.00000000000E+00 -0.26561496827E+04  0.26561496827E+04  0.00000000000E+00 0. -1.
        -24    2    1    2    0    0  0.35664381197E+03 -0.16287451056E+03 -0.49757795450E+03  0.63860867310E+03  0.80711224413E+02 0.  0.
         23    2    1    2    0    0 -0.17133261514E+03 -0.40360789780E+03 -0.12569072350E+04  0.13343358753E+04  0.91554521965E+02 0.  0.
         13    1    3    3    0    0  0.35696521991E+03 -0.15668412017E+03 -0.47142747499E+03  0.61173355794E+03  0.00000000000E+00 0. -1.
        -14    1    3    3    0    0 -0.32140793441E+00 -0.61903903862E+01 -0.26150479505E+02  0.26875115154E+02  0.00000000000E+00 0.  1.
        -13    1    4    4    0    0 -0.32172559302E+02 -0.54809321967E+02 -0.10474983134E+03  0.12252208989E+03  0.00000000000E+00 0.  1.
         13    1    4    4    0    0 -0.13916005584E+03 -0.34879857584E+03 -0.11521574037E+04  0.12118137854E+04  0.00000000000E+00 0. -1.
         21    1    1    2  503  502  0.11757235984E+02  0.25347686705E+02  0.12236585642E+02  0.30503636627E+02  0.00000000000E+00 0. -1.
          2    1    1    2  501    0 -0.19706843281E+03  0.54113472166E+03 -0.67744714277E+03  0.88915543379E+03  0.00000000000E+00 0. -1.
<scales pt_clust_5="13000.00000" pt_clust_6="13000.00000" pt_clust_7="13000.00000" pt_clust_8="13000.00000" pt_clust_9="27.94169" pt_clust_10="495.81263"></scales>
<clustering>
<clus scale="   27.942">  1  9  2 -1</clus>
<clus scale="   80.711">  5  6 -1 -1</clus>
<clus scale="   91.555">  7  8 -1 -1</clus>
<clus scale="  400.454">  2  5  1 -1</clus>
<clus scale="  495.813">  1 10  2 -1</clus>
<clus scale="   27.942">  1  5  2 -1</clus>
</clustering>
</event>
<event>
10    3  0.5078224E-005  0.1880944E+03  0.7546771E-02  0.1161344E+00
         -2   -1    0    0    0  501 -0.00000000000E+00  0.00000000000E+00  0.85168783216E+02  0.85168783216E+02  0.00000000000E+00 0.  1.
         21   -1    0    0  503  502  0.00000000000E+00 -0.00000000000E+00 -0.12652108858E+04  0.12652108858E+04  0.00000000000E+00 0.  1.
         23    2    1    2    0    0 -0.85036094124E+02 -0.62957358527E+02 -0.27878620542E+03  0.31179952292E+03  0.91117659463E+02 0.  0.
        -24    2    1    2    0    0  0.20818452639E+03  0.14747648319E+03 -0.41588837097E+03  0.49447949684E+03  0.80353752647E+02 0.  0.
         11    1    4    4    0    0  0.19419792438E+02 -0.64200049677E+01 -0.58692011916E+02  0.62153817782E+02  0.00000000000E+00 0. -1.
        -12    1    4    4    0    0  0.18876473396E+03  0.15389648816E+03 -0.35719635905E+03  0.43232567906E+03  0.00000000000E+00 0.  1.
        -11    1    3    3    0    0 -0.10071474699E+03 -0.44079012916E+02 -0.25470060175E+03  0.27741452048E+03  0.00000000000E+00 0.  1.
         11    1    3    3    0    0  0.15678652869E+02 -0.18878345611E+02 -0.24085603666E+02  0.34385002439E+02  0.00000000000E+00 0. -1.
         21    1    1    2  503  501  0.73877308354E+01 -0.90407536830E+02 -0.32402017106E+03  0.33647759589E+03  0.00000000000E+00 0. -1.
         -1    1    1    2    0  502 -0.13053616310E+03  0.58884121657E+01 -0.16134735511E+03  0.20762305334E+03  0.00000000000E+00 0.  1.
<scales pt_clust_5="13000.00000" pt_clust_6="13000.00000" pt_clust_7="13000.00000" pt_clust_8="13000.00000" pt_clust_9="90.70888" pt_clust_10="129.63053"></scales>
<clustering>
<clus scale="   80.354">  5  6 -1 -1</clus>
<clus scale="   90.709">  2  9  1 -1</clus>
<clus scale="   91.118">  7  8 -1 -1</clus>
<clus scale="  129.631">  2 10  1 -1</clus>
<clus scale="  183.122">  2  5  1 -1</clus>
<clus scale="   90.709">  2  5  1 -1</clus>
</clustering>
</event>
<event>
10    3  0.5078224E-005  0.1368551E+03  0.7546771E-02  0.1224988E+00
         21   -1    0    0  503  502  0.00000000000E+00  0.00000000000E+00  0.11042774109E+03  0.11042774109E+03  0.00000000000E+00 0.  1.
          1   -1    0    0  502    0 -0.00000000000E+00 -0.00000000000E+00 -0.85076781149E+03  0.85076781149E+03  0.00000000000E+00 0. -1.
        -24    2    1    2    0    0 -0.71186766642E+02  0.70972364230E+02 -0.30845562348E+03  0.33419521824E+03  0.80230542851E+02 0.  0.
         23    2    1    2    0    0 -0.68004583857E+02 -0.47537934994E+02 -0.31286478813E+03  0.33622826231E+03  0.90997747422E+02 0.  0.
         13    1    3    3    0    0 -0.68770255001E+02  0.12627041754E+02 -0.17935347404E+03  0.19250054235E+03  0.00000000000E+00 0. -1.
        -14    1    3    3    0    0 -0.24165116411E+01  0.58345322476E+02 -0.12910214944E+03  0.14169467588E+03  0.00000000000E+00 0.  1.
        -13    1    4    4    0    0 -0.40228888680E+02  0.13867477695E+02 -0.20242210427E+03  0.20684626833E+03  0.00000000000E+00 0. -1.
         13    1    4    4    0    0 -0.27775695176E+02 -0.61405412688E+02 -0.11044268386E+03  0.12938199399E+03  0.00000000000E+00 0.  1.
         21    1    1    2  503  501  0.24902490786E+02 -0.44381485806E+02  0.59171113087E+02  0.78045313464E+02  0.00000000000E+00 0.  1.
          2    1    1    2  501    0  0.11428885971E+03  0.20947056570E+02 -0.17819077187E+03  0.21272675858E+03  0.00000000000E+00 0. -1.
<scales pt_clust_5="13000.00000" pt_clust_6="13000.00000" pt_clust_7="13000.00000" pt_clust_8="13000.00000" pt_clust_9="50.89057" pt_clust_10="102.21906"></scales>
<clustering>
<clus scale="   50.891">  1  9  2 -1</clus>
<clus scale="   80.231">  5  6 -1 -1</clus>
<clus scale="   90.998">  7  8 -1 -1</clus>
<clus scale="  117.290">  2  5  1 -1</clus>
<clus scale="  102.219">  1 10  2 -1</clus>
<clus scale="   50.891">  1  5  2 -1</clus>
</clustering>
</event>
<event>
10    3  0.5078224E-005  0.1009933E+03  0.7546771E-02  0.1278388E+00
         21   -1    0    0  501  502  0.00000000000E+00  0.00000000000E+00  0.49199174978E+02  0.49199174978E+02  0.00000000000E+00 0. -1.
         -4   -1    0    0    0  501 -0.00000000000E+00 -0.00000000000E+00 -0.50960839843E+03  0.50960839843E+03  0.00000000000E+00 0.  1.
         23    2    1    2    0    0 -0.81092635652E+02  0.21972639239E+02 -0.24350561446E+03  0.26987581000E+03  0.80493205425E+02 0.  0.
        -24    2    1    2    0    0  0.29093015764E+02  0.28349310729E+02 -0.82444341673E+02  0.12243809332E+03  0.80894562468E+02 0.  0.
         11    1    4    4    0    0  0.19273236409E+02  0.25516552501E+02  0.67317505110E+01  0.32678258188E+02  0.00000000000E+00 0. -1.
        -12    1    4    4    0    0  0.98197793552E+01  0.28327582273E+01 -0.89176092184E+02  0.89759835132E+02  0.00000000000E+00 0.  1.
        -11    1    3    3    0    0 -0.42428271646E+01  0.35732211522E+02 -0.10345741890E+03  0.10953643252E+03  0.00000000000E+00 0.  1.
         11    1    3    3    0    0 -0.76849808488E+02 -0.13759572283E+02 -0.14004819555E+03  0.16033937748E+03  0.00000000000E+00 0. -1.
         21    1    1    2  503  502  0.75852468224E+01 -0.31367476300E+02 -0.11278497168E+02  0.34185655429E+02  0.00000000000E+00 0. -1.
         -3    1    1    2    0  503  0.44414373066E+02 -0.18954473668E+02 -0.12318077015E+03  0.13230801466E+03  0.00000000000E+00 0.  1.
<scales pt_clust_5="13000.00000" pt_clust_6="13000.00000" pt_clust_7="13000.00000" pt_clust_8="13000.00000" pt_clust_9="32.27157" pt_clust_10="50.71852"></scales>
<clustering>
<clus scale="   32.272">  1  9  2 -1</clus>
<clus scale="   50.719">  1 10  2 -1</clus>
<clus scale="   80.493">  7  8 -1 -1</clus>
<clus scale="   80.895">  5  6 -1 -1</clus>
<clus scale="  100.672">  2  7  1 -1</clus>
<clus scale="   32.272">  1  5  2 -1</clus>
</clustering>
</event>
<event>
10    3  0.5078224E-005  0.4358093E+03  0.7546771E-02  0.1032411E+00
         21   -1    0    0  503  502  0.00000000000E+00  0.00000000000E+00  0.10641280454E+03  0.10641280454E+03  0.00000000000E+00 0. -1.
          1   -1    0    0  502    0 -0.00000000000E+00 -0.00000000000E+00 -0.33293404846E+04  0.33293404846E+04  0.00000000000E+00 0. -1.
         23    2    1    2    0    0 -0.24436480348E+03 -0.28444955982E+03 -0.11822135590E+04  0.12437889720E+04  0.93575629158E+02 0.  0.
        -24    2    1    2    0    0  0.38471765912E+03  0.31538261401E+03 -0.14828674365E+04  0.15655703960E+04  0.68124594123E+02 0.  0.
         11    1    4    4    0    0  0.33968170594E+03  0.26805832963E+03 -0.13473319294E+04  0.14151121007E+04  0.00000000000E+00 0. -1.
        -12    1    4    4    0    0  0.45035953184E+02  0.47324284374E+02 -0.13553550705E+03  0.15045829536E+03  0.00000000000E+00 0.  1.
        -11    1    3    3    0    0 -0.87236617555E+02 -0.17065895276E+03 -0.54673245923E+03  0.57935402611E+03  0.00000000000E+00 0.  1.
         11    1    3    3    0    0 -0.15712818593E+03 -0.11379060705E+03 -0.63548109979E+03  0.66443494584E+03  0.00000000000E+00 0. -1.
         21    1    1    2  503  501 -0.37894906338E+02 -0.35130312699E+02  0.71509883365E+01  0.52166075479E+02  0.00000000000E+00 0. -1.
          2    1    1    2  501    0 -0.10245794930E+03  0.41972585088E+01 -0.56499767293E+03  0.57422784569E+03  0.00000000000E+00 0. -1.
<scales pt_clust_5="13000.00000" pt_clust_6="13000.00000" pt_clust_7="13000.00000" pt_clust_8="13000.00000" pt_clust_9="51.67362" pt_clust_10="104.75730"></scales>
<clustering>
<clus scale="   51.674">  1  9  2 -1</clus>
<clus scale="   68.125">  5  6 -1 -1</clus>
<clus scale="   93.576">  7  8 -1 -1</clus>
<clus scale="  104.757">  1 10  2 -1</clus>
<clus scale="  431.062">  1  5  2 -1</clus>
<clus scale="   51.674">  1  5  2 -1</clus>
</clustering>
</event>
<event>
10    3  0.5078224E-005  0.1211507E+03  0.7546771E-02  0.1260244E+00
         21   -1    0    0  503  502  0.00000000000E+00  0.00000000000E+00  0.98737770646E+02  0.98737770646E+02  0.00000000000E+00 0.  1.
          1   -1    0    0  502    0 -0.00000000000E+00 -0.00000000000E+00 -0.33505707924E+03  0.33505707924E+03  0.00000000000E+00 0. -1.
        -24    2    1    2    0    0 -0.16618219437E+02  0.25555094167E+01 -0.10782955184E+03  0.13587461986E+03  0.80944451485E+02 0.  0.
         23    2    1    2    0    0 -0.45969002082E+02 -0.37565239172E+02  0.13754729399E+02  0.11223663955E+03  0.94252715239E+02 0.  0.
         11    1    3    3    0    0 -0.39127149922E+02 -0.87428255815E+01 -0.10259585361E+03  0.11015116903E+03  0.00000000000E+00 0. -1.
        -12    1    3    3    0    0  0.22508930485E+02  0.11298334998E+02 -0.52336982239E+01  0.25723450826E+02  0.00000000000E+00 0.  1.
        -13    1    4    4    0    0 -0.20857662764E+02 -0.23683259473E+02  0.54157720502E+02  0.62681716355E+02  0.00000000000E+00 0.  1.
         13    1    4    4    0    0 -0.25111339318E+02 -0.13881979699E+02 -0.40402991103E+02  0.49554923194E+02  0.00000000000E+00 0. -1.
         21    1    1    2  503  501 -0.71477436860E+01 -0.19028535152E+02 -0.25811728467E+01  0.20489944927E+02  0.00000000000E+00 0. -1.
          2    1    1    2  501    0  0.69734965205E+02  0.54038264908E+02 -0.13966331331E+03  0.16519364555E+03  0.00000000000E+00 0. -1.
<scales pt_clust_5="13000.00000" pt_clust_6="13000.00000" pt_clust_7="13000.00000" pt_clust_8="13000.00000" pt_clust_9="20.32672" pt_clust_10="76.11776"></scales>
<clustering>
<clus scale="   20.327">  1  9  2 -1</clus>
<clus scale="   80.944">  5  6 -1 -1</clus>
<clus scale="   82.866">  2  5  1 -1</clus>
<clus scale="   76.118">  1 10  2 -1</clus>
<clus scale="   94.253">  7  8 -1 -1</clus>
<clus scale="   20.327">  1  5  2 -1</clus>
</clustering>
</event>
<event>
10    3  0.5078224E-005  0.3715101E+03  0.7546771E-02  0.1105448E+00
          1   -1    0    0  503    0 -0.00000000000E+00  0.00000000000E+00  0.18126407304E+04  0.18126407304E+04  0.00000000000E+00 0. -1.
         21   -1    0    0  501  502  0.00000000000E+00 -0.00000000000E+00 -0.18218447805E+03  0.18218447805E+03  0.00000000000E+00 0. -1.
        -24    2    1    2    0    0 -0.14005240808E+02 -0.37307620257E+02  0.36937396189E+02  0.96966783632E+02  0.80313016326E+02 0.  0.
         23    2    1    2    0    0  0.31155196692E+03 -0.15742613823E+03  0.88549892900E+03  0.95852126800E+03  0.11316824138E+03 0.  0.
         11    1    3    3    0    0  0.20110868509E+02 -0.42633850807E+01 -0.15849118847E+02  0.25958005562E+02  0.00000000000E+00 0. -1.
        -12    1    3    3    0    0 -0.34116109317E+02 -0.33044235176E+02  0.52786515036E+02  0.71008778070E+02  0.00000000000E+00 0.  1.
        -11    1    4    4    0    0  0.76882906300E+02  0.11409899123E+02  0.17720608692E+03  0.19350236257E+03  0.00000000000E+00 0.  1.
         11    1    4    4    0    0  0.23466906062E+03 -0.16883603735E+03  0.70829284208E+03  0.76501890543E+03  0.00000000000E+00 0. -1.
         21    1    1    2  503  502 -0.98877481122E+01 -0.23499144913E+02 -0.73846671204E+02  0.78123672611E+02  0.00000000000E+00 0. -1.
          2    1    1    2  501    0 -0.28765897800E+03  0.21823290340E+03  0.78186659837E+03  0.86121348422E+03  0.00000000000E+00 0. -1.
<scales pt_clust_5="13000.00000" pt_clust_6="13000.00000" pt_clust_7="13000.00000" pt_clust_8="13000.00000" pt_clust_9="25.49465" pt_clust_10="353.85411"></scales>
<clustering>
<clus scale="   25.495">  2  9  1 -1</clus>
<clus scale="   80.313">  5  6 -1 -1</clus>
<clus scale="   93.080">  1  5  2 -1</clus>
<clus scale="  113.168">  7  8 -1 -1</clus>
<clus scale="  353.854">  2 10  1 -1</clus>
<clus scale="   25.495">  2  5  1 -1</clus>
</clustering>
</event>
<event>
10    3  0.5078224E-005  0.1447854E+03  0.7546771E-02  0.1208042E+00
         21   -1    0    0  503  502  0.00000000000E+00  0.00000000000E+00  0.26193188863E+03  0.26193188863E+03  0.00000000000E+00 0. -1.
          1   -1    0    0  502    0 -0.00000000000E+00 -0.00000000000E+00 -0.57674470514E+03  0.57674470514E+03  0.00000000000E+00 0. -1.
        -24    2    1    2    0    0  0.23859808380E+02 -0.10968129102E+03 -0.44998592195E+03  0.47115946171E+03  0.83094117425E+02 0.  0.
         23    2    1    2    0    0 -0.34011878070E+02  0.13102991236E+03  0.11173198166E+02  0.16200128224E+03  0.88283233431E+02 0.  0.
         13    1    3    3    0    0 -0.30729590659E+02 -0.48142591955E+02 -0.16988146955E+03  0.17922536260E+03  0.00000000000E+00 0. -1.
        -14    1    3    3    0    0  0.54589399038E+02 -0.61538699063E+02 -0.28010445240E+03  0.29193409911E+03  0.00000000000E+00 0.  1.
        -11    1    4    4    0    0  0.23990919085E+02  0.81710587757E+01  0.59767436934E+01  0.26039429050E+02  0.00000000000E+00 0.  1.
         11    1    4    4    0    0 -0.58002797155E+02  0.12285885359E+03  0.51964544729E+01  0.13596185319E+03  0.00000000000E+00 0. -1.
         21    1    1    2  503  501 -0.24367033044E+02 -0.63464394734E+01  0.15482911423E+03  0.15686326596E+03  0.00000000000E+00 0. -1.
          2    1    1    2  501    0  0.34519102735E+02 -0.15002181872E+02 -0.30829206969E+02  0.48652583866E+02  0.00000000000E+00 0. -1.
<scales pt_clust_5="13000.00000" pt_clust_6="13000.00000" pt_clust_7="13000.00000" pt_clust_8="13000.00000" pt_clust_9="25.17994" pt_clust_10="35.99704"></scales>
<clustering>
<clus scale="   25.180">  1  9  2 -1</clus>
<clus scale="   35.997">  1 10  2 -1</clus>
<clus scale="   83.094">  5  6 -1 -1</clus>
<clus scale="   88.283">  7  8 -1 -1</clus>
<clus scale="  141.681">  2  5  1 -1</clus>
<clus scale="   25.180">  1  5  2 -1</clus>
</clustering>
</event>
<event>
10    3  0.5078224E-005  0.3411090E+03  0.7546771E-02  0.1066639E+00
         21   -1    0    0  503  502  0.00000000000E+00  0.00000000000E+00  0.21770823018E+03  0.21770823018E+03  0.00000000000E+00 0.  1.
          1   -1    0    0  502    0 -0.00000000000E+00 -0.00000000000E+00 -0.92946469331E+03  0.92946469331E+03  0.00000000000E+00 0. -1.
         23    2    1    2    0    0 -0.25783039267E+03  0.29574761275E+03 -0.55048148174E+03  0.68229951382E+03  0.92518122476E+02 0.  0.
        -24    2    1    2    0    0  0.18370097742E+03 -0.16536469013E+03 -0.11470130908E+03  0.28426109933E+03  0.80971923783E+02 0.  0.
         11    1    4    4    0    0  0.84166888429E+02 -0.11695386683E+03 -0.92925377763E+02  0.17145669397E+03  0.00000000000E+00 0. -1.
        -12    1    4    4    0    0  0.99534088995E+02 -0.48410823299E+02 -0.21775931313E+02  0.11280440536E+03  0.00000000000E+00 0.  1.
        -13    1    3    3    0    0 -0.89348397949E+02  0.14282544996E+03 -0.17251083140E+03  0.24112700455E+03  0.00000000000E+00 0.  1.
         13    1    3    3    0    0 -0.16848199472E+03  0.15292216279E+03 -0.37797065034E+03  0.44117250927E+03  0.00000000000E+00 0. -1.
         21    1    1    2  503  501  0.20150434730E+01 -0.61510691019E+02  0.15091490851E+02  0.63367015126E+02  0.00000000000E+00 0. -1.
          2    1    1    2  501    0  0.72114371774E+02 -0.68872231606E+02 -0.61665163159E+02  0.11724529522E+03  0.00000000000E+00 0. -1.
<scales pt_clust_5="13000.00000" pt_clust_6="13000.00000" pt_clust_7="13000.00000" pt_clust_8="13000.00000" pt_clust_9="61.54369" pt_clust_10="106.77170"></scales>
<clustering>
<clus scale="   61.544">  1  9  2 -1</clus>
<clus scale="   80.972">  5  6 -1 -1</clus>
<clus scale="   92.518">  7  8 -1 -1</clus>
<clus scale="  106.772">  1 10  2 -1</clus>
<clus scale="  338.160">  1  5  2 -1</clus>
<clus scale="   61.544">  1  5  2 -1</clus>
</clustering>
</event>
<event>
10    3  0.5078224E-005  0.1742637E+03  0.7546771E-02  0.1201618E+00
         21   -1    0    0  503  502  0.00000000000E+00  0.00000000000E+00  0.15112958884E+04  0.15112958884E+04  0.00000000000E+00 0.  1.
         -2   -1    0    0    0  501 -0.00000000000E+00 -0.00000000000E+00 -0.10588813225E+03  0.10588813225E+03  0.00000000000E+00 0.  1.
         23    2    1    2    0    0 -0.99485296489E+01  0.50828515253E+01 -0.50518327922E+02  0.10607497140E+03  0.92601239079E+02 0.  0.
        -24    2    1    2    0    0  0.15158069367E+03 -0.28885336673E+02  0.67646581566E+03  0.69868019639E+03  0.82078911432E+02 0.  0.
         11    1    4    4    0    0  0.10181027537E+03  0.20888025942E+02  0.37809216616E+03  0.39211647238E+03  0.00000000000E+00 0. -1.
        -12    1    4    4    0    0  0.49770418302E+02 -0.49773362615E+02  0.29837364950E+03  0.30656372401E+03  0.00000000000E+00 0.  1.
        -13    1    3    3    0    0 -0.26580404140E+02 -0.36195244248E+02 -0.10258187525E+02  0.46063477959E+02  0.00000000000E+00 0. -1.
         13    1    3    3    0    0  0.16631874491E+02  0.41278095773E+02 -0.40260140397E+02  0.60011493437E+02  0.00000000000E+00 0.  1.
         21    1    1    2  503  501  0.14531530766E+02  0.61423169361E+02  0.14880459938E+03  0.16163780472E+03  0.00000000000E+00 0.  1.
         -1    1    1    2    0  502 -0.15616369479E+03 -0.37620684213E+02  0.63065566899E+03  0.65079104809E+03  0.00000000000E+00 0.  1.
<scales pt_clust_5="13000.00000" pt_clust_6="13000.00000" pt_clust_7="13000.00000" pt_clust_8="13000.00000" pt_clust_9="63.11871" pt_clust_10="153.72347"></scales>
<clustering>
<clus scale="   63.119">  1  9  2 -1</clus>
<clus scale="   82.079">  5  6 -1 -1</clus>
<clus scale="   92.601">  7  8 -1 -1</clus>
<clus scale="   93.318">  2  7  1 -1</clus>
<clus scale="  153.723">  1 10  2 -1</clus>
<clus scale="   63.119">  1  5  2 -1</clus>
</clustering>
</event>
<event>
10    3  0.5078224E-005  0.3968342E+03  0.7546771E-02  0.1059374E+00
          3   -1    0    0  503    0 -0.00000000000E+00  0.00000000000E+00  0.94106159061E+03  0.94106159061E+03  0.00000000000E+00 0. -1.
         21   -1    0    0  501  502  0.00000000000E+00 -0.00000000000E+00 -0.59081470833E+03  0.59081470833E+03  0.00000000000E+00 0. -1.
        -24    2    1    2    0    0  0.14244823473E+03  0.19210728461E+03 -0.12877642251E+03  0.28498695582E+03  0.86240881345E+02 0.  0.
         23    2    1    2    0    0 -0.43972908597E+03  0.40183228844E+02  0.64698551880E+03  0.78934435447E+03  0.97457105767E+02 0.  0.
         13    1    3    3    0    0  0.12481364560E+03  0.19456314693E+03 -0.10160393059E+03  0.25250073858E+03  0.00000000000E+00 0. -1.
        -14    1    3    3    0    0  0.17634589128E+02 -0.24558623207E+01 -0.27172491919E+02  0.32486217239E+02  0.00000000000E+00 0.  1.
        -11    1    4    4    0    0 -0.85611196406E+02 -0.30869658516E+02  0.13181777612E+03  0.16018158092E+03  0.00000000000E+00 0.  1.
         11    1    4    4    0    0 -0.35411788956E+03  0.71052887361E+02  0.51516774269E+03  0.62916277355E+03  0.00000000000E+00 0. -1.
         21    1    1    2  503  502  0.16046700150E+01  0.29650662645E+02 -0.19635557149E+02  0.35599043044E+02  0.00000000000E+00 0. -1.
          4    1    1    2  501    0  0.29567618122E+03 -0.26194117610E+03 -0.14832665686E+03  0.42194594561E+03  0.00000000000E+00 0. -1.
<scales pt_clust_5="13000.00000" pt_clust_6="13000.00000" pt_clust_7="13000.00000" pt_clust_8="13000.00000" pt_clust_9="29.69405" pt_clust_10="384.68101"></scales>
<clustering>
<clus scale="   29.694">  2  9  1 -1</clus>
<clus scale="   86.241">  5  6 -1 -1</clus>
<clus scale="   97.457">  7  8 -1 -1</clus>
<clus scale="  262.880">  1  5  2 -1</clus>
<clus scale="  384.681">  2 10  1 -1</clus>
<clus scale="   29.694">  2  5  1 -1</clus>
</clustering>
</event>
<event>
10    3  0.5078224E-005  0.1705460E+03  0.7546771E-02  0.1191871E+00
         21   -1    0    0  501  502  0.00000000000E+00  0.00000000000E+00  0.43618529958E+03  0.43618529958E+03  0.00000000000E+00 0.  1.
          1   -1    0    0  503    0 -0.00000000000E+00 -0.00000000000E+00 -0.10094338560E+04  0.10094338560E+04  0.00000000000E+00 0. -1.
        -24    2    1    2    0    0 -0.42129910190E+02  0.87006718974E+02 -0.59502766105E+03  0.60764262168E+03  0.76331774413E+02 0.  0.
         23    2    1    2    0    0 -0.10255206361E+03 -0.13380877097E+02 -0.28630345249E+03  0.31745319359E+03  0.90060477412E+02 0.  0.
         13    1    3    3    0    0 -0.59326038347E+02  0.86102805062E+02 -0.47399420598E+03  0.48539033691E+03  0.00000000000E+00 0. -1.
        -14    1    3    3    0    0  0.17196128158E+02  0.90391391179E+00 -0.12103345508E+03  0.12225228477E+03  0.00000000000E+00 0.  1.
        -13    1    4    4    0    0 -0.48675457189E+02 -0.50895867237E+02 -0.16779975745E+03  0.18197925166E+03  0.00000000000E+00 0.  1.
         13    1    4    4    0    0 -0.53876606417E+02  0.37514990141E+02 -0.11850369504E+03  0.13547394193E+03  0.00000000000E+00 0. -1.
         21    1    1    2  503  502  0.20442519062E+03  0.93307154272E+02  0.24471820926E+03  0.33223919928E+03  0.00000000000E+00 0.  1.
          2    1    1    2  501    0 -0.59743216822E+02 -0.16693299615E+03  0.63364347903E+02  0.18828414098E+03  0.00000000000E+00 0. -1.
<scales pt_clust_5="13000.00000" pt_clust_6="13000.00000" pt_clust_7="13000.00000" pt_clust_8="13000.00000" pt_clust_9="144.82764" pt_clust_10="167.27020"></scales>
<clustering>
<clus scale="   76.332">  5  6 -1 -1</clus>
<clus scale="   90.060">  7  8 -1 -1</clus>
<clus scale="  123.173">  2  5  1 -1</clus>
<clus scale="  167.270">  1 10  2 -1</clus>
<clus scale="  144.828">  1  9  2 -1</clus>
<clus scale="  167.270">  1  5  2 -1</clus>
</clustering>
</event>
<event>
10    3  0.5078224E-005  0.1619181E+03  0.7546771E-02  0.1216564E+00
         -4   -1    0    0    0  501 -0.00000000000E+00  0.00000000000E+00  0.10789603947E+03  0.10789603947E+03  0.00000000000E+00 0.  1.
         21   -1    0    0  503  502  0.00000000000E+00 -0.00000000000E+00 -0.58094242971E+03  0.58094242971E+03  0.00000000000E+00 0. -1.
        -24    2    1    2    0    0 -0.37801879714E+02  0.65077998350E+01  0.28293193160E+02  0.93084526805E+02  0.79955555046E+02 0.  0.
         23    2    1    2    0    0  0.14457820108E+03  0.21753219052E+02 -0.25913887595E+03  0.31125639568E+03  0.91386695169E+02 0.  0.
         11    1    3    3    0    0  0.96107973100E+01 -0.28064432097E+02  0.57039439264E+01  0.30207859080E+02  0.00000000000E+00 0. -1.
        -12    1    3    3    0    0 -0.47412677024E+02  0.34572231932E+02  0.22589249234E+02  0.62876667725E+02  0.00000000000E+00 0.  1.
        -13    1    4    4    0    0  0.80147265270E+02 -0.30199956596E+02 -0.98356289739E+02  0.13042078531E+03  0.00000000000E+00 0. -1.
         13    1    4    4    0    0  0.64430935812E+02  0.51953175648E+02 -0.16078258621E+03  0.18083561037E+03  0.00000000000E+00 0.  1.
         21    1    1    2  503  501  0.17783401279E+02 -0.11111152972E+02 -0.18892746196E+02  0.28224863866E+02  0.00000000000E+00 0. -1.
         -3    1    1    2    0  502 -0.12455972265E+03 -0.17149865916E+02 -0.22330796126E+03  0.25627268283E+03  0.00000000000E+00 0.  1.
<scales pt_clust_5="13000.00000" pt_clust_6="13000.00000" pt_clust_7="13000.00000" pt_clust_8="13000.00000" pt_clust_9="20.96919" pt_clust_10="133.66354"></scales>
<clustering>
<clus scale="   20.969">  1  9  2 -1</clus>
<clus scale="   79.956">  5  6 -1 -1</clus>
<clus scale="   84.503">  1  5  2 -1</clus>
<clus scale="   91.387">  7  8 -1 -1</clus>
<clus scale="  133.664">  2 10  1 -1</clus>
<clus scale="  133.664">  2  5  1 -1</clus>
</clustering>
</event>
<event>
10    3  0.5078224E-005  0.1526833E+03  0.7546771E-02  0.1217703E+00
          1   -1    0    0  503    0 -0.00000000000E+00  0.00000000000E+00  0.11118491672E+03  0.11118491672E+03  0.00000000000E+00 0. -1.
         21   -1    0    0  501  502  0.00000000000E+00 -0.00000000000E+00 -0.43557935020E+03  0.43557935020E+03  0.00000000000E+00 0. -1.
        -24    2    1    2    0    0  0.51183061544E+02 -0.13475812237E+02 -0.12195432021E+02  0.96621202282E+02  0.79910104891E+02 0.  0.
         23    2    1    2    0    0  0.82583768796E+02 -0.47442336267E+01 -0.11246248122E+03  0.16642927677E+03  0.90599712257E+02 0.  0.
         13    1    3    3    0    0  0.45290299261E+02 -0.12745345725E+02  0.28822303601E+02  0.55175902618E+02  0.00000000000E+00 0. -1.
        -14    1    3    3    0    0  0.58927622829E+01 -0.73046651204E+00 -0.41017735622E+02  0.41445299664E+02  0.00000000000E+00 0.  1.
        -11    1    4    4    0    0 -0.14884409095E+02  0.15772676828E+02 -0.30574571193E+02  0.37485028640E+02  0.00000000000E+00 0.  1.
         11    1    4    4    0    0  0.97468177892E+02 -0.20516910455E+02 -0.81887910031E+02  0.12894424813E+03  0.00000000000E+00 0. -1.
         21    1    1    2  503  502  0.27303417729E+02 -0.22462174170E+02 -0.34131661772E+02  0.49142611077E+02  0.00000000000E+00 0. -1.
          2    1    1    2  501    0 -0.16107024807E+03  0.40682220033E+02 -0.16560485846E+03  0.23457117680E+03  0.00000000000E+00 0. -1.
<scales pt_clust_5="13000.00000" pt_clust_6="13000.00000" pt_clust_7="13000.00000" pt_clust_8="13000.00000" pt_clust_9="35.35571" pt_clust_10="122.89794"></scales>
<clustering>
<clus scale="   35.356">  2  9  1 -1</clus>
<clus scale="   79.910">  5  6 -1 -1</clus>
<clus scale="   90.600">  7  8 -1 -1</clus>
<clus scale="   98.389">  1  5  2 -1</clus>
<clus scale="  122.898">  2 10  1 -1</clus>
<clus scale="   35.356">  2  5  1 -1</clus>
</clustering>
</event>
<event>
10    3  0.5078224E-005  0.2314728E+03  0.7546771E-02  0.1156185E+00
         21   -1    0    0  503  502  0.00000000000E+00  0.00000000000E+00  0.70669694960E+03  0.70669694960E+03  0.00000000000E+00 0.  1.
          3   -1    0    0  502    0 -0.00000000000E+00 -0.00000000000E+00 -0.27141465518E+03  0.27141465518E+03  0.00000000000E+00 0. -1.
        -24    2    1    2    0    0 -0.17001106509E+02 -0.85117631744E+02  0.26938999782E+03  0.29422481792E+03  0.80394177030E+02 0.  0.
         23    2    1    2    0    0 -0.16733321763E+03 -0.13213811959E+03  0.16111001365E+03  0.28387953258E+03  0.95761496176E+02 0.  0.
         13    1    3    3    0    0 -0.16503671482E+01 -0.34933980009E+02  0.21971476965E+02  0.41301966915E+02  0.00000000000E+00 0. -1.
        -14    1    3    3    0    0 -0.15350739360E+02 -0.50183651735E+02  0.24741852085E+03  0.25292285101E+03  0.00000000000E+00 0.  1.
        -11    1    4    4    0    0 -0.13654411458E+03 -0.13520550085E+03  0.10294461340E+03  0.21799636721E+03  0.00000000000E+00 0.  1.
         11    1    4    4    0    0 -0.30789103051E+02  0.30673812566E+01  0.58165400246E+02  0.65883165378E+02  0.00000000000E+00 0. -1.
         21    1    1    2  503  501  0.31130797050E+02  0.18404158469E+02  0.11888733684E+03  0.12426599871E+03  0.00000000000E+00 0.  1.
          4    1    1    2  501    0  0.15320352709E+03  0.19885159287E+03 -0.11410505388E+03  0.27574125557E+03  0.00000000000E+00 0. -1.
<scales pt_clust_5="13000.00000" pt_clust_6="13000.00000" pt_clust_7="13000.00000" pt_clust_8="13000.00000" pt_clust_9="36.16406" pt_clust_10="210.73550"></scales>
<clustering>
<clus scale="   36.164">  1  9  2 -1</clus>
<clus scale="   80.394">  5  6 -1 -1</clus>
<clus scale="   95.761">  7  8 -1 -1</clus>
<clus scale="  110.824">  2  5  1 -1</clus>
<clus scale="  210.735">  1 10  2 -1</clus>
<clus scale="   36.164">  1  5  2 -1</clus>
</clustering>
</event>
<event>
10    3  0.5078224E-005  0.2315810E+03  0.7546771E-02  0.1134286E+00
          1   -1    0    0  503    0 -0.00000000000E+00  0.00000000000E+00  0.13423213350E+04  0.13423213350E+04  0.00000000000E+00 0. -1.
         21   -1    0    0  501  502  0.00000000000E+00 -0.00000000000E+00 -0.11780455252E+03  0.11780455252E+03  0.00000000000E+00 0. -1.
        -24    2    1    2    0    0 -0.77333641337E+02  0.15361108844E+03  0.55135858557E+03  0.58127241386E+03  0.65608464814E+02 0.  0.
         23    2    1    2    0    0 -0.10587511090E+03 -0.22687244864E+03  0.14630145472E+03  0.30373204865E+03  0.90379171626E+02 0.  0.
         11    1    3    3    0    0 -0.82761046766E+02  0.13016688280E+03  0.51553807901E+03  0.53811924250E+03  0.00000000000E+00 0. -1.
        -12    1    3    3    0    0  0.54274054297E+01  0.23444205646E+02  0.35820506560E+02  0.43153171358E+02  0.00000000000E+00 0.  1.
        -13    1    4    4    0    0 -0.12752393313E+01 -0.10706483664E+03  0.61990570330E+02  0.12372282041E+03  0.00000000000E+00 0.  1.
         13    1    4    4    0    0 -0.10459987157E+03 -0.11980761200E+03  0.84310884393E+02  0.18000922824E+03  0.00000000000E+00 0. -1.
         21    1    1    2  503  502 -0.64380051342E+01  0.20982977618E+02  0.14522691864E+02  0.26318089574E+02  0.00000000000E+00 0. -1.
          2    1    1    2  501    0  0.18964675737E+03  0.52278382580E+02  0.51233405034E+03  0.54880333545E+03  0.00000000000E+00 0. -1.
<scales pt_clust_5="13000.00000" pt_clust_6="13000.00000" pt_clust_7="13000.00000" pt_clust_8="13000.00000" pt_clust_9="21.94842" pt_clust_10="213.21683"></scales>
<clustering>
<clus scale="   21.948">  2  9  1 -1</clus>
<clus scale="   65.608">  5  6 -1 -1</clus>
<clus scale="   90.379">  7  8 -1 -1</clus>
<clus scale="  186.774">  1  5  2 -1</clus>
<clus scale="  213.217">  2 10  1 -1</clus>
<clus scale="   21.948">  2  5  1 -1</clus>
</clustering>
</event>
<event>
10    3  0.5078224E-005  0.1659903E+03  0.7546771E-02  0.1213942E+00
          1   -1    0    0  503    0 -0.00000000000E+00  0.00000000000E+00  0.90508604925E+03  0.90508604925E+03  0.00000000000E+00 0. -1.
         21   -1    0    0  501  502  0.00000000000E+00 -0.00000000000E+00 -0.85349924956E+02  0.85349924956E+02  0.00000000000E+00 0. -1.
        -24    2    1    2    0    0 -0.76559326730E+01  0.20419113848E+02  0.27967408964E+03  0.29175566433E+03  0.80176166896E+02 0.  0.
         23    2    1    2    0    0  0.10525052971E+02  0.13392048212E+03  0.46902845492E+03  0.49617215389E+03  0.90297522085E+02 0.  0.
         13    1    3    3    0    0 -0.34014508256E+02 -0.12475368516E+02  0.17871100504E+03  0.18234649686E+03  0.00000000000E+00 0. -1.
        -14    1    3    3    0    0  0.26358575583E+02  0.32894482364E+02  0.10096308460E+03  0.10940916748E+03  0.00000000000E+00 0.  1.
        -13    1    4    4    0    0  0.36344928499E+02  0.12945810717E+03  0.36783565119E+03  0.39164195590E+03  0.00000000000E+00 0. -1.
         13    1    4    4    0    0 -0.25819875528E+02  0.44623749456E+01  0.10119280373E+03  0.10453019798E+03  0.00000000000E+00 0.  1.
         21    1    1    2  503  502 -0.47606888725E+02 -0.33376434613E+02  0.71405767137E+01  0.58578068228E+02  0.00000000000E+00 0. -1.
          2    1    1    2  501    0  0.44737768427E+02 -0.12096316135E+03  0.63893003013E+02  0.14393008776E+03  0.00000000000E+00 0. -1.
<scales pt_clust_5="13000.00000" pt_clust_6="13000.00000" pt_clust_7="13000.00000" pt_clust_8="13000.00000" pt_clust_9="58.14123" pt_clust_10="139.28082"></scales>
<clustering>
<clus scale="   58.141">  2  9  1 -1</clus>
<clus scale="   80.176">  5  6 -1 -1</clus>
<clus scale="   82.911">  1  5  2 -1</clus>
<clus scale="   90.298">  7  8 -1 -1</clus>
<clus scale="  139.281">  2 10  1 -1</clus>
<clus scale="   58.141">  2  5  1 -1</clus>
</clustering>
</event>
<event>
10    3  0.5078224E-005  0.2245934E+03  0.7546771E-02  0.1151779E+00
         21   -1    0    0  501  502  0.00000000000E+00  0.00000000000E+00  0.35497320077E+03  0.35497320077E+03  0.00000000000E+00 0. -1.
          1   -1    0    0  503    0 -0.00000000000E+00 -0.00000000000E+00 -0.81258431257E+03  0.81258431257E+03  0.00000000000E+00 0. -1.
        -24    2    1    2    0    0 -0.98776655250E+02  0.26303591688E+02 -0.17629238860E+03  0.21859532183E+03  0.79096155975E+02 0.  0.
         23    2    1    2    0    0  0.56537582378E+01  0.16304943668E+03 -0.35393787676E+03  0.40298081128E+03  0.10249112090E+03 0.  0.
         13    1    3    3    0    0 -0.75030530503E+02  0.33081815697E+02 -0.65116408005E+02  0.10470975900E+03  0.00000000000E+00 0. -1.
        -14    1    3    3    0    0 -0.23746124747E+02 -0.67782240098E+01 -0.11117598059E+03  0.11388556283E+03  0.00000000000E+00 0.  1.
        -11    1    4    4    0    0 -0.33080390482E+02  0.12873974882E+03 -0.30055321906E+03  0.32863425361E+03  0.00000000000E+00 0.  1.
         11    1    4    4    0    0  0.38734148719E+02  0.34309687868E+02 -0.53384657708E+02  0.74346557669E+02  0.00000000000E+00 0. -1.
         21    1    1    2  503  502 -0.29991992052E+02  0.18886682361E+02  0.24588166466E+03  0.24842306530E+03  0.00000000000E+00 0. -1.
          2    1    1    2  501    0  0.12311488906E+03 -0.20823971073E+03 -0.17326251110E+03  0.29755831493E+03  0.00000000000E+00 0. -1.
<scales pt_clust_5="13000.00000" pt_clust_6="13000.00000" pt_clust_7="13000.00000" pt_clust_8="13000.00000" pt_clust_9="35.44328" pt_clust_10="199.84439"></scales>
<clustering>
<clus scale="   35.443">  1  9  2 -1</clus>
<clus scale="   79.096">  5  6 -1 -1</clus>
<clus scale="  102.491">  7  8 -1 -1</clus>
<clus scale="  134.575">  2  5  1 -1</clus>
<clus scale="  199.844">  1 10  2 -1</clus>
<clus scale="   35.443">  1  5  2 -1</clus>
</clustering>
</event>
<event>
10    3  0.5078224E-005  0.3038305E+03  0.7546771E-02  0.1099387E+00
         21   -1    0    0  501  502  0.00000000000E+00  0.00000000000E+00  0.15857619953E+03  0.15857619953E+03  0.00000000000E+00 0. -1.
          1   -1    0    0  503    0 -0.00000000000E+00 -0.00000000000E+00 -0.17419854978E+04  0.17419854978E+04  0.00000000000E+00 0. -1.
         23    2    1    2    0    0 -0.73357543807E+02  0.15724201610E+03 -0.23888698225E+03  0.30907802041E+03  0.91410347072E+02 0.  0.
        -24    2    1    2    0    0 -0.15588975494E+03 -0.31431939098E+03 -0.11509572042E+04  0.12061270210E+04  0.83316322512E+02 0.  0.
         13    1    4    4    0    0 -0.78237990452E+02 -0.20265258859E+03 -0.82060763702E+03  0.84887345862E+03  0.00000000000E+00 0. -1.
        -14    1    4    4    0    0 -0.77651764492E+02 -0.11166680239E+03 -0.33034956722E+03  0.35725356240E+03  0.00000000000E+00 0.  1.
        -13    1    3    3    0    0 -0.16872928828E+02  0.10314625792E+03 -0.18998810083E+03  0.21683939842E+03  0.00000000000E+00 0.  1.
         13    1    3    3    0    0 -0.56484614979E+02  0.54095758183E+02 -0.48898881418E+02  0.92238621991E+02  0.00000000000E+00 0. -1.
         21    1    1    2  503  502 -0.28853608598E+02  0.17828903077E+01 -0.33506364681E+02  0.44253654098E+02  0.00000000000E+00 0.  1.
          2    1    1    2  501    0  0.25810090735E+03  0.15529448457E+03 -0.16005874710E+03  0.34110300180E+03  0.00000000000E+00 0. -1.
<scales pt_clust_5="13000.00000" pt_clust_6="13000.00000" pt_clust_7="13000.00000" pt_clust_8="13000.00000" pt_clust_9="28.90864" pt_clust_10="292.18379"></scales>
<clustering>
<clus scale="   28.909">  1  9  2 -1</clus>
<clus scale="   83.316">  5  6 -1 -1</clus>
<clus scale="   91.410">  7  8 -1 -1</clus>
<clus scale="  199.008">  2  7  1 -1</clus>
<clus scale="  292.184">  1 10  2 -1</clus>
<clus scale="   28.909">  1  5  2 -1</clus>
</clustering>
</event>
<event>
10    3  0.5078224E-005  0.1228033E+03  0.7546771E-02  0.1240424E+00
          3   -1    0    0  503    0 -0.00000000000E+00  0.00000000000E+00  0.33067862158E+03  0.33067862158E+03  0.00000000000E+00 0. -1.
         21   -1    0    0  501  502  0.00000000000E+00 -0.00000000000E+00 -0.16134801808E+03  0.16134801808E+03  0.00000000000E+00 0. -1.
         23    2    1    2    0    0  0.53220769081E+02 -0.34286696429E+02  0.12472276361E+03  0.16542215230E+03  0.88321531333E+02 0.  0.
        -24    2    1    2    0    0 -0.11890431421E+03  0.44992844426E+02  0.11533313858E+03  0.19014329615E+03  0.81793326313E+02 0.  0.
         11    1    4    4    0    0 -0.95340224270E+02  0.14920111070E+02  0.37671632657E+02  0.10359304989E+03  0.00000000000E+00 0. -1.
        -12    1    4    4    0    0 -0.23564089942E+02  0.30072733357E+02  0.77661505920E+02  0.86550246262E+02  0.00000000000E+00 0.  1.
        -13    1    3    3    0    0  0.29162493796E+02 -0.25471731706E+02  0.13297973452E+03  0.13850223808E+03  0.00000000000E+00 0.  1.
         13    1    3    3    0    0  0.24058275285E+02 -0.88149647224E+01 -0.82569709170E+01  0.26919914217E+02  0.00000000000E+00 0. -1.
         21    1    1    2  503  502  0.18586335132E+02  0.10368988161E+02 -0.81086934107E+02  0.83833517473E+02  0.00000000000E+00 0. -1.
          4    1    1    2  501    0  0.47097210000E+02 -0.21075136159E+02  0.10361635427E+02  0.52627673734E+02  0.00000000000E+00 0. -1.
<scales pt_clust_5="13000.00000" pt_clust_6="13000.00000" pt_clust_7="13000.00000" pt_clust_8="13000.00000" pt_clust_9="21.28304" pt_clust_10="55.19720"></scales>
<clustering>
<clus scale="   21.283">  2  9  1 -1</clus>
<clus scale="   55.197">  2 10  1 -1</clus>
<clus scale="   81.793">  5  6 -1 -1</clus>
<clus scale="   88.322">  7  8 -1 -1</clus>
<clus scale="  118.195">  2  5  1 -1</clus>
<clus scale="   21.283">  2  5  1 -1</clus>
</clustering>
</event>
<event>
10    3  0.5078224E-005  0.3469131E+03  0.7546771E-02  0.1064150E+00
          1   -1    0    0  503    0 -0.00000000000E+00  0.00000000000E+00  0.20759273236E+04  0.20759273236E+04  0.00000000000E+00 0. -1.
         21   -1    0    0  501  502  0.00000000000E+00 -0.00000000000E+00 -0.16777431605E+03  0.16777431605E+03  0.00000000000E+00 0. -1.
        -24    2    1    2    0    0  0.42306074691E+02 -0.34501897976E+03  0.99260399058E+03  0.10547984808E+04  0.80679938983E+02 0.  0.
         23    2    1    2    0    0 -0.26765937271E+03  0.24524564720E+03  0.29124799453E+03  0.47418688978E+03  0.90779099205E+02 0.  0.
         13    1    3    3    0    0 -0.15236649152E+02 -0.34282504378E+02  0.15733857320E+03  0.16174941175E+03  0.00000000000E+00 0. -1.
        -14    1    3    3    0    0  0.57542723843E+02 -0.31073647538E+03  0.83526541738E+03  0.89304906902E+03  0.00000000000E+00 0.  1.
        -13    1    4    4    0    0 -0.71510600192E+02  0.32724934226E+02  0.10104284345E+03  0.12804039782E+03  0.00000000000E+00 0.  1.
         13    1    4    4    0    0 -0.19614877252E+03  0.21252071297E+03  0.19020515108E+03  0.34614649197E+03  0.00000000000E+00 0. -1.
         21    1    1    2  503  502  0.70425767165E+01  0.27721597025E+02 -0.17124721133E+02  0.33336780023E+02  0.00000000000E+00 0. -1.
          2    1    1    2  501    0  0.21831072131E+03  0.72051735535E+02  0.64142574362E+03  0.68137948913E+03  0.00000000000E+00 0. -1.
<scales pt_clust_5="13000.00000" pt_clust_6="13000.00000" pt_clust_7="13000.00000" pt_clust_8="13000.00000" pt_clust_9="28.60218" pt_clust_10="232.07313"></scales>
<clustering>
<clus scale="   28.602">  2  9  1 -1</clus>
<clus scale="   80.680">  5  6 -1 -1</clus>
<clus scale="   90.779">  7  8 -1 -1</clus>
<clus scale="  232.073">  2 10  1 -1</clus>
<clus scale="  344.408">  1  5  2 -1</clus>
<clus scale="   28.602">  2  5  1 -1</clus>
</clustering>
</event>
<event>
10    3  0.5078224E-005  0.1834499E+03  0.7546771E-02  0.1173765E+00
         21   -1    0    0  501  502  0.00000000000E+00  0.00000000000E+00  0.90583624483E+03  0.90583624483E+03  0.00000000000E+00 0. -1.
          1   -1    0    0  503    0 -0.00000000000E+00 -0.00000000000E+00 -0.16071278759E+03  0.16071278759E+03  0.00000000000E+00 0. -1.
         23    2    1    2    0    0 -0.51495514814E+02  0.10184414919E+03  0.39202824023E+02  0.15242967475E+03  0.93133911994E+02 0.  0.
        -24    2    1    2    0    0 -0.49282347418E+02  0.12469603133E+03  0.48556188101E+03  0.50983908613E+03  0.78661956871E+02 0.  0.
         13    1    4    4    0    0 -0.46694271070E+02  0.79228280675E+02  0.42039250366E+03  0.43033397791E+03  0.00000000000E+00 0. -1.
        -14    1    4    4    0    0 -0.25880763481E+01  0.45467750657E+02  0.65169377349E+02  0.79505108220E+02  0.00000000000E+00 0.  1.
        -13    1    3    3    0    0  0.15321095870E+02  0.66792304199E+02  0.26219809760E+01  0.68577129301E+02  0.00000000000E+00 0. -1.
         13    1    3    3    0    0 -0.66816610684E+02  0.35051844991E+02  0.36580843047E+02  0.83852545451E+02  0.00000000000E+00 0.  1.
         21    1    1    2  503  502  0.36194803055E+02  0.30021547590E+02  0.10618152879E+03  0.11612869647E+03  0.00000000000E+00 0. -1.
          2    1    1    2  501    0  0.64583059176E+02 -0.25656172811E+03  0.11417722342E+03  0.28815157506E+03  0.00000000000E+00 0. -1.
<scales pt_clust_5="13000.00000" pt_clust_6="13000.00000" pt_clust_7="13000.00000" pt_clust_8="13000.00000" pt_clust_9="47.02507" pt_clust_10="165.72928"></scales>
<clustering>
<clus scale="   47.025">  1  9  2 -1</clus>
<clus scale="   78.662">  5  6 -1 -1</clus>
<clus scale="   93.134">  7  8 -1 -1</clus>
<clus scale="  148.384">  2  7  1 -1</clus>
<clus scale="  165.729">  1 10  2 -1</clus>
<clus scale="   47.025">  1  5  2 -1</clus>
</clustering>
</event>
<event>
10    3  0.5078224E-005  0.1911869E+03  0.7546771E-02  0.1171632E+00
         21   -1    0    0  501  502  0.00000000000E+00  0.00000000000E+00  0.64040685563E+02  0.64040685563E+02  0.00000000000E+00 0. -1.
          1   -1    0    0  503    0 -0.00000000000E+00 -0.00000000000E+00 -0.16447798109E+04  0.16447798109E+04  0.00000000000E+00 0. -1.
        -24    2    1    2    0    0  0.47693388341E+02 -0.84899194920E+02 -0.50017673628E+03  0.51781992549E+03  0.92077006499E+02 0.  0.
         23    2    1    2    0    0 -0.10052864264E+03 -0.10861454908E+03 -0.17694916924E+03  0.24686300264E+03  0.87904523843E+02 0.  0.
         11    1    3    3    0    0  0.60268838444E+02 -0.19570420130E+02 -0.18066272858E+03  0.19145327296E+03  0.00000000000E+00 0. -1.
        -12    1    3    3    0    0 -0.12575450103E+02 -0.65328774790E+02 -0.31951400771E+03  0.32636665253E+03  0.00000000000E+00 0.  1.
        -11    1    4    4    0    0 -0.59861672807E+02 -0.91889999291E+02 -0.67167899173E+02  0.12860294911E+03  0.00000000000E+00 0.  1.
         11    1    4    4    0    0 -0.40666969837E+02 -0.16724549784E+02 -0.10978127007E+03  0.11826005352E+03  0.00000000000E+00 0. -1.
         21    1    1    2  503  502  0.11553634282E+02 -0.30787675156E+02 -0.44902805295E+02  0.55656350312E+02  0.00000000000E+00 0. -1.
          2    1    1    2  501    0  0.41281620020E+02  0.22430141915E+03 -0.85871041449E+03  0.88848121800E+03  0.00000000000E+00 0. -1.
<scales pt_clust_5="13000.00000" pt_clust_6="13000.00000" pt_clust_7="13000.00000" pt_clust_8="13000.00000" pt_clust_9="32.88415" pt_clust_10="169.78003"></scales>
<clustering>
<clus scale="   32.884">  1  9  2 -1</clus>
<clus scale="   87.905">  7  8 -1 -1</clus>
<clus scale="   92.077">  5  6 -1 -1</clus>
<clus scale="  137.612">  2  5  1 -1</clus>
<clus scale="  169.780">  1 10  2 -1</clus>
<clus scale="   32.884">  1  5  2 -1</clus>
</clustering>
</event>
<event>
10    3  0.5078224E-005  0.3944043E+03  0.7546771E-02  0.1086852E+00
         21   -1    0    0  501  502  0.00000000000E+00  0.00000000000E+00  0.14657426707E+03  0.14657426707E+03  0.00000000000E+00 0.  1.
          1   -1    0    0  503    0 -0.00000000000E+00 -0.00000000000E+00 -0.18135460254E+04  0.18135460254E+04  0.00000000000E+00 0. -1.
        -24    2    1    2    0    0  0.32717932340E+02  0.92351286208E+02 -0.55245838816E+03  0.56665997261E+03  0.79334927696E+02 0.  0.
         23    2    1    2    0    0 -0.78796576006E+02  0.31657887604E+03 -0.58719782395E+03  0.67792733045E+03  0.91395272176E+02 0.  0.
         11    1    3    3    0    0  0.26417321410E+02  0.35041893539E+02 -0.85003111102E+02  0.95662626298E+02  0.00000000000E+00 0. -1.
        -12    1    3    3    0    0  0.63006109299E+01  0.57309392670E+02 -0.46745527706E+03  0.47099734631E+03  0.00000000000E+00 0.  1.
        -11    1    4    4    0    0 -0.53452590623E+01  0.20553359966E+03 -0.35039363198E+03  0.40626140564E+03  0.00000000000E+00 0.  1.
         11    1    4    4    0    0 -0.73451316944E+02  0.11104527638E+03 -0.23680419197E+03  0.27166592481E+03  0.00000000000E+00 0. -1.
         21    1    1    2  503  502 -0.36327359958E+02  0.23364184682E+02 -0.55664442676E+02  0.70456315443E+02  0.00000000000E+00 0. -1.
          2    1    1    2  501    0  0.82406003625E+02 -0.43229434693E+03 -0.47165110357E+03  0.64507667399E+03  0.00000000000E+00 0. -1.
<scales pt_clust_5="13000.00000" pt_clust_6="13000.00000" pt_clust_7="13000.00000" pt_clust_8="13000.00000" pt_clust_9="43.19215" pt_clust_10="383.66865"></scales>
<clustering>
<clus scale="   43.192">  1  9  2 -1</clus>
<clus scale="   79.335">  5  6 -1 -1</clus>
<clus scale="   91.395">  7  8 -1 -1</clus>
<clus scale="  126.479">  2  5  1 -1</clus>
<clus scale="  383.669">  1 10  2 -1</clus>
<clus scale="   43.192">  1  5  2 -1</clus>
</clustering>
</event>
<event>
10    3  0.5078224E-005  0.1018790E+03  0.7546771E-02  0.1281359E+00
         21   -1    0    0  503  502  0.00000000000E+00  0.00000000000E+00  0.91767890099E+02  0.91767890099E+02  0.00000000000E+00 0.  1.
          1   -1    0    0  502    0 -0.00000000000E+00 -0.00000000000E+00 -0.33692802444E+03  0.33692802444E+03  0.00000000000E+00 0. -1.
        -24    2    1    2    0    0 -0.11681698203E+02  0.51159435367E+02 -0.95498400055E+02  0.13556018070E+03  0.80640363827E+02 0.  0.
         23    2    1    2    0    0  0.19691137801E+02 -0.33181828456E+02 -0.76443268829E+02  0.12500289346E+03  0.91067971189E+02 0.  0.
         13    1    3    3    0    0 -0.24910599123E+02  0.68043245727E+02 -0.84956799933E+02  0.11166055298E+03  0.00000000000E+00 0. -1.
        -14    1    3    3    0    0  0.13228900920E+02 -0.16883810359E+02 -0.10541600121E+02  0.23899627715E+02  0.00000000000E+00 0.  1.
        -11    1    4    4    0    0  0.35071184564E+02  0.67705817627E+01  0.18532276737E+01  0.35766789302E+02  0.00000000000E+00 0.  1.
         11    1    4    4    0    0 -0.15380046763E+02 -0.39952410218E+02 -0.78296496503E+02  0.89236104158E+02  0.00000000000E+00 0. -1.
         21    1    1    2  503  501  0.44920808573E+02 -0.12052240182E+02  0.27620248529E+02  0.54092639657E+02  0.00000000000E+00 0.  1.
          2    1    1    2  501    0 -0.52930248172E+02 -0.59253667296E+01 -0.10083871399E+03  0.11404020073E+03  0.00000000000E+00 0. -1.
<scales pt_clust_5="13000.00000" pt_clust_6="13000.00000" pt_clust_7="13000.00000" pt_clust_8="13000.00000" pt_clust_9="46.50952" pt_clust_10="47.69765"></scales>
<clustering>
<clus scale="   46.510">  1  9  2 -1</clus>
<clus scale="   47.698">  1 10  2 -1</clus>
<clus scale="   80.640">  5  6 -1 -1</clus>
<clus scale="   91.068">  7  8 -1 -1</clus>
<clus scale="   92.676">  2  5  1 -1</clus>
<clus scale="   46.510">  1  5  2 -1</clus>
</clustering>
</event>
<event>
10    3  0.5078224E-005  0.1157704E+03  0.7546771E-02  0.1254066E+00
         21   -1    0    0  501  502  0.00000000000E+00  0.00000000000E+00  0.41771121507E+03  0.41771121507E+03  0.00000000000E+00 0.  1.
          1   -1    0    0  503    0 -0.00000000000E+00 -0.00000000000E+00 -0.18645745146E+03  0.18645745146E+03  0.00000000000E+00 0. -1.
        -24    2    1    2    0    0 -0.51790684180E+02  0.56736322615E+02 -0.14657475222E+03  0.18376860878E+03  0.79909062770E+02 0.  0.
         23    2    1    2    0    0 -0.17642565938E+02 -0.30503779803E+02  0.20318720593E+03  0.22539996843E+03  0.90985517532E+02 0.  0.
         13    1    3    3    0    0 -0.47374709088E+02  0.11574262106E+02 -0.12366956075E+03  0.13293790603E+03  0.00000000000E+00 0. -1.
        -14    1    3    3    0    0 -0.44159750918E+01  0.45162060509E+02 -0.22905191471E+02  0.50830702747E+02  0.00000000000E+00 0.  1.
        -13    1    4    4    0    0 -0.25073111861E+02 -0.54370864815E+02  0.18510768561E+03  0.19455001195E+03  0.00000000000E+00 0.  1.
         13    1    4    4    0    0  0.74305459233E+01  0.23867085012E+02  0.18079520316E+02  0.30849956475E+02  0.00000000000E+00 0. -1.
         21    1    1    2  503  502  0.23278972105E+02  0.10204570419E+02  0.76261088270E+02  0.80385305771E+02  0.00000000000E+00 0. -1.
          2    1    1    2  501    0  0.46154278013E+02 -0.36437113231E+02  0.98380221634E+02  0.11461478355E+03  0.00000000000E+00 0. -1.
<scales pt_clust_5="13000.00000" pt_clust_6="13000.00000" pt_clust_7="13000.00000" pt_clust_8="13000.00000" pt_clust_9="25.41739" pt_clust_10="62.94787"></scales>
<clustering>
<clus scale="   25.417">  1  9  2 -1</clus>
<clus scale="   62.948">  1 10  2 -1</clus>
<clus scale="   79.909">  5  6 -1 -1</clus>
<clus scale="   90.986">  7  8 -1 -1</clus>
<clus scale="  107.284">  2  5  1 -1</clus>
<clus scale="   25.417">  1  5  2 -1</clus>
</clustering>
</event>
<event>
10    3  0.5078224E-005  0.2859715E+03  0.7546771E-02  0.1113866E+00
          1   -1    0    0  503    0 -0.00000000000E+00  0.00000000000E+00  0.36514794205E+03  0.36514794205E+03  0.00000000000E+00 0. -1.
         21   -1    0    0  501  502  0.00000000000E+00 -0.00000000000E+00 -0.46373570312E+03  0.46373570312E+03  0.00000000000E+00 0.  1.
         23    2    1    2    0    0  0.10403673552E+03 -0.92213523399E+02  0.40389266970E+02  0.17046492576E+03  0.90000121077E+02 0.  0.
        -24    2    1    2    0    0 -0.32029470745E+03 -0.62788046313E+02 -0.98386977445E+02  0.35049269004E+03  0.81449923631E+02 0.  0.
         11    1    4    4    0    0 -0.34121280195E+02  0.10709247613E+02  0.76663309771E+01  0.36574887249E+02  0.00000000000E+00 0. -1.
        -12    1    4    4    0    0 -0.28617342725E+03 -0.73497293926E+02 -0.10605330842E+03  0.31391780279E+03  0.00000000000E+00 0.  1.
        -11    1    3    3    0    0  0.98257748085E+02 -0.66263737697E+02 -0.41593418962E+01  0.11858654273E+03  0.00000000000E+00 0.  1.
         11    1    3    3    0    0  0.57789874311E+01 -0.25949785702E+02  0.44548608866E+02  0.51878383028E+02  0.00000000000E+00 0. -1.
         21    1    1    2  503  502  0.18273658665E+02  0.32034890540E+02 -0.63817699251E+02  0.73707934109E+02  0.00000000000E+00 0. -1.
          2    1    1    2  501    0  0.19798431327E+03  0.12296667917E+03  0.23227648654E+02  0.23421809526E+03  0.00000000000E+00 0. -1.
<scales pt_clust_5="13000.00000" pt_clust_6="13000.00000" pt_clust_7="13000.00000" pt_clust_8="13000.00000" pt_clust_9="36.88036" pt_clust_10="274.12709"></scales>
<clustering>
<clus scale="   36.880">  2  9  1 -1</clus>
<clus scale="   81.450">  5  6 -1 -1</clus>
<clus scale="   90.000">  7  8 -1 -1</clus>
<clus scale="  164.673">  1  7  2 -1</clus>
<clus scale="  274.127">  2 10  1 -1</clus>
<clus scale="   36.880">  2  5  1 -1</clus>
</clustering>
</event>
<event>
10    3  0.5078224E-005  0.4222270E+03  0.7546771E-02  0.1091041E+00
         -2   -1    0    0    0  501 -0.00000000000E+00  0.00000000000E+00  0.59714099030E+03  0.59714099030E+03  0.00000000000E+00 0.  1.
         21   -1    0    0  501  502  0.00000000000E+00 -0.00000000000E+00 -0.44489084448E+03  0.44489084448E+03  0.00000000000E+00 0.  1.
        -24    2    1    2    0    0  0.40828796611E+02  0.61718595503E+01  0.88328934077E+02  0.12772752440E+03  0.82505984098E+02 0.  0.
         23    2    1    2    0    0  0.21803336816E+03 -0.33496885455E+03  0.21659082929E+03  0.46352918482E+03  0.90581646597E+02 0.  0.
         11    1    3    3    0    0  0.21952164130E+02 -0.30413459025E+02  0.76001778495E+02  0.84753444380E+02  0.00000000000E+00 0. -1.
        -12    1    3    3    0    0  0.18876632481E+02  0.36585318575E+02  0.12327155582E+02  0.42974080023E+02  0.00000000000E+00 0.  1.
        -11    1    4    4    0    0  0.16264394781E+03 -0.18038911076E+03  0.10276230957E+03  0.26372974294E+03  0.00000000000E+00 0.  1.
         11    1    4    4    0    0  0.55389420344E+02 -0.15457974379E+03  0.11382851972E+03  0.19979944189E+03  0.00000000000E+00 0. -1.
         21    1    1    2  503  502 -0.10621657993E+03  0.10129863085E+03 -0.80774647015E+02  0.16753482643E+03  0.00000000000E+00 0.  1.
         -1    1    1    2    0  503 -0.15264558483E+03  0.22749836415E+03 -0.71894970540E+02  0.28324029913E+03  0.00000000000E+00 0.  1.
<scales pt_clust_5="13000.00000" pt_clust_6="13000.00000" pt_clust_7="13000.00000" pt_clust_8="13000.00000" pt_clust_9="50.56883" pt_clust_10="418.14319"></scales>
<clustering>
<clus scale="   50.569">  9 10 -1 -1</clus>
<clus scale="   82.506">  5  6 -1 -1</clus>
<clus scale="   90.582">  7  8 -1 -1</clus>
<clus scale="   92.262">  1  5  2 -1</clus>
<clus scale="  418.143">  2  9  1 -1</clus>
<clus scale="  418.143">  2  5  1 -1</clus>
</clustering>
</event>
<event>
10    3  0.5078224E-005  0.2747872E+03  0.7546771E-02  0.1098571E+00
         21   -1    0    0  503  502  0.00000000000E+00  0.00000000000E+00  0.10518280246E+04  0.10518280246E+04  0.00000000000E+00 0.  1.
         -2   -1    0    0    0  501 -0.00000000000E+00 -0.00000000000E+00 -0.20320237228E+03  0.20320237228E+03  0.00000000000E+00 0.  1.
        -24    2    1    2    0    0 -0.45685518917E+02  0.94709633068E+02  0.34642786367E+02  0.13673464806E+03  0.80244377364E+02 0.  0.
         23    2    1    2    0    0  0.25065125088E+02  0.90244991863E+02  0.82987085906E+02  0.15829040554E+03  0.96935942804E+02 0.  0.
         13    1    3    3    0    0  0.17073240183E+02  0.11468524818E+02 -0.10545800958E+02  0.23113556837E+02  0.00000000000E+00 0. -1.
        -14    1    3    3    0    0 -0.62758759100E+02  0.83241108250E+02  0.45188587325E+02  0.11362109122E+03  0.00000000000E+00 0.  1.
        -11    1    4    4    0    0 -0.18604655251E+02  0.42217978115E+02  0.81154780690E+02  0.93351964639E+02  0.00000000000E+00 0. -1.
         11    1    4    4    0    0  0.43669780340E+02  0.48027013749E+02  0.18323052162E+01  0.64938440903E+02  0.00000000000E+00 0.  1.
         21    1    1    2  503  501  0.86707636296E+02 -0.20639654982E+03  0.81833337191E+03  0.84840276847E+03  0.00000000000E+00 0.  1.
         -1    1    1    2    0  502 -0.66087242467E+02  0.21441924893E+02 -0.87337591834E+02  0.11160257482E+03  0.00000000000E+00 0.  1.
<scales pt_clust_5="13000.00000" pt_clust_6="13000.00000" pt_clust_7="13000.00000" pt_clust_8="13000.00000" pt_clust_9="192.19369" pt_clust_10="69.47866"></scales>
<clustering>
<clus scale="   69.479">  1 10  2 -1</clus>
<clus scale="   80.244">  5  6 -1 -1</clus>
<clus scale="   96.936">  7  8 -1 -1</clus>
<clus scale="  118.572">  5  7 -1 -1</clus>
<clus scale="  192.194">  1  9  2 -1</clus>
<clus scale="   69.479">  1  5  2 -1</clus>
</clustering>
</event>
<event>
10    3  0.5078224E-005  0.1215619E+03  0.7546771E-02  0.1244693E+00
         21   -1    0    0  501  502  0.00000000000E+00  0.00000000000E+00  0.19038720367E+03  0.19038720367E+03  0.00000000000E+00 0.  1.
          3   -1    0    0  503    0 -0.00000000000E+00 -0.00000000000E+00 -0.40912117814E+03  0.40912117814E+03  0.00000000000E+00 0. -1.
         23    2    1    2    0    0  0.87217960088E+02  0.48143187222E+02 -0.21408763656E+03  0.25400913890E+03  0.93607625110E+02 0.  0.
        -24    2    1    2    0    0 -0.14396312351E+02 -0.47902602748E+02 -0.28542876752E+02  0.98970851137E+02  0.80489877638E+02 0.  0.
         11    1    4    4    0    0 -0.12178676884E+02 -0.27952862103E+02 -0.56707736431E+02  0.64385169423E+02  0.00000000000E+00 0. -1.
        -12    1    4    4    0    0 -0.22176354674E+01 -0.19949740645E+02  0.28164859680E+02  0.34585681714E+02  0.00000000000E+00 0.  1.
        -11    1    3    3    0    0 -0.91760895478E+01  0.34045164598E+02 -0.87035642886E+02  0.93906746214E+02  0.00000000000E+00 0.  1.
         11    1    3    3    0    0  0.96394049636E+02  0.14098022624E+02 -0.12705199368E+03  0.16010239269E+03  0.00000000000E+00 0. -1.
         21    1    1    2  503  502 -0.52152850218E+02  0.27222187106E+01  0.12910525720E+03  0.13926771951E+03  0.00000000000E+00 0.  1.
          4    1    1    2  501    0 -0.20668797519E+02 -0.29628031842E+01 -0.10520871836E+03  0.10726067226E+03  0.00000000000E+00 0. -1.
<scales pt_clust_5="13000.00000" pt_clust_6="13000.00000" pt_clust_7="13000.00000" pt_clust_8="13000.00000" pt_clust_9="66.80222" pt_clust_10="20.88008"></scales>
<clustering>
<clus scale="   20.880">  1 10  2 -1</clus>
<clus scale="   66.802">  1  9  2 -1</clus>
<clus scale="   80.490">  5  6 -1 -1</clus>
<clus scale="   93.608">  7  8 -1 -1</clus>
<clus scale="  111.775">  1  5  2 -1</clus>
<clus scale="   20.880">  1  5  2 -1</clus>
</clustering>
</event>
<event>
10    3  0.5078224E-005  0.1099536E+03  0.7546771E-02  0.1264802E+00
         -2   -1    0    0    0  501 -0.00000000000E+00  0.00000000000E+00  0.56017513347E+03  0.56017513347E+03  0.00000000000E+00 0.  1.
         21   -1    0    0  503  502  0.00000000000E+00 -0.00000000000E+00 -0.75519767033E+02  0.75519767033E+02  0.00000000000E+00 0. -1.
         23    2    1    2    0    0  0.36389325972E+01  0.43674314727E+02  0.17207431540E+03  0.19932422119E+03  0.90553230388E+02 0.  0.
        -24    2    1    2    0    0 -0.79699438493E+02 -0.48742604887E+02  0.26689723153E+03  0.29385538674E+03  0.79931308604E+02 0.  0.
         11    1    4    4    0    0 -0.88093670499E+02 -0.27220774629E+02  0.24597454514E+03  0.26268791790E+03  0.00000000000E+00 0. -1.
        -12    1    4    4    0    0  0.83942320058E+01 -0.21521830258E+02  0.20922686387E+02  0.31167468846E+02  0.00000000000E+00 0.  1.
        -13    1    3    3    0    0  0.32054203922E+02  0.85880159029E+01  0.14015793974E+03  0.14403289234E+03  0.00000000000E+00 0.  1.
         13    1    3    3    0    0 -0.28415271324E+02  0.35086298824E+02  0.31916375668E+02  0.55291328845E+02  0.00000000000E+00 0. -1.
         21    1    1    2  503  501  0.27924352617E+02  0.30301517803E+02 -0.28827345700E+02  0.50288838825E+02  0.00000000000E+00 0. -1.
         -1    1    1    2    0  502  0.48136153279E+02 -0.25233227643E+02  0.74511165207E+02  0.92226453744E+02  0.00000000000E+00 0.  1.
<scales pt_clust_5="13000.00000" pt_clust_6="13000.00000" pt_clust_7="13000.00000" pt_clust_8="13000.00000" pt_clust_9="41.20621" pt_clust_10="57.81279"></scales>
<clustering>
<clus scale="   41.206">  2  9  1 -1</clus>
<clus scale="   57.813">  2 10  1 -1</clus>
<clus scale="   79.931">  5  6 -1 -1</clus>
<clus scale="   90.553">  7  8 -1 -1</clus>
<clus scale="  101.385">  2  5  1 -1</clus>
<clus scale="   41.206">  2  5  1 -1</clus>
</clustering>
</event>
<event>
10    3  0.5078224E-005  0.3194669E+03  0.7546771E-02  0.1127631E+00
         -2   -1    0    0    0  501 -0.00000000000E+00  0.00000000000E+00  0.17114984470E+04  0.17114984470E+04  0.00000000000E+00 0.  1.
         21   -1    0    0  501  502  0.00000000000E+00 -0.00000000000E+00 -0.30507196609E+03  0.30507196609E+03  0.00000000000E+00 0.  1.
        -24    2    1    2    0    0  0.22290827285E+02  0.43959820618E+01  0.35294482170E+03  0.36258562502E+03  0.79887938152E+02 0.  0.
         23    2    1    2    0    0 -0.30082098007E+03  0.11140922869E+03  0.50394702411E+03  0.60425680729E+03  0.90875782014E+02 0.  0.
         11    1    3    3    0    0  0.30398775680E+02  0.24003462182E+02  0.80686162501E+02  0.89501444562E+02  0.00000000000E+00 0. -1.
        -12    1    3    3    0    0 -0.81079483946E+01 -0.19607480120E+02  0.27225865920E+03  0.27308418045E+03  0.00000000000E+00 0.  1.
        -11    1    4    4    0    0 -0.17133061803E+03  0.32095959393E+02  0.20605260712E+03  0.26989258638E+03  0.00000000000E+00 0.  1.
         11    1    4    4    0    0 -0.12949036204E+03  0.79313269295E+02  0.29789441699E+03  0.33436422091E+03  0.00000000000E+00 0. -1.
         21    1    1    2  503  502  0.31872990556E+02  0.44460645354E+02 -0.21957515259E+03  0.22628717185E+03  0.00000000000E+00 0.  1.
         -1    1    1    2    0  503  0.24665716223E+03 -0.16026585610E+03  0.76910978769E+03  0.82344080895E+03  0.00000000000E+00 0.  1.
<scales pt_clust_5="13000.00000" pt_clust_6="13000.00000" pt_clust_7="13000.00000" pt_clust_8="13000.00000" pt_clust_9="54.70500" pt_clust_10="306.26919"></scales>
<clustering>
<clus scale="   54.705">  2  9  1 -1</clus>
<clus scale="   79.888">  5  6 -1 -1</clus>
<clus scale="   83.755">  1  5  2 -1</clus>
<clus scale="   90.876">  7  8 -1 -1</clus>
<clus scale="  306.269">  2 10  1 -1</clus>
<clus scale="   54.705">  2  5  1 -1</clus>
</clustering>
</event>
<event>
10    3  0.5078224E-005  0.2717173E+03  0.7546771E-02  0.1100301E+00
          1   -1    0    0  503    0 -0.00000000000E+00  0.00000000000E+00  0.85341834821E+03  0.85341834821E+03  0.00000000000E+00 0. -1.
         21   -1    0    0  501  502  0.00000000000E+00 -0.00000000000E+00 -0.12764861523E+03  0.12764861523E+03  0.00000000000E+00 0.  1.
        -24    2    1    2    0    0  0.14058320266E+03  0.10456211786E+02  0.21736288623E+03  0.27083126676E+03  0.78930231892E+02 0.  0.
         23    2    1    2    0    0  0.57742184383E+02 -0.40250383129E+02  0.16281918553E+03  0.19902960992E+03  0.90268739056E+02 0.  0.
         11    1    3    3    0    0  0.73750281015E+01 -0.22849756651E+02  0.27270540492E+02  0.36334347349E+02  0.00000000000E+00 0. -1.
        -12    1    3    3    0    0  0.13320817456E+03  0.33305968437E+02  0.19009234574E+03  0.23449691941E+03  0.00000000000E+00 0.  1.
        -13    1    4    4    0    0  0.74722806116E+02 -0.52546122522E+02  0.14567617230E+03  0.17194807333E+03  0.00000000000E+00 0.  1.
         13    1    4    4    0    0 -0.16980621733E+02  0.12295739393E+02  0.17143013224E+02  0.27081536589E+02  0.00000000000E+00 0. -1.
         21    1    1    2  503  502 -0.15676613542E+02 -0.30885620197E+02 -0.56019520881E+02  0.65862466298E+02  0.00000000000E+00 0.  1.
          2    1    1    2  501    0 -0.18264877350E+03  0.60679791540E+02  0.40160718210E+03  0.44534362046E+03  0.00000000000E+00 0. -1.
<scales pt_clust_5="13000.00000" pt_clust_6="13000.00000" pt_clust_7="13000.00000" pt_clust_8="13000.00000" pt_clust_9="34.63636" pt_clust_10="194.47397"></scales>
<clustering>
<clus scale="   34.636">  2  9  1 -1</clus>
<clus scale="   78.930">  5  6 -1 -1</clus>
<clus scale="   90.269">  7  8 -1 -1</clus>
<clus scale="  103.854">  5  7 -1 -1</clus>
<clus scale="  194.474">  2 10  1 -1</clus>
<clus scale="   34.636">  2  5  1 -1</clus>
</clustering>
</event>
<event>
10    3  0.5078224E-005  0.2452910E+03  0.7546771E-02  0.1163861E+00
         21   -1    0    0  501  502  0.00000000000E+00  0.00000000000E+00  0.19845639430E+03  0.19845639430E+03  0.00000000000E+00 0. -1.
          3   -1    0    0  503    0 -0.00000000000E+00 -0.00000000000E+00 -0.60946994425E+03  0.60946994425E+03  0.00000000000E+00 0. -1.
         23    2    1    2    0    0  0.24166642105E+02  0.14813361241E+02  0.17639385903E+02  0.79863211116E+02  0.72550136408E+02 0.  0.
        -24    2    1    2    0    0  0.21574034782E+03 -0.28866044862E+02 -0.26860047142E+03  0.35498639663E+03  0.80572838632E+02 0.  0.
         11    1    4    4    0    0  0.14732174880E+03 -0.46451360988E+02 -0.22164235044E+03  0.27016061541E+03  0.00000000000E+00 0. -1.
        -12    1    4    4    0    0  0.68418599021E+02  0.17585316126E+02 -0.46958120973E+02  0.84825781225E+02  0.00000000000E+00 0.  1.
        -13    1    3    3    0    0 -0.37437360944E+01  0.19793726180E+02 -0.22832602855E+02  0.30448890113E+02  0.00000000000E+00 0.  1.
         13    1    3    3    0    0  0.27910378200E+02 -0.49803649381E+01  0.40471988758E+02  0.49414321003E+02  0.00000000000E+00 0. -1.
         21    1    1    2  503  502 -0.24176167477E+03 -0.70060732133E+02 -0.10627634868E+03  0.27322495469E+03  0.00000000000E+00 0. -1.
          4    1    1    2  501    0  0.18546848465E+01  0.84113415754E+02 -0.53776115759E+02  0.99851776108E+02  0.00000000000E+00 0. -1.
<scales pt_clust_5="13000.00000" pt_clust_6="13000.00000" pt_clust_7="13000.00000" pt_clust_8="13000.00000" pt_clust_9="231.68020" pt_clust_10="86.22968"></scales>
<clustering>
<clus scale="   72.550">  7  8 -1 -1</clus>
<clus scale="   77.891">  2  7  1 -1</clus>
<clus scale="   80.573">  5  6 -1 -1</clus>
<clus scale="   86.230">  1 10  2 -1</clus>
<clus scale="  231.680">  1  9  2 -1</clus>
<clus scale="   86.230">  1  5  2 -1</clus>
</clustering>
</event>
<event>
10    3  0.5078224E-005  0.1022028E+03  0.7546771E-02  0.1281178E+00
         21   -1    0    0  501  502  0.00000000000E+00  0.00000000000E+00  0.45495111459E+02  0.45495111459E+02  0.00000000000E+00 0. -1.
          1   -1    0    0  503    0 -0.00000000000E+00 -0.00000000000E+00 -0.12654235747E+04  0.12654235747E+04  0.00000000000E+00 0. -1.
        -24    2    1    2    0    0 -0.69245932316E+01 -0.61287065453E+02 -0.82331934358E+03  0.82950406302E+03  0.80113635985E+02 0.  0.
         23    2    1    2    0    0 -0.57259320717E+02  0.67193401805E+02 -0.32535066801E+03  0.34366329464E+03  0.66766906864E+02 0.  0.
         11    1    3    3    0    0 -0.34487293592E+02 -0.97816733073E+01 -0.17980163688E+03  0.18334034793E+03  0.00000000000E+00 0. -1.
        -12    1    3    3    0    0  0.27562700360E+02 -0.51505392145E+02 -0.64351770669E+03  0.64616371509E+03  0.00000000000E+00 0.  1.
        -11    1    4    4    0    0  0.85930705432E+01  0.34828813410E+02 -0.82306630591E+02  0.89784567405E+02  0.00000000000E+00 0.  1.
         11    1    4    4    0    0 -0.65852391260E+02  0.32364588395E+02 -0.24304403742E+03  0.25387872723E+03  0.00000000000E+00 0. -1.
         21    1    1    2  503  502 -0.13724318985E+02 -0.30704032407E+02 -0.85193644320E+01  0.34694006802E+02  0.00000000000E+00 0. -1.
          2    1    1    2  501    0  0.77908232933E+02  0.24797696055E+02 -0.62739087192E+02  0.10305732167E+03  0.00000000000E+00 0. -1.
<scales pt_clust_5="13000.00000" pt_clust_6="13000.00000" pt_clust_7="13000.00000" pt_clust_8="13000.00000" pt_clust_9="33.63175" pt_clust_10="69.60473"></scales>
<clustering>
<clus scale="   33.632">  1  9  2 -1</clus>
<clus scale="   66.767">  7  8 -1 -1</clus>
<clus scale="   69.605">  1 10  2 -1</clus>
<clus scale="   80.114">  5  6 -1 -1</clus>
<clus scale="   92.114">  1  7  2 -1</clus>
<clus scale="   33.632">  1  5  2 -1</clus>
</clustering>
</event>
<event>
10    3  0.5078224E-005  0.1952545E+03  0.7546771E-02  0.1177699E+00
         21   -1    0    0  503  502  0.00000000000E+00  0.00000000000E+00  0.32428004595E+03  0.32428004595E+03  0.00000000000E+00 0. -1.
          3   -1    0    0  502    0 -0.00000000000E+00 -0.00000000000E+00 -0.32937539703E+03  0.32937539703E+03  0.00000000000E+00 0. -1.
         23    2    1    2    0    0  0.60125614741E+02  0.33960797380E+02 -0.14902320590E+03  0.18739030894E+03  0.90215224225E+02 0.  0.
        -24    2    1    2    0    0  0.11793497686E+03 -0.13659511891E+03  0.13929697985E+03  0.24376560694E+03  0.86319970193E+02 0.  0.
         11    1    4    4    0    0  0.11153511070E+03 -0.12972528531E+03  0.89473845598E+02  0.19306553192E+03  0.00000000000E+00 0. -1.
        -12    1    4    4    0    0  0.63998661606E+01 -0.68698335958E+01  0.49823134253E+02  0.50700075022E+02  0.00000000000E+00 0.  1.
        -11    1    3    3    0    0  0.21919547268E+02 -0.29046730899E+02 -0.72715037059E+02  0.81312088540E+02  0.00000000000E+00 0.  1.
         11    1    3    3    0    0  0.38206067474E+02  0.63007528279E+02 -0.76308168840E+02  0.10607822040E+03  0.00000000000E+00 0. -1.
         21    1    1    2  503  501 -0.27621092203E+02 -0.45553038881E+01  0.23857426162E+02  0.36781140698E+02  0.00000000000E+00 0.  1.
          4    1    1    2  501    0 -0.15043949940E+03  0.10718962542E+03 -0.19226551193E+02  0.18571838640E+03  0.00000000000E+00 0. -1.
<scales pt_clust_5="13000.00000" pt_clust_6="13000.00000" pt_clust_7="13000.00000" pt_clust_8="13000.00000" pt_clust_9="27.99421" pt_clust_10="175.13772"></scales>
<clustering>
<clus scale="   27.994">  1  9  2 -1</clus>
<clus scale="   86.320">  5  6 -1 -1</clus>
<clus scale="   90.215">  7  8 -1 -1</clus>
<clus scale="  112.577">  2  7  1 -1</clus>
<clus scale="  175.138">  1 10  2 -1</clus>
<clus scale="   27.994">  1  5  2 -1</clus>
</clustering>
</event>
<event>
10    3  0.5078224E-005  0.1117413E+03  0.7546771E-02  0.1265153E+00
         21   -1    0    0  503  502  0.00000000000E+00  0.00000000000E+00  0.43711362166E+03  0.43711362166E+03  0.00000000000E+00 0.  1.
         -4   -1    0    0    0  501 -0.00000000000E+00 -0.00000000000E+00 -0.79189557057E+02  0.79189557057E+02  0.00000000000E+00 0.  1.
         23    2    1    2    0    0 -0.45809533970E+02  0.26441735902E+02 -0.11351112990E+02  0.11224345002E+03  0.98346659869E+02 0.  0.
        -24    2    1    2    0    0  0.50846989428E+02 -0.19827378936E+02  0.31532051801E+03  0.32984199652E+03  0.79938553261E+02 0.  0.
         13    1    4    4    0    0  0.60385852562E+02 -0.94628313208E+01  0.12645937299E+03  0.14045628994E+03  0.00000000000E+00 0. -1.
        -14    1    4    4    0    0 -0.95388631343E+01 -0.10364547615E+02  0.18886114502E+03  0.18938570658E+03  0.00000000000E+00 0.  1.
        -11    1    3    3    0    0 -0.69422999311E+02  0.30800790879E+02 -0.30183571046E+02  0.81726920371E+02  0.00000000000E+00 0.  1.
         11    1    3    3    0    0  0.23613465341E+02 -0.43590549777E+01  0.18832458056E+02  0.30516529654E+02  0.00000000000E+00 0. -1.
         21    1    1    2  503  501 -0.17693905163E+02  0.11615026747E+02  0.46012445731E+02  0.50647095558E+02  0.00000000000E+00 0.  1.
         -3    1    1    2    0  502  0.12656449705E+02 -0.18229383713E+02  0.79422138472E+01  0.23570636616E+02  0.00000000000E+00 0.  1.
<scales pt_clust_5="13000.00000" pt_clust_6="13000.00000" pt_clust_7="13000.00000" pt_clust_8="13000.00000" pt_clust_9="21.16561" pt_clust_10="21.39903"></scales>
<clustering>
<clus scale="   21.166">  1  9  2 -1</clus>
<clus scale="   21.399">  1 10  2 -1</clus>
<clus scale="   79.939">  5  6 -1 -1</clus>
<clus scale="   95.939">  1  5  2 -1</clus>
<clus scale="   98.347">  7  8 -1 -1</clus>
<clus scale="   21.166">  1  5  2 -1</clus>
</clustering>
</event>
<event>
10    3  0.5078224E-005  0.3180496E+03  0.7546771E-02  0.1109710E+00
         21   -1    0    0  501  502  0.00000000000E+00  0.00000000000E+00  0.86076412324E+03  0.86076412324E+03  0.00000000000E+00 0.  1.
         -2   -1    0    0    0  501 -0.00000000000E+00 -0.00000000000E+00 -0.22476361308E+03  0.22476361308E+03  0.00000000000E+00 0.  1.
        -24    2    1    2    0    0  0.61490876642E+02 -0.88897131556E+02  0.20869220935E+02  0.13568375869E+03  0.79314122827E+02 0.  0.
         23    2    1    2    0    0  0.26713500854E+03  0.35899885133E+02  0.14434852904E+03  0.31896321215E+03  0.90835666594E+02 0.  0.
         13    1    3    3    0    0  0.21824951834E+02 -0.17685212208E+02  0.42869424065E+02  0.51253124520E+02  0.00000000000E+00 0. -1.
        -14    1    3    3    0    0  0.39665924808E+02 -0.71211919347E+02 -0.22000203130E+02  0.84430634167E+02  0.00000000000E+00 0.  1.
        -11    1    4    4    0    0  0.24670976058E+03  0.48385685442E+01  0.13164401646E+03  0.27967707232E+03  0.00000000000E+00 0.  1.
         11    1    4    4    0    0  0.20425247956E+02  0.31061316589E+02  0.12704512581E+02  0.39286139824E+02  0.00000000000E+00 0. -1.
         21    1    1    2  503  502  0.11165855957E+02  0.21688593423E+02  0.18265138201E+03  0.18427316346E+03  0.00000000000E+00 0. -1.
         -1    1    1    2    0  503 -0.33979174114E+03  0.31308653000E+02  0.28813137817E+03  0.44660760202E+03  0.00000000000E+00 0.  1.
<scales pt_clust_5="13000.00000" pt_clust_6="13000.00000" pt_clust_7="13000.00000" pt_clust_8="13000.00000" pt_clust_9="24.39409" pt_clust_10="304.80228"></scales>
<clustering>
<clus scale="   24.394">  1  9  2 -1</clus>
<clus scale="   79.314">  5  6 -1 -1</clus>
<clus scale="   90.836">  7  8 -1 -1</clus>
<clus scale="  133.025">  2  5  1 -1</clus>
<clus scale="  304.802">  1 10  2 -1</clus>
<clus scale="   24.394">  1  5  2 -1</clus>
</clustering>
</event>
<event>
10    3  0.5078224E-005  0.1797795E+03  0.7546771E-02  0.1191636E+00
          1   -1    0    0  503    0 -0.00000000000E+00  0.00000000000E+00  0.26284197584E+03  0.26284197584E+03  0.00000000000E+00 0. -1.
         21   -1    0    0  501  502  0.00000000000E+00 -0.00000000000E+00 -0.25951651076E+03  0.25951651076E+03  0.00000000000E+00 0. -1.
         23    2    1    2    0    0  0.19319750254E+02 -0.45610849005E+02 -0.48490348646E+02  0.11472212191E+03  0.91412521281E+02 0.  0.
        -24    2    1    2    0    0  0.14183376898E+03 -0.16065094887E+02 -0.13026179831E+02  0.16260621234E+03  0.76786676137E+02 0.  0.
         13    1    4    4    0    0  0.14395312746E+03 -0.30786872105E+02 -0.12039135924E+02  0.14769994988E+03  0.00000000000E+00 0. -1.
        -14    1    4    4    0    0 -0.21193584803E+01  0.14721777218E+02 -0.98704390743E+00  0.14906262459E+02  0.00000000000E+00 0.  1.
        -11    1    3    3    0    0  0.39985671743E+02  0.52567409522E+01 -0.43918937489E+02  0.59626842448E+02  0.00000000000E+00 0.  1.
         11    1    3    3    0    0 -0.20665921490E+02 -0.50867589957E+02 -0.45714111575E+01  0.55095279462E+02  0.00000000000E+00 0. -1.
         21    1    1    2  503  502  0.20033327025E+02 -0.11357928529E+01 -0.25994939637E+02  0.32838408972E+02  0.00000000000E+00 0.  1.
          2    1    1    2  501    0 -0.18118684626E+03  0.62811736745E+02  0.90836933193E+02  0.21219174339E+03  0.00000000000E+00 0. -1.
<scales pt_clust_5="13000.00000" pt_clust_6="13000.00000" pt_clust_7="13000.00000" pt_clust_8="13000.00000" pt_clust_9="20.06550" pt_clust_10="162.55612"></scales>
<clustering>
<clus scale="   20.065">  2  9  1 -1</clus>
<clus scale="   76.787">  5  6 -1 -1</clus>
<clus scale="   91.413">  7  8 -1 -1</clus>
<clus scale="  105.697">  1  7  2 -1</clus>
<clus scale="  162.556">  2 10  1 -1</clus>
<clus scale="   20.065">  2  5  1 -1</clus>
</clustering>
</event>
<event>
10    3  0.5078224E-005  0.1703391E+03  0.7546771E-02  0.1200982E+00
         21   -1    0    0  503  502  0.00000000000E+00  0.00000000000E+00  0.33490729346E+03  0.33490729346E+03  0.00000000000E+00 0. -1.
          3   -1    0    0  502    0 -0.00000000000E+00 -0.00000000000E+00 -0.37988510405E+03  0.37988510405E+03  0.00000000000E+00 0. -1.
        -24    2    1    2    0    0  0.19048889102E+02 -0.42170530097E+02  0.64449792434E+02  0.11302202076E+03  0.80492158920E+02 0.  0.
         23    2    1    2    0    0 -0.32655590541E+01 -0.99862680534E+02 -0.25318748942E+03  0.28699080453E+03  0.90975811326E+02 0.  0.
         13    1    3    3    0    0  0.49011209230E+02 -0.38932296274E+02  0.40832941721E+02  0.74733870855E+02  0.00000000000E+00 0. -1.
        -14    1    3    3    0    0 -0.29962320128E+02 -0.32382338227E+01  0.23616850712E+02  0.38288149907E+02  0.00000000000E+00 0.  1.
        -11    1    4    4    0    0  0.36585711959E+02 -0.76589638978E+02 -0.19538536938E+03  0.21302565499E+03  0.00000000000E+00 0.  1.
         11    1    4    4    0    0 -0.39851271013E+02 -0.23273041556E+02 -0.57802120045E+02  0.73965149539E+02  0.00000000000E+00 0. -1.
         21    1    1    2  503  501  0.34293622324E+02 -0.18005759745E+02  0.14188656164E+03  0.14707840185E+03  0.00000000000E+00 0. -1.
          4    1    1    2  501    0 -0.50076952372E+02  0.16003897038E+03  0.18733247536E+01  0.16770117037E+03  0.00000000000E+00 0. -1.
<scales pt_clust_5="13000.00000" pt_clust_6="13000.00000" pt_clust_7="13000.00000" pt_clust_8="13000.00000" pt_clust_9="38.73319" pt_clust_10="144.00979"></scales>
<clustering>
<clus scale="   38.733">  1  9  2 -1</clus>
<clus scale="   80.492">  5  6 -1 -1</clus>
<clus scale="   90.976">  7  8 -1 -1</clus>
<clus scale="  101.304">  2  5  1 -1</clus>
<clus scale="  144.010">  1 10  2 -1</clus>
<clus scale="   38.733">  1  5  2 -1</clus>
</clustering>
</event>
<event>
10    3  0.5078224E-005  0.1312410E+03  0.7546771E-02  0.1228413E+00
         21   -1    0    0  503  502  0.00000000000E+00  0.00000000000E+00  0.28425340379E+03  0.28425340379E+03  0.00000000000E+00 0. -1.
          1   -1    0    0  502    0 -0.00000000000E+00 -0.00000000000E+00 -0.14759161247E+03  0.14759161247E+03  0.00000000000E+00 0. -1.
        -24    2    1    2    0    0  0.64323719150E+02  0.10581839574E+03 -0.59249365744E+01  0.14806273329E+03  0.80946861543E+02 0.  0.
         23    2    1    2    0    0 -0.41799112742E+02 -0.27752801360E+02  0.87514074228E+02  0.13641873561E+03  0.91836672560E+02 0.  0.
         11    1    3    3    0    0  0.25657649077E+02  0.10356550103E+03 -0.16376030827E+02  0.10794583061E+03  0.00000000000E+00 0. -1.
        -12    1    3    3    0    0  0.38666070073E+02  0.22528947043E+01  0.10451094253E+02  0.40116902679E+02  0.00000000000E+00 0.  1.
        -13    1    4    4    0    0 -0.19138603305E+01  0.20526143823E+02 -0.80772189309E+01  0.22141068340E+02  0.00000000000E+00 0.  1.
         13    1    4    4    0    0 -0.39885252411E+02 -0.48278945182E+02  0.95591293159E+02  0.11427766727E+03  0.00000000000E+00 0. -1.
         21    1    1    2  503  501  0.17589285116E+01  0.27905506377E+02  0.10660868473E+02  0.29924325093E+02  0.00000000000E+00 0. -1.
          2    1    1    2  501    0 -0.24283534920E+02 -0.10597110075E+03  0.44411785194E+02  0.11743922227E+03  0.00000000000E+00 0. -1.
<scales pt_clust_5="13000.00000" pt_clust_6="13000.00000" pt_clust_7="13000.00000" pt_clust_8="13000.00000" pt_clust_9="27.96089" pt_clust_10="100.26777"></scales>
<clustering>
<clus scale="   27.961">  1  9  2 -1</clus>
<clus scale="   80.947">  5  6 -1 -1</clus>
<clus scale="   91.837">  7  8 -1 -1</clus>
<clus scale="  100.268">  1 10  2 -1</clus>
<clus scale="  123.865">  2  5  1 -1</clus>
<clus scale="   27.961">  1  5  2 -1</clus>
</clustering>
</event>
<event>
10    3  0.5078224E-005  0.1435553E+03  0.7546771E-02  0.1210520E+00
          1   -1    0    0  502    0 -0.00000000000E+00  0.00000000000E+00  0.12473423961E+04  0.12473423961E+04  0.00000000000E+00 0. -1.
         21   -1    0    0  503  502  0.00000000000E+00 -0.00000000000E+00 -0.46341238343E+02  0.46341238343E+02  0.00000000000E+00 0. -1.
         23    2    1    2    0    0 -0.29044699816E+02  0.90620368298E+02  0.45924035427E+03  0.47757430584E+03  0.90110315055E+02 0.  0.
        -24    2    1    2    0    0  0.15148134943E+03 -0.97394706523E+02  0.37897565376E+03  0.42728234359E+03  0.80717575025E+02 0.  0.
         13    1    4    4    0    0  0.13151868950E+03 -0.10499954731E+03  0.36450690737E+03  0.40148145181E+03  0.00000000000E+00 0. -1.
        -14    1    4    4    0    0  0.19962659930E+02  0.76048407840E+01  0.14468746386E+02  0.25800891783E+02  0.00000000000E+00 0.  1.
        -11    1    3    3    0    0  0.30131992150E+02  0.51864898352E+02  0.22782452362E+03  0.23558845089E+03  0.00000000000E+00 0. -1.
         11    1    3    3    0    0 -0.59176691966E+02  0.38755469946E+02  0.23141583065E+03  0.24198585495E+03  0.00000000000E+00 0.  1.
         21    1    1    2  503  501 -0.32927471179E+02 -0.32000905466E+01  0.32098525005E+02  0.46095273568E+02  0.00000000000E+00 0. -1.
          2    1    1    2  501    0 -0.89509178436E+02  0.99744287720E+01  0.33068662473E+03  0.34273171145E+03  0.00000000000E+00 0. -1.
<scales pt_clust_5="13000.00000" pt_clust_6="13000.00000" pt_clust_7="13000.00000" pt_clust_8="13000.00000" pt_clust_9="33.08261" pt_clust_10="95.02423"></scales>
<clustering>
<clus scale="   33.083">  2  9  1 -1</clus>
<clus scale="   80.718">  5  6 -1 -1</clus>
<clus scale="   90.110">  7  8 -1 -1</clus>
<clus scale="   95.024">  2 10  1 -1</clus>
<clus scale="  137.853">  2  5  1 -1</clus>
<clus scale="   33.083">  2  5  1 -1</clus>
</clustering>
</event>
<event>
10    3  0.5078224E-005  0.1510916E+03  0.7546771E-02  0.1225556E+00
          1   -1    0    0  503    0 -0.00000000000E+00  0.00000000000E+00  0.53298172502E+03  0.53298172502E+03  0.00000000000E+00 0. -1.
         21   -1    0    0  501  502  0.00000000000E+00 -0.00000000000E+00 -0.20929819940E+03  0.20929819940E+03  0.00000000000E+00 0.  1.
        -24    2    1    2    0    0  0.46321204842E+01 -0.24031673530E+02  0.12959665518E+03  0.15502494813E+03  0.81476767454E+02 0.  0.
         23    2    1    2    0    0  0.11272776199E+03  0.22782799801E+02  0.34008022653E+02  0.14892415866E+03  0.88290742089E+02 0.  0.
         11    1    3    3    0    0  0.26461476037E+02  0.46723686082E+01  0.11147163674E+03  0.11466458276E+03  0.00000000000E+00 0. -1.
        -12    1    3    3    0    0 -0.21829355553E+02 -0.28704042139E+02  0.18125018443E+02  0.40360365366E+02  0.00000000000E+00 0.  1.
        -11    1    4    4    0    0  0.71319718320E+02  0.44305959005E+02  0.52167070797E+02  0.98847981771E+02  0.00000000000E+00 0.  1.
         11    1    4    4    0    0  0.41408043668E+02 -0.21523159204E+02 -0.18159048144E+02  0.50076176891E+02  0.00000000000E+00 0. -1.
         21    1    1    2  503  502  0.12092346804E+02 -0.21035085864E+02 -0.12347125724E+03  0.12583263111E+03  0.00000000000E+00 0.  1.
          2    1    1    2  501    0 -0.12945222928E+03  0.22283959593E+02  0.28355010502E+03  0.31249818652E+03  0.00000000000E+00 0. -1.
<scales pt_clust_5="13000.00000" pt_clust_6="13000.00000" pt_clust_7="13000.00000" pt_clust_8="13000.00000" pt_clust_9="24.26313" pt_clust_10="122.61086"></scales>
<clustering>
<clus scale="   24.263">  2  9  1 -1</clus>
<clus scale="   81.477">  5  6 -1 -1</clus>
<clus scale="   86.136">  1  5  2 -1</clus>
<clus scale="   88.291">  7  8 -1 -1</clus>
<clus scale="  122.611">  2 10  1 -1</clus>
<clus scale="   24.263">  2  5  1 -1</clus>
</clustering>
</event>
<event>
10    3  0.5078224E-005  0.1109379E+03  0.7546771E-02  0.1263435E+00
         21   -1    0    0  501  502  0.00000000000E+00  0.00000000000E+00  0.10870286818E+03  0.10870286818E+03  0.00000000000E+00 0. -1.
          1   -1    0    0  503    0 -0.00000000000E+00 -0.00000000000E+00 -0.34615950744E+03  0.34615950744E+03  0.00000000000E+00 0. -1.
         23    2    1    2    0    0  0.52842589344E+02 -0.29945698248E+02 -0.10297421259E+03  0.15079501298E+03  0.91904098870E+02 0.  0.
        -24    2    1    2    0    0  0.20458097535E+02  0.96552294290E+02 -0.92090386294E+02  0.15696652427E+03  0.80105999811E+02 0.  0.
         11    1    4    4    0    0  0.45631776834E+02  0.87834833178E+02 -0.62082400823E+02  0.11683938321E+03  0.00000000000E+00 0. -1.
        -12    1    4    4    0    0 -0.25173679298E+02  0.87174611115E+01 -0.30007985471E+02  0.40127141060E+02  0.00000000000E+00 0.  1.
        -11    1    3    3    0    0 -0.22900626714E+02 -0.38403324925E+01 -0.48914622408E+02  0.54146349303E+02  0.00000000000E+00 0.  1.
         11    1    3    3    0    0  0.75743216058E+02 -0.26105365755E+02 -0.54059590187E+02  0.96648663680E+02  0.00000000000E+00 0. -1.
         21    1    1    2  503  502  0.12108312579E+02 -0.17040291764E+02  0.21099304582E+02  0.29701236182E+02  0.00000000000E+00 0.  1.
          2    1    1    2  501    0 -0.85408999458E+02 -0.49566304278E+02 -0.63491344954E+02  0.11739960218E+03  0.00000000000E+00 0. -1.
<scales pt_clust_5="13000.00000" pt_clust_6="13000.00000" pt_clust_7="13000.00000" pt_clust_8="13000.00000" pt_clust_9="20.90413" pt_clust_10="98.35960"></scales>
<clustering>
<clus scale="   20.904">  1  9  2 -1</clus>
<clus scale="   80.106">  5  6 -1 -1</clus>
<clus scale="   91.904">  7  8 -1 -1</clus>
<clus scale="   98.360">  1 10  2 -1</clus>
<clus scale="  101.380">  1  5  2 -1</clus>
<clus scale="   20.904">  1  5  2 -1</clus>
</clustering>
</event>
<event>
10    3  0.5078224E-005  0.1777862E+03  0.7546771E-02  0.1192279E+00
          1   -1    0    0  503    0 -0.00000000000E+00  0.00000000000E+00  0.35509198100E+03  0.35509198100E+03  0.00000000000E+00 0. -1.
         21   -1    0    0  501  502  0.00000000000E+00 -0.00000000000E+00 -0.23112474942E+03  0.23112474942E+03  0.00000000000E+00 0. -1.
        -24    2    1    2    0    0 -0.43707151119E+02 -0.42451799080E+02 -0.10774208499E+02  0.10330483131E+03  0.82724448014E+02 0.  0.
         23    2    1    2    0    0  0.17646945131E+03 -0.23919245238E+02  0.71663241100E+02  0.21069437299E+03  0.86849877056E+02 0.  0.
         13    1    3    3    0    0 -0.46740213845E+02 -0.46562183149E+02  0.22450210214E+02  0.69690002357E+02  0.00000000000E+00 0. -1.
        -14    1    3    3    0    0  0.30330627262E+01  0.41103840687E+01 -0.33224418714E+02  0.33614828953E+02  0.00000000000E+00 0.  1.
        -13    1    4    4    0    0  0.72988398298E+02 -0.19417337365E+02 -0.13346394132E+02  0.76697232758E+02  0.00000000000E+00 0.  1.
         13    1    4    4    0    0  0.10348105301E+03 -0.45019078732E+01  0.85009635232E+02  0.13399714023E+03  0.00000000000E+00 0. -1.
         21    1    1    2  503  502 -0.17641344452E+02 -0.13727288355E+02 -0.73278201095E+02  0.76611684718E+02  0.00000000000E+00 0.  1.
          2    1    1    2  501    0 -0.11512095574E+03  0.80098332673E+02  0.13635640008E+03  0.19560584140E+03  0.00000000000E+00 0. -1.
<scales pt_clust_5="13000.00000" pt_clust_6="13000.00000" pt_clust_7="13000.00000" pt_clust_8="13000.00000" pt_clust_9="22.35297" pt_clust_10="155.12921"></scales>
<clustering>
<clus scale="   22.353">  2  9  1 -1</clus>
<clus scale="   82.724">  5  6 -1 -1</clus>
<clus scale="   86.850">  7  8 -1 -1</clus>
<clus scale="  107.756">  1  5  2 -1</clus>
<clus scale="  155.129">  2 10  1 -1</clus>
<clus scale="   22.353">  2  5  1 -1</clus>
</clustering>
</event>
<event>
10    3  0.5078224E-005  0.1049966E+03  0.7546771E-02  0.1276506E+00
         21   -1    0    0  503  502  0.00000000000E+00  0.00000000000E+00  0.10843028364E+03  0.10843028364E+03  0.00000000000E+00 0.  1.
          1   -1    0    0  502    0 -0.00000000000E+00 -0.00000000000E+00 -0.58213253823E+03  0.58213253823E+03  0.00000000000E+00 0. -1.
        -24    2    1    2    0    0  0.40932208028E+02  0.41463082976E+02 -0.40257561012E+03  0.41470526980E+03  0.80738503994E+02 0.  0.
         23    2    1    2    0    0  0.38618739741E+02 -0.28281684545E+02 -0.96070868544E+02  0.14296463243E+03  0.94435234972E+02 0.  0.
         13    1    3    3    0    0  0.18389961724E+02  0.59490517525E+02 -0.18442212726E+03  0.19465054171E+03  0.00000000000E+00 0. -1.
        -14    1    3    3    0    0  0.22542246303E+02 -0.18027434549E+02 -0.21815348287E+03  0.22005472808E+03  0.00000000000E+00 0.  1.
        -11    1    4    4    0    0 -0.29447669198E+02 -0.25247386124E+01 -0.45817997851E+02  0.54523650404E+02  0.00000000000E+00 0.  1.
         11    1    4    4    0    0  0.68066408939E+02 -0.25756945933E+02 -0.50252870693E+02  0.88440982030E+02  0.00000000000E+00 0. -1.
         21    1    1    2  503  501 -0.89451184422E+01 -0.25425844366E+02  0.50146067751E+02  0.56930807271E+02  0.00000000000E+00 0.  1.
          2    1    1    2  501    0 -0.70605829326E+02  0.12244445935E+02 -0.25201843669E+02  0.75962112368E+02  0.00000000000E+00 0. -1.
<scales pt_clust_5="13000.00000" pt_clust_6="13000.00000" pt_clust_7="13000.00000" pt_clust_8="13000.00000" pt_clust_9="26.95345" pt_clust_10="74.74335"></scales>
<clustering>
<clus scale="   26.953">  1  9  2 -1</clus>
<clus scale="   74.743">  1 10  2 -1</clus>
<clus scale="   80.739">  5  6 -1 -1</clus>
<clus scale="   92.871">  2  5  1 -1</clus>
<clus scale="   94.435">  7  8 -1 -1</clus>
<clus scale="   26.953">  1  5  2 -1</clus>
</clustering>
</event>
<event>
10    3  0.5078224E-005  0.1623299E+03  0.7546771E-02  0.1208783E+00
         21   -1    0    0  503  502  0.00000000000E+00  0.00000000000E+00  0.16419096856E+03  0.16419096856E+03  0.00000000000E+00 0. -1.
          1   -1    0    0  502    0 -0.00000000000E+00 -0.00000000000E+00 -0.35186937859E+03  0.35186937859E+03  0.00000000000E+00 0. -1.
        -24    2    1    2    0    0 -0.50465067626E+02  0.82642125430E+01 -0.30798485182E+02  0.10045578759E+03  0.80794791369E+02 0.  0.
         23    2    1    2    0    0  0.14072630626E+03 -0.92157351243E+02 -0.42009028253E+01  0.19068944543E+03  0.89710346965E+02 0.  0.
         11    1    3    3    0    0 -0.32356063428E+02 -0.27483146554E+02  0.96311678381E+01  0.43531569912E+02  0.00000000000E+00 0. -1.
        -12    1    3    3    0    0 -0.18109004198E+02  0.35747359097E+02 -0.40429653020E+02  0.56924217683E+02  0.00000000000E+00 0.  1.
        -13    1    4    4    0    0  0.12145771158E+03 -0.10970721348E+03  0.28336897819E+01  0.16369385507E+03  0.00000000000E+00 0. -1.
         13    1    4    4    0    0  0.19268594681E+02  0.17549862237E+02 -0.70345926072E+01  0.26995590356E+02  0.00000000000E+00 0.  1.
         21    1    1    2  503  501 -0.22673734970E+02  0.11277500069E+02  0.15476549889E+02  0.29678339942E+02  0.00000000000E+00 0.  1.
          2    1    1    2  501    0 -0.67587503663E+02  0.72615638631E+02 -0.16815557192E+03  0.19523677418E+03  0.00000000000E+00 0. -1.
<scales pt_clust_5="13000.00000" pt_clust_6="13000.00000" pt_clust_7="13000.00000" pt_clust_8="13000.00000" pt_clust_9="25.32351" pt_clust_10="135.28882"></scales>
<clustering>
<clus scale="   25.324">  1  9  2 -1</clus>
<clus scale="   80.795">  5  6 -1 -1</clus>
<clus scale="   89.710">  7  8 -1 -1</clus>
<clus scale="   98.946">  2  5  1 -1</clus>
<clus scale="  135.289">  1 10  2 -1</clus>
<clus scale="   25.324">  1  5  2 -1</clus>
</clustering>
</event>
<event>
10    3  0.5078224E-005  0.1618800E+03  0.7546771E-02  0.1220228E+00
         21   -1    0    0  503  502  0.00000000000E+00  0.00000000000E+00  0.88784175250E+02  0.88784175250E+02  0.00000000000E+00 0.  1.
         -2   -1    0    0    0  501 -0.00000000000E+00 -0.00000000000E+00 -0.78166512984E+03  0.78166512984E+03  0.00000000000E+00 0.  1.
        -24    2    1    2    0    0 -0.24052703834E+01  0.80086103893E+01 -0.19878200308E+03  0.21364199398E+03  0.77837610940E+02 0.  0.
         23    2    1    2    0    0 -0.46343889072E+01 -0.10144020808E+03 -0.14384964060E+03  0.19816230727E+03  0.90906476924E+02 0.  0.
         13    1    3    3    0    0 -0.42186748038E+01 -0.30871842950E+02 -0.13793768039E+03  0.14141312377E+03  0.00000000000E+00 0. -1.
        -14    1    3    3    0    0  0.18134044204E+01  0.38880453340E+02 -0.60844322693E+02  0.72228870208E+02  0.00000000000E+00 0.  1.
        -13    1    4    4    0    0  0.90228101519E+01 -0.33423100321E+02  0.39957493122E+01  0.34849401009E+02  0.00000000000E+00 0.  1.
         13    1    4    4    0    0 -0.13657199059E+02 -0.68017107757E+02 -0.14784538991E+03  0.16331290626E+03  0.00000000000E+00 0. -1.
         21    1    1    2  503  501  0.98485504118E+02  0.13819999363E+03 -0.30100127385E+03  0.34554362911E+03  0.00000000000E+00 0.  1.
         -1    1    1    2    0  502 -0.91445844827E+02 -0.44768395943E+02 -0.49248037066E+02  0.11310137473E+03  0.00000000000E+00 0.  1.
<scales pt_clust_5="13000.00000" pt_clust_6="13000.00000" pt_clust_7="13000.00000" pt_clust_8="13000.00000" pt_clust_9="133.94459" pt_clust_10="101.63093"></scales>
<clustering>
<clus scale="   77.838">  5  6 -1 -1</clus>
<clus scale="   78.285">  2  5  1 -1</clus>
<clus scale="   90.906">  7  8 -1 -1</clus>
<clus scale="  101.631">  1 10  2 -1</clus>
<clus scale="  133.945">  2  9  1 -1</clus>
<clus scale="  101.631">  1  5  2 -1</clus>
</clustering>
</event>
<event>
10    3  0.5078224E-005  0.1071170E+03  0.7546771E-02  0.1283345E+00
         21   -1    0    0  501  502  0.00000000000E+00  0.00000000000E+00  0.87768980388E+02  0.87768980388E+02  0.00000000000E+00 0.  1.
          1   -1    0    0  503    0 -0.00000000000E+00 -0.00000000000E+00 -0.57648429637E+03  0.57648429637E+03  0.00000000000E+00 0. -1.
         23    2    1    2    0    0 -0.31758274170E+02  0.20277210685E+00 -0.39611433422E+03  0.41052549248E+03  0.10303390268E+03 0.  0.
        -24    2    1    2    0    0  0.17514843470E+02  0.34298845271E+02 -0.11131234109E+03  0.13752099927E+03  0.70981740132E+02 0.  0.
         13    1    4    4    0    0  0.18909748854E+02 -0.19369017614E+02 -0.36952973611E+02  0.45806764825E+02  0.00000000000E+00 0. -1.
        -14    1    4    4    0    0 -0.13949053840E+01  0.53667862885E+02 -0.74359367483E+02  0.91714234447E+02  0.00000000000E+00 0.  1.
        -11    1    3    3    0    0 -0.42536832635E+02  0.44178336948E+02 -0.25756391893E+03  0.26476457452E+03  0.00000000000E+00 0.  1.
         11    1    3    3    0    0  0.10778558464E+02 -0.43975564841E+02 -0.13855041529E+03  0.14576091795E+03  0.00000000000E+00 0. -1.
         21    1    1    2  503  502  0.38549835070E+02 -0.56850955283E+02  0.37456367579E+02  0.78237461441E+02  0.00000000000E+00 0.  1.
          2    1    1    2  501    0 -0.24306404370E+02  0.22349337905E+02 -0.18745008244E+02  0.37969323568E+02  0.00000000000E+00 0. -1.
<scales pt_clust_5="13000.00000" pt_clust_6="13000.00000" pt_clust_7="13000.00000" pt_clust_8="13000.00000" pt_clust_9="45.24980" pt_clust_10="33.01960"></scales>
<clustering>
<clus scale="   33.020">  1 10  2 -1</clus>
<clus scale="   45.250">  1  9  2 -1</clus>
<clus scale="   70.982">  5  6 -1 -1</clus>
<clus scale="   76.788">  1  5  2 -1</clus>
<clus scale="  103.034">  7  8 -1 -1</clus>
<clus scale="   33.020">  1  5  2 -1</clus>
</clustering>
</event>
<event>
10    3  0.5078224E-005  0.1163791E+03  0.7546771E-02  0.1251969E+00
          3   -1    0    0  503    0 -0.00000000000E+00  0.00000000000E+00  0.90172806532E+02  0.90172806532E+02  0.00000000000E+00 0. -1.
         21   -1    0    0  501  502  0.00000000000E+00 -0.00000000000E+00 -0.50428426976E+03  0.50428426976E+03  0.00000000000E+00 0. -1.
        -24    2    1    2    0    0  0.76858388043E+02  0.25575784234E+02 -0.50067552017E+02  0.12500145118E+03  0.80976975008E+02 0.  0.
         23    2    1    2    0    0 -0.18409809956E+02 -0.90006851915E+02 -0.54501493652E+02  0.13924269840E+03  0.89319436591E+02 0.  0.
         11    1    3    3    0    0  0.82330848760E+02  0.19062808008E+02 -0.11240249884E+02  0.85253167239E+02  0.00000000000E+00 0. -1.
        -12    1    3    3    0    0 -0.54724607177E+01  0.65129762260E+01 -0.38827302134E+02  0.39748283946E+02  0.00000000000E+00 0.  1.
        -13    1    4    4    0    0 -0.16909935298E+02  0.12212599427E+02  0.43144469102E+01  0.21300421327E+02  0.00000000000E+00 0.  1.
         13    1    4    4    0    0 -0.14998746580E+01 -0.10221945134E+03 -0.58815940562E+02  0.11794227707E+03  0.00000000000E+00 0. -1.
         21    1    1    2  503  502 -0.24209091965E+02  0.16679605100E+02 -0.22698226822E+03  0.22887821969E+03  0.00000000000E+00 0. -1.
          4    1    1    2  501    0 -0.34239486122E+02  0.47751462581E+02 -0.82560149335E+02  0.10133470702E+03  0.00000000000E+00 0. -1.
<scales pt_clust_5="13000.00000" pt_clust_6="13000.00000" pt_clust_7="13000.00000" pt_clust_8="13000.00000" pt_clust_9="29.39880" pt_clust_10="68.04266"></scales>
<clustering>
<clus scale="   29.399">  2  9  1 -1</clus>
<clus scale="   68.043">  2 10  1 -1</clus>
<clus scale="   80.977">  5  6 -1 -1</clus>
<clus scale="   89.319">  7  8 -1 -1</clus>
<clus scale="  110.106">  1  5  2 -1</clus>
<clus scale="   29.399">  2  5  1 -1</clus>
</clustering>
</event>
<event>
10    3  0.5078224E-005  0.1900249E+03  0.7546771E-02  0.1182213E+00
          3   -1    0    0  502    0 -0.00000000000E+00  0.00000000000E+00  0.36118507327E+03  0.36118507327E+03  0.00000000000E+00 0. -1.
         21   -1    0    0  503  502  0.00000000000E+00 -0.00000000000E+00 -0.33572917560E+03  0.33572917560E+03  0.00000000000E+00 0.  1.
         23    2    1    2    0    0 -0.19224431574E+02 -0.57978423525E+02  0.88381499218E+02  0.14137716087E+03  0.91897420248E+02 0.  0.
        -24    2    1    2    0    0  0.24695834766E+02 -0.85299622605E+02  0.28713189941E+02  0.12318400463E+03  0.80398643330E+02 0.  0.
         11    1    4    4    0    0  0.22530305912E+02 -0.99951133947E+02  0.16071592478E+02  0.10371181199E+03  0.00000000000E+00 0. -1.
        -12    1    4    4    0    0  0.21655288539E+01  0.14651511342E+02  0.12641597463E+02  0.19472192641E+02  0.00000000000E+00 0.  1.
        -13    1    3    3    0    0  0.26258472886E+02  0.21707383988E+01  0.50562084003E+02  0.57015294809E+02  0.00000000000E+00 0.  1.
         13    1    3    3    0    0 -0.45482904460E+02 -0.60149161923E+02  0.37819415215E+02  0.84361866062E+02  0.00000000000E+00 0. -1.
         21    1    1    2  503  501  0.12817050735E+03  0.18916874951E+03 -0.15641840816E+03  0.27691011747E+03  0.00000000000E+00 0.  1.
          4    1    1    2  501    0 -0.13364191054E+03 -0.45890703383E+02  0.64779616668E+02  0.15544296589E+03  0.00000000000E+00 0. -1.
<scales pt_clust_5="13000.00000" pt_clust_6="13000.00000" pt_clust_7="13000.00000" pt_clust_8="13000.00000" pt_clust_9="190.02493" pt_clust_10="13000.00000"></scales>
<clustering>
<clus scale="   80.399">  5  6 -1 -1</clus>
<clus scale="   91.897">  7  8 -1 -1</clus>
<clus scale="  110.346">  1  7  2 -1</clus>
<clus scale="  132.143">  1  5  2 -1</clus>
<clus scale="  190.025">  2  9  1 -1</clus>
<clus scale="  190.025">  2  5  1 -1</clus>
</clustering>
</event>
<event>
10    3  0.5078224E-005  0.1964543E+03  0.7546771E-02  0.1171326E+00
         21   -1    0    0  503  502  0.00000000000E+00  0.00000000000E+00  0.85325781184E+03  0.85325781184E+03  0.00000000000E+00 0. -1.
         -2   -1    0    0    0  501 -0.00000000000E+00 -0.00000000000E+00 -0.10532562547E+03  0.10532562547E+03  0.00000000000E+00 0.  1.
         23    2    1    2    0    0  0.83359698801E+02  0.18736731743E+02  0.16165632787E+03  0.20484240403E+03  0.92345750564E+02 0.  0.
        -24    2    1    2    0    0  0.87493873389E+02 -0.12896340233E+03  0.38453654804E+03  0.42253695298E+03  0.79889816821E+02 0.  0.
         13    1    4    4    0    0  0.54412774747E+02 -0.11518169120E+03  0.35120972115E+03  0.37359850143E+03  0.00000000000E+00 0. -1.
        -14    1    4    4    0    0  0.33081098642E+02 -0.13781711130E+02  0.33326826895E+02  0.48938451548E+02  0.00000000000E+00 0.  1.
        -11    1    3    3    0    0  0.39236414773E+02 -0.34623935601E+02  0.96451869488E+02  0.10973274939E+03  0.00000000000E+00 0.  1.
         11    1    3    3    0    0  0.44123284028E+02  0.53360667344E+02  0.65204458378E+02  0.95109654637E+02  0.00000000000E+00 0. -1.
         21    1    1    2  503  501  0.15776186084E+02 -0.17533713788E+02  0.59548225258E+02  0.64049280229E+02  0.00000000000E+00 0. -1.
         -1    1    1    2    0  502 -0.18662975827E+03  0.12776038437E+03  0.14219108521E+03  0.26715480007E+03  0.00000000000E+00 0.  1.
<scales pt_clust_5="13000.00000" pt_clust_6="13000.00000" pt_clust_7="13000.00000" pt_clust_8="13000.00000" pt_clust_9="23.58642" pt_clust_10="179.47685"></scales>
<clustering>
<clus scale="   23.586">  1  9  2 -1</clus>
<clus scale="   79.890">  5  6 -1 -1</clus>
<clus scale="   92.346">  7  8 -1 -1</clus>
<clus scale="  127.728">  2  7  1 -1</clus>
<clus scale="  179.477">  1 10  2 -1</clus>
<clus scale="   23.586">  1  5  2 -1</clus>
</clustering>
</event>
<event>
10    3  0.5078224E-005  0.3244373E+03  0.7546771E-02  0.1096354E+00
         21   -1    0    0  501  502  0.00000000000E+00  0.00000000000E+00  0.82457692459E+03  0.82457692459E+03  0.00000000000E+00 0. -1.
          1   -1    0    0  503    0 -0.00000000000E+00 -0.00000000000E+00 -0.44336162143E+03  0.44336162143E+03  0.00000000000E+00 0. -1.
        -24    2    1    2    0    0  0.13872858455E+03  0.75230643094E+02 -0.14188145772E+03  0.22761178331E+03  0.82289161026E+02 0.  0.
         23    2    1    2    0    0 -0.58394830810E+01  0.25518324520E+03 -0.11001463237E+03  0.29246219785E+03  0.90985326520E+02 0.  0.
         11    1    3    3    0    0  0.14804490537E+03  0.76211381796E+02 -0.14102444233E+03  0.21820486259E+03  0.00000000000E+00 0. -1.
        -12    1    3    3    0    0 -0.93163208225E+01 -0.98073870216E+00 -0.85701539751E+00  0.94069207216E+01  0.00000000000E+00 0.  1.
        -11    1    4    4    0    0  0.11557136520E+02  0.40722389753E+02 -0.56756128482E+02  0.70803520760E+02  0.00000000000E+00 0.  1.
         11    1    4    4    0    0 -0.17396619601E+02  0.21446085545E+03 -0.53258503888E+02  0.22165867709E+03  0.00000000000E+00 0. -1.
         21    1    1    2  503  502  0.24823414871E+02 -0.93005239021E+02  0.78147454105E+02  0.12398871317E+03  0.00000000000E+00 0. -1.
          2    1    1    2  501    0 -0.15771251634E+03 -0.23740864927E+03  0.55496393915E+03  0.62387585169E+03  0.00000000000E+00 0. -1.
<scales pt_clust_5="13000.00000" pt_clust_6="13000.00000" pt_clust_7="13000.00000" pt_clust_8="13000.00000" pt_clust_9="96.26098" pt_clust_10="311.41810"></scales>
<clustering>
<clus scale="   82.289">  5  6 -1 -1</clus>
<clus scale="   90.985">  7  8 -1 -1</clus>
<clus scale="   96.261">  1  9  2 -1</clus>
<clus scale="  176.885">  2  5  1 -1</clus>
<clus scale="  311.418">  1 10  2 -1</clus>
<clus scale="   96.261">  1  5  2 -1</clus>
</clustering>
</event>
<event>
10    3  0.5422649E-005  0.2487478E+03  0.7546771E-02  0.1114099E+00
         21   -1    0    0  503  502  0.00000000000E+00  0.00000000000E+00  0.74455765696E+03  0.74455765696E+03  0.00000000000E+00 0. -1.
         -2   -1    0    0    0  501 -0.00000000000E+00 -0.00000000000E+00 -0.80077364749E+03  0.80077364749E+03  0.00000000000E+00 0.  1.
        -24    2    1    2    0    0  0.77936302650E+02  0.40086752528E+02 -0.42860367261E+03  0.44482056541E+03  0.80518396858E+02 0.  0.
         23    2    1    2    0    0  0.40715181174E+02  0.30721590486E+02 -0.12652980740E+03  0.16389364240E+03  0.90828364281E+02 0.  0.
         11    1    3    3    0    0  0.44378756866E+02 -0.21015628156E+02 -0.18993142197E+03  0.19617613448E+03  0.00000000000E+00 0. -1.
        -12    1    3    3    0    0  0.33557545784E+02  0.61102380684E+02 -0.23867225064E+03  0.24864443092E+03  0.00000000000E+00 0.  1.
        -11    1    4    4    0    0  0.59143458668E+02  0.19754984771E+02 -0.12801887738E+03  0.14239747572E+03  0.00000000000E+00 0. -1.
         11    1    4    4    0    0 -0.18428277494E+02  0.10966605715E+02  0.14890699812E+01  0.21496166675E+02  0.00000000000E+00 0.  1.
         21    1    1    2  503  501 -0.47641709233E+02 -0.94141876039E+02  0.70735618490E+03  0.71518193322E+03  0.00000000000E+00 0. -1.
         -1    1    1    2    0  502 -0.71009774591E+02  0.23333533024E+02 -0.20843869542E+03  0.22143516342E+03  0.00000000000E+00 0.  1.
<scales pt_clust_5="13000.00000" pt_clust_6="13000.00000" pt_clust_7="13000.00000" pt_clust_8="13000.00000" pt_clust_9="136.40984" pt_clust_10="74.74522"></scales>
<clustering>
<clus scale="   74.745">  1 10  2 -1</clus>
<clus scale="   80.518">  5  6 -1 -1</clus>
<clus scale="   90.828">  7  8 -1 -1</clus>
<clus scale="   96.644">  5  7 -1 -1</clus>
<clus scale="  136.410">  1  9  2 -1</clus>
<clus scale="   74.745">  1  5  2 -1</clus>
</clustering>
</event>
<event>
10    3  0.5078224E-005  0.1443000E+03  0.7546771E-02  0.1231175E+00
         -4   -1    0    0    0  501 -0.00000000000E+00  0.00000000000E+00  0.90098403076E+03  0.90098403076E+03  0.00000000000E+00 0.  1.
         21   -1    0    0  501  502  0.00000000000E+00 -0.00000000000E+00 -0.66380794928E+02  0.66380794928E+02  0.00000000000E+00 0.  1.
        -24    2    1    2    0    0  0.31035195277E+02  0.17259994159E+02  0.35621691738E+03  0.36754186763E+03  0.83279298053E+02 0.  0.
         23    2    1    2    0    0  0.11989568320E+03  0.38501737611E+02  0.29241197682E+03  0.33064156101E+03  0.89228465347E+02 0.  0.
         11    1    3    3    0    0  0.42424486464E+02  0.42885373520E+02  0.27744540591E+03  0.28392771188E+03  0.00000000000E+00 0. -1.
        -12    1    3    3    0    0 -0.11389291187E+02 -0.25625379362E+02  0.78771511472E+02  0.83614155743E+02  0.00000000000E+00 0.  1.
        -13    1    4    4    0    0  0.78507404222E+02  0.50148184606E+02  0.11450680711E+03  0.14761457182E+03  0.00000000000E+00 0.  1.
         13    1    4    4    0    0  0.41388278981E+02 -0.11646446995E+02  0.17790516971E+03  0.18302698919E+03  0.00000000000E+00 0. -1.
         21    1    1    2  503  502 -0.54345942818E+02 -0.55823776767E+01  0.10955804286E+01  0.54642883689E+02  0.00000000000E+00 0.  1.
         -3    1    1    2    0  503 -0.96584935662E+02 -0.50179354093E+02  0.18487876120E+03  0.21453851337E+03  0.00000000000E+00 0.  1.
<scales pt_clust_5="13000.00000" pt_clust_6="13000.00000" pt_clust_7="13000.00000" pt_clust_8="13000.00000" pt_clust_9="54.63190" pt_clust_10="113.40537"></scales>
<clustering>
<clus scale="   54.632">  2  9  1 -1</clus>
<clus scale="   83.279">  5  6 -1 -1</clus>
<clus scale="   88.021">  1  5  2 -1</clus>
<clus scale="   89.228">  7  8 -1 -1</clus>
<clus scale="  113.405">  2 10  1 -1</clus>
<clus scale="   54.632">  2  5  1 -1</clus>
</clustering>
</event>
<event>
10    3  0.5078224E-005  0.2271686E+03  0.7546771E-02  0.1138011E+00
         21   -1    0    0  501  502  0.00000000000E+00  0.00000000000E+00  0.19620055212E+03  0.19620055212E+03  0.00000000000E+00 0. -1.
          1   -1    0    0  503    0 -0.00000000000E+00 -0.00000000000E+00 -0.18675692927E+04  0.18675692927E+04  0.00000000000E+00 0. -1.
        -24    2    1    2    0    0  0.11781370489E+03  0.11171063167E+03 -0.10847450699E+04  0.10997016316E+04  0.79451102709E+02 0.  0.
         23    2    1    2    0    0 -0.23253276593E+03  0.43457450952E+02 -0.15078673016E+03  0.28995233706E+03  0.73319045954E+02 0.  0.
         13    1    3    3    0    0  0.11788128825E+03  0.12132808207E+03 -0.97782370429E+03  0.99234857701E+03  0.00000000000E+00 0. -1.
        -14    1    3    3    0    0 -0.67583357496E-01 -0.96174504049E+01 -0.10692136560E+03  0.10735305464E+03  0.00000000000E+00 0.  1.
        -13    1    4    4    0    0 -0.18186051984E+03  0.29569899646E+02 -0.77752541477E+02  0.19998271262E+03  0.00000000000E+00 0. -1.
         13    1    4    4    0    0 -0.50672246092E+02  0.13887551306E+02 -0.73034188681E+02  0.89969624439E+02  0.00000000000E+00 0.  1.
         21    1    1    2  503  502  0.10343507807E+03  0.14991393158E+03 -0.64100001135E+02  0.19308498751E+03  0.00000000000E+00 0. -1.
          2    1    1    2  501    0  0.11283982967E+02 -0.30508201420E+03 -0.37173693936E+03  0.48103088855E+03  0.00000000000E+00 0. -1.
<scales pt_clust_5="13000.00000" pt_clust_6="13000.00000" pt_clust_7="13000.00000" pt_clust_8="13000.00000" pt_clust_9="208.55517" pt_clust_10="215.01151"></scales>
<clustering>
<clus scale="   73.319">  7  8 -1 -1</clus>
<clus scale="   79.451">  5  6 -1 -1</clus>
<clus scale="  180.753">  2  5  1 -1</clus>
<clus scale="  208.555">  1  9  2 -1</clus>
<clus scale="  215.012">  1 10  2 -1</clus>
<clus scale="  208.555">  1  5  2 -1</clus>
</clustering>
</event>
<event>
10    3  0.5078224E-005  0.1433971E+03  0.7546771E-02  0.1232000E+00
         21   -1    0    0  503  502  0.00000000000E+00  0.00000000000E+00  0.48502423481E+02  0.48502423481E+02  0.00000000000E+00 0.  1.
          1   -1    0    0  502    0 -0.00000000000E+00 -0.00000000000E+00 -0.80770468613E+03  0.80770468613E+03  0.00000000000E+00 0. -1.
        -24    2    1    2    0    0  0.14724414602E+02 -0.46366745150E+02 -0.19526653553E+03  0.21397940181E+03  0.72742567035E+02 0.  0.
         23    2    1    2    0    0  0.14217006719E+02  0.12524059449E+03 -0.17108973004E+03  0.22941344849E+03  0.86437866887E+02 0.  0.
         13    1    3    3    0    0 -0.24419478104E+02 -0.27241203525E+02 -0.47686822973E+02  0.60103470496E+02  0.00000000000E+00 0. -1.
        -14    1    3    3    0    0  0.39143892707E+02 -0.19125541625E+02 -0.14757971256E+03  0.15387593131E+03  0.00000000000E+00 0.  1.
        -11    1    4    4    0    0 -0.16627060244E+02  0.56560993952E+02 -0.22995082351E+02  0.63280162622E+02  0.00000000000E+00 0.  1.
         11    1    4    4    0    0  0.30844066963E+02  0.68679600536E+02 -0.14809464769E+03  0.16613328586E+03  0.00000000000E+00 0. -1.
         21    1    1    2  503  501  0.20944823593E+02  0.16049643804E+01 -0.23480288841E+02  0.31505325107E+02  0.00000000000E+00 0. -1.
          2    1    1    2  501    0 -0.49886244915E+02 -0.80478813719E+02 -0.36936570823E+03  0.38130893421E+03  0.00000000000E+00 0. -1.
<scales pt_clust_5="13000.00000" pt_clust_6="13000.00000" pt_clust_7="13000.00000" pt_clust_8="13000.00000" pt_clust_9="21.00623" pt_clust_10="114.41689"></scales>
<clustering>
<clus scale="   21.006">  1  9  2 -1</clus>
<clus scale="   72.743">  5  6 -1 -1</clus>
<clus scale="   86.438">  7  8 -1 -1</clus>
<clus scale="   88.182">  2  5  1 -1</clus>
<clus scale="  114.417">  1 10  2 -1</clus>
<clus scale="   21.006">  1  5  2 -1</clus>
</clustering>
</event>
<event>
10    3  0.5078224E-005  0.1088246E+03  0.7546771E-02  0.1266408E+00
          1   -1    0    0  502    0 -0.00000000000E+00  0.00000000000E+00  0.35875625199E+03  0.35875625199E+03  0.00000000000E+00 0. -1.
         21   -1    0    0  503  502  0.00000000000E+00 -0.00000000000E+00 -0.99735444575E+02  0.99735444575E+02  0.00000000000E+00 0. -1.
        -24    2    1    2    0    0  0.29959330061E+02  0.80900520368E+02  0.13315390406E+03  0.17795297417E+03  0.80590590013E+02 0.  0.
         23    2    1    2    0    0 -0.97622136078E+01 -0.53373417765E+01 -0.49467022527E+01  0.90628866519E+02  0.89807202114E+02 0.  0.
         11    1    3    3    0    0  0.52890361847E+02  0.76800742064E+02  0.11695275988E+03  0.14957838213E+03  0.00000000000E+00 0. -1.
        -12    1    3    3    0    0 -0.22931031786E+02  0.40997783038E+01  0.16201144174E+02  0.28374592041E+02  0.00000000000E+00 0.  1.
        -13    1    4    4    0    0  0.35784246721E+02  0.76594481909E+01  0.14586412459E+02  0.39394706350E+02  0.00000000000E+00 0.  1.
         13    1    4    4    0    0 -0.45546460329E+02 -0.12996789967E+02 -0.19533114712E+02  0.51234160169E+02  0.00000000000E+00 0. -1.
         21    1    1    2  503  501  0.25382526721E+02  0.43826043571E+01 -0.46197747005E+01  0.26169107779E+02  0.00000000000E+00 0. -1.
          2    1    1    2  501    0 -0.45579643174E+02 -0.79945782948E+02  0.13543338032E+03  0.16374074810E+03  0.00000000000E+00 0. -1.
<scales pt_clust_5="13000.00000" pt_clust_6="13000.00000" pt_clust_7="13000.00000" pt_clust_8="13000.00000" pt_clust_9="25.75810" pt_clust_10="89.33997"></scales>
<clustering>
<clus scale="   25.758">  2  9  1 -1</clus>
<clus scale="   80.591">  5  6 -1 -1</clus>
<clus scale="   89.340">  2 10  1 -1</clus>
<clus scale="   89.807">  7  8 -1 -1</clus>
<clus scale="  101.352">  1  5  2 -1</clus>
<clus scale="   25.758">  2  5  1 -1</clus>
</clustering>
</event>
<event>
10    3  0.5078224E-005  0.1539508E+03  0.7546771E-02  0.1197662E+00
          1   -1    0    0  503    0 -0.00000000000E+00  0.00000000000E+00  0.93111943294E+03  0.93111943294E+03  0.00000000000E+00 0. -1.
         21   -1    0    0  501  502  0.00000000000E+00 -0.00000000000E+00 -0.13103100077E+03  0.13103100077E+03  0.00000000000E+00 0. -1.
         23    2    1    2    0    0 -0.79882250804E+01  0.13522147866E+03  0.64833405832E+03  0.66860803952E+03  0.91383802232E+02 0.  0.
        -24    2    1    2    0    0  0.11076728451E+02 -0.10415185857E+03  0.24073405716E+03  0.27445913062E+03  0.80028898206E+02 0.  0.
         11    1    4    4    0    0  0.33102950904E+02 -0.22643255573E+02  0.39782337672E+02  0.56490324589E+02  0.00000000000E+00 0. -1.
        -12    1    4    4    0    0 -0.22026222453E+02 -0.81508602997E+02  0.20095171949E+03  0.21796880603E+03  0.00000000000E+00 0.  1.
        -11    1    3    3    0    0  0.28849387780E+02  0.28403618844E+02  0.86244555753E+02  0.95274215483E+02  0.00000000000E+00 0.  1.
         11    1    3    3    0    0 -0.36837612860E+02  0.10681785981E+03  0.56208950257E+03  0.57333382404E+03  0.00000000000E+00 0. -1.
         21    1    1    2  503  502 -0.21114258249E+02 -0.46082637186E+01 -0.83932604967E+02  0.86670238101E+02  0.00000000000E+00 0.  1.
          2    1    1    2  501    0  0.18025754879E+02 -0.26461356370E+02 -0.50470783505E+01  0.32413025465E+02  0.00000000000E+00 0. -1.
<scales pt_clust_5="13000.00000" pt_clust_6="13000.00000" pt_clust_7="13000.00000" pt_clust_8="13000.00000" pt_clust_9="21.61129" pt_clust_10="29.85963"></scales>
<clustering>
<clus scale="   21.611">  2  9  1 -1</clus>
<clus scale="   29.860">  2 10  1 -1</clus>
<clus scale="   80.029">  5  6 -1 -1</clus>
<clus scale="   91.384">  7  8 -1 -1</clus>
<clus scale="  147.494">  2  5  1 -1</clus>
<clus scale="   21.611">  2  5  1 -1</clus>
</clustering>
</event>
<event>
10    3  0.5078224E-005  0.1523273E+03  0.7546771E-02  0.1199388E+00
         21   -1    0    0  501  502  0.00000000000E+00  0.00000000000E+00  0.34015579829E+02  0.34015579829E+02  0.00000000000E+00 0. -1.
          1   -1    0    0  503    0 -0.00000000000E+00 -0.00000000000E+00 -0.13040850314E+04  0.13040850314E+04  0.00000000000E+00 0. -1.
        -24    2    1    2    0    0 -0.93760808067E+02 -0.39272799779E+02 -0.49407436650E+03  0.51082779141E+03  0.80635667730E+02 0.  0.
         23    2    1    2    0    0  0.16451536269E+03  0.21835177557E+02 -0.53489130538E+03  0.56731973592E+03  0.90558791143E+02 0.  0.
         13    1    3    3    0    0 -0.90007602496E+02 -0.59345347758E+02 -0.38265607260E+03  0.39755365512E+03  0.00000000000E+00 0. -1.
        -14    1    3    3    0    0 -0.37532055710E+01  0.20072547978E+02 -0.11141829391E+03  0.11327413629E+03  0.00000000000E+00 0.  1.
        -13    1    4    4    0    0  0.77925600005E+02 -0.21219897205E+02 -0.14882966469E+03  0.16933089578E+03  0.00000000000E+00 0. -1.
         13    1    4    4    0    0  0.86589762687E+02  0.43055074762E+02 -0.38606164069E+03  0.39798884014E+03  0.00000000000E+00 0.  1.
         21    1    1    2  503  502 -0.18185579896E+02 -0.18709399006E+02 -0.31754434783E+02  0.41098674623E+02  0.00000000000E+00 0.  1.
          2    1    1    2  501    0 -0.52568974730E+02  0.36147021229E+02 -0.20934934493E+03  0.21885440930E+03  0.00000000000E+00 0. -1.
<scales pt_clust_5="13000.00000" pt_clust_6="13000.00000" pt_clust_7="13000.00000" pt_clust_8="13000.00000" pt_clust_9="26.09132" pt_clust_10="64.64186"></scales>
<clustering>
<clus scale="   26.091">  1  9  2 -1</clus>
<clus scale="   64.642">  1 10  2 -1</clus>
<clus scale="   80.636">  5  6 -1 -1</clus>
<clus scale="   90.559">  7  8 -1 -1</clus>
<clus scale="  146.645">  2  5  1 -1</clus>
<clus scale="   26.091">  1  5  2 -1</clus>
</clustering>
</event>
<event>
10    3  0.5078224E-005  0.1237699E+03  0.7546771E-02  0.1251070E+00
         -2   -1    0    0    0  501 -0.00000000000E+00  0.00000000000E+00  0.93769519022E+02  0.93769519022E+02  0.00000000000E+00 0.  1.
         21   -1    0    0  503  502  0.00000000000E+00 -0.00000000000E+00 -0.40335348543E+03  0.40335348543E+03  0.00000000000E+00 0.  1.
        -24    2    1    2    0    0 -0.43509277639E+02  0.35032517532E+02 -0.36414420085E+02  0.10556887918E+03  0.81844020775E+02 0.  0.
         23    2    1    2    0    0  0.14081324274E+02  0.80318659806E+02 -0.10575466132E+03  0.16267209520E+03  0.92891287865E+02 0.  0.
         11    1    3    3    0    0  0.33711909098E+01  0.46612151578E+02 -0.29687521411E+01  0.46828101522E+02  0.00000000000E+00 0. -1.
        -12    1    3    3    0    0 -0.46880468549E+02 -0.11579634047E+02 -0.33445667943E+02  0.58740777661E+02  0.00000000000E+00 0.  1.
        -11    1    4    4    0    0  0.38446441550E+02  0.83507295132E+02 -0.10281794917E+03  0.13792435564E+03  0.00000000000E+00 0.  1.
         11    1    4    4    0    0 -0.24365117276E+02 -0.31886353262E+01 -0.29367121483E+01  0.24747739561E+02  0.00000000000E+00 0. -1.
         21    1    1    2  503  501  0.34858419740E+02 -0.27203281736E+02 -0.12160192490E+03  0.12939148389E+03  0.00000000000E+00 0.  1.
         -1    1    1    2    0  502 -0.54304663749E+01 -0.88147895601E+02 -0.45812960103E+02  0.99490546171E+02  0.00000000000E+00 0.  1.
<scales pt_clust_5="13000.00000" pt_clust_6="13000.00000" pt_clust_7="13000.00000" pt_clust_8="13000.00000" pt_clust_9="44.21683" pt_clust_10="81.79373"></scales>
<clustering>
<clus scale="   44.217">  2  9  1 -1</clus>
<clus scale="   81.844">  5  6 -1 -1</clus>
<clus scale="   92.891">  7  8 -1 -1</clus>
<clus scale="   93.190">  1  5  2 -1</clus>
<clus scale="   81.794">  2 10  1 -1</clus>
<clus scale="   44.217">  2  5  1 -1</clus>
</clustering>
</event>
<event>
10    3  0.5078224E-005  0.2461376E+03  0.7546771E-02  0.1116982E+00
         21   -1    0    0  503  502  0.00000000000E+00  0.00000000000E+00  0.17474094517E+03  0.17474094517E+03  0.00000000000E+00 0. -1.
         -4   -1    0    0    0  501 -0.00000000000E+00 -0.00000000000E+00 -0.49568677794E+03  0.49568677794E+03  0.00000000000E+00 0.  1.
         23    2    1    2    0    0  0.88269035598E+01 -0.21775656937E+03 -0.26895842081E+03  0.36046155236E+03  0.10048910821E+03 0.  0.
        -24    2    1    2    0    0 -0.19562977387E+01  0.23936582644E+03 -0.62418607879E+02  0.26020678200E+03  0.80694862407E+02 0.  0.
         13    1    4    4    0    0 -0.10511342085E+02  0.11971472618E+03  0.91492732111E+01  0.12052308151E+03  0.00000000000E+00 0. -1.
        -14    1    4    4    0    0  0.85550443461E+01  0.11965110026E+03 -0.71567881090E+02  0.13968370048E+03  0.00000000000E+00 0.  1.
        -13    1    3    3    0    0  0.42033677285E+02 -0.76588371620E+02 -0.59510750955E+02  0.10570779618E+03  0.00000000000E+00 0.  1.
         13    1    3    3    0    0 -0.33206773726E+02 -0.14116819775E+03 -0.20944766986E+03  0.25475375618E+03  0.00000000000E+00 0. -1.
         21    1    1    2  503  501 -0.24247529559E+02 -0.62594584574E+01  0.21314079423E+01  0.25132974549E+02  0.00000000000E+00 0. -1.
         -3    1    1    2    0  502  0.17376923738E+02 -0.15349798611E+02  0.82997879870E+01  0.24626414205E+02  0.00000000000E+00 0.  1.
<scales pt_clust_5="13000.00000" pt_clust_6="13000.00000" pt_clust_7="13000.00000" pt_clust_8="13000.00000" pt_clust_9="23.98087" pt_clust_10="23.18564"></scales>
<clustering>
<clus scale="   23.186">  1 10  2 -1</clus>
<clus scale="   23.981">  1  9  2 -1</clus>
<clus scale="   80.695">  5  6 -1 -1</clus>
<clus scale="  100.489">  7  8 -1 -1</clus>
<clus scale="  238.741">  1  5  2 -1</clus>
<clus scale="   23.186">  1  5  2 -1</clus>
</clustering>
</event>
<event>
10    3  0.5078224E-005  0.2986019E+03  0.7546771E-02  0.1085942E+00
         21   -1    0    0  501  502  0.00000000000E+00  0.00000000000E+00  0.19563450493E+03  0.19563450493E+03  0.00000000000E+00 0. -1.
          1   -1    0    0  503    0 -0.00000000000E+00 -0.00000000000E+00 -0.38687149641E+03  0.38687149641E+03  0.00000000000E+00 0. -1.
        -24    2    1    2    0    0 -0.11660543595E+03  0.30491567251E+02 -0.11523214251E+03  0.18676322286E+03  0.84115940084E+02 0.  0.
         23    2    1    2    0    0 -0.10109551744E+03  0.37560203828E+01 -0.96927252486E+01  0.13623188555E+03  0.90723571259E+02 0.  0.
         13    1    3    3    0    0 -0.70241582737E+02 -0.15206112276E+02 -0.26254816246E+02  0.76514189351E+02  0.00000000000E+00 0. -1.
        -14    1    3    3    0    0 -0.46363853218E+02  0.45697679527E+02 -0.88977326267E+02  0.11024903351E+03  0.00000000000E+00 0.  1.
        -11    1    4    4    0    0 -0.11947119585E+02  0.26257697093E+02 -0.30479954571E+02  0.41966986473E+02  0.00000000000E+00 0. -1.
         11    1    4    4    0    0 -0.89148397858E+02 -0.22501676710E+02  0.20787229322E+02  0.94264899079E+02  0.00000000000E+00 0.  1.
         21    1    1    2  503  502  0.21352347801E+01  0.21465191899E+02  0.10491848643E+02  0.23987342053E+02  0.00000000000E+00 0.  1.
          2    1    1    2  501    0  0.21556571862E+03 -0.55712779533E+02 -0.76803972362E+02  0.23552355088E+03  0.00000000000E+00 0. -1.
<scales pt_clust_5="13000.00000" pt_clust_6="13000.00000" pt_clust_7="13000.00000" pt_clust_8="13000.00000" pt_clust_9="21.57113" pt_clust_10="221.38226"></scales>
<clustering>
<clus scale="   21.571">  1  9  2 -1</clus>
<clus scale="   84.116">  5  6 -1 -1</clus>
<clus scale="   90.724">  7  8 -1 -1</clus>
<clus scale="  126.187">  5  7 -1 -1</clus>
<clus scale="  221.382">  1 10  2 -1</clus>
<clus scale="   21.571">  1  5  2 -1</clus>
</clustering>
</event>
<event>
10    3  0.5078224E-005  0.1081915E+03  0.7546771E-02  0.1269162E+00
         21   -1    0    0  501  502  0.00000000000E+00  0.00000000000E+00  0.42169094424E+02  0.42169094424E+02  0.00000000000E+00 0.  1.
          3   -1    0    0  503    0 -0.00000000000E+00 -0.00000000000E+00 -0.70432008816E+03  0.70432008816E+03  0.00000000000E+00 0. -1.
         23    2    1    2    0    0  0.97059778064E+01  0.50044957883E+02 -0.33489261209E+03  0.35103975283E+03  0.92071399544E+02 0.  0.
        -24    2    1    2    0    0 -0.17526143434E+02 -0.63400521098E+02 -0.20551094690E+03  0.22998486314E+03  0.79570699372E+02 0.  0.
         11    1    4    4    0    0 -0.25423963478E+02  0.57660856603E+01 -0.10173085042E+03  0.10501805363E+03  0.00000000000E+00 0. -1.
        -12    1    4    4    0    0  0.78978200437E+01 -0.69166606758E+02 -0.10378009649E+03  0.12496680951E+03  0.00000000000E+00 0.  1.
        -13    1    3    3    0    0  0.37569256709E+02  0.60535579677E+02 -0.27602385488E+03  0.28507047185E+03  0.00000000000E+00 0. -1.
         13    1    3    3    0    0 -0.27863278903E+02 -0.10490621794E+02 -0.58868757214E+02  0.65969280978E+02  0.00000000000E+00 0.  1.
         21    1    1    2  503  502 -0.24628884930E+02 -0.35948333439E+02 -0.20246813797E+02  0.48049954411E+02  0.00000000000E+00 0.  1.
          4    1    1    2  501    0  0.32449050558E+02  0.49303896654E+02 -0.10150062094E+03  0.11741461220E+03  0.00000000000E+00 0. -1.
<scales pt_clust_5="13000.00000" pt_clust_6="13000.00000" pt_clust_7="13000.00000" pt_clust_8="13000.00000" pt_clust_9="43.57596" pt_clust_10="46.76038"></scales>
<clustering>
<clus scale="   43.576">  1  9  2 -1</clus>
<clus scale="   46.760">  1 10  2 -1</clus>
<clus scale="   79.571">  5  6 -1 -1</clus>
<clus scale="   92.071">  7  8 -1 -1</clus>
<clus scale="   97.774">  1  5  2 -1</clus>
<clus scale="   43.576">  1  5  2 -1</clus>
</clustering>
</event>
<event>
10    3  0.5078224E-005  0.1909513E+03  0.7546771E-02  0.1172679E+00
         21   -1    0    0  503  502  0.00000000000E+00  0.00000000000E+00  0.11734915294E+03  0.11734915294E+03  0.00000000000E+00 0. -1.
          1   -1    0    0  502    0 -0.00000000000E+00 -0.00000000000E+00 -0.99411827288E+03  0.99411827288E+03  0.00000000000E+00 0. -1.
        -24    2    1    2    0    0  0.86364570910E+02 -0.14397754813E+01 -0.15715401268E+03  0.19803923875E+03  0.84031210392E+02 0.  0.
         23    2    1    2    0    0 -0.21545694262E+03  0.12991526607E+03 -0.60464111685E+03  0.66052404640E+03  0.86031768560E+02 0.  0.
         11    1    3    3    0    0  0.42281217810E+02  0.45400605901E+01 -0.91549865358E+01  0.43498589726E+02  0.00000000000E+00 0. -1.
        -12    1    3    3    0    0  0.44083353100E+02 -0.59798360715E+01 -0.14799902615E+03  0.15454064902E+03  0.00000000000E+00 0.  1.
        -13    1    4    4    0    0 -0.11151390734E+03  0.69574379323E+02 -0.42107109732E+03  0.44110862017E+03  0.00000000000E+00 0. -1.
         13    1    4    4    0    0 -0.10394303528E+03  0.60340886744E+02 -0.18357001953E+03  0.21941542623E+03  0.00000000000E+00 0.  1.
         21    1    1    2  503  501  0.87222478743E+02  0.22238692373E+01 -0.54930154730E+02  0.10310202855E+03  0.00000000000E+00 0. -1.
          2    1    1    2  501    0  0.41869892967E+02 -0.13069935982E+03 -0.60043835676E+02  0.14980211213E+03  0.00000000000E+00 0. -1.
<scales pt_clust_5="13000.00000" pt_clust_6="13000.00000" pt_clust_7="13000.00000" pt_clust_8="13000.00000" pt_clust_9="87.25082" pt_clust_10="170.47267"></scales>
<clustering>
<clus scale="   84.031">  5  6 -1 -1</clus>
<clus scale="   86.032">  7  8 -1 -1</clus>
<clus scale="   87.251">  1  9  2 -1</clus>
<clus scale="  134.866">  2  5  1 -1</clus>
<clus scale="  170.473">  1 10  2 -1</clus>
<clus scale="   87.251">  1  5  2 -1</clus>
</clustering>
</event>
<event>
10    3  0.5078224E-005  0.1398777E+03  0.7546771E-02  0.1238482E+00
         21   -1    0    0  501  502  0.00000000000E+00  0.00000000000E+00  0.27939663131E+03  0.27939663131E+03  0.00000000000E+00 0. -1.
          1   -1    0    0  503    0 -0.00000000000E+00 -0.00000000000E+00 -0.29481087844E+03  0.29481087844E+03  0.00000000000E+00 0. -1.
        -24    2    1    2    0    0 -0.53907709560E+01 -0.21933295209E+02 -0.10928133000E+03  0.13700689626E+03  0.79488053735E+02 0.  0.
         23    2    1    2    0    0 -0.69717895685E+01  0.10876647125E+03 -0.54163963692E+02  0.15241325484E+03  0.91745921823E+02 0.  0.
         11    1    3    3    0    0  0.19250613054E+02 -0.44596122134E+02 -0.56568325717E+02  0.74561221065E+02  0.00000000000E+00 0. -1.
        -12    1    3    3    0    0 -0.24641384010E+02  0.22662826925E+02 -0.52713004282E+02  0.62445675195E+02  0.00000000000E+00 0.  1.
        -13    1    4    4    0    0  0.17652423032E+02  0.11520485370E+03 -0.49062062530E+02  0.12645494191E+03  0.00000000000E+00 0. -1.
         13    1    4    4    0    0 -0.24624212601E+02 -0.64383824477E+01 -0.51019011624E+01  0.25958312931E+02  0.00000000000E+00 0.  1.
         21    1    1    2  503  502 -0.64364307285E+02  0.75860206488E+01  0.14968443572E+03  0.16311266676E+03  0.00000000000E+00 0. -1.
          2    1    1    2  501    0  0.76726867809E+02 -0.94419196691E+02 -0.16533891573E+01  0.12167469188E+03  0.00000000000E+00 0. -1.
<scales pt_clust_5="13000.00000" pt_clust_6="13000.00000" pt_clust_7="13000.00000" pt_clust_8="13000.00000" pt_clust_9="64.80981" pt_clust_10="105.58630"></scales>
<clustering>
<clus scale="   64.810">  1  9  2 -1</clus>
<clus scale="   79.488">  5  6 -1 -1</clus>
<clus scale="   83.202">  2  5  1 -1</clus>
<clus scale="   91.746">  7  8 -1 -1</clus>
<clus scale="  105.586">  1 10  2 -1</clus>
<clus scale="   64.810">  1  5  2 -1</clus>
</clustering>
</event>
<event>
10    3  0.5078224E-005  0.1366073E+03  0.7546771E-02  0.1221122E+00
          1   -1    0    0  503    0 -0.00000000000E+00  0.00000000000E+00  0.19180148592E+03  0.19180148592E+03  0.00000000000E+00 0. -1.
         21   -1    0    0  501  502  0.00000000000E+00 -0.00000000000E+00 -0.42073302933E+03  0.42073302933E+03  0.00000000000E+00 0. -1.
        -24    2    1    2    0    0 -0.62935823423E+02 -0.10148853721E+03  0.22713912759E+02  0.14442243511E+03  0.77981259780E+02 0.  0.
         23    2    1    2    0    0 -0.23343448175E+02  0.92897082341E+02 -0.29154567424E+02  0.13572856597E+03  0.91637712431E+02 0.  0.
         11    1    3    3    0    0 -0.39989795892E+02 -0.88274799357E+02  0.47702236604E+02  0.10801447752E+03  0.00000000000E+00 0. -1.
        -12    1    3    3    0    0 -0.22946027531E+02 -0.13213737849E+02 -0.24988323846E+02  0.36407957592E+02  0.00000000000E+00 0.  1.
        -11    1    4    4    0    0 -0.28749595963E+02  0.29442415563E+02 -0.53546702745E+02  0.67532543837E+02  0.00000000000E+00 0. -1.
         11    1    4    4    0    0  0.54061477882E+01  0.63454666779E+02  0.24392135321E+02  0.68196022138E+02  0.00000000000E+00 0.  1.
         21    1    1    2  503  502  0.59768586496E+02  0.19788666070E+01 -0.27056088896E+03  0.27709094984E+03  0.00000000000E+00 0. -1.
          2    1    1    2  501    0  0.26510685102E+02  0.66125882579E+01  0.48070000220E+02  0.55292564322E+02  0.00000000000E+00 0. -1.
<scales pt_clust_5="13000.00000" pt_clust_6="13000.00000" pt_clust_7="13000.00000" pt_clust_8="13000.00000" pt_clust_9="77.43027" pt_clust_10="27.32295"></scales>
<clustering>
<clus scale="   27.323">  2 10  1 -1</clus>
<clus scale="   77.430">  2  9  1 -1</clus>
<clus scale="   77.981">  5  6 -1 -1</clus>
<clus scale="   91.638">  7  8 -1 -1</clus>
<clus scale="  127.848">  1  5  2 -1</clus>
<clus scale="   27.323">  2  5  1 -1</clus>
</clustering>
</event>
<event>
10    3  0.5078224E-005  0.1032323E+03  0.7546771E-02  0.1278611E+00
         21   -1    0    0  503  502  0.00000000000E+00  0.00000000000E+00  0.44856871852E+02  0.44856871852E+02  0.00000000000E+00 0.  1.
          1   -1    0    0  502    0 -0.00000000000E+00 -0.00000000000E+00 -0.50342955523E+03  0.50342955523E+03  0.00000000000E+00 0. -1.
         23    2    1    2    0    0  0.42772839557E+02  0.45877592072E+02 -0.27460149869E+03  0.29606001346E+03  0.91166217595E+02 0.  0.
        -24    2    1    2    0    0  0.21261895945E+02 -0.38169534337E+02 -0.74399809405E+02  0.11793553759E+03  0.80401976446E+02 0.  0.
         11    1    4    4    0    0 -0.26170671996E+02  0.56077120995E+01 -0.18368570090E+02  0.32461590762E+02  0.00000000000E+00 0. -1.
        -12    1    4    4    0    0  0.47432567941E+02 -0.43777246436E+02 -0.56031239316E+02  0.85473946828E+02  0.00000000000E+00 0.  1.
        -13    1    3    3    0    0  0.17596725182E+02  0.71926074313E+02 -0.19566940017E+03  0.20921166092E+03  0.00000000000E+00 0. -1.
         13    1    3    3    0    0  0.25176114375E+02 -0.26048482241E+02 -0.78932098523E+02  0.86848352543E+02  0.00000000000E+00 0.  1.
         21    1    1    2  503  501 -0.14118975909E+02 -0.14652970480E+02 -0.99571268474E+01  0.22653904733E+02  0.00000000000E+00 0.  1.
          2    1    1    2  501    0 -0.49915759593E+02  0.69449127454E+01 -0.99614248437E+02  0.11163697130E+03  0.00000000000E+00 0. -1.
<scales pt_clust_5="13000.00000" pt_clust_6="13000.00000" pt_clust_7="13000.00000" pt_clust_8="13000.00000" pt_clust_9="20.34834" pt_clust_10="52.32751"></scales>
<clustering>
<clus scale="   20.348">  1  9  2 -1</clus>
<clus scale="   52.328">  1 10  2 -1</clus>
<clus scale="   80.402">  5  6 -1 -1</clus>
<clus scale="   91.166">  7  8 -1 -1</clus>
<clus scale="   93.862">  1  5  2 -1</clus>
<clus scale="   20.348">  1  5  2 -1</clus>
</clustering>
</event>
<event>
10    3  0.5078224E-005  0.1114312E+03  0.7546771E-02  0.1262864E+00
          1   -1    0    0  502    0 -0.00000000000E+00  0.00000000000E+00  0.37620058878E+03  0.37620058878E+03  0.00000000000E+00 0. -1.
         21   -1    0    0  503  502  0.00000000000E+00 -0.00000000000E+00 -0.73912918607E+02  0.73912918607E+02  0.00000000000E+00 0. -1.
        -24    2    1    2    0    0 -0.23803107912E+02 -0.62264000820E+02  0.17698323317E+03  0.20551878856E+03  0.80445720112E+02 0.  0.
         23    2    1    2    0    0  0.25386171687E+02  0.44174419431E+02  0.67616789944E+02  0.12578644554E+03  0.93028826464E+02 0.  0.
         11    1    3    3    0    0  0.95002770746E+01 -0.67147404609E+02  0.13969271907E+03  0.15528388510E+03  0.00000000000E+00 0. -1.
        -12    1    3    3    0    0 -0.33303384987E+02  0.48834037891E+01  0.37290514099E+02  0.50234903463E+02  0.00000000000E+00 0.  1.
        -13    1    4    4    0    0 -0.12688837637E+02  0.55572115072E+02  0.13389263370E+02  0.58553727018E+02  0.00000000000E+00 0. -1.
         13    1    4    4    0    0  0.38075009324E+02 -0.11397695641E+02  0.54227526574E+02  0.67232718518E+02  0.00000000000E+00 0.  1.
         21    1    1    2  503  501  0.30154908333E+02  0.79207119832E+01 -0.18075762015E+02  0.36038720112E+02  0.00000000000E+00 0. -1.
          2    1    1    2  501    0 -0.31737972108E+02  0.10168869405E+02  0.75763409081E+02  0.82769553183E+02  0.00000000000E+00 0. -1.
<scales pt_clust_5="13000.00000" pt_clust_6="13000.00000" pt_clust_7="13000.00000" pt_clust_8="13000.00000" pt_clust_9="31.17782" pt_clust_10="31.38595"></scales>
<clustering>
<clus scale="   31.178">  2  9  1 -1</clus>
<clus scale="   31.386">  2 10  1 -1</clus>
<clus scale="   80.446">  5  6 -1 -1</clus>
<clus scale="   93.029">  7  8 -1 -1</clus>
<clus scale="  101.163">  1  5  2 -1</clus>
<clus scale="   31.178">  2  5  1 -1</clus>
</clustering>
</event>
<event>
10    3  0.5078224E-005  0.2673065E+03  0.7546771E-02  0.1145847E+00
          1   -1    0    0  503    0 -0.00000000000E+00  0.00000000000E+00  0.62365224185E+03  0.62365224185E+03  0.00000000000E+00 0. -1.
         21   -1    0    0  501  502  0.00000000000E+00 -0.00000000000E+00 -0.35663010949E+03  0.35663010949E+03  0.00000000000E+00 0. -1.
        -24    2    1    2    0    0 -0.44682595895E+02  0.30758822601E+01  0.92377119889E+02  0.13030220429E+03  0.80244231789E+02 0.  0.
         23    2    1    2    0    0  0.11043272015E+03  0.22346292614E+03  0.35893884921E+03  0.44732648166E+03  0.95565781936E+02 0.  0.
         13    1    3    3    0    0 -0.53016448015E+02  0.13811394757E+02  0.22684118331E+02  0.59296438423E+02  0.00000000000E+00 0. -1.
        -14    1    3    3    0    0  0.83338521196E+01 -0.10735512497E+02  0.69693001558E+02  0.71005765864E+02  0.00000000000E+00 0.  1.
        -13    1    4    4    0    0  0.12656239250E+02  0.11842002587E+03  0.12327362111E+03  0.17140556754E+03  0.00000000000E+00 0.  1.
         13    1    4    4    0    0  0.97776480897E+02  0.10504290027E+03  0.23566522810E+03  0.27592091412E+03  0.00000000000E+00 0. -1.
         21    1    1    2  503  502  0.67154387018E+01  0.59038515709E+02 -0.54773928457E+02  0.80813530381E+02  0.00000000000E+00 0. -1.
          2    1    1    2  501    0 -0.72465562954E+02 -0.28557732411E+03 -0.12951990829E+03  0.32184013501E+03  0.00000000000E+00 0. -1.
<scales pt_clust_5="13000.00000" pt_clust_6="13000.00000" pt_clust_7="13000.00000" pt_clust_8="13000.00000" pt_clust_9="59.41922" pt_clust_10="249.63967"></scales>
<clustering>
<clus scale="   59.419">  2  9  1 -1</clus>
<clus scale="   80.244">  5  6 -1 -1</clus>
<clus scale="   91.896">  1  5  2 -1</clus>
<clus scale="   95.566">  7  8 -1 -1</clus>
<clus scale="  249.640">  2 10  1 -1</clus>
<clus scale="   59.419">  2  5  1 -1</clus>
</clustering>
</event>
<event>
10    3  0.5078224E-005  0.2794830E+03  0.7546771E-02  0.1138032E+00
         21   -1    0    0  503  502  0.00000000000E+00  0.00000000000E+00  0.10761001586E+04  0.10761001586E+04  0.00000000000E+00 0.  1.
          1   -1    0    0  502    0 -0.00000000000E+00 -0.00000000000E+00 -0.50914773969E+03  0.50914773969E+03  0.00000000000E+00 0. -1.
         23    2    1    2    0    0 -0.30702679216E+02 -0.12000167065E+02 -0.23646054480E+03  0.25558949816E+03  0.91245513859E+02 0.  0.
        -24    2    1    2    0    0 -0.13083235470E+03  0.11947412898E+03  0.31737965166E+03  0.37221720253E+03  0.80153789947E+02 0.  0.
         13    1    4    4    0    0 -0.19803774795E+02  0.68242911048E+02  0.97839655930E+02  0.12092097699E+03  0.00000000000E+00 0. -1.
        -14    1    4    4    0    0 -0.11102857990E+03  0.51231217935E+02  0.21953999573E+03  0.25129622554E+03  0.00000000000E+00 0.  1.
        -11    1    3    3    0    0  0.30093069211E+02  0.58112365077E+01 -0.49844352248E+02  0.58513440638E+02  0.00000000000E+00 0.  1.
         11    1    3    3    0    0 -0.60795748426E+02 -0.17811403573E+02 -0.18661619255E+03  0.19707605752E+03  0.00000000000E+00 0. -1.
         21    1    1    2  503  501 -0.81043991358E+02  0.80836764939E+02  0.61412782580E+03  0.62470448816E+03  0.00000000000E+00 0.  1.
          2    1    1    2  501    0  0.24257902527E+03 -0.18831072686E+03 -0.12809451376E+03  0.33273670943E+03  0.00000000000E+00 0. -1.
<scales pt_clust_5="13000.00000" pt_clust_6="13000.00000" pt_clust_7="13000.00000" pt_clust_8="13000.00000" pt_clust_9="114.73525" pt_clust_10="267.74275"></scales>
<clustering>
<clus scale="   80.154">  5  6 -1 -1</clus>
<clus scale="   91.246">  7  8 -1 -1</clus>
<clus scale="   97.018">  2  7  1 -1</clus>
<clus scale="  114.735">  1  9  2 -1</clus>
<clus scale="  267.743">  1 10  2 -1</clus>
<clus scale="  114.735">  1  5  2 -1</clus>
</clustering>
</event>
<event>
10    3  0.5078224E-005  0.1239658E+03  0.7546771E-02  0.1259867E+00
         -2   -1    0    0    0  501 -0.00000000000E+00  0.00000000000E+00  0.80285715223E+02  0.80285715223E+02  0.00000000000E+00 0.  1.
         21   -1    0    0  503  502  0.00000000000E+00 -0.00000000000E+00 -0.84057629940E+03  0.84057629940E+03  0.00000000000E+00 0.  1.
        -24    2    1    2    0    0  0.15584318270E+02 -0.17912333932E+02 -0.18072542498E+03  0.19705554331E+03  0.74869788524E+02 0.  0.
         23    2    1    2    0    0  0.45626261327E+02  0.72383397979E+02 -0.58575235810E+03  0.59873092992E+03  0.89731763534E+02 0.  0.
         11    1    3    3    0    0  0.39745562338E+02  0.10376313052E+02 -0.86740370862E+02  0.95975359001E+02  0.00000000000E+00 0. -1.
        -12    1    3    3    0    0 -0.24161244068E+02 -0.28288646984E+02 -0.93985054117E+02  0.10108018431E+03  0.00000000000E+00 0.  1.
        -11    1    4    4    0    0  0.90802037878E+00  0.78775934214E+02 -0.36554467659E+03  0.37393767247E+03  0.00000000000E+00 0.  1.
         11    1    4    4    0    0  0.44718240948E+02 -0.63925362353E+01 -0.22020768152E+03  0.22479325745E+03  0.00000000000E+00 0. -1.
         21    1    1    2  503  501 -0.12734267342E+02  0.15712919011E+02 -0.26839621695E+02  0.33606884433E+02  0.00000000000E+00 0. -1.
         -1    1    1    2    0  502 -0.48476312255E+02 -0.70183983057E+02  0.33026820600E+02  0.91468656963E+02  0.00000000000E+00 0.  1.
<scales pt_clust_5="13000.00000" pt_clust_6="13000.00000" pt_clust_7="13000.00000" pt_clust_8="13000.00000" pt_clust_9="20.22517" pt_clust_10="85.53203"></scales>
<clustering>
<clus scale="   20.225">  1  9  2 -1</clus>
<clus scale="   74.870">  5  6 -1 -1</clus>
<clus scale="   77.923">  1  5  2 -1</clus>
<clus scale="   85.532">  2 10  1 -1</clus>
<clus scale="   89.732">  7  8 -1 -1</clus>
<clus scale="   85.532">  2  5  1 -1</clus>
</clustering>
</event>
<event>
10    3  0.5078224E-005  0.1064629E+03  0.7546771E-02  0.1273956E+00
         -2   -1    0    0    0  501 -0.00000000000E+00  0.00000000000E+00  0.20477194148E+03  0.20477194148E+03  0.00000000000E+00 0.  1.
         21   -1    0    0  503  502  0.00000000000E+00 -0.00000000000E+00 -0.74687579520E+03  0.74687579520E+03  0.00000000000E+00 0. -1.
         23    2    1    2    0    0 -0.19443169222E+02  0.41567120796E+02  0.10117204856E+03  0.14519303140E+03  0.93484600850E+02 0.  0.
        -24    2    1    2    0    0 -0.41404556765E+02 -0.80494102617E+02 -0.22294805883E+02  0.12184956483E+03  0.78464133225E+02 0.  0.
         13    1    4    4    0    0 -0.20746227858E+02  0.11262638472E+02  0.45484937440E+01  0.24040419943E+02  0.00000000000E+00 0. -1.
        -14    1    4    4    0    0 -0.20658328906E+02 -0.91756741089E+02 -0.26843299627E+02  0.97809144886E+02  0.00000000000E+00 0.  1.
        -13    1    3    3    0    0  0.36495948028E+02  0.63650866943E+01  0.46250018510E+02  0.59258187310E+02  0.00000000000E+00 0.  1.
         13    1    3    3    0    0 -0.55939117250E+02  0.35202034102E+02  0.54922030047E+02  0.85934844086E+02  0.00000000000E+00 0. -1.
         21    1    1    2  503  501  0.66297712737E+02 -0.55188653137E+02 -0.57180791639E+03  0.57827801912E+03  0.00000000000E+00 0. -1.
         -1    1    1    2    0  502 -0.54499867503E+01  0.94115634958E+02 -0.49173180007E+02  0.10632712133E+03  0.00000000000E+00 0.  1.
<scales pt_clust_5="13000.00000" pt_clust_6="13000.00000" pt_clust_7="13000.00000" pt_clust_8="13000.00000" pt_clust_9="86.26224" pt_clust_10="73.37247"></scales>
<clustering>
<clus scale="   78.464">  5  6 -1 -1</clus>
<clus scale="   86.262">  2  9  1 -1</clus>
<clus scale="   73.372">  2 10  1 -1</clus>
<clus scale="   93.485">  7  8 -1 -1</clus>
<clus scale="   93.550">  2  5  1 -1</clus>
<clus scale="   86.262">  2  5  1 -1</clus>
</clustering>
</event>
<event>
10    3  0.5078224E-005  0.9554492E+02  0.7546771E-02  0.1294195E+00
         21   -1    0    0  503  502  0.00000000000E+00  0.00000000000E+00  0.12382524404E+03  0.12382524404E+03  0.00000000000E+00 0. -1.
         -4   -1    0    0    0  501 -0.00000000000E+00 -0.00000000000E+00 -0.24323979264E+03  0.24323979264E+03  0.00000000000E+00 0.  1.
        -24    2    1    2    0    0  0.26048679723E+02 -0.13142584517E+01 -0.12812369638E+03  0.15475391428E+03  0.82781830247E+02 0.  0.
         23    2    1    2    0    0 -0.60578813238E+02 -0.24448008286E+02  0.53017778479E+02  0.12356460451E+03  0.90497673622E+02 0.  0.
         13    1    3    3    0    0  0.32583231779E+02 -0.31344319781E+02 -0.36479211793E+02  0.58093599206E+02  0.00000000000E+00 0. -1.
        -14    1    3    3    0    0 -0.65345520558E+01  0.30030061329E+02 -0.91644484590E+02  0.96660315072E+02  0.00000000000E+00 0.  1.
        -11    1    4    4    0    0 -0.63559876562E+02  0.75963725050E+01  0.29934668129E+01  0.64082163099E+02  0.00000000000E+00 0.  1.
         11    1    4    4    0    0  0.29810633245E+01 -0.32044380791E+02  0.50024311666E+02  0.59482441414E+02  0.00000000000E+00 0. -1.
         21    1    1    2  503  501  0.15664611622E+02 -0.15394702746E+02  0.42338939131E+01  0.22367449287E+02  0.00000000000E+00 0. -1.
         -3    1    1    2    0  502  0.18865521892E+02  0.41156969485E+02 -0.48542524607E+02  0.66379068603E+02  0.00000000000E+00 0.  1.
<scales pt_clust_5="13000.00000" pt_clust_6="13000.00000" pt_clust_7="13000.00000" pt_clust_8="13000.00000" pt_clust_9="21.96308" pt_clust_10="44.70333"></scales>
<clustering>
<clus scale="   21.963">  1  9  2 -1</clus>
<clus scale="   44.703">  1 10  2 -1</clus>
<clus scale="   82.782">  5  6 -1 -1</clus>
<clus scale="   88.271">  2  5  1 -1</clus>
<clus scale="   90.498">  7  8 -1 -1</clus>
<clus scale="   21.963">  1  5  2 -1</clus>
</clustering>
</event>
<event>
10    3  0.5078224E-005  0.1507472E+03  0.7546771E-02  0.1201396E+00
         -4   -1    0    0    0  501 -0.00000000000E+00  0.00000000000E+00  0.13411245479E+04  0.13411245479E+04  0.00000000000E+00 0.  1.
         21   -1    0    0  503  502  0.00000000000E+00 -0.00000000000E+00 -0.10675545417E+03  0.10675545417E+03  0.00000000000E+00 0.  1.
        -24    2    1    2    0    0 -0.10791360251E+02 -0.12869515599E+03  0.12191544546E+04  0.12287109241E+04  0.81939332884E+02 0.  0.
         23    2    1    2    0    0  0.17982493849E+01  0.33155874431E+02  0.13734689560E+02  0.98731700654E+02  0.91960650859E+02 0.  0.
         13    1    3    3    0    0  0.14499462556E+02 -0.78374359353E+02  0.41486415232E+03  0.42245122736E+03  0.00000000000E+00 0. -1.
        -14    1    3    3    0    0 -0.25290822808E+02 -0.50320796636E+02  0.80429030227E+03  0.80625969676E+03  0.00000000000E+00 0.  1.
        -13    1    4    4    0    0  0.24552185811E+02  0.98089855336E+01 -0.32664986321E+02  0.42024128267E+02  0.00000000000E+00 0.  1.
         13    1    4    4    0    0 -0.22753936426E+02  0.23346888898E+02  0.46399675881E+02  0.56707572386E+02  0.00000000000E+00 0. -1.
         21    1    1    2  503  501 -0.20671199345E+02  0.13731562488E+02 -0.18742223588E+02  0.31098637201E+02  0.00000000000E+00 0.  1.
         -3    1    1    2    0  502  0.29664310212E+02  0.81807719070E+02  0.20222173208E+02  0.89338740136E+02  0.00000000000E+00 0.  1.
<scales pt_clust_5="13000.00000" pt_clust_6="13000.00000" pt_clust_7="13000.00000" pt_clust_8="13000.00000" pt_clust_9="24.81641" pt_clust_10="90.07311"></scales>
<clustering>
<clus scale="   24.816">  2  9  1 -1</clus>
<clus scale="   81.939">  5  6 -1 -1</clus>
<clus scale="   90.073">  2 10  1 -1</clus>
<clus scale="   91.961">  7  8 -1 -1</clus>
<clus scale="  144.852">  1  5  2 -1</clus>
<clus scale="   24.816">  2  5  1 -1</clus>
</clustering>
</event>
<event>
10    3  0.5078224E-005  0.4379469E+03  0.7546771E-02  0.1031379E+00
         21   -1    0    0  503  502  0.00000000000E+00  0.00000000000E+00  0.20982136389E+03  0.20982136389E+03  0.00000000000E+00 0. -1.
          1   -1    0    0  502    0 -0.00000000000E+00 -0.00000000000E+00 -0.92169150454E+03  0.92169150454E+03  0.00000000000E+00 0. -1.
        -24    2    1    2    0    0  0.21167004117E+03 -0.12025138248E+02 -0.66987807834E+02  0.23641594257E+03  0.80351236626E+02 0.  0.
         23    2    1    2    0    0  0.11543481486E+03  0.13043735587E+03 -0.13118402212E+03  0.23479220530E+03  0.87057634497E+02 0.  0.
         11    1    3    3    0    0  0.14412047544E+03 -0.27435183647E+02 -0.10610531175E+02  0.14709175406E+03  0.00000000000E+00 0. -1.
        -12    1    3    3    0    0  0.67549565731E+02  0.15410045399E+02 -0.56377276659E+02  0.89324188511E+02  0.00000000000E+00 0.  1.
        -11    1    4    4    0    0  0.10543773013E+03  0.72230534889E+02 -0.11870667470E+03  0.17442946920E+03  0.00000000000E+00 0.  1.
         11    1    4    4    0    0  0.99970847236E+01  0.58206820981E+02 -0.12477347421E+02  0.60362736107E+02  0.00000000000E+00 0. -1.
         21    1    1    2  503  501  0.89180244292E+01  0.27406412068E+02  0.68210399153E+00  0.28828941153E+02  0.00000000000E+00 0. -1.
          2    1    1    2  501    0 -0.33602288045E+03 -0.14581862969E+03 -0.51438041469E+03  0.63147577940E+03  0.00000000000E+00 0. -1.
<scales pt_clust_5="13000.00000" pt_clust_6="13000.00000" pt_clust_7="13000.00000" pt_clust_8="13000.00000" pt_clust_9="28.82087" pt_clust_10="360.62666"></scales>
<clustering>
<clus scale="   28.821">  1  9  2 -1</clus>
<clus scale="   80.351">  5  6 -1 -1</clus>
<clus scale="   87.058">  7  8 -1 -1</clus>
<clus scale="  187.770">  5  7 -1 -1</clus>
<clus scale="  360.627">  1 10  2 -1</clus>
<clus scale="   28.821">  1  5  2 -1</clus>
</clustering>
</event>
<event>
10    3  0.5078224E-005  0.2259340E+03  0.7546771E-02  0.1130160E+00
         21   -1    0    0  503  502  0.00000000000E+00  0.00000000000E+00  0.88407010276E+03  0.88407010276E+03  0.00000000000E+00 0. -1.
         -4   -1    0    0    0  501 -0.00000000000E+00 -0.00000000000E+00 -0.95614265010E+02  0.95614265010E+02  0.00000000000E+00 0.  1.
         23    2    1    2    0    0  0.59920526874E+02 -0.21090188465E+03  0.14451486628E+03  0.27726653805E+03  0.89006247284E+02 0.  0.
        -24    2    1    2    0    0 -0.31623481828E+02  0.18464981462E+03  0.35625398467E+03  0.41035297255E+03  0.79856507814E+02 0.  0.
         11    1    4    4    0    0 -0.52541866574E+02  0.73956519711E+02  0.16957338886E+03  0.19231575277E+03  0.00000000000E+00 0. -1.
        -12    1    4    4    0    0  0.20918384747E+02  0.11069329491E+03  0.18668059581E+03  0.21803721978E+03  0.00000000000E+00 0.  1.
        -11    1    3    3    0    0 -0.28139407670E+01 -0.13706960482E+03  0.64039477678E+02  0.15131771056E+03  0.00000000000E+00 0.  1.
         11    1    3    3    0    0  0.62734467641E+02 -0.73832279835E+02  0.80475388598E+02  0.12594882749E+03  0.00000000000E+00 0. -1.
         21    1    1    2  503  501 -0.27149689425E+02  0.43464678910E+01  0.18744742864E+03  0.18945325525E+03  0.00000000000E+00 0. -1.
         -3    1    1    2    0  502 -0.11473556216E+01  0.21905602141E+02  0.10023955816E+03  0.10261160193E+03  0.00000000000E+00 0.  1.
<scales pt_clust_5="13000.00000" pt_clust_6="13000.00000" pt_clust_7="13000.00000" pt_clust_8="13000.00000" pt_clust_9="29.06454" pt_clust_10="21.93563"></scales>
<clustering>
<clus scale="   21.936">  1 10  2 -1</clus>
<clus scale="   29.065">  1  9  2 -1</clus>
<clus scale="   79.857">  5  6 -1 -1</clus>
<clus scale="   89.006">  7  8 -1 -1</clus>
<clus scale="  222.489">  1  5  2 -1</clus>
<clus scale="   21.936">  1  5  2 -1</clus>
</clustering>
</event>
<event>
10    3  0.5078224E-005  0.1070877E+03  0.7546771E-02  0.1271442E+00
          1   -1    0    0  503    0 -0.00000000000E+00  0.00000000000E+00  0.10726528797E+03  0.10726528797E+03  0.00000000000E+00 0. -1.
         21   -1    0    0  501  502  0.00000000000E+00 -0.00000000000E+00 -0.30973362052E+03  0.30973362052E+03  0.00000000000E+00 0.  1.
         23    2    1    2    0    0 -0.13455902645E+02  0.61680498144E+02  0.37197392859E+02  0.11749727272E+03  0.91849974927E+02 0.  0.
        -24    2    1    2    0    0 -0.32324941443E+02 -0.39982517377E+02 -0.66928288265E+02  0.11576020441E+03  0.79230837561E+02 0.  0.
         11    1    4    4    0    0 -0.54731348274E+02 -0.30863172391E+02 -0.66606702295E+02  0.91566962845E+02  0.00000000000E+00 0. -1.
        -12    1    4    4    0    0  0.22406406831E+02 -0.91193449860E+01 -0.32158596993E+00  0.24193241568E+02  0.00000000000E+00 0.  1.
        -11    1    3    3    0    0 -0.50243368786E+02  0.16216474244E+02  0.20937854729E+02  0.56795808864E+02  0.00000000000E+00 0. -1.
         11    1    3    3    0    0  0.36787466140E+02  0.45464023900E+02  0.16259538131E+02  0.60701463857E+02  0.00000000000E+00 0.  1.
         21    1    1    2  503  502  0.19738185644E+02 -0.69923360882E+01 -0.12941517620E+03  0.13109834693E+03  0.00000000000E+00 0. -1.
          2    1    1    2  501    0  0.26042658445E+02 -0.14705644678E+02 -0.43322260949E+02  0.52643084427E+02  0.00000000000E+00 0. -1.
<scales pt_clust_5="13000.00000" pt_clust_6="13000.00000" pt_clust_7="13000.00000" pt_clust_8="13000.00000" pt_clust_9="20.94012" pt_clust_10="35.43515"></scales>
<clustering>
<clus scale="   20.940">  2  9  1 -1</clus>
<clus scale="   35.435">  2 10  1 -1</clus>
<clus scale="   79.231">  5  6 -1 -1</clus>
<clus scale="   91.850">  7  8 -1 -1</clus>
<clus scale="   96.483">  2  5  1 -1</clus>
<clus scale="   20.940">  2  5  1 -1</clus>
</clustering>
</event>
<event>
10    3  0.5078224E-005  0.2883686E+03  0.7546771E-02  0.1115174E+00
          1   -1    0    0  502    0 -0.00000000000E+00  0.00000000000E+00  0.65072761986E+03  0.65072761986E+03  0.00000000000E+00 0. -1.
         21   -1    0    0  503  502  0.00000000000E+00 -0.00000000000E+00 -0.22801343548E+03  0.22801343548E+03  0.00000000000E+00 0. -1.
        -24    2    1    2    0    0 -0.12663530935E+03 -0.40698561379E+02  0.11139346191E+03  0.19118563316E+03  0.80315431259E+02 0.  0.
         23    2    1    2    0    0  0.15914239561E+03  0.28624626830E+03  0.22836783725E+03  0.40914413733E+03  0.89352268163E+02 0.  0.
         11    1    3    3    0    0 -0.10122311949E+03 -0.56854797818E+02  0.11164855768E+03  0.16107137668E+03  0.00000000000E+00 0. -1.
        -12    1    3    3    0    0 -0.25412189861E+02  0.16156236439E+02 -0.25509577122E+00  0.30114256478E+02  0.00000000000E+00 0.  1.
        -11    1    4    4    0    0  0.12722140650E+03  0.15180592262E+03  0.10639808739E+03  0.22483522281E+03  0.00000000000E+00 0.  1.
         11    1    4    4    0    0  0.31920989111E+02  0.13444034567E+03  0.12196974986E+03  0.18430891452E+03  0.00000000000E+00 0. -1.
         21    1    1    2  503  501 -0.25114589037E+02 -0.59527670093E+02 -0.17411839218E+02  0.66913811984E+02  0.00000000000E+00 0. -1.
          2    1    1    2  501    0 -0.73924972229E+01 -0.18602003682E+03  0.10036472444E+03  0.21149747286E+03  0.00000000000E+00 0. -1.
<scales pt_clust_5="13000.00000" pt_clust_6="13000.00000" pt_clust_7="13000.00000" pt_clust_8="13000.00000" pt_clust_9="56.75422" pt_clust_10="56.75422"></scales>
<clustering>
<clus scale="   56.754">  9 10 -1 -1</clus>
<clus scale="   80.315">  5  6 -1 -1</clus>
<clus scale="   89.352">  7  8 -1 -1</clus>
<clus scale="  155.382">  1  5  2 -1</clus>
<clus scale="  286.110">  1  7  2 -1</clus>
<clus scale="  288.369">  2  5  1 -1</clus>
</clustering>
</event>
<event>
10    3  0.5078224E-005  0.2112755E+03  0.7546771E-02  0.1140560E+00
          1   -1    0    0  503    0 -0.00000000000E+00  0.00000000000E+00  0.11913827332E+04  0.11913827332E+04  0.00000000000E+00 0. -1.
         21   -1    0    0  501  502  0.00000000000E+00 -0.00000000000E+00 -0.79162949374E+02  0.79162949374E+02  0.00000000000E+00 0.  1.
        -24    2    1    2    0    0  0.81987797904E+02  0.22200640464E+02  0.30015810087E+03  0.32245680267E+03  0.81661720694E+02 0.  0.
         23    2    1    2    0    0  0.24322295344E+02 -0.57802765304E+01  0.21659632988E+03  0.23625063608E+03  0.90969265584E+02 0.  0.
         11    1    3    3    0    0  0.83454038285E+02  0.42087994588E+02  0.27440079301E+03  0.28988233992E+03  0.00000000000E+00 0. -1.
        -12    1    3    3    0    0 -0.14662403807E+01 -0.19887354125E+02  0.25757307860E+02  0.32574462745E+02  0.00000000000E+00 0.  1.
        -13    1    4    4    0    0 -0.31611457217E+02  0.87793454810E+01  0.11248633210E+03  0.11717310290E+03  0.00000000000E+00 0. -1.
         13    1    4    4    0    0  0.55933752562E+02 -0.14559622011E+02  0.10410999778E+03  0.11907753317E+03  0.00000000000E+00 0.  1.
         21    1    1    2  503  502 -0.97286182793E+01  0.25931643013E+02 -0.50352167349E+02  0.57466832867E+02  0.00000000000E+00 0.  1.
          2    1    1    2  501    0 -0.96581474969E+02 -0.42352006946E+02  0.64581752038E+03  0.65437141092E+03  0.00000000000E+00 0. -1.
<scales pt_clust_5="13000.00000" pt_clust_6="13000.00000" pt_clust_7="13000.00000" pt_clust_8="13000.00000" pt_clust_9="27.69650" pt_clust_10="105.30882"></scales>
<clustering>
<clus scale="   27.697">  2  9  1 -1</clus>
<clus scale="   81.662">  5  6 -1 -1</clus>
<clus scale="   90.969">  7  8 -1 -1</clus>
<clus scale="   93.245">  5  7 -1 -1</clus>
<clus scale="  105.309">  2 10  1 -1</clus>
<clus scale="   27.697">  2  5  1 -1</clus>
</clustering>
</event>
<event>
10    3  0.5078224E-005  0.1221275E+03  0.7546771E-02  0.1246734E+00
          1   -1    0    0  503    0 -0.00000000000E+00  0.00000000000E+00  0.30635573483E+03  0.30635573483E+03  0.00000000000E+00 0. -1.
         21   -1    0    0  501  502  0.00000000000E+00 -0.00000000000E+00 -0.35064312676E+03  0.35064312676E+03  0.00000000000E+00 0.  1.
        -24    2    1    2    0    0 -0.63860848869E+02  0.28547061690E+02  0.25131644912E+03  0.27285385406E+03  0.79975779615E+02 0.  0.
         23    2    1    2    0    0  0.50718725702E+02 -0.38523138574E+02 -0.77588985735E+02  0.14211017786E+03  0.10059239833E+03 0.  0.
         11    1    3    3    0    0 -0.51320060353E+02  0.16909248537E+01  0.23167409793E+03  0.23729621883E+03  0.00000000000E+00 0. -1.
        -12    1    3    3    0    0 -0.12540788517E+02  0.26856136836E+02  0.19642351195E+02  0.35557635226E+02  0.00000000000E+00 0.  1.
        -11    1    4    4    0    0 -0.17960618133E+02 -0.44457833479E+02 -0.18770742537E+02  0.51491975460E+02  0.00000000000E+00 0. -1.
         11    1    4    4    0    0  0.68679343835E+02  0.59346949048E+01 -0.58818243198E+02  0.90618202399E+02  0.00000000000E+00 0.  1.
         21    1    1    2  503  502 -0.85395662107E+01  0.44968257991E+02 -0.18092600865E+03  0.18662606737E+03  0.00000000000E+00 0.  1.
          2    1    1    2  501    0  0.21681689378E+02 -0.34992181106E+02 -0.37088846674E+02  0.55408762308E+02  0.00000000000E+00 0. -1.
<scales pt_clust_5="13000.00000" pt_clust_6="13000.00000" pt_clust_7="13000.00000" pt_clust_8="13000.00000" pt_clust_9="24.27235" pt_clust_10="41.16489"></scales>
<clustering>
<clus scale="   41.165">  2 10  1 -1</clus>
<clus scale="   24.272">  2  9  1 -1</clus>
<clus scale="   79.976">  5  6 -1 -1</clus>
<clus scale="  100.592">  7  8 -1 -1</clus>
<clus scale="  105.794">  1  5  2 -1</clus>
<clus scale="   41.165">  2  5  1 -1</clus>
</clustering>
</event>
<event>
10    3  0.5078224E-005  0.1562772E+03  0.7546771E-02  0.1195696E+00
          1   -1    0    0  502    0 -0.00000000000E+00  0.00000000000E+00  0.63520085889E+03  0.63520085889E+03  0.00000000000E+00 0. -1.
         21   -1    0    0  503  502  0.00000000000E+00 -0.00000000000E+00 -0.75626341325E+02  0.75626341325E+02  0.00000000000E+00 0. -1.
        -24    2    1    2    0    0  0.59709538473E+02  0.11105396255E+03  0.24296770781E+03  0.28437292457E+03  0.77048306961E+02 0.  0.
         23    2    1    2    0    0  0.20443106307E+02 -0.13911127797E+03  0.20390631508E+03  0.26465258226E+03  0.93238059346E+02 0.  0.
         11    1    3    3    0    0  0.64074376078E+02  0.48391278495E+02  0.10023815321E+03  0.12843258490E+03  0.00000000000E+00 0. -1.
        -12    1    3    3    0    0 -0.43648376053E+01  0.62662684059E+02  0.14272955460E+03  0.15594033967E+03  0.00000000000E+00 0.  1.
        -13    1    4    4    0    0  0.26077718843E+02 -0.58393251565E+01  0.84700027714E+01  0.28033659862E+02  0.00000000000E+00 0.  1.
         13    1    4    4    0    0 -0.56346125353E+01 -0.13327195282E+03  0.19543631231E+03  0.23661892240E+03  0.00000000000E+00 0. -1.
         21    1    1    2  503  501 -0.27989276942E+02  0.17371528879E+02 -0.43320819478E+01  0.33225540978E+02  0.00000000000E+00 0. -1.
          2    1    1    2  501    0 -0.52163367838E+02  0.10685786541E+02  0.11703257662E+03  0.12857615241E+03  0.00000000000E+00 0. -1.
<scales pt_clust_5="13000.00000" pt_clust_6="13000.00000" pt_clust_7="13000.00000" pt_clust_8="13000.00000" pt_clust_9="32.94191" pt_clust_10="56.39646"></scales>
<clustering>
<clus scale="   32.942">  2  9  1 -1</clus>
<clus scale="   56.396">  2 10  1 -1</clus>
<clus scale="   77.048">  5  6 -1 -1</clus>
<clus scale="   93.238">  7  8 -1 -1</clus>
<clus scale="  147.193">  1  5  2 -1</clus>
<clus scale="   32.942">  2  5  1 -1</clus>
</clustering>
</event>
<event>
10    3  0.5078224E-005  0.1287240E+03  0.7546771E-02  0.1232191E+00
         -2   -1    0    0    0  501 -0.00000000000E+00  0.00000000000E+00  0.10430018667E+03  0.10430018667E+03  0.00000000000E+00 0.  1.
         21   -1    0    0  501  502  0.00000000000E+00 -0.00000000000E+00 -0.33692024763E+03  0.33692024763E+03  0.00000000000E+00 0. -1.
        -24    2    1    2    0    0 -0.81737611684E+02 -0.77908707718E+02 -0.59340531961E+01  0.13850035687E+03  0.79977071481E+02 0.  0.
         23    2    1    2    0    0  0.59223795814E+01  0.50216478779E+02 -0.15414296167E+03  0.18584565624E+03  0.90674064605E+02 0.  0.
         13    1    3    3    0    0 -0.70169612251E+02 -0.27648096905E+02  0.23652377785E+02  0.79041930143E+02  0.00000000000E+00 0. -1.
        -14    1    3    3    0    0 -0.11567999433E+02 -0.50260610813E+02 -0.29586430981E+02  0.59458426723E+02  0.00000000000E+00 0.  1.
        -13    1    4    4    0    0  0.31331104834E+02  0.67512993395E+01 -0.10645162949E+02  0.33771847256E+02  0.00000000000E+00 0.  1.
         13    1    4    4    0    0 -0.25408725253E+02  0.43465179439E+02 -0.14349779872E+03  0.15207380899E+03  0.00000000000E+00 0. -1.
         21    1    1    2  503  502  0.25161311006E+02 -0.14483703379E+01 -0.46511023838E+02  0.52900516884E+02  0.00000000000E+00 0. -1.
         -1    1    1    2    0  503  0.50653921096E+02  0.29140599277E+02 -0.26032022265E+02  0.63973904304E+02  0.00000000000E+00 0.  1.
<scales pt_clust_5="13000.00000" pt_clust_6="13000.00000" pt_clust_7="13000.00000" pt_clust_8="13000.00000" pt_clust_9="25.20296" pt_clust_10="61.78000"></scales>
<clustering>
<clus scale="   25.203">  2  9  1 -1</clus>
<clus scale="   61.780">  2 10  1 -1</clus>
<clus scale="   79.977">  5  6 -1 -1</clus>
<clus scale="   90.674">  7  8 -1 -1</clus>
<clus scale="  121.427">  1  5  2 -1</clus>
<clus scale="   25.203">  2  5  1 -1</clus>
</clustering>
</event>
<event>
10    3  0.5078224E-005  0.3028798E+03  0.7546771E-02  0.1083810E+00
         21   -1    0    0  503  502  0.00000000000E+00  0.00000000000E+00  0.44597297765E+03  0.44597297765E+03  0.00000000000E+00 0. -1.
          1   -1    0    0  502    0 -0.00000000000E+00 -0.00000000000E+00 -0.27831029342E+03  0.27831029342E+03  0.00000000000E+00 0. -1.
        -24    2    1    2    0    0 -0.98076998970E+02 -0.60682539476E+02 -0.91169429084E+02  0.16692446367E+03  0.79059746074E+02 0.  0.
         23    2    1    2    0    0 -0.12614670119E+03 -0.28620885607E+02 -0.38667599373E+02  0.16261130599E+03  0.90637234520E+02 0.  0.
         11    1    3    3    0    0 -0.98745599511E+02 -0.44572578295E+02 -0.10093667055E+03  0.14807302124E+03  0.00000000000E+00 0. -1.
        -12    1    3    3    0    0  0.66860054056E+00 -0.16109961181E+02  0.97672414640E+01  0.18851442432E+02  0.00000000000E+00 0.  1.
        -13    1    4    4    0    0  0.53379944965E+01 -0.25185162575E+02 -0.12006883131E+02  0.28406897784E+02  0.00000000000E+00 0.  1.
         13    1    4    4    0    0 -0.13148469568E+03 -0.34357230321E+01 -0.26660716242E+02  0.13420440821E+03  0.00000000000E+00 0. -1.
         21    1    1    2  503  501  0.39657219047E+02  0.41238593864E+02  0.12548699834E+03  0.13791411602E+03  0.00000000000E+00 0. -1.
          2    1    1    2  501    0  0.18456648111E+03  0.48064831219E+02  0.17201271435E+03  0.25683338538E+03  0.00000000000E+00 0. -1.
<scales pt_clust_5="13000.00000" pt_clust_6="13000.00000" pt_clust_7="13000.00000" pt_clust_8="13000.00000" pt_clust_9="52.15613" pt_clust_10="259.46004"></scales>
<clustering>
<clus scale="   52.156">  9 10 -1 -1</clus>
<clus scale="   79.060">  5  6 -1 -1</clus>
<clus scale="   90.637">  7  8 -1 -1</clus>
<clus scale="  109.404">  5  7 -1 -1</clus>
<clus scale="  259.460">  1  9  2 -1</clus>
<clus scale="  259.460">  1  5  2 -1</clus>
</clustering>
</event>
<event>
10    3  0.5078224E-005  0.1565036E+03  0.7546771E-02  0.1211003E+00
         21   -1    0    0  503  502  0.00000000000E+00  0.00000000000E+00  0.97768331376E+03  0.97768331376E+03  0.00000000000E+00 0. -1.
          1   -1    0    0  502    0 -0.00000000000E+00 -0.00000000000E+00 -0.70555553869E+02  0.70555553869E+02  0.00000000000E+00 0. -1.
         23    2    1    2    0    0 -0.35859131176E+02  0.57431179040E+01  0.36343144200E+03  0.37609143839E+03  0.89685541188E+02 0.  0.
        -24    2    1    2    0    0 -0.92448651078E+02  0.21584780692E+02  0.72920926525E+02  0.14384775785E+03  0.79762522968E+02 0.  0.
         11    1    4    4    0    0 -0.80813137174E+02  0.10481051887E+02  0.89299567046E+02  0.12089263114E+03  0.00000000000E+00 0. -1.
        -12    1    4    4    0    0 -0.11635513904E+02  0.11103728805E+02 -0.16378640522E+02  0.22955126715E+02  0.00000000000E+00 0.  1.
        -11    1    3    3    0    0 -0.16836153196E+02 -0.37340601488E+02  0.93447018992E+02  0.10203000506E+03  0.00000000000E+00 0.  1.
         11    1    3    3    0    0 -0.19022977980E+02  0.43083719392E+02  0.26998442301E+03  0.27406143333E+03  0.00000000000E+00 0. -1.
         21    1    1    2  503  501 -0.36199209590E+02  0.11857613938E+02  0.23546130416E+03  0.23852255981E+03  0.00000000000E+00 0. -1.
          2    1    1    2  501    0  0.16450699184E+03 -0.39185512534E+02  0.23531408720E+03  0.28977711158E+03  0.00000000000E+00 0. -1.
<scales pt_clust_5="13000.00000" pt_clust_6="13000.00000" pt_clust_7="13000.00000" pt_clust_8="13000.00000" pt_clust_9="38.09181" pt_clust_10="134.65260"></scales>
<clustering>
<clus scale="   38.092">  1  9  2 -1</clus>
<clus scale="   79.763">  5  6 -1 -1</clus>
<clus scale="   89.686">  7  8 -1 -1</clus>
<clus scale="  105.300">  2  7  1 -1</clus>
<clus scale="  134.653">  1 10  2 -1</clus>
<clus scale="   38.092">  1  5  2 -1</clus>
</clustering>
</event>
<event>
10    3  0.5078224E-005  0.1792033E+03  0.7546771E-02  0.1170043E+00
         21   -1    0    0  501  502  0.00000000000E+00  0.00000000000E+00  0.13329649999E+03  0.13329649999E+03  0.00000000000E+00 0. -1.
          1   -1    0    0  503    0 -0.00000000000E+00 -0.00000000000E+00 -0.10676676072E+04  0.10676676072E+04  0.00000000000E+00 0. -1.
        -24    2    1    2    0    0 -0.12875858997E+03 -0.47529352925E+02 -0.38832149343E+03  0.41962517911E+03  0.80336136301E+02 0.  0.
         23    2    1    2    0    0  0.20800155504E+03  0.60971511741E+02 -0.16939107223E+03  0.29019897222E+03  0.92411774065E+02 0.  0.
         11    1    3    3    0    0 -0.75918684530E+02 -0.55776128730E+02 -0.31557564764E+03  0.32933662502E+03  0.00000000000E+00 0. -1.
        -12    1    3    3    0    0 -0.52839905442E+02  0.82467758053E+01 -0.72745845791E+02  0.90288554082E+02  0.00000000000E+00 0.  1.
        -11    1    4    4    0    0  0.14459568910E+03  0.54470027948E+02 -0.64449747231E+02  0.16741764294E+03  0.00000000000E+00 0. -1.
         11    1    4    4    0    0  0.63405865937E+02  0.65014837920E+01 -0.10494132500E+03  0.12278132928E+03  0.00000000000E+00 0.  1.
         21    1    1    2  503  502 -0.17668885197E+01 -0.91189957107E+02  0.75900438507E+01  0.91522341195E+02  0.00000000000E+00 0. -1.
          2    1    1    2  501    0 -0.77476076543E+02  0.77747798291E+02 -0.38424858542E+03  0.39961761470E+03  0.00000000000E+00 0. -1.
<scales pt_clust_5="13000.00000" pt_clust_6="13000.00000" pt_clust_7="13000.00000" pt_clust_8="13000.00000" pt_clust_9="91.20707" pt_clust_10="104.12128"></scales>
<clustering>
<clus scale="   80.336">  5  6 -1 -1</clus>
<clus scale="   91.207">  1  9  2 -1</clus>
<clus scale="   92.412">  7  8 -1 -1</clus>
<clus scale="  104.121">  1 10  2 -1</clus>
<clus scale="  173.285">  2  5  1 -1</clus>
<clus scale="   91.207">  1  5  2 -1</clus>
</clustering>
</event>
<event>
10    3  0.5078224E-005  0.1629657E+03  0.7546771E-02  0.1208932E+00
         21   -1    0    0  501  502  0.00000000000E+00  0.00000000000E+00  0.99139431692E+03  0.99139431692E+03  0.00000000000E+00 0. -1.
         -4   -1    0    0    0  501 -0.00000000000E+00 -0.00000000000E+00 -0.12377424769E+03  0.12377424769E+03  0.00000000000E+00 0.  1.
        -24    2    1    2    0    0 -0.83655890625E+01  0.51637661893E+02 -0.30899070437E+02  0.10032467645E+03  0.79836438701E+02 0.  0.
         23    2    1    2    0    0  0.15677519387E+03 -0.11348480805E+03  0.48654910094E+03  0.53139781098E+03  0.90533655690E+02 0.  0.
         13    1    3    3    0    0 -0.36489160395E+02  0.32965451288E+02  0.68875679280E+01  0.49654993675E+02  0.00000000000E+00 0. -1.
        -14    1    3    3    0    0  0.28123571332E+02  0.18672210605E+02 -0.37786638365E+02  0.50669682772E+02  0.00000000000E+00 0.  1.
        -13    1    4    4    0    0  0.99068645544E+02 -0.41766907992E+02  0.35439568099E+03  0.37034493360E+03  0.00000000000E+00 0. -1.
         13    1    4    4    0    0  0.57706548327E+02 -0.71717900062E+02  0.13215341995E+03  0.16105287738E+03  0.00000000000E+00 0.  1.
         21    1    1    2  503  502 -0.32714414934E+02  0.63001808997E+02  0.33967898114E+03  0.34701768126E+03  0.00000000000E+00 0. -1.
         -3    1    1    2    0  503 -0.11569518987E+03 -0.11546628350E+01  0.72291057581E+02  0.13642839592E+03  0.00000000000E+00 0.  1.
<scales pt_clust_5="13000.00000" pt_clust_6="13000.00000" pt_clust_7="13000.00000" pt_clust_8="13000.00000" pt_clust_9="70.98916" pt_clust_10="135.50464"></scales>
<clustering>
<clus scale="   70.989">  1  9  2 -1</clus>
<clus scale="   79.836">  5  6 -1 -1</clus>
<clus scale="   90.534">  7  8 -1 -1</clus>
<clus scale="   97.481">  2  5  1 -1</clus>
<clus scale="  135.505">  1 10  2 -1</clus>
<clus scale="   70.989">  1  5  2 -1</clus>
</clustering>
</event>
<event>
10    3  0.5078224E-005  0.9886811E+02  0.7546771E-02  0.1287634E+00
         21   -1    0    0  503  502  0.00000000000E+00  0.00000000000E+00  0.14595838418E+03  0.14595838418E+03  0.00000000000E+00 0.  1.
          1   -1    0    0  502    0 -0.00000000000E+00 -0.00000000000E+00 -0.35176173165E+03  0.35176173165E+03  0.00000000000E+00 0. -1.
         23    2    1    2    0    0 -0.29886703492E+02  0.15226525496E+02 -0.12808693291E+03  0.16053068186E+03  0.90767699717E+02 0.  0.
        -24    2    1    2    0    0 -0.35227503162E+02 -0.82194054745E+02 -0.89358601295E+02  0.15019202572E+03  0.81091586193E+02 0.  0.
         13    1    4    4    0    0 -0.14251147994E+02 -0.93705130478E+02 -0.59425886262E+02  0.11187127717E+03  0.00000000000E+00 0. -1.
        -14    1    4    4    0    0 -0.20976355169E+02  0.11511075733E+02 -0.29932715033E+02  0.38320748557E+02  0.00000000000E+00 0.  1.
        -13    1    3    3    0    0 -0.58386923000E+02  0.20081414260E+02 -0.11081010326E+03  0.12685099511E+03  0.00000000000E+00 0. -1.
         13    1    3    3    0    0  0.28500219508E+02 -0.48548887640E+01 -0.17276829656E+02  0.33679686755E+02  0.00000000000E+00 0.  1.
         21    1    1    2  503  501  0.40131500791E+02  0.47939285142E+01  0.81022482489E+02  0.90543700913E+02  0.00000000000E+00 0.  1.
          2    1    1    2  501    0  0.24982705863E+02  0.62173600735E+02 -0.69380295742E+02  0.96453707331E+02  0.00000000000E+00 0. -1.
<scales pt_clust_5="13000.00000" pt_clust_6="13000.00000" pt_clust_7="13000.00000" pt_clust_8="13000.00000" pt_clust_9="40.41682" pt_clust_10="71.81598"></scales>
<clustering>
<clus scale="   40.417">  1  9  2 -1</clus>
<clus scale="   71.816">  1 10  2 -1</clus>
<clus scale="   81.092">  5  6 -1 -1</clus>
<clus scale="   90.066">  1  5  2 -1</clus>
<clus scale="   90.768">  7  8 -1 -1</clus>
<clus scale="   40.417">  1  5  2 -1</clus>
</clustering>
</event>
<event>
10    3  0.5078224E-005  0.1360245E+03  0.7546771E-02  0.1221499E+00
         21   -1    0    0  503  502  0.00000000000E+00  0.00000000000E+00  0.33888988129E+03  0.33888988129E+03  0.00000000000E+00 0.  1.
         -2   -1    0    0    0  501 -0.00000000000E+00 -0.00000000000E+00 -0.15445786640E+03  0.15445786640E+03  0.00000000000E+00 0.  1.
         23    2    1    2    0    0 -0.31098580094E+02 -0.89444831732E+02  0.57366631979E+02  0.14386656279E+03  0.91864888916E+02 0.  0.
        -24    2    1    2    0    0  0.10313711160E+03  0.53803379739E+02  0.12291503607E+03  0.18730569165E+03  0.80269848459E+02 0.  0.
         11    1    4    4    0    0  0.54111405999E+02 -0.15437975396E+02  0.54205964095E+02  0.78132335732E+02  0.00000000000E+00 0. -1.
        -12    1    4    4    0    0  0.49025705605E+02  0.69241355135E+02  0.68709071978E+02  0.10917335592E+03  0.00000000000E+00 0.  1.
        -11    1    3    3    0    0 -0.11553987583E+02 -0.67654257620E+02  0.81055746214E+02  0.10621029704E+03  0.00000000000E+00 0.  1.
         11    1    3    3    0    0 -0.19544592511E+02 -0.21790574112E+02 -0.23689114235E+02  0.37656265744E+02  0.00000000000E+00 0. -1.
         21    1    1    2  503  501 -0.17155091344E+02 -0.51183392049E+02  0.21308904479E+02  0.58035387401E+02  0.00000000000E+00 0.  1.
         -1    1    1    2    0  502 -0.54883440165E+02  0.86824844043E+02 -0.17158557641E+02  0.10414010586E+03  0.00000000000E+00 0.  1.
<scales pt_clust_5="13000.00000" pt_clust_6="13000.00000" pt_clust_7="13000.00000" pt_clust_8="13000.00000" pt_clust_9="53.98182" pt_clust_10="89.48626"></scales>
<clustering>
<clus scale="   53.982">  2  9  1 -1</clus>
<clus scale="   80.270">  5  6 -1 -1</clus>
<clus scale="   89.486">  1 10  2 -1</clus>
<clus scale="   91.865">  7  8 -1 -1</clus>
<clus scale="  128.479">  1  5  2 -1</clus>
<clus scale="   89.486">  1  5  2 -1</clus>
</clustering>
</event>
<event>
10    3  0.5078224E-005  0.1347452E+03  0.7546771E-02  0.1226444E+00
         21   -1    0    0  501  502  0.00000000000E+00  0.00000000000E+00  0.11359541291E+03  0.11359541291E+03  0.00000000000E+00 0. -1.
          1   -1    0    0  503    0 -0.00000000000E+00 -0.00000000000E+00 -0.77779501900E+03  0.77779501900E+03  0.00000000000E+00 0. -1.
         23    2    1    2    0    0 -0.46637555850E+02  0.61254742461E+02 -0.43997490446E+03  0.45614229982E+03  0.92523921499E+02 0.  0.
        -24    2    1    2    0    0 -0.79601695639E+02  0.49366653303E+02 -0.16063993873E+02  0.12734830718E+03  0.84770531647E+02 0.  0.
         13    1    4    4    0    0 -0.66210074412E+02  0.29366678932E+02  0.27582823183E+02  0.77504760627E+02  0.00000000000E+00 0. -1.
        -14    1    4    4    0    0 -0.13391621226E+02  0.19999974371E+02 -0.43646817055E+02  0.49843546553E+02  0.00000000000E+00 0.  1.
        -11    1    3    3    0    0  0.26475229156E+02  0.40518509988E+01 -0.12129089540E+03  0.12421286794E+03  0.00000000000E+00 0.  1.
         11    1    3    3    0    0 -0.73112785005E+02  0.57202891462E+02 -0.31868400906E+03  0.33192943189E+03  0.00000000000E+00 0. -1.
         21    1    1    2  503  502 -0.76221228424E+01 -0.31007648643E+02  0.15388418997E+02  0.35445373044E+02  0.00000000000E+00 0. -1.
          2    1    1    2  501    0  0.13386137433E+03 -0.79613747121E+02 -0.22354912676E+03  0.27245445187E+03  0.00000000000E+00 0. -1.
<scales pt_clust_5="13000.00000" pt_clust_6="13000.00000" pt_clust_7="13000.00000" pt_clust_8="13000.00000" pt_clust_9="31.93072" pt_clust_10="104.73890"></scales>
<clustering>
<clus scale="   31.931">  1  9  2 -1</clus>
<clus scale="   84.771">  5  6 -1 -1</clus>
<clus scale="   92.524">  7  8 -1 -1</clus>
<clus scale="  119.220">  2  7  1 -1</clus>
<clus scale="  104.739">  1 10  2 -1</clus>
<clus scale="   31.931">  1  5  2 -1</clus>
</clustering>
</event>
<event>
10    3  0.5078224E-005  0.1406623E+03  0.7546771E-02  0.1230223E+00
         21   -1    0    0  503  502  0.00000000000E+00  0.00000000000E+00  0.38474064211E+03  0.38474064211E+03  0.00000000000E+00 0. -1.
          3   -1    0    0  502    0 -0.00000000000E+00 -0.00000000000E+00 -0.16392115999E+03  0.16392115999E+03  0.00000000000E+00 0. -1.
        -24    2    1    2    0    0  0.56969695041E+02 -0.20626083690E+02  0.10922309284E+02  0.99296120446E+02  0.77906618551E+02 0.  0.
         23    2    1    2    0    0  0.52304980696E+02  0.38668064628E+02 -0.69483562824E+02  0.13454639566E+03  0.95098563888E+02 0.  0.
         11    1    3    3    0    0  0.76507223350E+02 -0.12581537123E+02  0.75792605463E+01  0.77904399693E+02  0.00000000000E+00 0. -1.
        -12    1    3    3    0    0 -0.19537528309E+02 -0.80445465668E+01  0.33430487376E+01  0.21391720753E+02  0.00000000000E+00 0.  1.
        -13    1    4    4    0    0 -0.14594382452E+02 -0.17306470757E+02 -0.32948469065E+02  0.39976387317E+02  0.00000000000E+00 0.  1.
         13    1    4    4    0    0  0.66899363149E+02  0.55974535384E+02 -0.36535093759E+02  0.94570008339E+02  0.00000000000E+00 0. -1.
         21    1    1    2  503  501 -0.76476013014E+01  0.31081915067E+02  0.69263271714E+02  0.76301848329E+02  0.00000000000E+00 0. -1.
          4    1    1    2  501    0 -0.10162707444E+03 -0.49123896005E+02  0.21011746394E+03  0.23851743766E+03  0.00000000000E+00 0. -1.
<scales pt_clust_5="13000.00000" pt_clust_6="13000.00000" pt_clust_7="13000.00000" pt_clust_8="13000.00000" pt_clust_9="32.00892" pt_clust_10="103.64438"></scales>
<clustering>
<clus scale="   32.009">  1  9  2 -1</clus>
<clus scale="   77.907">  5  6 -1 -1</clus>
<clus scale="   95.099">  7  8 -1 -1</clus>
<clus scale="   96.912">  2  5  1 -1</clus>
<clus scale="  103.644">  1 10  2 -1</clus>
<clus scale="   32.009">  1  5  2 -1</clus>
</clustering>
</event>
<event>
10    3  0.5078224E-005  0.1370536E+03  0.7546771E-02  0.1238097E+00
          3   -1    0    0  502    0 -0.00000000000E+00  0.00000000000E+00  0.12851525375E+04  0.12851525375E+04  0.00000000000E+00 0. -1.
         21   -1    0    0  503  502  0.00000000000E+00 -0.00000000000E+00 -0.42549847175E+02  0.42549847175E+02  0.00000000000E+00 0.  1.
        -24    2    1    2    0    0 -0.32073396496E+02  0.24069189303E+02  0.29788234838E+03  0.31074163045E+03  0.78857078186E+02 0.  0.
         23    2    1    2    0    0 -0.11430481055E+03 -0.82159908390E+02  0.33490906999E+03  0.37475692521E+03  0.91993627872E+02 0.  0.
         11    1    3    3    0    0  0.15744016108E+01  0.38188045489E+02  0.68207215266E+02  0.78185866837E+02  0.00000000000E+00 0. -1.
        -12    1    3    3    0    0 -0.33647798107E+02 -0.14118856185E+02  0.22967513312E+03  0.23255576361E+03  0.00000000000E+00 0.  1.
        -13    1    4    4    0    0  0.76058057798E+00 -0.43082024351E+02  0.12489971859E+03  0.13212334771E+03  0.00000000000E+00 0.  1.
         13    1    4    4    0    0 -0.11506539113E+03 -0.39077884039E+02  0.21000935140E+03  0.24263357750E+03  0.00000000000E+00 0. -1.
         21    1    1    2  503  501  0.43875991560E+02  0.51332481887E+02  0.90989519236E+02  0.11331027730E+03  0.00000000000E+00 0.  1.
          4    1    1    2  501    0  0.10250221549E+03  0.67582371995E+01  0.51882175272E+03  0.52889355171E+03  0.00000000000E+00 0. -1.
<scales pt_clust_5="13000.00000" pt_clust_6="13000.00000" pt_clust_7="13000.00000" pt_clust_8="13000.00000" pt_clust_9="67.52871" pt_clust_10="101.59165"></scales>
<clustering>
<clus scale="   67.529">  2  9  1 -1</clus>
<clus scale="   78.857">  5  6 -1 -1</clus>
<clus scale="   89.148">  1  5  2 -1</clus>
<clus scale="   91.994">  7  8 -1 -1</clus>
<clus scale="  101.592">  2 10  1 -1</clus>
<clus scale="   67.529">  2  5  1 -1</clus>
</clustering>
</event>
<event>
10    3  0.5078224E-005  0.1021179E+03  0.7546771E-02  0.1282020E+00
         21   -1    0    0  501  502  0.00000000000E+00  0.00000000000E+00  0.68293115102E+03  0.68293115102E+03  0.00000000000E+00 0.  1.
         -2   -1    0    0    0  501 -0.00000000000E+00 -0.00000000000E+00 -0.46203453292E+02  0.46203453292E+02  0.00000000000E+00 0.  1.
         23    2    1    2    0    0 -0.50970669744E+02  0.24848567042E+02  0.93976338628E+02  0.14328208780E+03  0.92101813250E+02 0.  0.
        -24    2    1    2    0    0  0.33885200242E+02  0.45850648593E+02  0.15265095854E+03  0.18129230383E+03  0.79461283100E+02 0.  0.
         11    1    4    4    0    0  0.29259514141E+02 -0.16292073870E+02  0.71692355077E+02  0.79128658621E+02  0.00000000000E+00 0. -1.
        -12    1    4    4    0    0  0.46256861010E+01  0.62142722463E+02  0.80958603465E+02  0.10216364521E+03  0.00000000000E+00 0.  1.
        -13    1    3    3    0    0 -0.26737725554E+02  0.13384072866E+02  0.10867192149E+03  0.11271036285E+03  0.00000000000E+00 0. -1.
         13    1    3    3    0    0 -0.24232944189E+02  0.11464494176E+02 -0.14695582858E+02  0.30571724949E+02  0.00000000000E+00 0.  1.
         21    1    1    2  503  502 -0.29520808780E+02 -0.18977012198E+02  0.17460699053E+03  0.17809886660E+03  0.00000000000E+00 0.  1.
         -1    1    1    2    0  503  0.46606278282E+02 -0.51722203436E+02  0.21549341003E+03  0.22646134609E+03  0.00000000000E+00 0.  1.
<scales pt_clust_5="13000.00000" pt_clust_6="13000.00000" pt_clust_7="13000.00000" pt_clust_8="13000.00000" pt_clust_9="35.09423" pt_clust_10="68.83072"></scales>
<clustering>
<clus scale="   35.094">  1  9  2 -1</clus>
<clus scale="   68.831">  1 10  2 -1</clus>
<clus scale="   79.461">  5  6 -1 -1</clus>
<clus scale="   90.881">  1  5  2 -1</clus>
<clus scale="   92.102">  7  8 -1 -1</clus>
<clus scale="   35.094">  1  5  2 -1</clus>
</clustering>
</event>
<event>
10    3  0.5078224E-005  0.9510785E+02  0.7546771E-02  0.1297144E+00
         21   -1    0    0  501  502  0.00000000000E+00  0.00000000000E+00  0.40337301252E+03  0.40337301252E+03  0.00000000000E+00 0. -1.
          1   -1    0    0  503    0 -0.00000000000E+00 -0.00000000000E+00 -0.20251835714E+03  0.20251835714E+03  0.00000000000E+00 0. -1.
        -24    2    1    2    0    0  0.20841255833E+02  0.61939119204E+01 -0.93611086867E+02  0.12613863884E+03  0.81701885742E+02 0.  0.
         23    2    1    2    0    0 -0.30715349063E+02  0.48635196324E+01  0.12389333320E+03  0.15766620068E+03  0.92422866950E+02 0.  0.
         11    1    3    3    0    0  0.48740438042E+02 -0.39455699874E+01 -0.34039889079E+02  0.59581136877E+02  0.00000000000E+00 0. -1.
        -12    1    3    3    0    0 -0.27899182209E+02  0.10139481908E+02 -0.59571197788E+02  0.66557501961E+02  0.00000000000E+00 0.  1.
        -13    1    4    4    0    0 -0.40689036746E+02  0.29145554197E+02  0.12138169731E+03  0.13129576338E+03  0.00000000000E+00 0. -1.
         13    1    4    4    0    0  0.99736876840E+01 -0.24282034565E+02  0.25116358922E+01  0.26370437301E+02  0.00000000000E+00 0.  1.
         21    1    1    2  503  502  0.52333886529E+02 -0.36082721143E+02  0.23358981793E+03  0.24208469899E+03  0.00000000000E+00 0. -1.
          2    1    1    2  501    0 -0.42459793299E+02  0.25025289591E+02 -0.63017408884E+02  0.80001831157E+02  0.00000000000E+00 0. -1.
<scales pt_clust_5="13000.00000" pt_clust_6="13000.00000" pt_clust_7="13000.00000" pt_clust_8="13000.00000" pt_clust_9="34.02251" pt_clust_10="49.28592"></scales>
<clustering>
<clus scale="   49.286">  1 10  2 -1</clus>
<clus scale="   34.023">  1  9  2 -1</clus>
<clus scale="   81.702">  5  6 -1 -1</clus>
<clus scale="   84.727">  2  5  1 -1</clus>
<clus scale="   92.423">  7  8 -1 -1</clus>
<clus scale="   49.286">  1  5  2 -1</clus>
</clustering>
</event>
<event>
10    3  0.5078224E-005  0.1978201E+03  0.7546771E-02  0.1185377E+00
          1   -1    0    0  503    0 -0.00000000000E+00  0.00000000000E+00  0.85159721509E+02  0.85159721509E+02  0.00000000000E+00 0. -1.
         21   -1    0    0  501  502  0.00000000000E+00 -0.00000000000E+00 -0.11213680437E+04  0.11213680437E+04  0.00000000000E+00 0. -1.
        -24    2    1    2    0    0  0.10396673460E+01 -0.45910456942E+02 -0.33159370975E+03  0.34407150989E+03  0.79510782984E+02 0.  0.
         23    2    1    2    0    0  0.90807280154E+02 -0.14863787334E+03 -0.54561859189E+03  0.57986390405E+03  0.90572180549E+02 0.  0.
         13    1    3    3    0    0 -0.36685320144E+02 -0.25548505133E+02 -0.22065259236E+03  0.22513574870E+03  0.00000000000E+00 0. -1.
        -14    1    3    3    0    0  0.37724987490E+02 -0.20361951808E+02 -0.11094111738E+03  0.11893576119E+03  0.00000000000E+00 0.  1.
        -13    1    4    4    0    0  0.10224045290E+03 -0.91366673962E+02 -0.35772292967E+03  0.38310138832E+03  0.00000000000E+00 0. -1.
         13    1    4    4    0    0 -0.11433172749E+02 -0.57271199378E+02 -0.18789566222E+03  0.19676251573E+03  0.00000000000E+00 0.  1.
         21    1    1    2  503  502 -0.35680840873E+02  0.17853206002E+02 -0.60976282480E+02  0.72869516226E+02  0.00000000000E+00 0. -1.
          2    1    1    2  501    0 -0.56166106627E+02  0.17669512428E+03 -0.98019738049E+02  0.20972283501E+03  0.00000000000E+00 0. -1.
<scales pt_clust_5="13000.00000" pt_clust_6="13000.00000" pt_clust_7="13000.00000" pt_clust_8="13000.00000" pt_clust_9="39.89811" pt_clust_10="175.86782"></scales>
<clustering>
<clus scale="   39.898">  1  9  2 -1</clus>
<clus scale="   79.511">  5  6 -1 -1</clus>
<clus scale="   90.572">  7  8 -1 -1</clus>
<clus scale="   91.136">  1  5  2 -1</clus>
<clus scale="  175.868">  2 10  1 -1</clus>
<clus scale="  175.868">  2  5  1 -1</clus>
</clustering>
</event>
<event>
10    3  0.5078224E-005  0.2348280E+03  0.7546771E-02  0.1124121E+00
          1   -1    0    0  503    0 -0.00000000000E+00  0.00000000000E+00  0.55104906003E+03  0.55104906003E+03  0.00000000000E+00 0. -1.
         21   -1    0    0  501  502  0.00000000000E+00 -0.00000000000E+00 -0.70667049972E+03  0.70667049972E+03  0.00000000000E+00 0. -1.
        -24    2    1    2    0    0  0.21739907838E+03 -0.54093029316E+02  0.43863261194E+03  0.49874935344E+03  0.78510726696E+02 0.  0.
         23    2    1    2    0    0 -0.16999396187E+03  0.12291099766E+01 -0.14544848543E+03  0.24178072333E+03  0.91668961356E+02 0.  0.
         13    1    3    3    0    0  0.17516608077E+03 -0.11706132925E+02  0.29716620516E+03  0.34514916035E+03  0.00000000000E+00 0. -1.
        -14    1    3    3    0    0  0.42232997607E+02 -0.42386896391E+02  0.14146640677E+03  0.15360019309E+03  0.00000000000E+00 0.  1.
        -11    1    4    4    0    0 -0.31138981431E+02  0.23098080631E+02 -0.75272294366E+02  0.84670395018E+02  0.00000000000E+00 0. -1.
         11    1    4    4    0    0 -0.13885498043E+03 -0.21868970654E+02 -0.70176191067E+02  0.15711032831E+03  0.00000000000E+00 0.  1.
         21    1    1    2  503  502  0.69774011337E+02  0.48948615117E+02 -0.36042405588E+03  0.37036452265E+03  0.00000000000E+00 0. -1.
          2    1    1    2  501    0 -0.11717912785E+03  0.39153042225E+01 -0.88381510310E+02  0.14682496033E+03  0.00000000000E+00 0. -1.
<scales pt_clust_5="13000.00000" pt_clust_6="13000.00000" pt_clust_7="13000.00000" pt_clust_8="13000.00000" pt_clust_9="85.23133" pt_clust_10="95.42578"></scales>
<clustering>
<clus scale="   78.511">  5  6 -1 -1</clus>
<clus scale="   85.231">  2  9  1 -1</clus>
<clus scale="   91.669">  7  8 -1 -1</clus>
<clus scale="   95.426">  2 10  1 -1</clus>
<clus scale="  230.011">  1  5  2 -1</clus>
<clus scale="   85.231">  2  5  1 -1</clus>
</clustering>
</event>
<event>
10    3  0.5078224E-005  0.2590584E+03  0.7546771E-02  0.1113918E+00
         21   -1    0    0  501  502  0.00000000000E+00  0.00000000000E+00  0.38138023403E+03  0.38138023403E+03  0.00000000000E+00 0. -1.
          1   -1    0    0  503    0 -0.00000000000E+00 -0.00000000000E+00 -0.63436503082E+03  0.63436503082E+03  0.00000000000E+00 0. -1.
         23    2    1    2    0    0  0.83041541064E+02  0.16309938473E+03 -0.15206742511E+02  0.20459011446E+03  0.90158544105E+02 0.  0.
        -24    2    1    2    0    0 -0.19736164162E+03  0.76882459182E+02 -0.36255078507E+03  0.42752382330E+03  0.80442635596E+02 0.  0.
         13    1    4    4    0    0 -0.20070467440E+03  0.68838082107E+02 -0.31907524592E+03  0.38318410776E+03  0.00000000000E+00 0. -1.
        -14    1    4    4    0    0  0.33430327785E+01  0.80443770750E+01 -0.43475539147E+02  0.44339715547E+02  0.00000000000E+00 0.  1.
        -11    1    3    3    0    0  0.10005864181E+03  0.14888551422E+03 -0.23501461099E+02  0.18091696111E+03  0.00000000000E+00 0. -1.
         11    1    3    3    0    0 -0.17017100749E+02  0.14213870513E+02  0.82947185879E+01  0.23673153345E+02  0.00000000000E+00 0.  1.
         21    1    1    2  503  502  0.53689946640E+02  0.42278005854E+02  0.52083463505E+02  0.85922798603E+02  0.00000000000E+00 0. -1.
          2    1    1    2  501    0  0.60630153919E+02 -0.28225984976E+03  0.72689267288E+02  0.29770852848E+03  0.00000000000E+00 0. -1.
<scales pt_clust_5="13000.00000" pt_clust_6="13000.00000" pt_clust_7="13000.00000" pt_clust_8="13000.00000" pt_clust_9="68.33769" pt_clust_10="246.25234"></scales>
<clustering>
<clus scale="   68.338">  1  9  2 -1</clus>
<clus scale="   80.443">  5  6 -1 -1</clus>
<clus scale="   90.159">  7  8 -1 -1</clus>
<clus scale="  221.221">  2  7  1 -1</clus>
<clus scale="  246.252">  1 10  2 -1</clus>
<clus scale="   68.338">  1  5  2 -1</clus>
</clustering>
</event>
<event>
10    3  0.5078224E-005  0.1963727E+03  0.7546771E-02  0.1168604E+00
          1   -1    0    0  503    0 -0.00000000000E+00  0.00000000000E+00  0.91245080805E+03  0.91245080805E+03  0.00000000000E+00 0. -1.
         21   -1    0    0  501  502  0.00000000000E+00 -0.00000000000E+00 -0.12536494991E+03  0.12536494991E+03  0.00000000000E+00 0.  1.
        -24    2    1    2    0    0  0.69570459430E+02 -0.60827205478E+02  0.54303102220E+02  0.13452396772E+03  0.81288825972E+02 0.  0.
         23    2    1    2    0    0 -0.17896383907E+03 -0.85069950803E+02  0.15742553529E+03  0.26929535140E+03  0.92044744025E+02 0.  0.
         11    1    3    3    0    0  0.10469550532E+02 -0.35511142037E+02  0.59437193808E+02  0.70024515028E+02  0.00000000000E+00 0. -1.
        -12    1    3    3    0    0  0.59100908898E+02 -0.25316063441E+02 -0.51340915881E+01  0.64499452689E+02  0.00000000000E+00 0.  1.
        -11    1    4    4    0    0 -0.79808341649E+02 -0.30632628884E+02  0.13988243913E+02  0.86622169893E+02  0.00000000000E+00 0. -1.
         11    1    4    4    0    0 -0.99155497422E+02 -0.54437321919E+02  0.14343729138E+03  0.18267318151E+03  0.00000000000E+00 0.  1.
         21    1    1    2  503  502  0.45395509852E+02 -0.16788982675E+02  0.21059944191E+02  0.52783932246E+02  0.00000000000E+00 0. -1.
          2    1    1    2  501    0  0.63997869789E+02  0.16268613896E+03  0.55429727644E+03  0.58121250659E+03  0.00000000000E+00 0. -1.
<scales pt_clust_5="13000.00000" pt_clust_6="13000.00000" pt_clust_7="13000.00000" pt_clust_8="13000.00000" pt_clust_9="48.40064" pt_clust_10="173.46482"></scales>
<clustering>
<clus scale="   48.401">  2  9  1 -1</clus>
<clus scale="   81.289">  5  6 -1 -1</clus>
<clus scale="   92.045">  7  8 -1 -1</clus>
<clus scale="  136.103">  1  5  2 -1</clus>
<clus scale="  173.465">  2 10  1 -1</clus>
<clus scale="   48.401">  2  5  1 -1</clus>
</clustering>
</event>
<event>
10    3  0.5078224E-005  0.1014778E+03  0.7546771E-02  0.1282533E+00
         21   -1    0    0  501  502  0.00000000000E+00  0.00000000000E+00  0.28276787121E+03  0.28276787121E+03  0.00000000000E+00 0. -1.
          3   -1    0    0  503    0 -0.00000000000E+00 -0.00000000000E+00 -0.12245716300E+03  0.12245716300E+03  0.00000000000E+00 0. -1.
         23    2    1    2    0    0  0.18134265977E+02 -0.25030153038E+02 -0.40653923327E+02  0.10468191975E+03  0.91379443407E+02 0.  0.
        -24    2    1    2    0    0 -0.37681685266E+02  0.68698646795E+02  0.43742855328E+02  0.12048583921E+03  0.80398921524E+02 0.  0.
         11    1    4    4    0    0 -0.46648498554E+02  0.77029815707E+02  0.53575679681E+02  0.10478563059E+03  0.00000000000E+00 0. -1.
        -12    1    4    4    0    0  0.89668132878E+01 -0.83311689113E+01 -0.98328243526E+01  0.15700208620E+02  0.00000000000E+00 0.  1.
        -13    1    3    3    0    0 -0.33450104357E+01  0.24580637746E+02 -0.44006570921E+02  0.50517077618E+02  0.00000000000E+00 0. -1.
         13    1    3    3    0    0  0.21479276413E+02 -0.49610790784E+02  0.33526475937E+01  0.54164842134E+02  0.00000000000E+00 0.  1.
         21    1    1    2  503  502  0.47492293635E+02 -0.33014311129E+02  0.10211897734E+03  0.11736161309E+03  0.00000000000E+00 0. -1.
          4    1    1    2  501    0 -0.27944874346E+02 -0.10654182628E+02  0.55102798877E+02  0.62695662160E+02  0.00000000000E+00 0. -1.
<scales pt_clust_5="13000.00000" pt_clust_6="13000.00000" pt_clust_7="13000.00000" pt_clust_8="13000.00000" pt_clust_9="51.03022" pt_clust_10="29.90698"></scales>
<clustering>
<clus scale="   29.907">  1 10  2 -1</clus>
<clus scale="   51.030">  1  9  2 -1</clus>
<clus scale="   80.399">  5  6 -1 -1</clus>
<clus scale="   91.379">  7  8 -1 -1</clus>
<clus scale="   91.714">  1  5  2 -1</clus>
<clus scale="   29.907">  1  5  2 -1</clus>
</clustering>
</event>
<event>
10    3  0.5078224E-005  0.2586229E+03  0.7546771E-02  0.1141990E+00
          1   -1    0    0  503    0 -0.00000000000E+00  0.00000000000E+00  0.13024449010E+03  0.13024449010E+03  0.00000000000E+00 0. -1.
         21   -1    0    0  501  502  0.00000000000E+00 -0.00000000000E+00 -0.96070768489E+03  0.96070768489E+03  0.00000000000E+00 0. -1.
         23    2    1    2    0    0 -0.54213774576E+02  0.40175903154E+02 -0.82989827862E+02  0.14086608563E+03  0.91666275171E+02 0.  0.
        -24    2    1    2    0    0 -0.11538418926E+02 -0.28438867718E+03 -0.33706804779E+03  0.44813256884E+03  0.78726587579E+02 0.  0.
         13    1    4    4    0    0  0.13123141306E+02 -0.24761156693E+03 -0.26023011444E+03  0.35944876878E+03  0.00000000000E+00 0. -1.
        -14    1    4    4    0    0 -0.24661560233E+02 -0.36777110255E+02 -0.76837933349E+02  0.88683800061E+02  0.00000000000E+00 0.  1.
        -13    1    3    3    0    0  0.18331451127E+02  0.21088852496E+02 -0.53318915581E+02  0.60197080982E+02  0.00000000000E+00 0.  1.
         13    1    3    3    0    0 -0.72545225703E+02  0.19087050658E+02 -0.29670912281E+02  0.80669004647E+02  0.00000000000E+00 0. -1.
         21    1    1    2  503  502  0.67476015365E+02  0.29076619934E+02 -0.11609991269E+03  0.13739596866E+03  0.00000000000E+00 0.  1.
          2    1    1    2  501    0 -0.17238218626E+01  0.21513615410E+03 -0.29430540644E+03  0.36455755187E+03  0.00000000000E+00 0. -1.
<scales pt_clust_5="13000.00000" pt_clust_6="13000.00000" pt_clust_7="13000.00000" pt_clust_8="13000.00000" pt_clust_9="73.47423" pt_clust_10="246.34922"></scales>
<clustering>
<clus scale="   73.474">  2  9  1 -1</clus>
<clus scale="   78.727">  5  6 -1 -1</clus>
<clus scale="   91.666">  7  8 -1 -1</clus>
<clus scale="  111.287">  1  7  2 -1</clus>
<clus scale="  246.349">  2 10  1 -1</clus>
<clus scale="   73.474">  2  5  1 -1</clus>
</clustering>
</event>
<event>
10    3  0.5078224E-005  0.1037786E+03  0.7546771E-02  0.1277081E+00
         21   -1    0    0  501  502  0.00000000000E+00  0.00000000000E+00  0.36723831756E+03  0.36723831756E+03  0.00000000000E+00 0.  1.
         -2   -1    0    0    0  501 -0.00000000000E+00 -0.00000000000E+00 -0.26959934254E+03  0.26959934254E+03  0.00000000000E+00 0.  1.
        -24    2    1    2    0    0  0.14953197176E+02  0.50834620292E+02 -0.98513521988E+02  0.13689916225E+03  0.78922176128E+02 0.  0.
         23    2    1    2    0    0  0.70047728994E+02 -0.55833931181E+02 -0.35848265758E+02  0.13137241029E+03  0.89159967585E+02 0.  0.
         11    1    3    3    0    0 -0.31399495650E+02  0.95055441765E+01 -0.37776376569E+02  0.50033372102E+02  0.00000000000E+00 0. -1.
        -12    1    3    3    0    0  0.46352692826E+02  0.41329076116E+02 -0.60737145419E+02  0.86865790150E+02  0.00000000000E+00 0.  1.
        -13    1    4    4    0    0  0.77578275834E+02 -0.12280676476E+02 -0.37722540190E+02  0.87133196513E+02  0.00000000000E+00 0.  1.
         13    1    4    4    0    0 -0.75305468403E+01 -0.43553254706E+02  0.18742744324E+01  0.44239213779E+02  0.00000000000E+00 0. -1.
         21    1    1    2  503  502 -0.12706582236E+02  0.37766788390E+02  0.27528744814E+03  0.27815637084E+03  0.00000000000E+00 0.  1.
         -1    1    1    2    0  503 -0.72294343934E+02 -0.32767477501E+02 -0.43286685374E+02  0.90409716719E+02  0.00000000000E+00 0.  1.
<scales pt_clust_5="13000.00000" pt_clust_6="13000.00000" pt_clust_7="13000.00000" pt_clust_8="13000.00000" pt_clust_9="39.84705" pt_clust_10="79.00467"></scales>
<clustering>
<clus scale="   39.847">  1  9  2 -1</clus>
<clus scale="   78.922">  5  6 -1 -1</clus>
<clus scale="   79.005">  1 10  2 -1</clus>
<clus scale="   89.160">  7  8 -1 -1</clus>
<clus scale="   95.127">  2  5  1 -1</clus>
<clus scale="   39.847">  1  5  2 -1</clus>
</clustering>
</event>
<event>
10    3  0.5078224E-005  0.1065712E+03  0.7546771E-02  0.1272770E+00
         21   -1    0    0  503  502  0.00000000000E+00  0.00000000000E+00  0.26163065622E+03  0.26163065622E+03  0.00000000000E+00 0. -1.
          1   -1    0    0  502    0 -0.00000000000E+00 -0.00000000000E+00 -0.19483104303E+03  0.19483104303E+03  0.00000000000E+00 0. -1.
         23    2    1    2    0    0  0.34196175818E+02  0.41598309758E+02 -0.13693837600E+03  0.17430685955E+03  0.93439631041E+02 0.  0.
        -24    2    1    2    0    0  0.40171868332E+02 -0.66113189837E+02  0.11811694158E+03  0.16252475151E+03  0.80485713569E+02 0.  0.
         13    1    4    4    0    0  0.61636693463E+02 -0.45290384154E+02  0.60176044777E+02  0.97321412047E+02  0.00000000000E+00 0. -1.
        -14    1    4    4    0    0 -0.21464825131E+02 -0.20822805683E+02  0.57940896805E+02  0.65203339461E+02  0.00000000000E+00 0.  1.
        -13    1    3    3    0    0  0.65319550597E+02  0.17676519174E+02 -0.97327351857E+02  0.11853993605E+03  0.00000000000E+00 0. -1.
         13    1    3    3    0    0 -0.31123374779E+02  0.23921790584E+02 -0.39611024143E+02  0.55766923494E+02  0.00000000000E+00 0.  1.
         21    1    1    2  503  501 -0.33135056960E+02  0.20886420891E+01  0.52745425150E+02  0.62324748694E+02  0.00000000000E+00 0.  1.
          2    1    1    2  501    0 -0.41232987190E+02  0.22426237989E+02  0.32875622455E+02  0.57305339496E+02  0.00000000000E+00 0. -1.
<scales pt_clust_5="13000.00000" pt_clust_6="13000.00000" pt_clust_7="13000.00000" pt_clust_8="13000.00000" pt_clust_9="24.50310" pt_clust_10="83.54875"></scales>
<clustering>
<clus scale="   24.503">  9 10 -1 -1</clus>
<clus scale="   80.486">  5  6 -1 -1</clus>
<clus scale="   83.549">  1  9  2 -1</clus>
<clus scale="   93.440">  7  8 -1 -1</clus>
<clus scale="   95.417">  1  5  2 -1</clus>
<clus scale="   83.549">  1  5  2 -1</clus>
</clustering>
</event>
<event>
10    3  0.5078224E-005  0.2563163E+03  0.7546771E-02  0.1127080E+00
         21   -1    0    0  501  502  0.00000000000E+00  0.00000000000E+00  0.23742020626E+03  0.23742020626E+03  0.00000000000E+00 0. -1.
          1   -1    0    0  503    0 -0.00000000000E+00 -0.00000000000E+00 -0.84453659706E+03  0.84453659706E+03  0.00000000000E+00 0. -1.
         23    2    1    2    0    0 -0.13870692589E+03 -0.25998600886E+02 -0.31008856365E+03  0.35251466259E+03  0.90532488634E+02 0.  0.
        -24    2    1    2    0    0  0.28817367607E+03 -0.32432092580E+02 -0.15448516418E+03  0.33812786558E+03  0.79805258736E+02 0.  0.
         11    1    4    4    0    0  0.23899602192E+03 -0.18274650673E+02 -0.15759089813E+03  0.28685876755E+03  0.00000000000E+00 0. -1.
        -12    1    4    4    0    0  0.49177654154E+02 -0.14157441907E+02  0.31057339455E+01  0.51269098030E+02  0.00000000000E+00 0.  1.
        -11    1    3    3    0    0 -0.97340431183E+02  0.96386685185E+01 -0.26233385218E+03  0.27997698740E+03  0.00000000000E+00 0.  1.
         11    1    3    3    0    0 -0.41366494702E+02 -0.35637269404E+02 -0.47754711471E+02  0.72537675192E+02  0.00000000000E+00 0. -1.
         21    1    1    2  503  502  0.33087236092E+02 -0.22896306095E+02  0.81620289000E+02  0.90999327478E+02  0.00000000000E+00 0. -1.
          2    1    1    2  501    0 -0.18255398628E+03  0.81326999561E+02 -0.22416295196E+03  0.30031494767E+03  0.00000000000E+00 0. -1.
<scales pt_clust_5="13000.00000" pt_clust_6="13000.00000" pt_clust_7="13000.00000" pt_clust_8="13000.00000" pt_clust_9="40.23687" pt_clust_10="243.57578"></scales>
<clustering>
<clus scale="   40.237">  1  9  2 -1</clus>
<clus scale="   79.805">  5  6 -1 -1</clus>
<clus scale="   90.532">  7  8 -1 -1</clus>
<clus scale="  164.384">  2  7  1 -1</clus>
<clus scale="  243.576">  1 10  2 -1</clus>
<clus scale="   40.237">  1  5  2 -1</clus>
</clustering>
</event>
<event>
10    3  0.5078224E-005  0.1946628E+03  0.7546771E-02  0.1155109E+00
          1   -1    0    0  502    0 -0.00000000000E+00  0.00000000000E+00  0.10581922037E+04  0.10581922037E+04  0.00000000000E+00 0. -1.
         21   -1    0    0  503  502  0.00000000000E+00 -0.00000000000E+00 -0.10572414876E+03  0.10572414876E+03  0.00000000000E+00 0.  1.
         23    2    1    2    0    0 -0.88486431557E+02 -0.10907696746E+03  0.30458828690E+03  0.34702581873E+03  0.89023934706E+02 0.  0.
        -24    2    1    2    0    0  0.17574736421E+03  0.15695192336E+03  0.35244657301E+03  0.43161109665E+03  0.80922862369E+02 0.  0.
         13    1    4    4    0    0  0.17724752024E+03  0.14290295646E+03  0.29606873419E+03  0.37348980410E+03  0.00000000000E+00 0. -1.
        -14    1    4    4    0    0 -0.15001560280E+01  0.14048966902E+02  0.56377838813E+02  0.58121292556E+02  0.00000000000E+00 0.  1.
        -11    1    3    3    0    0 -0.62886802151E+02 -0.15365363956E+02  0.16233232414E+03  0.17476449226E+03  0.00000000000E+00 0. -1.
         11    1    3    3    0    0 -0.25599629406E+02 -0.93711603508E+02  0.14225596276E+03  0.17226132647E+03  0.00000000000E+00 0.  1.
         21    1    1    2  503  501 -0.24178161292E+02 -0.21936168972E+02 -0.35010497068E+02  0.47869759741E+02  0.00000000000E+00 0. -1.
          2    1    1    2  501    0 -0.63082771363E+02 -0.25938786928E+02  0.33044369206E+03  0.33740967729E+03  0.00000000000E+00 0. -1.
<scales pt_clust_5="13000.00000" pt_clust_6="13000.00000" pt_clust_7="13000.00000" pt_clust_8="13000.00000" pt_clust_9="32.64627" pt_clust_10="69.87364"></scales>
<clustering>
<clus scale="   32.646">  2  9  1 -1</clus>
<clus scale="   69.874">  2 10  1 -1</clus>
<clus scale="   80.923">  5  6 -1 -1</clus>
<clus scale="   89.024">  7  8 -1 -1</clus>
<clus scale="  191.094">  2  5  1 -1</clus>
<clus scale="   32.646">  2  5  1 -1</clus>
</clustering>
</event>
<event>
10    3  0.5078224E-005  0.9812601E+02  0.7546771E-02  0.1288962E+00
         21   -1    0    0  501  502  0.00000000000E+00  0.00000000000E+00  0.24920811202E+03  0.24920811202E+03  0.00000000000E+00 0.  1.
         -4   -1    0    0    0  501 -0.00000000000E+00 -0.00000000000E+00 -0.12737325973E+03  0.12737325973E+03  0.00000000000E+00 0.  1.
        -24    2    1    2    0    0 -0.29434120620E+02  0.67195600432E+01  0.61969426558E+02  0.10570402446E+03  0.80134955017E+02 0.  0.
         23    2    1    2    0    0 -0.42319742083E+02 -0.83029329112E+02  0.65472580601E+02  0.14473317129E+03  0.89309585141E+02 0.  0.
         13    1    3    3    0    0 -0.13405195667E+02 -0.18251367500E+02  0.71131310664E+02  0.74649012340E+02  0.00000000000E+00 0. -1.
        -14    1    3    3    0    0 -0.16028924953E+02  0.24970927543E+02 -0.91618841064E+01  0.31055012122E+02  0.00000000000E+00 0.  1.
        -13    1    4    4    0    0 -0.22774527007E+02 -0.98619650685E+02  0.63865590835E+02  0.11968010810E+03  0.00000000000E+00 0.  1.
         13    1    4    4    0    0 -0.19545215076E+02  0.15590321573E+02  0.16069897660E+01  0.25053063191E+02  0.00000000000E+00 0. -1.
         21    1    1    2  503  502  0.14419852904E+02  0.22442853783E+02  0.29694819698E+02  0.39917366654E+02  0.00000000000E+00 0. -1.
         -3    1    1    2    0  503  0.57334009799E+02  0.53866915286E+02 -0.35301974565E+02  0.86226809347E+02  0.00000000000E+00 0.  1.
<scales pt_clust_5="13000.00000" pt_clust_6="13000.00000" pt_clust_7="13000.00000" pt_clust_8="13000.00000" pt_clust_9="26.67609" pt_clust_10="81.74589"></scales>
<clustering>
<clus scale="   26.676">  1  9  2 -1</clus>
<clus scale="   80.135">  5  6 -1 -1</clus>
<clus scale="   81.746">  1 10  2 -1</clus>
<clus scale="   89.310">  7  8 -1 -1</clus>
<clus scale="   89.856">  2  5  1 -1</clus>
<clus scale="   26.676">  1  5  2 -1</clus>
</clustering>
</event>
<event>
10    3  0.5078224E-005  0.1503986E+03  0.7546771E-02  0.1201859E+00
         21   -1    0    0  503  502  0.00000000000E+00  0.00000000000E+00  0.74058209357E+03  0.74058209357E+03  0.00000000000E+00 0.  1.
          1   -1    0    0  502    0 -0.00000000000E+00 -0.00000000000E+00 -0.18099474774E+03  0.18099474774E+03  0.00000000000E+00 0. -1.
        -24    2    1    2    0    0 -0.60221738867E+02 -0.12963510568E+03  0.16569020676E+03  0.23269723483E+03  0.79138107280E+02 0.  0.
         23    2    1    2    0    0 -0.93721816057E+02  0.10905656971E+03  0.22261336147E+03  0.27975589763E+03  0.89607696927E+02 0.  0.
         13    1    3    3    0    0 -0.58332834365E+02 -0.33972545147E+02  0.62911828376E+02  0.92275411342E+02  0.00000000000E+00 0. -1.
        -14    1    3    3    0    0 -0.18889045029E+01 -0.95662560537E+02  0.10277837838E+03  0.14042182349E+03  0.00000000000E+00 0.  1.
        -13    1    4    4    0    0 -0.39109643160E+02  0.10444100541E+03  0.17298324856E+03  0.20581713262E+03  0.00000000000E+00 0.  1.
         13    1    4    4    0    0 -0.54612172897E+02  0.46155642994E+01  0.49630112916E+02  0.73938765004E+02  0.00000000000E+00 0. -1.
         21    1    1    2  503  501  0.33337502478E+02  0.58604842116E+02  0.25082541434E+03  0.25972929189E+03  0.00000000000E+00 0.  1.
          2    1    1    2  501    0  0.12060605245E+03 -0.38026306143E+02 -0.79541636736E+02  0.14939441696E+03  0.00000000000E+00 0. -1.
<scales pt_clust_5="13000.00000" pt_clust_6="13000.00000" pt_clust_7="13000.00000" pt_clust_8="13000.00000" pt_clust_9="67.42341" pt_clust_10="127.56700"></scales>
<clustering>
<clus scale="   67.423">  1  9  2 -1</clus>
<clus scale="   79.138">  5  6 -1 -1</clus>
<clus scale="   89.608">  7  8 -1 -1</clus>
<clus scale="  127.567">  1 10  2 -1</clus>
<clus scale="  144.406">  2  5  1 -1</clus>
<clus scale="   67.423">  1  5  2 -1</clus>
</clustering>
</event>
<event>
10    3  0.5078224E-005  0.1765537E+03  0.7546771E-02  0.1190647E+00
         -2   -1    0    0    0  501 -0.00000000000E+00  0.00000000000E+00  0.14582208572E+03  0.14582208572E+03  0.00000000000E+00 0.  1.
         21   -1    0    0  501  502  0.00000000000E+00 -0.00000000000E+00 -0.47282049438E+03  0.47282049438E+03  0.00000000000E+00 0.  1.
        -24    2    1    2    0    0 -0.81618474993E+02  0.24385323964E+01 -0.10996405825E+02  0.11458679646E+03  0.79634735392E+02 0.  0.
         23    2    1    2    0    0  0.36649829923E+02 -0.14846026752E+03 -0.46573102989E+02  0.18613249558E+03  0.95355078113E+02 0.  0.
         13    1    3    3    0    0 -0.32393935287E+02 -0.50291468908E+01  0.34178754923E+02  0.47358701945E+02  0.00000000000E+00 0. -1.
        -14    1    3    3    0    0 -0.49224539706E+02  0.74676792872E+01 -0.45175160748E+02  0.67228094513E+02  0.00000000000E+00 0.  1.
        -13    1    4    4    0    0 -0.79017524941E+01 -0.33310461370E+02  0.25933930169E+02  0.42948728307E+02  0.00000000000E+00 0.  1.
         13    1    4    4    0    0  0.44551582418E+02 -0.11514980615E+03 -0.72507033158E+02  0.14318376727E+03  0.00000000000E+00 0. -1.
         21    1    1    2  503  502  0.27152507675E+02  0.49254464425E+02 -0.16554735325E+03  0.17484046187E+03  0.00000000000E+00 0.  1.
         -1    1    1    2    0  503  0.17816137395E+02  0.96767270698E+02 -0.10388154660E+03  0.14308282620E+03  0.00000000000E+00 0.  1.
<scales pt_clust_5="13000.00000" pt_clust_6="13000.00000" pt_clust_7="13000.00000" pt_clust_8="13000.00000" pt_clust_9="54.19750" pt_clust_10="164.97690"></scales>
<clustering>
<clus scale="   54.197">  9 10 -1 -1</clus>
<clus scale="   79.635">  5  6 -1 -1</clus>
<clus scale="   95.355">  7  8 -1 -1</clus>
<clus scale="  114.058">  1  5  2 -1</clus>
<clus scale="  164.977">  2  9  1 -1</clus>
<clus scale="  164.977">  2  5  1 -1</clus>
</clustering>
</event>
<event>
10    3  0.5078224E-005  0.1598802E+03  0.7546771E-02  0.1208783E+00
         21   -1    0    0  503  502  0.00000000000E+00  0.00000000000E+00  0.18589609770E+03  0.18589609770E+03  0.00000000000E+00 0. -1.
         -2   -1    0    0    0  501 -0.00000000000E+00 -0.00000000000E+00 -0.12383365144E+04  0.12383365144E+04  0.00000000000E+00 0.  1.
         23    2    1    2    0    0 -0.36388579912E+02 -0.29085544203E+02 -0.42485961506E+03  0.43730011715E+03  0.92496498964E+02 0.  0.
        -24    2    1    2    0    0  0.12548932099E+03  0.40374340761E+02 -0.29707314791E+03  0.33445965661E+03  0.78950298372E+02 0.  0.
         11    1    4    4    0    0  0.62372653544E+02  0.59157425469E+02 -0.14215856640E+03  0.16612948834E+03  0.00000000000E+00 0. -1.
        -12    1    4    4    0    0  0.63116667447E+02 -0.18783084708E+02 -0.15491458152E+03  0.16833016826E+03  0.00000000000E+00 0.  1.
        -13    1    3    3    0    0 -0.10442475743E+02  0.30140554499E+02 -0.74779053644E+02  0.81298248376E+02  0.00000000000E+00 0.  1.
         13    1    3    3    0    0 -0.25946104168E+02 -0.59226098702E+02 -0.35008056142E+03  0.35600186877E+03  0.00000000000E+00 0. -1.
         21    1    1    2  503  501  0.14922849799E+03  0.27278551514E+02  0.83536477706E+02  0.17318085082E+03  0.00000000000E+00 0. -1.
         -1    1    1    2    0  502 -0.23832923907E+03 -0.38567348072E+02 -0.41404413140E+03  0.47929198750E+03  0.00000000000E+00 0.  1.
<scales pt_clust_5="13000.00000" pt_clust_6="13000.00000" pt_clust_7="13000.00000" pt_clust_8="13000.00000" pt_clust_9="159.88021" pt_clust_10="13000.00000"></scales>
<clustering>
<clus scale="   78.950">  5  6 -1 -1</clus>
<clus scale="   92.496">  7  8 -1 -1</clus>
<clus scale="  103.565">  2  7  1 -1</clus>
<clus scale="  139.470">  2  5  1 -1</clus>
<clus scale="  159.880">  1  9  2 -1</clus>
<clus scale="  159.880">  1  5  2 -1</clus>
</clustering>
</event>
<event>
10    3  0.5078224E-005  0.5332664E+03  0.7546771E-02  0.1053756E+00
         21   -1    0    0  503  502  0.00000000000E+00  0.00000000000E+00  0.78582954566E+03  0.78582954566E+03  0.00000000000E+00 0. -1.
          1   -1    0    0  502    0 -0.00000000000E+00 -0.00000000000E+00 -0.23314077040E+04  0.23314077040E+04  0.00000000000E+00 0. -1.
         23    2    1    2    0    0  0.67958705858E+02  0.49913166877E+02 -0.15154573367E+03  0.19786432720E+03  0.95260026537E+02 0.  0.
        -24    2    1    2    0    0  0.42535084870E+03  0.14870958802E+03 -0.20241330643E+04  0.20752340133E+04  0.80272422865E+02 0.  0.
         11    1    4    4    0    0  0.37155672950E+03  0.15160523191E+03 -0.18469038519E+04  0.18899979862E+04  0.00000000000E+00 0. -1.
        -12    1    4    4    0    0  0.53794119209E+02 -0.28956438937E+01 -0.17722921240E+03  0.18523602712E+03  0.00000000000E+00 0.  1.
        -13    1    3    3    0    0  0.62704155674E+02  0.71570422375E+02 -0.84659419297E+02  0.12736307853E+03  0.00000000000E+00 0.  1.
         13    1    3    3    0    0  0.52545501838E+01 -0.21657255498E+02 -0.66886314375E+02  0.70501248670E+02  0.00000000000E+00 0. -1.
         21    1    1    2  503  501  0.48665580079E+01 -0.31222655045E+02  0.65901035047E+02  0.73085456796E+02  0.00000000000E+00 0. -1.
          2    1    1    2  501    0 -0.49817611257E+03 -0.16740009985E+03  0.56419960459E+03  0.77105345235E+03  0.00000000000E+00 0. -1.
<scales pt_clust_5="13000.00000" pt_clust_6="13000.00000" pt_clust_7="13000.00000" pt_clust_8="13000.00000" pt_clust_9="31.59965" pt_clust_10="527.19005"></scales>
<clustering>
<clus scale="   31.600">  1  9  2 -1</clus>
<clus scale="   80.272">  5  6 -1 -1</clus>
<clus scale="   95.260">  7  8 -1 -1</clus>
<clus scale="  126.909">  2  7  1 -1</clus>
<clus scale="  527.190">  1 10  2 -1</clus>
<clus scale="   31.600">  1  5  2 -1</clus>
</clustering>
</event>
<event>
10    3  0.5078224E-005  0.3283925E+03  0.7546771E-02  0.1072217E+00
         21   -1    0    0  501  502  0.00000000000E+00  0.00000000000E+00  0.37957208147E+03  0.37957208147E+03  0.00000000000E+00 0. -1.
          1   -1    0    0  503    0 -0.00000000000E+00 -0.00000000000E+00 -0.94019582355E+03  0.94019582355E+03  0.00000000000E+00 0. -1.
         23    2    1    2    0    0 -0.78145677330E+02  0.36013718083E+03 -0.64111721938E+03  0.74523358037E+03  0.92391906697E+02 0.  0.
        -24    2    1    2    0    0  0.12004701758E+03 -0.18737940955E+03 -0.38078709731E+02  0.23950962961E+03  0.79953392617E+02 0.  0.
         11    1    4    4    0    0 -0.68275072115E+01 -0.19579710708E+02 -0.19264801762E+02  0.28303931053E+02  0.00000000000E+00 0. -1.
        -12    1    4    4    0    0  0.12687452479E+03 -0.16779969884E+03 -0.18813907969E+02  0.21120569856E+03  0.00000000000E+00 0.  1.
        -13    1    3    3    0    0 -0.86055210623E+02  0.17960216263E+03 -0.34278415130E+03  0.39643840691E+03  0.00000000000E+00 0. -1.
         13    1    3    3    0    0  0.79095332924E+01  0.18053501820E+03 -0.29833306808E+03  0.34879517346E+03  0.00000000000E+00 0.  1.
         21    1    1    2  503  502  0.21081436286E+02 -0.55444079866E+01  0.15173400563E+03  0.15329179978E+03  0.00000000000E+00 0. -1.
          2    1    1    2  501    0 -0.62982776533E+02 -0.16721336330E+03 -0.33161818604E+02  0.18173289526E+03  0.00000000000E+00 0. -1.
<scales pt_clust_5="13000.00000" pt_clust_6="13000.00000" pt_clust_7="13000.00000" pt_clust_8="13000.00000" pt_clust_9="21.79834" pt_clust_10="178.08939"></scales>
<clustering>
<clus scale="   21.798">  1  9  2 -1</clus>
<clus scale="   79.953">  5  6 -1 -1</clus>
<clus scale="   92.392">  7  8 -1 -1</clus>
<clus scale="  178.089">  1 10  2 -1</clus>
<clus scale="  325.112">  1  5  2 -1</clus>
<clus scale="   21.798">  1  5  2 -1</clus>
</clustering>
</event>
<event>
10    3  0.5078224E-005  0.1027867E+03  0.7546771E-02  0.1279798E+00
          1   -1    0    0  503    0 -0.00000000000E+00  0.00000000000E+00  0.62010417698E+03  0.62010417698E+03  0.00000000000E+00 0. -1.
         21   -1    0    0  501  502  0.00000000000E+00 -0.00000000000E+00 -0.45005490565E+02  0.45005490565E+02  0.00000000000E+00 0. -1.
        -24    2    1    2    0    0  0.60892578176E+02  0.37144903520E+02  0.24290267422E+03  0.26532698770E+03  0.79429536833E+02 0.  0.
         23    2    1    2    0    0  0.79094814007E+01 -0.36391449010E+02  0.14746994349E+03  0.17710630903E+03  0.90732370229E+02 0.  0.
         13    1    3    3    0    0  0.73293716039E+02  0.12757511599E+02  0.20847738540E+03  0.22135388665E+03  0.00000000000E+00 0. -1.
        -14    1    3    3    0    0 -0.12401137863E+02  0.24387391920E+02  0.34425288825E+02  0.43973101046E+02  0.00000000000E+00 0.  1.
        -11    1    4    4    0    0  0.26707786959E+02 -0.58436474606E+02  0.12462044491E+03  0.14020835474E+03  0.00000000000E+00 0.  1.
         11    1    4    4    0    0 -0.18798305558E+02  0.22045025596E+02  0.22849498577E+02  0.36897954288E+02  0.00000000000E+00 0. -1.
         21    1    1    2  503  502 -0.32266720393E+02  0.45768324741E+02  0.48198216801E+02  0.73884700021E+02  0.00000000000E+00 0. -1.
          2    1    1    2  501    0 -0.36535339184E+02 -0.46521779251E+02  0.13652785191E+03  0.14879167080E+03  0.00000000000E+00 0. -1.
<scales pt_clust_5="13000.00000" pt_clust_6="13000.00000" pt_clust_7="13000.00000" pt_clust_8="13000.00000" pt_clust_9="55.99894" pt_clust_10="57.01508"></scales>
<clustering>
<clus scale="   55.999">  2  9  1 -1</clus>
<clus scale="   57.015">  2 10  1 -1</clus>
<clus scale="   79.430">  5  6 -1 -1</clus>
<clus scale="   90.732">  7  8 -1 -1</clus>
<clus scale="   92.961">  1  5  2 -1</clus>
<clus scale="   55.999">  2  5  1 -1</clus>
</clustering>
</event>
<event>
10    3  0.5078224E-005  0.1401907E+03  0.7546771E-02  0.1215623E+00
         -2   -1    0    0    0  501 -0.00000000000E+00  0.00000000000E+00  0.18456374602E+03  0.18456374602E+03  0.00000000000E+00 0.  1.
         21   -1    0    0  501  502  0.00000000000E+00 -0.00000000000E+00 -0.24564840390E+03  0.24564840390E+03  0.00000000000E+00 0.  1.
         23    2    1    2    0    0 -0.10067840977E+03  0.16176687385E+02  0.20790934341E+02  0.13926679128E+03  0.92548089092E+02 0.  0.
        -24    2    1    2    0    0  0.91656574083E+02 -0.79284125145E+02 -0.38250705944E+02  0.15066947145E+03  0.80939934825E+02 0.  0.
         13    1    4    4    0    0  0.31835625910E+02  0.13644651180E+02 -0.14931240537E+02  0.37717708400E+02  0.00000000000E+00 0. -1.
        -14    1    4    4    0    0  0.59820948173E+02 -0.92928776325E+02 -0.23319465407E+02  0.11295176305E+03  0.00000000000E+00 0.  1.
        -11    1    3    3    0    0 -0.90330171145E+02 -0.23948618473E+02  0.12671032981E+01  0.93459519026E+02  0.00000000000E+00 0.  1.
         11    1    3    3    0    0 -0.10348238624E+02  0.40125305858E+02  0.19523831043E+02  0.45807272255E+02  0.00000000000E+00 0. -1.
         21    1    1    2  503  502 -0.23804330832E+02 -0.84152593831E+01 -0.55231379589E+02  0.60728642732E+02  0.00000000000E+00 0.  1.
         -1    1    1    2    0  503  0.32826166518E+02  0.71522697143E+02  0.11606493311E+02  0.79547244464E+02  0.00000000000E+00 0.  1.
<scales pt_clust_5="13000.00000" pt_clust_6="13000.00000" pt_clust_7="13000.00000" pt_clust_8="13000.00000" pt_clust_9="25.24802" pt_clust_10="75.58545"></scales>
<clustering>
<clus scale="   25.248">  2  9  1 -1</clus>
<clus scale="   75.585">  2 10  1 -1</clus>
<clus scale="   80.940">  5  6 -1 -1</clus>
<clus scale="   92.548">  7  8 -1 -1</clus>
<clus scale="  132.814">  2  5  1 -1</clus>
<clus scale="   25.248">  2  5  1 -1</clus>
</clustering>
</event>
<event>
10    3  0.5078224E-005  0.2812026E+03  0.7546771E-02  0.1141911E+00
          1   -1    0    0  503    0 -0.00000000000E+00  0.00000000000E+00  0.62053666143E+03  0.62053666143E+03  0.00000000000E+00 0. -1.
         21   -1    0    0  501  502  0.00000000000E+00 -0.00000000000E+00 -0.96900625983E+03  0.96900625983E+03  0.00000000000E+00 0. -1.
        -24    2    1    2    0    0 -0.24598419014E+02  0.50317835311E+01  0.25950474716E+03  0.27361730336E+03  0.83025982894E+02 0.  0.
         23    2    1    2    0    0  0.12688325450E+03 -0.17220571441E+03 -0.39466111243E+03  0.45849062371E+03  0.93284993501E+02 0.  0.
         13    1    3    3    0    0  0.27646821490E+02 -0.13775968177E+02  0.10434296195E+03  0.10881901372E+03  0.00000000000E+00 0. -1.
        -14    1    3    3    0    0 -0.52245240504E+02  0.18807751709E+02  0.15516178521E+03  0.16479828964E+03  0.00000000000E+00 0.  1.
        -13    1    4    4    0    0  0.11700377121E+02 -0.92522286516E+02 -0.15358365574E+03  0.17968086052E+03  0.00000000000E+00 0.  1.
         13    1    4    4    0    0  0.11518287738E+03 -0.79683427894E+02 -0.24107745670E+03  0.27880976319E+03  0.00000000000E+00 0. -1.
         21    1    1    2  503  502 -0.11601342577E+03  0.31321775614E+03 -0.46117084569E+03  0.56942341596E+03  0.00000000000E+00 0. -1.
          2    1    1    2  501    0  0.13728590279E+02 -0.14604382527E+03  0.24785761257E+03  0.28801157823E+03  0.00000000000E+00 0. -1.
<scales pt_clust_5="13000.00000" pt_clust_6="13000.00000" pt_clust_7="13000.00000" pt_clust_8="13000.00000" pt_clust_9="265.27870" pt_clust_10="142.31925"></scales>
<clustering>
<clus scale="   83.026">  5  6 -1 -1</clus>
<clus scale="   86.739">  1  5  2 -1</clus>
<clus scale="   93.285">  7  8 -1 -1</clus>
<clus scale="  142.319">  2 10  1 -1</clus>
<clus scale="  265.279">  2  9  1 -1</clus>
<clus scale="  142.319">  2  5  1 -1</clus>
</clustering>
</event>
<event>
10    3  0.5078224E-005  0.1013183E+03  0.7546771E-02  0.1279726E+00
          1   -1    0    0  503    0 -0.00000000000E+00  0.00000000000E+00  0.59295564294E+02  0.59295564294E+02  0.00000000000E+00 0. -1.
         21   -1    0    0  501  502  0.00000000000E+00 -0.00000000000E+00 -0.42906406208E+03  0.42906406208E+03  0.00000000000E+00 0.  1.
         23    2    1    2    0    0  0.42737157153E+02 -0.31392629300E+02 -0.57934501227E+02  0.11965338731E+03  0.90269401724E+02 0.  0.
        -24    2    1    2    0    0 -0.96507144006E+01  0.32508871131E+02 -0.21425097030E+03  0.23320311060E+03  0.85616876439E+02 0.  0.
         13    1    4    4    0    0 -0.26016704894E+02 -0.18585786824E+02 -0.41971498584E+02  0.52762743473E+02  0.00000000000E+00 0. -1.
        -14    1    4    4    0    0  0.16365990493E+02  0.51094657955E+02 -0.17227947171E+03  0.18044036713E+03  0.00000000000E+00 0.  1.
        -11    1    3    3    0    0  0.48063250691E+02  0.17179496708E+02 -0.11660486422E+02  0.52356261495E+02  0.00000000000E+00 0.  1.
         11    1    3    3    0    0 -0.53260935386E+01 -0.48572126009E+02 -0.46274014805E+02  0.67297125820E+02  0.00000000000E+00 0. -1.
         21    1    1    2  503  502 -0.60326138212E+02  0.12058644891E+01 -0.87661258898E+02  0.10641989181E+03  0.00000000000E+00 0.  1.
          2    1    1    2  501    0  0.27239695460E+02 -0.23221063199E+01 -0.99217673671E+01  0.29083236652E+02  0.00000000000E+00 0. -1.
<scales pt_clust_5="13000.00000" pt_clust_6="13000.00000" pt_clust_7="13000.00000" pt_clust_8="13000.00000" pt_clust_9="53.87602" pt_clust_10="27.33851"></scales>
<clustering>
<clus scale="   27.339">  2 10  1 -1</clus>
<clus scale="   53.876">  2  9  1 -1</clus>
<clus scale="   85.617">  5  6 -1 -1</clus>
<clus scale="   90.269">  7  8 -1 -1</clus>
<clus scale="   97.196">  2  5  1 -1</clus>
<clus scale="   27.339">  2  5  1 -1</clus>
</clustering>
</event>
<event>
10    3  0.5078224E-005  0.2088110E+03  0.7546771E-02  0.1143293E+00
         21   -1    0    0  503  502  0.00000000000E+00  0.00000000000E+00  0.47138325911E+03  0.47138325911E+03  0.00000000000E+00 0.  1.
         -4   -1    0    0    0  501 -0.00000000000E+00 -0.00000000000E+00 -0.22286633704E+03  0.22286633704E+03  0.00000000000E+00 0.  1.
        -24    2    1    2    0    0 -0.22764495272E+03  0.21317059117E+02  0.20005062859E+02  0.24312354961E+03  0.80201099277E+02 0.  0.
         23    2    1    2    0    0  0.97792726256E+02 -0.11955261904E+03  0.18789739671E+03  0.25922801216E+03  0.89652019327E+02 0.  0.
         11    1    3    3    0    0 -0.53814088442E+02  0.40320038414E+02  0.98678674320E+01  0.67963493290E+02  0.00000000000E+00 0. -1.
        -12    1    3    3    0    0 -0.17383086428E+03 -0.19002979298E+02  0.10137195427E+02  0.17516005632E+03  0.00000000000E+00 0.  1.
        -11    1    4    4    0    0  0.97575525557E+02 -0.70288871682E+02  0.16681495105E+03  0.20564225384E+03  0.00000000000E+00 0.  1.
         11    1    4    4    0    0  0.21720069899E+00 -0.49263747356E+02  0.21082445662E+02  0.53585758321E+02  0.00000000000E+00 0. -1.
         21    1    1    2  503  501 -0.13969950345E+00  0.23991671212E+02  0.34565425745E+02  0.42075984367E+02  0.00000000000E+00 0.  1.
         -3    1    1    2    0  502  0.12999192597E+03  0.74243888710E+02  0.60490367553E+01  0.14982205002E+03  0.00000000000E+00 0.  1.
<scales pt_clust_5="13000.00000" pt_clust_6="13000.00000" pt_clust_7="13000.00000" pt_clust_8="13000.00000" pt_clust_9="23.99208" pt_clust_10="151.86606"></scales>
<clustering>
<clus scale="   23.992">  1  9  2 -1</clus>
<clus scale="   80.201">  5  6 -1 -1</clus>
<clus scale="   89.652">  7  8 -1 -1</clus>
<clus scale="  151.866">  1 10  2 -1</clus>
<clus scale="  204.931">  2  5  1 -1</clus>
<clus scale="   23.992">  1  5  2 -1</clus>
</clustering>
</event>
<event>
10    3  0.5078224E-005  0.9250895E+03  0.7546771E-02  0.9394751E-01
         21   -1    0    0  501  502  0.00000000000E+00  0.00000000000E+00  0.54757257798E+03  0.54757257798E+03  0.00000000000E+00 0.  1.
          1   -1    0    0  503    0 -0.00000000000E+00 -0.00000000000E+00 -0.24990338579E+04  0.24990338579E+04  0.00000000000E+00 0. -1.
        -24    2    1    2    0    0 -0.19139349599E+03 -0.12059763789E+03 -0.78902588795E+02  0.25298902248E+03  0.81256177660E+02 0.  0.
         23    2    1    2    0    0 -0.42468022864E+03 -0.46306246325E+03 -0.25836517383E+03  0.68533016503E+03  0.90248161099E+02 0.  0.
         11    1    3    3    0    0 -0.96832398141E+02 -0.53457529412E+02 -0.80838778440E+02  0.13700047037E+03  0.00000000000E+00 0. -1.
        -12    1    3    3    0    0 -0.94561097848E+02 -0.67140108473E+02  0.19361896456E+01  0.11598855212E+03  0.00000000000E+00 0.  1.
        -13    1    4    4    0    0 -0.66705109074E+02 -0.54484414155E+02 -0.59475991224E+01  0.86333637116E+02  0.00000000000E+00 0. -1.
         13    1    4    4    0    0 -0.35797511957E+03 -0.40857804910E+03 -0.25241757471E+03  0.59899652791E+03  0.00000000000E+00 0.  1.
         21    1    1    2  503  502  0.36746117995E+02 -0.13291183390E+03  0.94358065790E+02  0.16709062619E+03  0.00000000000E+00 0.  1.
          2    1    1    2  501    0  0.57932760664E+03  0.71657193504E+03 -0.17085515830E+04  0.19411966221E+04  0.00000000000E+00 0. -1.
<scales pt_clust_5="13000.00000" pt_clust_6="13000.00000" pt_clust_7="13000.00000" pt_clust_8="13000.00000" pt_clust_9="137.89791" pt_clust_10="899.61322"></scales>
<clustering>
<clus scale="   81.256">  5  6 -1 -1</clus>
<clus scale="   90.248">  7  8 -1 -1</clus>
<clus scale="  110.566">  5  7 -1 -1</clus>
<clus scale="  137.898">  1  9  2 -1</clus>
<clus scale="  899.613">  1 10  2 -1</clus>
<clus scale="  137.898">  1  5  2 -1</clus>
</clustering>
</event>
<event>
10    3  0.5078224E-005  0.2317404E+03  0.7546771E-02  0.1153217E+00
         21   -1    0    0  501  502  0.00000000000E+00  0.00000000000E+00  0.10085219694E+04  0.10085219694E+04  0.00000000000E+00 0.  1.
          1   -1    0    0  503    0 -0.00000000000E+00 -0.00000000000E+00 -0.16471831923E+03  0.16471831923E+03  0.00000000000E+00 0. -1.
        -24    2    1    2    0    0 -0.35800288240E+02 -0.89724117138E+02  0.49201631226E+03  0.50779385742E+03  0.80265012730E+02 0.  0.
         23    2    1    2    0    0 -0.13199721584E+03 -0.95961482465E+02  0.26144168567E+02  0.18883802133E+03  0.91347740209E+02 0.  0.
         13    1    3    3    0    0  0.16895591269E+02 -0.34093430106E+02  0.78474818191E+02  0.87213072820E+02  0.00000000000E+00 0. -1.
        -14    1    3    3    0    0 -0.52695879508E+02 -0.55630687032E+02  0.41354149407E+03  0.42058078459E+03  0.00000000000E+00 0.  1.
        -13    1    4    4    0    0 -0.11157467070E+02 -0.57869978741E+02  0.19050936456E+02  0.61938370101E+02  0.00000000000E+00 0.  1.
         13    1    4    4    0    0 -0.12083974877E+03 -0.38091503723E+02  0.70932321118E+01  0.12689965122E+03  0.00000000000E+00 0. -1.
         21    1    1    2  503  502 -0.51956993283E+02  0.56705488021E+02  0.14542003256E+03  0.16450540232E+03  0.00000000000E+00 0. -1.
          2    1    1    2  501    0  0.21975449736E+03  0.12898011158E+03  0.18022313676E+03  0.31210300754E+03  0.00000000000E+00 0. -1.
<scales pt_clust_5="13000.00000" pt_clust_6="13000.00000" pt_clust_7="13000.00000" pt_clust_8="13000.00000" pt_clust_9="76.90931" pt_clust_10="212.97701"></scales>
<clustering>
<clus scale="   76.909">  1  9  2 -1</clus>
<clus scale="   80.265">  5  6 -1 -1</clus>
<clus scale="   91.348">  7  8 -1 -1</clus>
<clus scale="  118.417">  2  5  1 -1</clus>
<clus scale="  212.977">  1 10  2 -1</clus>
<clus scale="   76.909">  1  5  2 -1</clus>
</clustering>
</event>
<event>
10    3  0.5078224E-005  0.1097742E+03  0.7546771E-02  0.1265853E+00
         21   -1    0    0  503  502  0.00000000000E+00  0.00000000000E+00  0.13069662656E+03  0.13069662656E+03  0.00000000000E+00 0.  1.
         -2   -1    0    0    0  501 -0.00000000000E+00 -0.00000000000E+00 -0.23117936776E+03  0.23117936776E+03  0.00000000000E+00 0.  1.
         23    2    1    2    0    0  0.44101336520E+02  0.37955322959E+02 -0.95732387209E+02  0.14383004492E+03  0.90204531130E+02 0.  0.
        -24    2    1    2    0    0 -0.70384878901E+02 -0.35287821740E+02  0.41266692462E+02  0.11812032221E+03  0.77783089873E+02 0.  0.
         13    1    4    4    0    0 -0.13415417825E+02 -0.38600588356E+02 -0.92591472914E+01  0.41901201240E+02  0.00000000000E+00 0. -1.
        -14    1    4    4    0    0 -0.56969461076E+02  0.33127666153E+01  0.50525839754E+02  0.76219120965E+02  0.00000000000E+00 0.  1.
        -13    1    3    3    0    0  0.47785009239E+02 -0.17381724990E+02 -0.55781901515E+02  0.75479480710E+02  0.00000000000E+00 0. -1.
         13    1    3    3    0    0 -0.36836727184E+01  0.55337047948E+02 -0.39950485694E+02  0.68350564208E+02  0.00000000000E+00 0.  1.
         21    1    1    2  503  501  0.38318436887E+02  0.30259520063E+02 -0.10343248144E+02  0.49909156896E+02  0.00000000000E+00 0.  1.
         -1    1    1    2    0  502 -0.12034894506E+02 -0.32927021282E+02 -0.35673798309E+02  0.50016470308E+02  0.00000000000E+00 0.  1.
<scales pt_clust_5="13000.00000" pt_clust_6="13000.00000" pt_clust_7="13000.00000" pt_clust_8="13000.00000" pt_clust_9="44.14311" pt_clust_10="35.05750"></scales>
<clustering>
<clus scale="   35.058">  1 10  2 -1</clus>
<clus scale="   44.143">  1  9  2 -1</clus>
<clus scale="   77.783">  5  6 -1 -1</clus>
<clus scale="   90.205">  7  8 -1 -1</clus>
<clus scale="   99.818">  1  5  2 -1</clus>
<clus scale="   35.058">  1  5  2 -1</clus>
</clustering>
</event>
<event>
10    3  0.5078224E-005  0.2421741E+03  0.7546771E-02  0.1118888E+00
         21   -1    0    0  503  502  0.00000000000E+00  0.00000000000E+00  0.17646428769E+03  0.17646428769E+03  0.00000000000E+00 0.  1.
          3   -1    0    0  502    0 -0.00000000000E+00 -0.00000000000E+00 -0.45070536685E+03  0.45070536685E+03  0.00000000000E+00 0. -1.
         23    2    1    2    0    0 -0.14580198293E+03  0.18840276292E+03 -0.15158639284E+03  0.29657547055E+03  0.90690440172E+02 0.  0.
        -24    2    1    2    0    0  0.15250478482E+03 -0.14726226235E+03 -0.10473514533E+03  0.25016892748E+03  0.81677159005E+02 0.  0.
         13    1    4    4    0    0  0.11187348090E+03 -0.51520197035E+02 -0.58258558804E+02  0.13625001323E+03  0.00000000000E+00 0. -1.
        -14    1    4    4    0    0  0.40631303921E+02 -0.95742065312E+02 -0.46476586530E+02  0.11391891425E+03  0.00000000000E+00 0.  1.
        -11    1    3    3    0    0 -0.11634583860E+03  0.12951085623E+03 -0.15141260489E+03  0.23072752970E+03  0.00000000000E+00 0.  1.
         11    1    3    3    0    0 -0.29456144336E+02  0.58891906687E+02 -0.17378794135E+00  0.65847940853E+02  0.00000000000E+00 0. -1.
         21    1    1    2  503  501  0.22234993183E+02 -0.10217023587E+02  0.13262210083E+02  0.27832871018E+02  0.00000000000E+00 0. -1.
          4    1    1    2  501    0 -0.28937795068E+02 -0.30923476983E+02 -0.31181751065E+02  0.52592385491E+02  0.00000000000E+00 0. -1.
<scales pt_clust_5="13000.00000" pt_clust_6="13000.00000" pt_clust_7="13000.00000" pt_clust_8="13000.00000" pt_clust_9="24.47003" pt_clust_10="41.85106"></scales>
<clustering>
<clus scale="   24.470">  1  9  2 -1</clus>
<clus scale="   41.851">  1 10  2 -1</clus>
<clus scale="   81.677">  5  6 -1 -1</clus>
<clus scale="   90.690">  7  8 -1 -1</clus>
<clus scale="  238.945">  1  5  2 -1</clus>
<clus scale="   24.470">  1  5  2 -1</clus>
</clustering>
</event>
<event>
10    3  0.5078224E-005  0.1786226E+03  0.7546771E-02  0.1201154E+00
         21   -1    0    0  501  502  0.00000000000E+00  0.00000000000E+00  0.22159785291E+03  0.22159785291E+03  0.00000000000E+00 0.  1.
         -2   -1    0    0    0  501 -0.00000000000E+00 -0.00000000000E+00 -0.26748392114E+03  0.26748392114E+03  0.00000000000E+00 0.  1.
        -24    2    1    2    0    0 -0.31029923204E+02  0.19509968109E+02 -0.32415743346E+01  0.87850330332E+02  0.79772662896E+02 0.  0.
         23    2    1    2    0    0  0.17326473275E+02  0.13447206777E+03  0.61693517719E+02  0.17449217452E+03  0.90876207867E+02 0.  0.
         13    1    3    3    0    0 -0.32131860035E+02  0.76547205263E+01  0.34805314589E+02  0.47983967106E+02  0.00000000000E+00 0. -1.
        -14    1    3    3    0    0  0.11019368305E+01  0.11855247582E+02 -0.38046888924E+02  0.39866363225E+02  0.00000000000E+00 0.  1.
        -13    1    4    4    0    0 -0.33634060381E+01  0.13510168744E+03  0.69990067223E+02  0.15219194447E+03  0.00000000000E+00 0.  1.
         13    1    4    4    0    0  0.20689879313E+02 -0.62961967929E+00 -0.82965495045E+01  0.22300230057E+02  0.00000000000E+00 0. -1.
         21    1    1    2  503  502  0.17624936077E+02  0.18722716854E+02 -0.16332773851E+01  0.25765210908E+02  0.00000000000E+00 0. -1.
         -1    1    1    2    0  503 -0.39214861476E+01 -0.17270475273E+03 -0.10270473423E+03  0.20097405828E+03  0.00000000000E+00 0.  1.
<scales pt_clust_5="13000.00000" pt_clust_6="13000.00000" pt_clust_7="13000.00000" pt_clust_8="13000.00000" pt_clust_9="25.71339" pt_clust_10="153.77772"></scales>
<clustering>
<clus scale="   25.713">  1  9  2 -1</clus>
<clus scale="   79.773">  5  6 -1 -1</clus>
<clus scale="   87.526">  2  5  1 -1</clus>
<clus scale="   90.876">  7  8 -1 -1</clus>
<clus scale="  153.778">  1 10  2 -1</clus>
<clus scale="   25.713">  1  5  2 -1</clus>
</clustering>
</event>
<event>
10    3  0.5078224E-005  0.1506064E+03  0.7546771E-02  0.1216583E+00
         21   -1    0    0  503  502  0.00000000000E+00  0.00000000000E+00  0.92774005340E+02  0.92774005340E+02  0.00000000000E+00 0.  1.
          3   -1    0    0  502    0 -0.00000000000E+00 -0.00000000000E+00 -0.44270041139E+03  0.44270041139E+03  0.00000000000E+00 0. -1.
        -24    2    1    2    0    0  0.65763673676E+02 -0.21721202441E+02 -0.71947914699E+02  0.12860255479E+03  0.81027422872E+02 0.  0.
         23    2    1    2    0    0  0.84142902632E+01 -0.94285135230E+02 -0.13973487734E+03  0.19246072146E+03  0.92492196178E+02 0.  0.
         13    1    3    3    0    0  0.40931101209E+02 -0.24124226204E+02 -0.87241243131E+02  0.99339658944E+02  0.00000000000E+00 0. -1.
        -14    1    3    3    0    0  0.24832572467E+02  0.24030237621E+01  0.15293328432E+02  0.29262895842E+02  0.00000000000E+00 0.  1.
        -13    1    4    4    0    0  0.26305571592E+02 -0.76877817561E+02 -0.41761956175E+02  0.91357774236E+02  0.00000000000E+00 0.  1.
         13    1    4    4    0    0 -0.17891281329E+02 -0.17407317669E+02 -0.97972921162E+02  0.10110294722E+03  0.00000000000E+00 0. -1.
         21    1    1    2  503  501 -0.13908753615E+02 -0.14528927617E+02 -0.16579842648E+02  0.26065961464E+02  0.00000000000E+00 0.  1.
          4    1    1    2  501    0 -0.60269210324E+02  0.13053526529E+03 -0.12166377137E+03  0.18834517902E+03  0.00000000000E+00 0. -1.
<scales pt_clust_5="13000.00000" pt_clust_6="13000.00000" pt_clust_7="13000.00000" pt_clust_8="13000.00000" pt_clust_9="20.11326" pt_clust_10="118.85916"></scales>
<clustering>
<clus scale="   20.113">  1  9  2 -1</clus>
<clus scale="   81.027">  5  6 -1 -1</clus>
<clus scale="   92.492">  7  8 -1 -1</clus>
<clus scale="  104.969">  2  5  1 -1</clus>
<clus scale="  118.859">  1 10  2 -1</clus>
<clus scale="   20.113">  1  5  2 -1</clus>
</clustering>
</event>
<event>
10    3  0.5078224E-005  0.1114117E+03  0.7546771E-02  0.1267956E+00
         21   -1    0    0  501  502  0.00000000000E+00  0.00000000000E+00  0.24161393158E+03  0.24161393158E+03  0.00000000000E+00 0.  1.
          3   -1    0    0  503    0 -0.00000000000E+00 -0.00000000000E+00 -0.42785101371E+03  0.42785101371E+03  0.00000000000E+00 0. -1.
        -24    2    1    2    0    0 -0.69692304239E+02  0.29164211043E+02 -0.10559882838E+03  0.15264012164E+03  0.80251639883E+02 0.  0.
         23    2    1    2    0    0 -0.90108007717E+02  0.55848750815E+01  0.10167359684E+03  0.15750583860E+03  0.79497956041E+02 0.  0.
         11    1    3    3    0    0 -0.56117603514E+02  0.46278456479E+01 -0.15680176094E+02  0.58450579995E+02  0.00000000000E+00 0. -1.
        -12    1    3    3    0    0 -0.13574700726E+02  0.24536365395E+02 -0.89918652289E+02  0.94189541649E+02  0.00000000000E+00 0.  1.
        -11    1    4    4    0    0 -0.77186415412E+02 -0.29674647319E+02  0.71943514085E+02  0.10960929083E+03  0.00000000000E+00 0.  1.
         11    1    4    4    0    0 -0.12921592304E+02  0.35259522400E+02  0.29730082750E+02  0.47896547766E+02  0.00000000000E+00 0. -1.
         21    1    1    2  503  502  0.79089334897E+02 -0.26688012181E+02  0.60647793091E+02  0.10317716654E+03  0.00000000000E+00 0.  1.
          4    1    1    2  501    0  0.80710977059E+02 -0.80610739442E+01 -0.24295964368E+03  0.25614181851E+03  0.00000000000E+00 0. -1.
<scales pt_clust_5="13000.00000" pt_clust_6="13000.00000" pt_clust_7="13000.00000" pt_clust_8="13000.00000" pt_clust_9="77.28031" pt_clust_10="81.11257"></scales>
<clustering>
<clus scale="   79.498">  7  8 -1 -1</clus>
<clus scale="   80.252">  5  6 -1 -1</clus>
<clus scale="   81.113">  1 10  2 -1</clus>
<clus scale="   91.657">  1  7  2 -1</clus>
<clus scale="   77.280">  1  9  2 -1</clus>
<clus scale="   81.113">  1  5  2 -1</clus>
</clustering>
</event>
<event>
10    3  0.5078224E-005  0.1700773E+03  0.7546771E-02  0.1190405E+00
         21   -1    0    0  501  502  0.00000000000E+00  0.00000000000E+00  0.38698034224E+03  0.38698034224E+03  0.00000000000E+00 0. -1.
          1   -1    0    0  503    0 -0.00000000000E+00 -0.00000000000E+00 -0.34865501707E+03  0.34865501707E+03  0.00000000000E+00 0. -1.
         23    2    1    2    0    0 -0.89182145321E+02 -0.64525473354E+01  0.59563643091E+02  0.14142791842E+03  0.91972485657E+02 0.  0.
        -24    2    1    2    0    0  0.54694090112E+02  0.14486036286E+03 -0.11649245006E+03  0.20940160101E+03  0.79388735737E+02 0.  0.
         11    1    4    4    0    0  0.49591692030E+02  0.15440006327E+03 -0.10302596213E+03  0.19212772920E+03  0.00000000000E+00 0. -1.
        -12    1    4    4    0    0  0.51023980813E+01 -0.95397004039E+01 -0.13466487937E+02  0.17273871811E+02  0.00000000000E+00 0.  1.
        -11    1    3    3    0    0 -0.34973970071E+02 -0.21695525168E+02 -0.18541438773E+02  0.45140440257E+02  0.00000000000E+00 0.  1.
         11    1    3    3    0    0 -0.54208175249E+02  0.15242977833E+02  0.78105081864E+02  0.96287478158E+02  0.00000000000E+00 0. -1.
         21    1    1    2  503  502  0.18979896799E+03 -0.71052996771E+02  0.38721481947E+02  0.20632869351E+03  0.00000000000E+00 0. -1.
          2    1    1    2  501    0 -0.15531091278E+03 -0.67354818758E+02  0.56532650200E+02  0.17847714637E+03  0.00000000000E+00 0. -1.
<scales pt_clust_5="13000.00000" pt_clust_6="13000.00000" pt_clust_7="13000.00000" pt_clust_8="13000.00000" pt_clust_9="13000.00000" pt_clust_10="170.07726"></scales>
<clustering>
<clus scale="   79.389">  5  6 -1 -1</clus>
<clus scale="   91.972">  7  8 -1 -1</clus>
<clus scale="  128.273">  2  7  1 -1</clus>
<clus scale="  162.372">  2  5  1 -1</clus>
<clus scale="  170.077">  1 10  2 -1</clus>
<clus scale="  170.077">  1  5  2 -1</clus>
</clustering>
</event>
<event>
10    3  0.5078224E-005  0.3227241E+03  0.7546771E-02  0.1085995E+00
         21   -1    0    0  501  502  0.00000000000E+00  0.00000000000E+00  0.10788088437E+04  0.10788088437E+04  0.00000000000E+00 0. -1.
          3   -1    0    0  503    0 -0.00000000000E+00 -0.00000000000E+00 -0.52173734944E+03  0.52173734944E+03  0.00000000000E+00 0. -1.
         23    2    1    2    0    0  0.40805014229E+01 -0.20416534754E+03  0.29803077032E+03  0.37423433409E+03  0.97615865164E+02 0.  0.
        -24    2    1    2    0    0 -0.10719656000E+02  0.48383111840E+03 -0.24971751449E+03  0.55041461254E+03  0.79937140950E+02 0.  0.
         13    1    4    4    0    0  0.16914324181E+02  0.40925220598E+03 -0.19342819408E+03  0.45297674193E+03  0.00000000000E+00 0. -1.
        -14    1    4    4    0    0 -0.27633980181E+02  0.74578912417E+02 -0.56289320405E+02  0.97437870613E+02  0.00000000000E+00 0.  1.
        -13    1    3    3    0    0 -0.45750910570E+02 -0.94618138624E+02  0.15556417418E+03  0.18773904832E+03  0.00000000000E+00 0.  1.
         13    1    3    3    0    0  0.49831411993E+02 -0.10954720891E+03  0.14246659613E+03  0.18649528577E+03  0.00000000000E+00 0. -1.
         21    1    1    2  503  502  0.13536936031E+03 -0.71170821414E+01  0.22045161276E+03  0.25879418490E+03  0.00000000000E+00 0. -1.
          4    1    1    2  501    0 -0.12873020573E+03 -0.27254868872E+03  0.28830662568E+03  0.41710306161E+03  0.00000000000E+00 0. -1.
<scales pt_clust_5="13000.00000" pt_clust_6="13000.00000" pt_clust_7="13000.00000" pt_clust_8="13000.00000" pt_clust_9="135.55632" pt_clust_10="312.66741"></scales>
<clustering>
<clus scale="   79.937">  5  6 -1 -1</clus>
<clus scale="   97.616">  7  8 -1 -1</clus>
<clus scale="  135.556">  1  9  2 -1</clus>
<clus scale="  236.186">  2  7  1 -1</clus>
<clus scale="  312.667">  1 10  2 -1</clus>
<clus scale="  135.556">  1  5  2 -1</clus>
</clustering>
</event>
<event>
10    3  0.5078224E-005  0.1873777E+03  0.7546771E-02  0.1188393E+00
         21   -1    0    0  501  502  0.00000000000E+00  0.00000000000E+00  0.10281151256E+04  0.10281151256E+04  0.00000000000E+00 0.  1.
          1   -1    0    0  503    0 -0.00000000000E+00 -0.00000000000E+00 -0.28506053993E+03  0.28506053993E+03  0.00000000000E+00 0. -1.
        -24    2    1    2    0    0  0.58676482145E+02 -0.10825370111E+02 -0.11597514743E+03  0.15332325799E+03  0.80608116370E+02 0.  0.
         23    2    1    2    0    0  0.74854203274E+02  0.11680308233E+03  0.17258940334E+02  0.16748923589E+03  0.92242405266E+02 0.  0.
         13    1    3    3    0    0  0.75391009362E+02  0.14461491888E+01 -0.10658311883E+03  0.13055978270E+03  0.00000000000E+00 0. -1.
        -14    1    3    3    0    0 -0.16714527217E+02 -0.12271519300E+02 -0.93920286039E+01  0.22763475291E+02  0.00000000000E+00 0.  1.
        -13    1    4    4    0    0  0.81170789693E+02  0.42604167288E+02  0.33457414876E+01  0.91733342661E+02  0.00000000000E+00 0.  1.
         13    1    4    4    0    0 -0.63165864192E+01  0.74198915040E+02  0.13913198846E+02  0.75755893232E+02  0.00000000000E+00 0. -1.
         21    1    1    2  503  502 -0.26533431922E+03 -0.65565031502E+02  0.80434583548E+03  0.84951356515E+03  0.00000000000E+00 0.  1.
          2    1    1    2  501    0  0.13180363380E+03 -0.40412680715E+02  0.37424957267E+02  0.14284960649E+03  0.00000000000E+00 0. -1.
<scales pt_clust_5="13000.00000" pt_clust_6="13000.00000" pt_clust_7="13000.00000" pt_clust_8="13000.00000" pt_clust_9="163.10037" pt_clust_10="158.65044"></scales>
<clustering>
<clus scale="   80.608">  5  6 -1 -1</clus>
<clus scale="   92.242">  7  8 -1 -1</clus>
<clus scale="  100.289">  2  5  1 -1</clus>
<clus scale="  158.650">  1 10  2 -1</clus>
<clus scale="  163.100">  1  9  2 -1</clus>
<clus scale="  158.650">  1  5  2 -1</clus>
</clustering>
</event>
<event>
10    3  0.5078224E-005  0.1093481E+03  0.7546771E-02  0.1266929E+00
          1   -1    0    0  502    0 -0.00000000000E+00  0.00000000000E+00  0.67886716107E+03  0.67886716107E+03  0.00000000000E+00 0. -1.
         21   -1    0    0  503  502  0.00000000000E+00 -0.00000000000E+00 -0.47625990788E+02  0.47625990788E+02  0.00000000000E+00 0. -1.
         23    2    1    2    0    0  0.20438790345E+02  0.43925516809E+02  0.14593253663E+03  0.18020502753E+03  0.93969950103E+02 0.  0.
        -24    2    1    2    0    0  0.57950611693E+02 -0.66936666334E+02  0.14557501510E+03  0.18890413059E+03  0.81571409438E+02 0.  0.
         11    1    4    4    0    0  0.47010878794E+02 -0.10741620969E+02  0.22599290612E+02  0.53255357310E+02  0.00000000000E+00 0. -1.
        -12    1    4    4    0    0  0.10939732899E+02 -0.56195045365E+02  0.12297572449E+03  0.13564877328E+03  0.00000000000E+00 0.  1.
        -13    1    3    3    0    0  0.38157949582E+02  0.55560310106E+02  0.14390883497E+03  0.15891107563E+03  0.00000000000E+00 0. -1.
         13    1    3    3    0    0 -0.17719159236E+02 -0.11634793298E+02  0.20237016599E+01  0.21293951900E+02  0.00000000000E+00 0.  1.
         21    1    1    2  503  501 -0.25814867883E+02  0.62439510007E+01  0.20863143560E+02  0.33773733686E+02  0.00000000000E+00 0. -1.
          2    1    1    2  501    0 -0.52574534156E+02  0.16767198524E+02  0.31887047499E+03  0.32361026005E+03  0.00000000000E+00 0. -1.
<scales pt_clust_5="13000.00000" pt_clust_6="13000.00000" pt_clust_7="13000.00000" pt_clust_8="13000.00000" pt_clust_9="26.55926" pt_clust_10="56.70857"></scales>
<clustering>
<clus scale="   26.559">  2  9  1 -1</clus>
<clus scale="   56.709">  2 10  1 -1</clus>
<clus scale="   81.571">  5  6 -1 -1</clus>
<clus scale="   93.970">  7  8 -1 -1</clus>
<clus scale="   98.897">  2  5  1 -1</clus>
<clus scale="   26.559">  2  5  1 -1</clus>
</clustering>
</event>
<event>
10    3  0.5078224E-005  0.2050775E+03  0.7546771E-02  0.1160368E+00
         21   -1    0    0  501  502  0.00000000000E+00  0.00000000000E+00  0.18304625772E+03  0.18304625772E+03  0.00000000000E+00 0. -1.
          1   -1    0    0  503    0 -0.00000000000E+00 -0.00000000000E+00 -0.10975545494E+04  0.10975545494E+04  0.00000000000E+00 0. -1.
        -24    2    1    2    0    0 -0.97588308654E+02  0.17894949884E+01 -0.13913820340E+03  0.18816314863E+03  0.80741876255E+02 0.  0.
         23    2    1    2    0    0 -0.71078046861E+01 -0.21444376124E+03 -0.55463556545E+03  0.59943363709E+03  0.75255745233E+02 0.  0.
         13    1    3    3    0    0 -0.10167483424E+03  0.65406326280E+01 -0.14653138955E+03  0.17847128598E+03  0.00000000000E+00 0. -1.
        -14    1    3    3    0    0  0.40865255896E+01 -0.47511376395E+01  0.73931861553E+01  0.96918626585E+01  0.00000000000E+00 0.  1.
        -13    1    4    4    0    0 -0.33812120550E+02 -0.56681564368E+02 -0.19326438195E+03  0.20422335950E+03  0.00000000000E+00 0.  1.
         13    1    4    4    0    0  0.26704315864E+02 -0.15776219688E+03 -0.36137118349E+03  0.39521027758E+03  0.00000000000E+00 0. -1.
         21    1    1    2  503  502 -0.56758038247E+02  0.94814753905E+02  0.76793344046E+02  0.13456793880E+03  0.00000000000E+00 0. -1.
          2    1    1    2  501    0  0.16145415159E+03  0.11783951235E+03 -0.29752786691E+03  0.35843608262E+03  0.00000000000E+00 0. -1.
<scales pt_clust_5="13000.00000" pt_clust_6="13000.00000" pt_clust_7="13000.00000" pt_clust_8="13000.00000" pt_clust_9="110.50481" pt_clust_10="190.77040"></scales>
<clustering>
<clus scale="   75.256">  7  8 -1 -1</clus>
<clus scale="   80.742">  5  6 -1 -1</clus>
<clus scale="  110.505">  1  9  2 -1</clus>
<clus scale="  144.531">  2  5  1 -1</clus>
<clus scale="  190.770">  1 10  2 -1</clus>
<clus scale="  110.505">  1  5  2 -1</clus>
</clustering>
</event>
<event>
10    3  0.5078224E-005  0.9404080E+02  0.7546771E-02  0.1299003E+00
          3   -1    0    0  503    0 -0.00000000000E+00  0.00000000000E+00  0.21164813331E+03  0.21164813331E+03  0.00000000000E+00 0. -1.
         21   -1    0    0  501  502  0.00000000000E+00 -0.00000000000E+00 -0.22137314439E+03  0.22137314439E+03  0.00000000000E+00 0. -1.
         23    2    1    2    0    0 -0.69332043707E+01 -0.51128282201E+01  0.87390976858E+02  0.12629370257E+03  0.90767318668E+02 0.  0.
        -24    2    1    2    0    0 -0.46121188371E+02  0.43172718101E+02  0.59193680461E+02  0.11857876555E+03  0.81030761000E+02 0.  0.
         11    1    4    4    0    0 -0.24801468977E+02 -0.16279495784E+02  0.44910452080E+02  0.53824562724E+02  0.00000000000E+00 0. -1.
        -12    1    4    4    0    0 -0.21319719394E+02  0.59452213885E+02  0.14283228381E+02  0.64754202828E+02  0.00000000000E+00 0.  1.
        -13    1    3    3    0    0 -0.28998745525E+02  0.10592829901E+01  0.97148719897E+02  0.10138995562E+03  0.00000000000E+00 0. -1.
         13    1    3    3    0    0  0.22065541154E+02 -0.61721112101E+01 -0.97577430391E+01  0.24903746956E+02  0.00000000000E+00 0.  1.
         21    1    1    2  503  502 -0.20748929347E+02 -0.19692303786E+02 -0.45699811973E+02  0.53914540820E+02  0.00000000000E+00 0. -1.
          4    1    1    2  501    0  0.73803322089E+02 -0.18367586096E+02 -0.11060985642E+03  0.13423426875E+03  0.00000000000E+00 0. -1.
<scales pt_clust_5="13000.00000" pt_clust_6="13000.00000" pt_clust_7="13000.00000" pt_clust_8="13000.00000" pt_clust_9="28.60603" pt_clust_10="67.31820"></scales>
<clustering>
<clus scale="   28.606">  2  9  1 -1</clus>
<clus scale="   67.318">  2 10  1 -1</clus>
<clus scale="   81.031">  5  6 -1 -1</clus>
<clus scale="   84.681">  2  5  1 -1</clus>
<clus scale="   90.767">  7  8 -1 -1</clus>
<clus scale="   28.606">  2  5  1 -1</clus>
</clustering>
</event>
<event>
10    3  0.5078224E-005  0.1196729E+03  0.7546771E-02  0.1247621E+00
         21   -1    0    0  501  502  0.00000000000E+00  0.00000000000E+00  0.98553573302E+02  0.98553573302E+02  0.00000000000E+00 0. -1.
          1   -1    0    0  503    0 -0.00000000000E+00 -0.00000000000E+00 -0.60777281637E+03  0.60777281637E+03  0.00000000000E+00 0. -1.
        -24    2    1    2    0    0 -0.44693237665E+02 -0.10916750894E+02 -0.50500877736E+02  0.10432777670E+03  0.78849764712E+02 0.  0.
         23    2    1    2    0    0  0.11173297513E+03  0.11642746545E+02 -0.14624431342E+03  0.20578131440E+03  0.91316695463E+02 0.  0.
         13    1    3    3    0    0 -0.60104003318E+02 -0.21965876895E+02 -0.17624556850E+02  0.66374814250E+02  0.00000000000E+00 0. -1.
        -14    1    3    3    0    0  0.15410765653E+02  0.11049126001E+02 -0.32876320886E+02  0.37952962446E+02  0.00000000000E+00 0.  1.
        -11    1    4    4    0    0  0.61986252105E+02  0.47167431088E+02 -0.10977012685E+03  0.13459770709E+03  0.00000000000E+00 0.  1.
         11    1    4    4    0    0  0.49746723024E+02 -0.35524684543E+02 -0.36474186567E+02  0.71183607307E+02  0.00000000000E+00 0. -1.
         21    1    1    2  503  502 -0.23103034764E+02  0.18291788528E+02  0.34833306671E+02  0.45625639683E+02  0.00000000000E+00 0. -1.
          2    1    1    2  501    0 -0.43936702700E+02 -0.19017784179E+02 -0.34730735859E+03  0.35059165890E+03  0.00000000000E+00 0. -1.
<scales pt_clust_5="13000.00000" pt_clust_6="13000.00000" pt_clust_7="13000.00000" pt_clust_8="13000.00000" pt_clust_9="29.46760" pt_clust_10="48.27392"></scales>
<clustering>
<clus scale="   29.468">  1  9  2 -1</clus>
<clus scale="   48.274">  1 10  2 -1</clus>
<clus scale="   78.850">  5  6 -1 -1</clus>
<clus scale="   91.317">  7  8 -1 -1</clus>
<clus scale="  110.454">  2  5  1 -1</clus>
<clus scale="   29.468">  1  5  2 -1</clus>
</clustering>
</event>
<event>
10    3  0.5078224E-005  0.9105882E+02  0.7546771E-02  0.1305937E+00
         21   -1    0    0  501  502  0.00000000000E+00  0.00000000000E+00  0.32020117917E+02  0.32020117917E+02  0.00000000000E+00 0. -1.
          3   -1    0    0  503    0 -0.00000000000E+00 -0.00000000000E+00 -0.65556453723E+03  0.65556453723E+03  0.00000000000E+00 0. -1.
        -24    2    1    2    0    0  0.18416656938E+01  0.72044246168E+01 -0.20151342739E+03  0.21716703204E+03  0.80613664577E+02 0.  0.
         23    2    1    2    0    0 -0.31874012955E+02  0.54176550390E+02 -0.14703536311E+03  0.18334732680E+03  0.89698344064E+02 0.  0.
         13    1    3    3    0    0 -0.12223755108E+02 -0.33039773264E+02 -0.62278389586E+02  0.71551691914E+02  0.00000000000E+00 0. -1.
        -14    1    3    3    0    0  0.14065420802E+02  0.40244197881E+02 -0.13923503781E+03  0.14561534012E+03  0.00000000000E+00 0.  1.
        -13    1    4    4    0    0  0.15549263328E+02  0.32003491690E+02 -0.10466486391E+02  0.37088413389E+02  0.00000000000E+00 0.  1.
         13    1    4    4    0    0 -0.47423276283E+02  0.22173058701E+02 -0.13656887672E+03  0.14625891341E+03  0.00000000000E+00 0. -1.
         21    1    1    2  503  502  0.16786216272E+02 -0.19971765958E+02 -0.37837538288E+02  0.45960067405E+02  0.00000000000E+00 0. -1.
          4    1    1    2  501    0  0.13246130990E+02 -0.41409209049E+02 -0.23715809052E+03  0.24111022890E+03  0.00000000000E+00 0. -1.
<scales pt_clust_5="13000.00000" pt_clust_6="13000.00000" pt_clust_7="13000.00000" pt_clust_8="13000.00000" pt_clust_9="26.08924" pt_clust_10="45.18759"></scales>
<clustering>
<clus scale="   26.089">  1  9  2 -1</clus>
<clus scale="   45.188">  1 10  2 -1</clus>
<clus scale="   80.614">  5  6 -1 -1</clus>
<clus scale="   82.125">  2  5  1 -1</clus>
<clus scale="   89.698">  7  8 -1 -1</clus>
<clus scale="   26.089">  1  5  2 -1</clus>
</clustering>
</event>
<event>
10    3  0.5078224E-005  0.1883922E+03  0.7546771E-02  0.1189821E+00
          1   -1    0    0  503    0 -0.00000000000E+00  0.00000000000E+00  0.70821056192E+03  0.70821056192E+03  0.00000000000E+00 0. -1.
         21   -1    0    0  501  502  0.00000000000E+00 -0.00000000000E+00 -0.21741087509E+03  0.21741087509E+03  0.00000000000E+00 0. -1.
         23    2    1    2    0    0  0.62981303799E+01 -0.23838778147E+02  0.19026526765E+03  0.21293602581E+03  0.92373834071E+02 0.  0.
        -24    2    1    2    0    0  0.35947797774E+02 -0.37873609091E+02 -0.29507230605E+02  0.10097939745E+03  0.81237353607E+02 0.  0.
         13    1    4    4    0    0  0.30670696389E+02 -0.36503256066E+02 -0.56220653014E+02  0.73715270777E+02  0.00000000000E+00 0. -1.
        -14    1    4    4    0    0  0.52771013853E+01 -0.13703530250E+01  0.26713422409E+02  0.27264126674E+02  0.00000000000E+00 0.  1.
        -13    1    3    3    0    0 -0.14942832291E+02  0.21150978005E+02  0.13939799299E+03  0.14178311803E+03  0.00000000000E+00 0. -1.
         13    1    3    3    0    0  0.21240962671E+02 -0.44989756152E+02  0.50867274661E+02  0.71152907777E+02  0.00000000000E+00 0.  1.
         21    1    1    2  503  502 -0.18059425878E+03  0.83038350394E+02 -0.51468369025E+02  0.20532570942E+03  0.00000000000E+00 0. -1.
          2    1    1    2  501    0  0.13834833063E+03 -0.21325963156E+02  0.38151001881E+03  0.40638030432E+03  0.00000000000E+00 0. -1.
<scales pt_clust_5="13000.00000" pt_clust_6="13000.00000" pt_clust_7="13000.00000" pt_clust_8="13000.00000" pt_clust_9="188.39223" pt_clust_10="13000.00000"></scales>
<clustering>
<clus scale="   81.237">  5  6 -1 -1</clus>
<clus scale="   92.374">  7  8 -1 -1</clus>
<clus scale="   95.608">  1  7  2 -1</clus>
<clus scale="   97.409">  1  5  2 -1</clus>
<clus scale="  188.392">  2  9  1 -1</clus>
<clus scale="  188.392">  2  5  1 -1</clus>
</clustering>
</event>
<event>
10    3  0.5078224E-005  0.1708110E+03  0.7546771E-02  0.1199489E+00
         21   -1    0    0  501  502  0.00000000000E+00  0.00000000000E+00  0.10793899685E+03  0.10793899685E+03  0.00000000000E+00 0. -1.
          1   -1    0    0  503    0 -0.00000000000E+00 -0.00000000000E+00 -0.63166162163E+03  0.63166162163E+03  0.00000000000E+00 0. -1.
        -24    2    1    2    0    0 -0.27243554912E+02 -0.49048064733E+02 -0.19929238195E+03  0.22376879225E+03  0.84894610815E+02 0.  0.
         23    2    1    2    0    0  0.14360307222E+03  0.15630261235E+02 -0.45256784553E+02  0.17640680423E+03  0.90581657162E+02 0.  0.
         11    1    3    3    0    0 -0.19928784752E+02  0.19840454681E+02 -0.90714431932E+02  0.94973197611E+02  0.00000000000E+00 0. -1.
        -12    1    3    3    0    0 -0.73147701597E+01 -0.68888519414E+02 -0.10857795002E+03  0.12879559464E+03  0.00000000000E+00 0.  1.
        -13    1    4    4    0    0  0.49380013546E+02  0.38063458704E+02 -0.49272355198E+02  0.79466833416E+02  0.00000000000E+00 0.  1.
         13    1    4    4    0    0  0.94223058672E+02 -0.22433197469E+02  0.40155706443E+01  0.96939970816E+02  0.00000000000E+00 0. -1.
         21    1    1    2  503  502  0.11128771546E+02 -0.37799779337E+02 -0.26172649517E+02  0.47304127270E+02  0.00000000000E+00 0. -1.
          2    1    1    2  501    0 -0.12748828885E+03  0.71217582835E+02 -0.25300080877E+03  0.29212089473E+03  0.00000000000E+00 0. -1.
<scales pt_clust_5="13000.00000" pt_clust_6="13000.00000" pt_clust_7="13000.00000" pt_clust_8="13000.00000" pt_clust_9="39.40397" pt_clust_10="144.81498"></scales>
<clustering>
<clus scale="   39.404">  1  9  2 -1</clus>
<clus scale="   84.895">  5  6 -1 -1</clus>
<clus scale="   90.582">  7  8 -1 -1</clus>
<clus scale="  103.776">  2  5  1 -1</clus>
<clus scale="  144.815">  1 10  2 -1</clus>
<clus scale="   39.404">  1  5  2 -1</clus>
</clustering>
</event>
<event>
10    3  0.5078224E-005  0.1610693E+03  0.7546771E-02  0.1214289E+00
         21   -1    0    0  503  502  0.00000000000E+00  0.00000000000E+00  0.11183500333E+03  0.11183500333E+03  0.00000000000E+00 0.  1.
          1   -1    0    0  502    0 -0.00000000000E+00 -0.00000000000E+00 -0.44092297369E+03  0.44092297369E+03  0.00000000000E+00 0. -1.
        -24    2    1    2    0    0 -0.35191307844E+02  0.12010011620E+02 -0.11538659086E+03  0.14575168722E+03  0.80912424576E+02 0.  0.
         23    2    1    2    0    0 -0.10851050920E+03 -0.49850374862E+01 -0.57218946145E+02  0.15236950740E+03  0.90239003659E+02 0.  0.
         13    1    3    3    0    0 -0.61046877198E+02  0.11619512843E+02 -0.91097537671E+02  0.11027463745E+03  0.00000000000E+00 0. -1.
        -14    1    3    3    0    0  0.25855569354E+02  0.39049877657E+00 -0.24289053191E+02  0.35477049777E+02  0.00000000000E+00 0.  1.
        -13    1    4    4    0    0 -0.69419942500E+02 -0.33706767087E+02  0.24264448449E+00  0.77170806919E+02  0.00000000000E+00 0.  1.
         13    1    4    4    0    0 -0.39090566701E+02  0.28721729601E+02 -0.57461590629E+02  0.75198700481E+02  0.00000000000E+00 0. -1.
         21    1    1    2  503  501 -0.19297600522E+02 -0.10849735345E+02  0.75180393706E+01  0.23380227948E+02  0.00000000000E+00 0.  1.
          2    1    1    2  501    0  0.16299941757E+03  0.38247612112E+01 -0.16400047272E+03  0.23125655445E+03  0.00000000000E+00 0. -1.
<scales pt_clust_5="13000.00000" pt_clust_6="13000.00000" pt_clust_7="13000.00000" pt_clust_8="13000.00000" pt_clust_9="22.13852" pt_clust_10="133.41761"></scales>
<clustering>
<clus scale="   22.139">  1  9  2 -1</clus>
<clus scale="   80.912">  5  6 -1 -1</clus>
<clus scale="   90.081">  2  5  1 -1</clus>
<clus scale="   90.239">  7  8 -1 -1</clus>
<clus scale="  133.418">  1 10  2 -1</clus>
<clus scale="   22.139">  1  5  2 -1</clus>
</clustering>
</event>
<event>
10    3  0.5078224E-005  0.2565423E+03  0.7546771E-02  0.1141828E+00
          1   -1    0    0  503    0 -0.00000000000E+00  0.00000000000E+00  0.76563547691E+03  0.76563547691E+03  0.00000000000E+00 0. -1.
         21   -1    0    0  501  502  0.00000000000E+00 -0.00000000000E+00 -0.30409883256E+03  0.30409883256E+03  0.00000000000E+00 0.  1.
        -24    2    1    2    0    0  0.13571231260E+03  0.21978760531E+03  0.47543819977E+03  0.54759054736E+03  0.84199183564E+02 0.  0.
         23    2    1    2    0    0 -0.10421620130E+02 -0.39551942855E+02 -0.84965040332E+02  0.13072405654E+03  0.90535929494E+02 0.  0.
         13    1    3    3    0    0  0.13245710146E+03  0.20108576066E+03  0.46959119233E+03  0.52772744365E+03  0.00000000000E+00 0. -1.
        -14    1    3    3    0    0  0.32552111378E+01  0.18701844649E+02  0.58470074429E+01  0.19863103707E+02  0.00000000000E+00 0.  1.
        -13    1    4    4    0    0  0.15683953888E+02 -0.14833253597E+02  0.13798514314E+02  0.25620515590E+02  0.00000000000E+00 0. -1.
         13    1    4    4    0    0 -0.26105574017E+02 -0.24718689258E+02 -0.98763554646E+02  0.10510354095E+03  0.00000000000E+00 0.  1.
         21    1    1    2  503  502 -0.17058371119E+03 -0.98775459147E+02 -0.80962214020E+02  0.21309686518E+03  0.00000000000E+00 0.  1.
          2    1    1    2  501    0  0.45293018719E+02 -0.81460203312E+02  0.15202569893E+03  0.17832284039E+03  0.00000000000E+00 0. -1.
<scales pt_clust_5="13000.00000" pt_clust_6="13000.00000" pt_clust_7="13000.00000" pt_clust_8="13000.00000" pt_clust_9="242.33125" pt_clust_10="93.20532"></scales>
<clustering>
<clus scale="   84.199">  5  6 -1 -1</clus>
<clus scale="   90.536">  7  8 -1 -1</clus>
<clus scale="   93.205">  2 10  1 -1</clus>
<clus scale="  114.463">  2  7  1 -1</clus>
<clus scale="  242.331">  2  9  1 -1</clus>
<clus scale="   93.205">  2  5  1 -1</clus>
</clustering>
</event>
<event>
10    3  0.5078224E-005  0.1120633E+03  0.7546771E-02  0.1260432E+00
         21   -1    0    0  503  502  0.00000000000E+00  0.00000000000E+00  0.31975804008E+02  0.31975804008E+02  0.00000000000E+00 0. -1.
          1   -1    0    0  502    0 -0.00000000000E+00 -0.00000000000E+00 -0.99370520125E+03  0.99370520125E+03  0.00000000000E+00 0. -1.
         23    2    1    2    0    0 -0.40737916372E+02  0.15944915289E+02 -0.34845198992E+03  0.36265466923E+03  0.90475420323E+02 0.  0.
        -24    2    1    2    0    0  0.11103255464E+03  0.19569135465E+02 -0.36811232743E+03  0.39335433704E+03  0.80683143265E+02 0.  0.
         11    1    4    4    0    0  0.95720773975E+02  0.16111120063E+02 -0.36455836976E+03  0.37725964497E+03  0.00000000000E+00 0. -1.
        -12    1    4    4    0    0  0.15311780666E+02  0.34580154023E+01 -0.35539576710E+01  0.16094692069E+02  0.00000000000E+00 0.  1.
        -13    1    3    3    0    0 -0.57736295432E+02  0.39029022412E+02 -0.27780285078E+03  0.28641083831E+03  0.00000000000E+00 0.  1.
         13    1    3    3    0    0  0.16998379060E+02 -0.23084107122E+02 -0.70649139147E+02  0.76243830928E+02  0.00000000000E+00 0. -1.
         21    1    1    2  503  501 -0.21582240243E+02 -0.38050562424E+01 -0.48732466042E+01  0.22450391520E+02  0.00000000000E+00 0. -1.
          2    1    1    2  501    0 -0.48712398026E+02 -0.31708994512E+02 -0.24029183329E+03  0.24722160747E+03  0.00000000000E+00 0. -1.
<scales pt_clust_5="13000.00000" pt_clust_6="13000.00000" pt_clust_7="13000.00000" pt_clust_8="13000.00000" pt_clust_9="21.91510" pt_clust_10="61.15018"></scales>
<clustering>
<clus scale="   21.915">  1  9  2 -1</clus>
<clus scale="   61.150">  1 10  2 -1</clus>
<clus scale="   80.683">  5  6 -1 -1</clus>
<clus scale="   90.475">  7  8 -1 -1</clus>
<clus scale="  104.318">  1  5  2 -1</clus>
<clus scale="   21.915">  1  5  2 -1</clus>
</clustering>
</event>
<event>
10    3  0.5078224E-005  0.2123209E+03  0.7546771E-02  0.1164434E+00
         21   -1    0    0  503  502  0.00000000000E+00  0.00000000000E+00  0.16502352521E+03  0.16502352521E+03  0.00000000000E+00 0.  1.
          1   -1    0    0  502    0 -0.00000000000E+00 -0.00000000000E+00 -0.53426088132E+03  0.53426088132E+03  0.00000000000E+00 0. -1.
         23    2    1    2    0    0 -0.71116932737E+02 -0.23095598251E+02 -0.14631213345E+03  0.18829636170E+03  0.91963333210E+02 0.  0.
        -24    2    1    2    0    0 -0.78624633743E+02  0.17532783606E+03 -0.26577414050E+02  0.21025919189E+03  0.81122658410E+02 0.  0.
         13    1    4    4    0    0 -0.32934251157E+02  0.29681849857E+02 -0.36306637527E+02  0.57304877966E+02  0.00000000000E+00 0. -1.
        -14    1    4    4    0    0 -0.45690382586E+02  0.14564598621E+03  0.97292234772E+01  0.15295431393E+03  0.00000000000E+00 0.  1.
        -13    1    3    3    0    0 -0.85443713381E+02  0.56392460180E+01 -0.96303827085E+02  0.12886759237E+03  0.00000000000E+00 0.  1.
         13    1    3    3    0    0  0.14326780645E+02 -0.28734844269E+02 -0.50008306366E+02  0.59428769333E+02  0.00000000000E+00 0. -1.
         21    1    1    2  503  501  0.26912446227E+02 -0.24716176033E+02 -0.26640709641E+00  0.36540937213E+02  0.00000000000E+00 0. -1.
          2    1    1    2  501    0  0.12282912025E+03 -0.12751606178E+03 -0.19608140151E+03  0.26418791572E+03  0.00000000000E+00 0. -1.
<scales pt_clust_5="13000.00000" pt_clust_6="13000.00000" pt_clust_7="13000.00000" pt_clust_8="13000.00000" pt_clust_9="36.02440" pt_clust_10="211.63064"></scales>
<clustering>
<clus scale="   36.024">  9 10 -1 -1</clus>
<clus scale="   81.123">  5  6 -1 -1</clus>
<clus scale="   91.963">  7  8 -1 -1</clus>
<clus scale="  118.525">  2  7  1 -1</clus>
<clus scale="  211.631">  1  9  2 -1</clus>
<clus scale="  211.631">  1  5  2 -1</clus>
</clustering>
</event>
<event>
10    3  0.5078224E-005  0.3280806E+03  0.7546771E-02  0.1116402E+00
         21   -1    0    0  501  502  0.00000000000E+00  0.00000000000E+00  0.45588604501E+03  0.45588604501E+03  0.00000000000E+00 0.  1.
          1   -1    0    0  503    0 -0.00000000000E+00 -0.00000000000E+00 -0.51232676114E+03  0.51232676114E+03  0.00000000000E+00 0. -1.
         23    2    1    2    0    0  0.14687153267E+02 -0.40722200893E+02  0.85444795729E+02  0.13328684925E+03  0.92685279029E+02 0.  0.
        -24    2    1    2    0    0 -0.52287761170E+02  0.29069298897E+03  0.38163099913E+02  0.30843525751E+03  0.80246258951E+02 0.  0.
         11    1    4    4    0    0  0.18895587240E+02  0.32881965076E+02 -0.20082603227E+01  0.37977624385E+02  0.00000000000E+00 0. -1.
        -12    1    4    4    0    0 -0.71183348410E+02  0.25781102389E+03  0.40171360235E+02  0.27045763312E+03  0.00000000000E+00 0.  1.
        -11    1    3    3    0    0 -0.32367368941E+02 -0.87515714557E+01  0.64446691752E+02  0.72647179250E+02  0.00000000000E+00 0.  1.
         11    1    3    3    0    0  0.47054522209E+02 -0.31970629438E+02  0.20998103977E+02  0.60639669999E+02  0.00000000000E+00 0. -1.
         21    1    1    2  503  502 -0.70934350598E+02  0.10101196399E+03 -0.17157677536E+02  0.12461735377E+03  0.00000000000E+00 0. -1.
          2    1    1    2  501    0  0.10853495850E+03 -0.35098275206E+03 -0.16289093423E+03  0.40187334562E+03  0.00000000000E+00 0. -1.
<scales pt_clust_5="13000.00000" pt_clust_6="13000.00000" pt_clust_7="13000.00000" pt_clust_8="13000.00000" pt_clust_9="117.38016" pt_clust_10="318.11563"></scales>
<clustering>
<clus scale="   80.246">  5  6 -1 -1</clus>
<clus scale="   92.685">  7  8 -1 -1</clus>
<clus scale="  102.297">  2  7  1 -1</clus>
<clus scale="  117.380">  2  9  1 -1</clus>
<clus scale="  318.116">  1 10  2 -1</clus>
<clus scale="  318.116">  1  5  2 -1</clus>
</clustering>
</event>
<event>
10    3  0.5078224E-005  0.1085183E+03  0.7546771E-02  0.1266881E+00
         21   -1    0    0  503  502  0.00000000000E+00  0.00000000000E+00  0.55413305854E+03  0.55413305854E+03  0.00000000000E+00 0.  1.
         -2   -1    0    0    0  501 -0.00000000000E+00 -0.00000000000E+00 -0.44516184009E+02  0.44516184009E+02  0.00000000000E+00 0.  1.
         23    2    1    2    0    0 -0.60217021072E+02 -0.23431889009E+02  0.10105925544E+03  0.14968926050E+03  0.89547521185E+02 0.  0.
        -24    2    1    2    0    0  0.57136007880E+02 -0.24853493366E+01  0.28020826502E+03  0.29713162498E+03  0.80621525786E+02 0.  0.
         11    1    4    4    0    0  0.20751560547E+02  0.25888081072E+02  0.37474493555E+02  0.50051550165E+02  0.00000000000E+00 0. -1.
        -12    1    4    4    0    0  0.36384447333E+02 -0.28373430409E+02  0.24273377147E+03  0.24708007482E+03  0.00000000000E+00 0.  1.
        -13    1    3    3    0    0 -0.18652811664E+02 -0.29704803453E+02 -0.51617002403E+01  0.35453432563E+02  0.00000000000E+00 0.  1.
         13    1    3    3    0    0 -0.41564209408E+02  0.62729144435E+01  0.10622095568E+03  0.11423582794E+03  0.00000000000E+00 0. -1.
         21    1    1    2  503  501 -0.24176245263E+02 -0.12852885679E+02  0.78076318406E+02  0.82738135108E+02  0.00000000000E+00 0.  1.
         -1    1    1    2    0  502  0.27257258455E+02  0.38770124025E+02  0.50273035664E+02  0.69090221959E+02  0.00000000000E+00 0.  1.
<scales pt_clust_5="13000.00000" pt_clust_6="13000.00000" pt_clust_7="13000.00000" pt_clust_8="13000.00000" pt_clust_9="27.38042" pt_clust_10="44.34392"></scales>
<clustering>
<clus scale="   27.380">  1  9  2 -1</clus>
<clus scale="   44.344">  1 10  2 -1</clus>
<clus scale="   80.622">  5  6 -1 -1</clus>
<clus scale="   89.548">  7  8 -1 -1</clus>
<clus scale="  101.278">  1  5  2 -1</clus>
<clus scale="   27.380">  1  5  2 -1</clus>
</clustering>
</event>
<event>
10    3  0.5078224E-005  0.1001288E+03  0.7546771E-02  0.1287653E+00
         21   -1    0    0  503  502  0.00000000000E+00  0.00000000000E+00  0.22594512062E+03  0.22594512062E+03  0.00000000000E+00 0. -1.
          1   -1    0    0  502    0 -0.00000000000E+00 -0.00000000000E+00 -0.97988744506E+03  0.97988744506E+03  0.00000000000E+00 0. -1.
         23    2    1    2    0    0  0.57871960952E+01  0.11483472801E+02 -0.18572097056E+03  0.20947851371E+03  0.96039611687E+02 0.  0.
        -24    2    1    2    0    0 -0.36109689273E+02 -0.40531747828E+02 -0.10397412003E+03  0.14306653192E+03  0.81918756563E+02 0.  0.
         13    1    4    4    0    0 -0.14054596739E+01 -0.30778891080E+02  0.22492743795E+01  0.30892955317E+02  0.00000000000E+00 0. -1.
        -14    1    4    4    0    0 -0.34704229599E+02 -0.97528567480E+01 -0.10622339441E+03  0.11217357660E+03  0.00000000000E+00 0.  1.
        -13    1    3    3    0    0  0.36211818079E+02 -0.17793588218E+02 -0.36529119177E+02  0.54426869266E+02  0.00000000000E+00 0.  1.
         13    1    3    3    0    0 -0.30424621984E+02  0.29277061020E+02 -0.14919185138E+03  0.15505164444E+03  0.00000000000E+00 0. -1.
         21    1    1    2  503  501  0.47869523776E+01 -0.60869181736E+02  0.18630472171E+03  0.19605463914E+03  0.00000000000E+00 0. -1.
          2    1    1    2  501    0  0.25535540800E+02  0.89917456763E+02 -0.65055195556E+03  0.65723288091E+03  0.00000000000E+00 0. -1.
<scales pt_clust_5="13000.00000" pt_clust_6="13000.00000" pt_clust_7="13000.00000" pt_clust_8="13000.00000" pt_clust_9="61.05712" pt_clust_10="87.99623"></scales>
<clustering>
<clus scale="   61.057">  1  9  2 -1</clus>
<clus scale="   81.919">  5  6 -1 -1</clus>
<clus scale="   87.996">  1 10  2 -1</clus>
<clus scale="   86.677">  1  5  2 -1</clus>
<clus scale="   96.040">  7  8 -1 -1</clus>
<clus scale="   61.057">  1  5  2 -1</clus>
</clustering>
</event>
<event>
10    3  0.5078224E-005  0.1615634E+03  0.7546771E-02  0.1188374E+00
         21   -1    0    0  501  502  0.00000000000E+00  0.00000000000E+00  0.25206289358E+03  0.25206289358E+03  0.00000000000E+00 0.  1.
         -2   -1    0    0    0  501 -0.00000000000E+00 -0.00000000000E+00 -0.31703278751E+03  0.31703278751E+03  0.00000000000E+00 0.  1.
         23    2    1    2    0    0  0.12650917039E+03 -0.68107851211E+02 -0.24940661976E+03  0.30183463344E+03  0.90869325816E+02 0.  0.
        -24    2    1    2    0    0 -0.73335164420E+02  0.23300456756E+02  0.12939356924E+03  0.17121717489E+03  0.81557756181E+02 0.  0.
         11    1    4    4    0    0 -0.61514921292E+01  0.21712592722E+02 -0.29789739926E+01  0.22762948495E+02  0.00000000000E+00 0. -1.
        -12    1    4    4    0    0 -0.67183672291E+02  0.15878640339E+01  0.13237254323E+03  0.14845422640E+03  0.00000000000E+00 0.  1.
        -13    1    3    3    0    0  0.36650958647E+02 -0.55286709356E+02 -0.51068059782E+02  0.83712960353E+02  0.00000000000E+00 0. -1.
         13    1    3    3    0    0  0.89858211739E+02 -0.12821141855E+02 -0.19833855998E+03  0.21812167308E+03  0.00000000000E+00 0.  1.
         21    1    1    2  503  502 -0.84676591937E+01  0.22900511605E+02  0.34317641037E+02  0.42116922612E+02  0.00000000000E+00 0.  1.
         -1    1    1    2    0  503 -0.44706346772E+02  0.21906882850E+02  0.20725515552E+02  0.53926950153E+02  0.00000000000E+00 0.  1.
<scales pt_clust_5="13000.00000" pt_clust_6="13000.00000" pt_clust_7="13000.00000" pt_clust_8="13000.00000" pt_clust_9="24.41587" pt_clust_10="52.95298"></scales>
<clustering>
<clus scale="   24.416">  1  9  2 -1</clus>
<clus scale="   52.953">  1 10  2 -1</clus>
<clus scale="   81.558">  5  6 -1 -1</clus>
<clus scale="   90.869">  7  8 -1 -1</clus>
<clus scale="  156.516">  1  5  2 -1</clus>
<clus scale="   24.416">  1  5  2 -1</clus>
</clustering>
</event>
<event>
10    3  0.5078224E-005  0.1420601E+03  0.7546771E-02  0.1229667E+00
          3   -1    0    0  502    0 -0.00000000000E+00  0.00000000000E+00  0.43108268320E+03  0.43108268320E+03  0.00000000000E+00 0. -1.
         21   -1    0    0  503  502  0.00000000000E+00 -0.00000000000E+00 -0.90655201900E+02  0.90655201900E+02  0.00000000000E+00 0. -1.
         23    2    1    2    0    0  0.29529135136E+02  0.10327174344E+02  0.20749749556E+02  0.97400673014E+02  0.89876129452E+02 0.  0.
        -24    2    1    2    0    0 -0.10175678772E+03  0.77898773246E+02  0.20871991498E+03  0.25713183682E+03  0.78295056531E+02 0.  0.
         13    1    4    4    0    0 -0.54085129957E+02  0.39000557582E+02  0.17432607931E+03  0.18664358200E+03  0.00000000000E+00 0. -1.
        -14    1    4    4    0    0 -0.47671657758E+02  0.38898215664E+02  0.34393835670E+02  0.70488254818E+02  0.00000000000E+00 0.  1.
        -11    1    3    3    0    0  0.11839352496E+02 -0.40013172478E+02  0.71414962257E+01  0.42334680908E+02  0.00000000000E+00 0.  1.
         11    1    3    3    0    0  0.17689782640E+02  0.50340346821E+02  0.13608253330E+02  0.55065992106E+02  0.00000000000E+00 0. -1.
         21    1    1    2  503  501  0.21698050665E+02 -0.24130407936E+02  0.40492473083E+01  0.32702880509E+02  0.00000000000E+00 0. -1.
          4    1    1    2  501    0  0.50529601914E+02 -0.64095539654E+02  0.10690856946E+03  0.13450249476E+03  0.00000000000E+00 0. -1.
<scales pt_clust_5="13000.00000" pt_clust_6="13000.00000" pt_clust_7="13000.00000" pt_clust_8="13000.00000" pt_clust_9="32.43130" pt_clust_10="129.21414"></scales>
<clustering>
<clus scale="   32.431">  9 10 -1 -1</clus>
<clus scale="   78.295">  5  6 -1 -1</clus>
<clus scale="   89.876">  7  8 -1 -1</clus>
<clus scale="   95.165">  1  7  2 -1</clus>
<clus scale="  129.214">  2  9  1 -1</clus>
<clus scale="  129.214">  2  5  1 -1</clus>
</clustering>
</event>
<event>
10    3  0.5078224E-005  0.8230789E+02  0.7546771E-02  0.1322918E+00
         21   -1    0    0  503  502  0.00000000000E+00  0.00000000000E+00  0.17473430741E+03  0.17473430741E+03  0.00000000000E+00 0.  1.
         -2   -1    0    0    0  501 -0.00000000000E+00 -0.00000000000E+00 -0.28250766289E+03  0.28250766289E+03  0.00000000000E+00 0.  1.
        -24    2    1    2    0    0 -0.21245360951E+02 -0.92239637974E+01 -0.14210056855E+03  0.16480139786E+03  0.80190287977E+02 0.  0.
         23    2    1    2    0    0  0.66307032374E+01 -0.11826070686E+02 -0.50028199334E+02  0.95849306324E+02  0.80625347261E+02 0.  0.
         11    1    3    3    0    0 -0.47933738613E+02  0.11333598490E+02 -0.75155244068E+02  0.89857690061E+02  0.00000000000E+00 0. -1.
        -12    1    3    3    0    0  0.26688377662E+02 -0.20557562288E+02 -0.66945324478E+02  0.74943707800E+02  0.00000000000E+00 0.  1.
        -13    1    4    4    0    0  0.25838535705E+02  0.48875146346E+01 -0.62272155442E+02  0.67596886542E+02  0.00000000000E+00 0. -1.
         13    1    4    4    0    0 -0.19207832468E+02 -0.16713585321E+02  0.12243956108E+02  0.28252419783E+02  0.00000000000E+00 0.  1.
         21    1    1    2  503  501  0.81929745089E+02 -0.14919470899E+02  0.86721841336E+02  0.12023207354E+03  0.00000000000E+00 0.  1.
         -1    1    1    2    0  502 -0.67315087376E+02  0.35969505383E+02 -0.23664289351E+01  0.76359192582E+02  0.00000000000E+00 0.  1.
<scales pt_clust_5="13000.00000" pt_clust_6="13000.00000" pt_clust_7="13000.00000" pt_clust_8="13000.00000" pt_clust_9="33.61318" pt_clust_10="76.32252"></scales>
<clustering>
<clus scale="   76.323">  1 10  2 -1</clus>
<clus scale="   33.613">  1  9  2 -1</clus>
<clus scale="   80.190">  5  6 -1 -1</clus>
<clus scale="   80.625">  7  8 -1 -1</clus>
<clus scale="   81.882">  2  5  1 -1</clus>
<clus scale="   76.323">  1  5  2 -1</clus>
</clustering>
</event>
<event>
10    3  0.5078224E-005  0.1119159E+03  0.7546771E-02  0.1261589E+00
          1   -1    0    0  503    0 -0.00000000000E+00  0.00000000000E+00  0.44665159653E+03  0.44665159653E+03  0.00000000000E+00 0. -1.
         21   -1    0    0  501  502  0.00000000000E+00 -0.00000000000E+00 -0.11483208780E+03  0.11483208780E+03  0.00000000000E+00 0.  1.
        -24    2    1    2    0    0 -0.71950116801E+02 -0.50035715462E+02  0.26585957103E+03  0.29100420219E+03  0.79509383440E+02 0.  0.
         23    2    1    2    0    0  0.35610537380E+02 -0.16183755263E+02  0.87732241503E+02  0.13263628991E+03  0.91462642081E+02 0.  0.
         11    1    3    3    0    0 -0.57364116757E+02 -0.26411248734E+02  0.25234118816E+03  0.26012356908E+03  0.00000000000E+00 0. -1.
        -12    1    3    3    0    0 -0.14586000044E+02 -0.23624466729E+02  0.13518382865E+02  0.30880633102E+02  0.00000000000E+00 0.  1.
        -11    1    4    4    0    0  0.43129054198E+02  0.60503678393E+01  0.97829454918E+02  0.10708559435E+03  0.00000000000E+00 0.  1.
         11    1    4    4    0    0 -0.75185168183E+01 -0.22234123102E+02 -0.10097213415E+02  0.25550695568E+02  0.00000000000E+00 0. -1.
         21    1    1    2  503  502  0.23041469022E+02 -0.80761033982E+01 -0.51286290156E+02  0.56801551904E+02  0.00000000000E+00 0.  1.
          2    1    1    2  501    0  0.13298110399E+02  0.74295574123E+02  0.29513986359E+02  0.81041640317E+02  0.00000000000E+00 0. -1.
<scales pt_clust_5="13000.00000" pt_clust_6="13000.00000" pt_clust_7="13000.00000" pt_clust_8="13000.00000" pt_clust_9="24.41583" pt_clust_10="74.53103"></scales>
<clustering>
<clus scale="   24.416">  2  9  1 -1</clus>
<clus scale="   74.531">  2 10  1 -1</clus>
<clus scale="   79.509">  5  6 -1 -1</clus>
<clus scale="   91.463">  7  8 -1 -1</clus>
<clus scale="  102.379">  1  5  2 -1</clus>
<clus scale="   24.416">  2  5  1 -1</clus>
</clustering>
</event>
<event>
10    3  0.5078224E-005  0.1110823E+03  0.7546771E-02  0.1263179E+00
          1   -1    0    0  502    0 -0.00000000000E+00  0.00000000000E+00  0.70061962502E+03  0.70061962502E+03  0.00000000000E+00 0. -1.
         21   -1    0    0  503  502  0.00000000000E+00 -0.00000000000E+00 -0.59277943869E+02  0.59277943869E+02  0.00000000000E+00 0. -1.
        -24    2    1    2    0    0  0.58359168363E+01 -0.50623527144E+02  0.36818138284E+03  0.38039563167E+03  0.80910484470E+02 0.  0.
         23    2    1    2    0    0  0.90260155081E+01  0.10452386894E+03  0.17084763320E+03  0.22086329158E+03  0.92655122178E+02 0.  0.
         13    1    3    3    0    0 -0.19799875815E+02  0.13600133525E+02  0.61725220351E+02  0.66234443771E+02  0.00000000000E+00 0. -1.
        -14    1    3    3    0    0  0.25635792651E+02 -0.64223660669E+02  0.30645616249E+03  0.31416118790E+03  0.00000000000E+00 0.  1.
        -11    1    4    4    0    0  0.14524373872E+02  0.26622570789E+02  0.12849042492E+03  0.13202086202E+03  0.00000000000E+00 0.  1.
         11    1    4    4    0    0 -0.54983583638E+01  0.77901298147E+02  0.42357208276E+02  0.88842429562E+02  0.00000000000E+00 0. -1.
         21    1    1    2  503  501 -0.32582519917E+02 -0.36436348239E+01 -0.10040310067E+02  0.34288547726E+02  0.00000000000E+00 0.  1.
          2    1    1    2  501    0  0.17720587573E+02 -0.50256706968E+02  0.11235297519E+03  0.12435009792E+03  0.00000000000E+00 0. -1.
<scales pt_clust_5="13000.00000" pt_clust_6="13000.00000" pt_clust_7="13000.00000" pt_clust_8="13000.00000" pt_clust_9="32.78562" pt_clust_10="52.34874"></scales>
<clustering>
<clus scale="   32.786">  2  9  1 -1</clus>
<clus scale="   52.349">  2 10  1 -1</clus>
<clus scale="   80.910">  5  6 -1 -1</clus>
<clus scale="   92.655">  7  8 -1 -1</clus>
<clus scale="  101.493">  1  5  2 -1</clus>
<clus scale="   32.786">  2  5  1 -1</clus>
</clustering>
</event>
<event>
10    3  0.5078224E-005  0.9259630E+02  0.7546771E-02  0.1303195E+00
         21   -1    0    0  503  502  0.00000000000E+00  0.00000000000E+00  0.53129377630E+02  0.53129377630E+02  0.00000000000E+00 0.  1.
          1   -1    0    0  502    0 -0.00000000000E+00 -0.00000000000E+00 -0.36730220441E+03  0.36730220441E+03  0.00000000000E+00 0. -1.
        -24    2    1    2    0    0  0.41260943547E+02 -0.98394993665E+01 -0.95808663862E+02  0.13229534609E+03  0.80768046377E+02 0.  0.
         23    2    1    2    0    0  0.24600610813E+02 -0.33632120008E+02 -0.99762672482E+02  0.14157233377E+03  0.91399263228E+02 0.  0.
         11    1    3    3    0    0 -0.19357648232E+02 -0.95601518642E+01 -0.35145327562E+01  0.21873888297E+02  0.00000000000E+00 0. -1.
        -12    1    3    3    0    0  0.60618591779E+02 -0.27934750227E+00 -0.92294131105E+02  0.11042145779E+03  0.00000000000E+00 0.  1.
        -13    1    4    4    0    0  0.35881247660E+02 -0.60403149409E+02 -0.79818776073E+02  0.10633457296E+03  0.00000000000E+00 0. -1.
         13    1    4    4    0    0 -0.11280636847E+02  0.26771029401E+02 -0.19943896409E+02  0.35237760809E+02  0.00000000000E+00 0.  1.
         21    1    1    2  503  501 -0.10173679509E+02  0.20373711932E+02 -0.16985452334E+02  0.28409461164E+02  0.00000000000E+00 0. -1.
          2    1    1    2  501    0 -0.55687874851E+02  0.23097907443E+02 -0.10161603810E+03  0.11815444102E+03  0.00000000000E+00 0. -1.
<scales pt_clust_5="13000.00000" pt_clust_6="13000.00000" pt_clust_7="13000.00000" pt_clust_8="13000.00000" pt_clust_9="21.17587" pt_clust_10="86.10849"></scales>
<clustering>
<clus scale="   21.176">  9 10 -1 -1</clus>
<clus scale="   80.768">  5  6 -1 -1</clus>
<clus scale="   86.108">  1  9  2 -1</clus>
<clus scale="   82.120">  2  5  1 -1</clus>
<clus scale="   91.399">  7  8 -1 -1</clus>
<clus scale="   86.108">  1  5  2 -1</clus>
</clustering>
</event>
<event>
10    3  0.5078224E-005  0.1247818E+03  0.7546771E-02  0.1237781E+00
          1   -1    0    0  503    0 -0.00000000000E+00  0.00000000000E+00  0.10743027850E+03  0.10743027850E+03  0.00000000000E+00 0. -1.
         21   -1    0    0  501  502  0.00000000000E+00 -0.00000000000E+00 -0.38697928541E+03  0.38697928541E+03  0.00000000000E+00 0.  1.
        -24    2    1    2    0    0  0.64292462427E+02 -0.68554621587E+02 -0.21996546481E+01  0.12408275408E+03  0.80984162108E+02 0.  0.
         23    2    1    2    0    0 -0.30090369012E+02  0.65092896577E+02 -0.14502623964E+03  0.18485317790E+03  0.89417960749E+02 0.  0.
         13    1    3    3    0    0  0.44072146255E+02 -0.20921476687E+02  0.35265051028E+02  0.60197060446E+02  0.00000000000E+00 0. -1.
        -14    1    3    3    0    0  0.20220316173E+02 -0.47633144899E+02 -0.37464705676E+02  0.63885693629E+02  0.00000000000E+00 0.  1.
        -13    1    4    4    0    0 -0.99196610093E+01  0.56270132865E+02 -0.15149068381E+03  0.16190785901E+03  0.00000000000E+00 0.  1.
         13    1    4    4    0    0 -0.20170708003E+02  0.88227637117E+01  0.64644441683E+01  0.22945318897E+02  0.00000000000E+00 0. -1.
         21    1    1    2  503  502 -0.17383850313E+02 -0.12881803617E+02 -0.15280989741E+03  0.15433406579E+03  0.00000000000E+00 0.  1.
          2    1    1    2  501    0 -0.16818243102E+02  0.16343528627E+02  0.20486784788E+02  0.31139566149E+02  0.00000000000E+00 0. -1.
<scales pt_clust_5="13000.00000" pt_clust_6="13000.00000" pt_clust_7="13000.00000" pt_clust_8="13000.00000" pt_clust_9="21.63652" pt_clust_10="23.53600"></scales>
<clustering>
<clus scale="   21.637">  2  9  1 -1</clus>
<clus scale="   23.536">  2 10  1 -1</clus>
<clus scale="   80.984">  5  6 -1 -1</clus>
<clus scale="   89.418">  7  8 -1 -1</clus>
<clus scale="  118.884">  1  5  2 -1</clus>
<clus scale="   21.637">  2  5  1 -1</clus>
</clustering>
</event>
<event>
10    3  0.5078224E-005  0.1525830E+03  0.7546771E-02  0.1226832E+00
         -2   -1    0    0    0  501 -0.00000000000E+00  0.00000000000E+00  0.61663313328E+02  0.61663313328E+02  0.00000000000E+00 0.  1.
         21   -1    0    0  501  502  0.00000000000E+00 -0.00000000000E+00 -0.74873556426E+03  0.74873556426E+03  0.00000000000E+00 0.  1.
        -24    2    1    2    0    0  0.75277642081E+01 -0.16624049780E+02 -0.44652106436E+02  0.93319226284E+02  0.79885174594E+02 0.  0.
         23    2    1    2    0    0  0.94833568301E+02  0.76506323612E+02 -0.22653408251E+03  0.27328658239E+03  0.92310575489E+02 0.  0.
         11    1    3    3    0    0 -0.30109767138E+02 -0.29334218540E+02 -0.26048732844E+02  0.49453320791E+02  0.00000000000E+00 0. -1.
        -12    1    3    3    0    0  0.37637531346E+02  0.12710168760E+02 -0.18603373592E+02  0.43865905493E+02  0.00000000000E+00 0.  1.
        -11    1    4    4    0    0  0.31328242582E+02  0.83150355813E+02 -0.12566157544E+03  0.15390345024E+03  0.00000000000E+00 0.  1.
         11    1    4    4    0    0  0.63505325719E+02 -0.66440322007E+01 -0.10087250707E+03  0.11938313215E+03  0.00000000000E+00 0. -1.
         21    1    1    2  503  502 -0.84415744414E+01  0.18966241750E+02 -0.14454361515E+03  0.14602683037E+03  0.00000000000E+00 0.  1.
         -1    1    1    2    0  503 -0.93919758068E+02 -0.78848515582E+02 -0.27134244683E+03  0.29776623855E+03  0.00000000000E+00 0.  1.
<scales pt_clust_5="13000.00000" pt_clust_6="13000.00000" pt_clust_7="13000.00000" pt_clust_8="13000.00000" pt_clust_9="20.76002" pt_clust_10="121.49209"></scales>
<clustering>
<clus scale="   20.760">  2  9  1 -1</clus>
<clus scale="   79.885">  5  6 -1 -1</clus>
<clus scale="   81.447">  1  5  2 -1</clus>
<clus scale="   92.311">  7  8 -1 -1</clus>
<clus scale="  121.492">  2 10  1 -1</clus>
<clus scale="   20.760">  2  5  1 -1</clus>
</clustering>
</event>
<event>
10    3  0.5078224E-005  0.1273467E+03  0.7546771E-02  0.1246532E+00
          1   -1    0    0  503    0 -0.00000000000E+00  0.00000000000E+00  0.75417260946E+03  0.75417260946E+03  0.00000000000E+00 0. -1.
         21   -1    0    0  501  502  0.00000000000E+00 -0.00000000000E+00 -0.10409483012E+03  0.10409483012E+03  0.00000000000E+00 0. -1.
        -24    2    1    2    0    0  0.20995777200E+02 -0.43060116762E+02 -0.15641877857E+01  0.93706015898E+02  0.80519403974E+02 0.  0.
         23    2    1    2    0    0 -0.55978240036E+02 -0.11103455550E+02  0.15467142801E+03  0.19068810144E+03  0.95821977154E+02 0.  0.
         13    1    3    3    0    0  0.22991293222E+02 -0.52239399237E+02 -0.29489438026E+02  0.64243142449E+02  0.00000000000E+00 0. -1.
        -14    1    3    3    0    0 -0.19955160218E+01  0.91792824748E+01  0.27925250240E+02  0.29462873450E+02  0.00000000000E+00 0.  1.
        -11    1    4    4    0    0 -0.73957125461E+02 -0.33516287340E+02  0.98998575937E+02  0.12803794735E+03  0.00000000000E+00 0.  1.
         11    1    4    4    0    0  0.17978885424E+02  0.22412831790E+02  0.55672852075E+02  0.62650154095E+02  0.00000000000E+00 0. -1.
         21    1    1    2  503  502  0.11028523203E+03 -0.59161715743E+02  0.12116587124E+03  0.17419560663E+03  0.00000000000E+00 0. -1.
          2    1    1    2  501    0 -0.75302769197E+02  0.11332528806E+03  0.37580466787E+03  0.39967771561E+03  0.00000000000E+00 0. -1.
<scales pt_clust_5="13000.00000" pt_clust_6="13000.00000" pt_clust_7="13000.00000" pt_clust_8="13000.00000" pt_clust_9="83.87694" pt_clust_10="110.11650"></scales>
<clustering>
<clus scale="   80.519">  5  6 -1 -1</clus>
<clus scale="   93.693">  1  5  2 -1</clus>
<clus scale="   95.822">  7  8 -1 -1</clus>
<clus scale="  110.116">  2 10  1 -1</clus>
<clus scale="   83.877">  2  9  1 -1</clus>
<clus scale="  110.116">  2  5  1 -1</clus>
</clustering>
</event>
<event>
10    3  0.5078224E-005  0.1850601E+03  0.7546771E-02  0.1164180E+00
         21   -1    0    0  501  502  0.00000000000E+00  0.00000000000E+00  0.43672782990E+03  0.43672782990E+03  0.00000000000E+00 0.  1.
          1   -1    0    0  503    0 -0.00000000000E+00 -0.00000000000E+00 -0.93504755243E+03  0.93504755243E+03  0.00000000000E+00 0. -1.
        -24    2    1    2    0    0  0.13513240962E+03  0.11365648085E+03 -0.74710867910E+03  0.77181596679E+03  0.79686538550E+02 0.  0.
         23    2    1    2    0    0 -0.10916730683E+03 -0.52328268037E+02 -0.12507487178E+03  0.19615994802E+03  0.90439223460E+02 0.  0.
         13    1    3    3    0    0  0.11216691776E+03  0.44188882650E+02 -0.46453900379E+03  0.47992766208E+03  0.00000000000E+00 0. -1.
        -14    1    3    3    0    0  0.22965491859E+02  0.69467598205E+02 -0.28256967531E+03  0.29188830470E+03  0.00000000000E+00 0.  1.
        -11    1    4    4    0    0 -0.24579652848E+02  0.23763105191E+02 -0.13356602933E+02  0.36704813640E+02  0.00000000000E+00 0. -1.
         11    1    4    4    0    0 -0.84587653986E+02 -0.76091373228E+02 -0.11171826884E+03  0.15945513438E+03  0.00000000000E+00 0.  1.
         21    1    1    2  503  502  0.10757091155E+02 -0.58275655722E+02  0.35933680031E+03  0.36419047642E+03  0.00000000000E+00 0.  1.
          2    1    1    2  501    0 -0.36722193940E+02 -0.30525570955E+01  0.14527028039E+02  0.39608991103E+02  0.00000000000E+00 0. -1.
<scales pt_clust_5="13000.00000" pt_clust_6="13000.00000" pt_clust_7="13000.00000" pt_clust_8="13000.00000" pt_clust_9="64.70829" pt_clust_10="36.84885"></scales>
<clustering>
<clus scale="   36.849">  1 10  2 -1</clus>
<clus scale="   64.708">  1  9  2 -1</clus>
<clus scale="   79.687">  5  6 -1 -1</clus>
<clus scale="   90.439">  7  8 -1 -1</clus>
<clus scale="  180.050">  2  5  1 -1</clus>
<clus scale="   36.849">  1  5  2 -1</clus>
</clustering>
</event>
<event>
10    3  0.5078224E-005  0.1891531E+03  0.7546771E-02  0.1176983E+00
         -4   -1    0    0    0  501 -0.00000000000E+00  0.00000000000E+00  0.49457505396E+03  0.49457505396E+03  0.00000000000E+00 0.  1.
         21   -1    0    0  501  502  0.00000000000E+00 -0.00000000000E+00 -0.23817790981E+03  0.23817790981E+03  0.00000000000E+00 0.  1.
         23    2    1    2    0    0 -0.73785031879E+02  0.24182490683E+02  0.81521560572E+01  0.11871554249E+03  0.89430971120E+02 0.  0.
        -24    2    1    2    0    0 -0.10037895412E+03  0.10005224148E+02  0.27299211516E+03  0.30231796773E+03  0.81825544503E+02 0.  0.
         13    1    4    4    0    0 -0.62370166256E+01 -0.20730192207E+02  0.10584293827E+03  0.10803410955E+03  0.00000000000E+00 0. -1.
        -14    1    4    4    0    0 -0.94141937490E+02  0.30735416356E+02  0.16714917689E+03  0.19428385818E+03  0.00000000000E+00 0.  1.
        -13    1    3    3    0    0 -0.35068261150E+02  0.22565505975E+02  0.47692542845E+02  0.63352692468E+02  0.00000000000E+00 0. -1.
         13    1    3    3    0    0 -0.38716770729E+02  0.16169847079E+01 -0.39540386788E+02  0.55362850022E+02  0.00000000000E+00 0.  1.
         21    1    1    2  503  502 -0.48112889738E+02 -0.67264259869E+02 -0.26961205149E+02  0.86984121526E+02  0.00000000000E+00 0. -1.
         -3    1    1    2    0  503  0.22227687573E+03  0.33076545037E+02  0.22140780750E+01  0.22473533202E+03  0.00000000000E+00 0.  1.
<scales pt_clust_5="13000.00000" pt_clust_6="13000.00000" pt_clust_7="13000.00000" pt_clust_8="13000.00000" pt_clust_9="82.70025" pt_clust_10="170.53881"></scales>
<clustering>
<clus scale="   81.826">  5  6 -1 -1</clus>
<clus scale="   82.700">  2  9  1 -1</clus>
<clus scale="   89.431">  7  8 -1 -1</clus>
<clus scale="  125.845">  1  7  2 -1</clus>
<clus scale="  170.539">  2 10  1 -1</clus>
<clus scale="   82.700">  2  5  1 -1</clus>
</clustering>
</event>
<event>
10    3  0.5078224E-005  0.2092327E+03  0.7546771E-02  0.1178185E+00
         -2   -1    0    0    0  501 -0.00000000000E+00  0.00000000000E+00  0.58173622410E+03  0.58173622410E+03  0.00000000000E+00 0.  1.
         21   -1    0    0  503  502  0.00000000000E+00 -0.00000000000E+00 -0.28899223554E+03  0.28899223554E+03  0.00000000000E+00 0.  1.
        -24    2    1    2    0    0 -0.21484458927E+02  0.38320957803E+02  0.27250390196E+03  0.28753811007E+03  0.80558738687E+02 0.  0.
         23    2    1    2    0    0 -0.95023926275E+02 -0.12364531995E+03  0.13901301563E+03  0.22880962743E+03  0.93335499042E+02 0.  0.
         11    1    3    3    0    0  0.25439191514E+02 -0.39407054466E+01  0.11500328724E+03  0.11784921595E+03  0.00000000000E+00 0. -1.
        -12    1    3    3    0    0 -0.46923650441E+02  0.42261663249E+02  0.15750061472E+03  0.16968889412E+03  0.00000000000E+00 0.  1.
        -11    1    4    4    0    0 -0.45547425710E+02 -0.10158842423E+03  0.13428390571E+03  0.17443320573E+03  0.00000000000E+00 0.  1.
         11    1    4    4    0    0 -0.49476500565E+02 -0.22056895719E+02  0.47291099154E+01  0.54376421706E+02  0.00000000000E+00 0. -1.
         21    1    1    2  503  501  0.24393592470E+02 -0.87139870090E+02  0.43396030196E+02  0.10035745986E+03  0.00000000000E+00 0.  1.
         -1    1    1    2    0  502  0.92114792733E+02  0.17246423223E+03 -0.16216895923E+03  0.25402326227E+03  0.00000000000E+00 0.  1.
<scales pt_clust_5="13000.00000" pt_clust_6="13000.00000" pt_clust_7="13000.00000" pt_clust_8="13000.00000" pt_clust_9="90.48980" pt_clust_10="187.26133"></scales>
<clustering>
<clus scale="   80.559">  5  6 -1 -1</clus>
<clus scale="   90.490">  1  9  2 -1</clus>
<clus scale="   90.490">  1  5  2 -1</clus>
<clus scale="   93.335">  7  8 -1 -1</clus>
<clus scale="  187.261">  2 10  1 -1</clus>
<clus scale="  187.261">  2  5  1 -1</clus>
</clustering>
</event>
<event>
10    3  0.5078224E-005  0.1515063E+03  0.7546771E-02  0.1219043E+00
         -2   -1    0    0    0  501 -0.00000000000E+00  0.00000000000E+00  0.13002761899E+03  0.13002761899E+03  0.00000000000E+00 0.  1.
         21   -1    0    0  503  502  0.00000000000E+00 -0.00000000000E+00 -0.87804504554E+03  0.87804504554E+03  0.00000000000E+00 0. -1.
        -24    2    1    2    0    0 -0.10102825950E+02  0.51351957420E+02 -0.29909625859E+01  0.97686513915E+02  0.82429476042E+02 0.  0.
         23    2    1    2    0    0  0.14878992141E+03 -0.30852686463E+02 -0.26339073045E+03  0.31763957907E+03  0.91814466891E+02 0.  0.
         11    1    3    3    0    0  0.23713134342E+02  0.57004803974E+02 -0.10399602924E+02  0.62610000458E+02  0.00000000000E+00 0. -1.
        -12    1    3    3    0    0 -0.33815960292E+02 -0.56528465536E+01  0.74086403385E+01  0.35076513457E+02  0.00000000000E+00 0.  1.
        -11    1    4    4    0    0  0.39554541081E+01 -0.30143626712E+02 -0.28423685957E+02  0.41619583995E+02  0.00000000000E+00 0.  1.
         11    1    4    4    0    0  0.14483446730E+03 -0.70905975167E+00 -0.23496704450E+03  0.27601999508E+03  0.00000000000E+00 0. -1.
         21    1    1    2  503  501 -0.74840261195E+02 -0.14005360061E+02 -0.51487426275E+03  0.52047355480E+03  0.00000000000E+00 0. -1.
         -1    1    1    2    0  502 -0.63846834261E+02 -0.64939108956E+01  0.33238529239E+02  0.72273016748E+02  0.00000000000E+00 0.  1.
<scales pt_clust_5="13000.00000" pt_clust_6="13000.00000" pt_clust_7="13000.00000" pt_clust_8="13000.00000" pt_clust_9="120.51661" pt_clust_10="64.17627"></scales>
<clustering>
<clus scale="   64.176">  2 10  1 -1</clus>
<clus scale="   82.429">  5  6 -1 -1</clus>
<clus scale="   91.814">  7  8 -1 -1</clus>
<clus scale="   97.900">  1  5  2 -1</clus>
<clus scale="  120.517">  2  9  1 -1</clus>
<clus scale="   64.176">  2  5  1 -1</clus>
</clustering>
</event>
