<event>
10    2  0.5692308E-006  0.7522575E+03  0.7546771E-02  0.1029112E+00
         21   -1    0    0  501  502  0.00000000000E+00  0.00000000000E+00  0.58006589712E+03  0.58006589712E+03  0.00000000000E+00 0. -1.
          1   -1    0    0  503    0 -0.00000000000E+00 -0.00000000000E+00 -0.89033608343E+03  0.89033608343E+03  0.00000000000E+00 0. -1.
         23    2    1    2    0    0 -0.17831444542E+02  0.91846359200E+01 -0.95353343942E+02  0.13191540695E+03  0.88921855804E+02 0.  0.
         23    2    1    2    0    0  0.21602080260E+03 -0.23078399473E+03 -0.64158662744E+03  0.72037411820E+03  0.85902446342E+02 0.  0.
        -13    1    3    3    0    0  0.32939524369E+02  0.12283991899E+02 -0.61421312512E+02  0.70770660258E+02  0.00000000000E+00 0. -1.
         13    1    3    3    0    0 -0.50770968911E+02 -0.30993559794E+01 -0.33932031430E+02  0.61144746697E+02  0.00000000000E+00 0.  1.
        -13    1    4    4    0    0  0.10838735028E+03 -0.94208249284E+02 -0.20377492350E+03  0.24929346438E+03  0.00000000000E+00 0.  1.
         13    1    4    4    0    0  0.10763345232E+03 -0.13657574545E+03 -0.43781170394E+03  0.47108065382E+03  0.00000000000E+00 0. -1.
         21    1    1    2  503  502 -0.25729800219E+02  0.66286854285E+02  0.37324289671E+03  0.37995556268E+03  0.00000000000E+00 0. -1.
          1    1    1    2  501    0 -0.17245955783E+03  0.15531250452E+03  0.53426888364E+02  0.23815689272E+03  0.00000000000E+00 0. -1.
<scales pt_clust_5="13000.00000" pt_clust_6="13000.00000" pt_clust_7="13000.00000" pt_clust_8="13000.00000" pt_clust_9="71.10534" pt_clust_10="13000.00000"></scales>
<clustering>
<clus scale="   71.105">  1  9  2 -1</clus>
<clus scale="   85.902">  7  8 -1 -1</clus>
<clus scale="   88.922">  5  6 -1 -1</clus>
<clus scale="   92.423">  2  5  1 -1</clus>
<clus scale="  283.023">  7 10 -1 -1</clus>
<clus scale="   71.105">  1  5  2 -1</clus>
</clustering>
</event>
<event>
10    2  0.5692308E-006  0.1799670E+03  0.7546771E-02  0.1192806E+00
         -3   -1    0    0    0  501 -0.00000000000E+00  0.00000000000E+00  0.23003745838E+03  0.23003745838E+03  0.00000000000E+00 0.  1.
         21   -1    0    0  503  502  0.00000000000E+00 -0.00000000000E+00 -0.24369153297E+03  0.24369153297E+03  0.00000000000E+00 0. -1.
         23    2    1    2    0    0  0.11483788760E+02  0.56213922295E+02  0.29250476007E+02  0.10708118931E+03  0.85550618305E+02 0.  0.
         23    2    1    2    0    0 -0.13999948825E+02 -0.11777901867E+02  0.12007328070E+03  0.15208535985E+03  0.91529483783E+02 0.  0.
        -11    1    3    3    0    0  0.32646911423E+02  0.31516891418E+02  0.50761370504E+02  0.68087091328E+02  0.00000000000E+00 0.  1.
         11    1    3    3    0    0 -0.21163122663E+02  0.24697030877E+02 -0.21510894497E+02  0.38994097977E+02  0.00000000000E+00 0. -1.
        -13    1    4    4    0    0 -0.52775011926E+02 -0.10362886123E+02  0.60059304687E+02  0.80620787469E+02  0.00000000000E+00 0. -1.
         13    1    4    4    0    0  0.38775063101E+02 -0.14150157439E+01  0.60013976013E+02  0.71464572377E+02  0.00000000000E+00 0.  1.
         21    1    1    2  503  501  0.54988637739E+02 -0.26293487310E+02 -0.14318715362E+03  0.15562023878E+03  0.00000000000E+00 0. -1.
         -3    1    1    2    0  502 -0.52472477675E+02 -0.18142533118E+02 -0.19790677671E+02  0.58942203419E+02  0.00000000000E+00 0.  1.
<scales pt_clust_5="13000.00000" pt_clust_6="13000.00000" pt_clust_7="13000.00000" pt_clust_8="13000.00000" pt_clust_9="60.95160" pt_clust_10="13000.00000"></scales>
<clustering>
<clus scale="   60.952">  2  9  1 -1</clus>
<clus scale="   85.551">  5  6 -1 -1</clus>
<clus scale="   91.529">  7  8 -1 -1</clus>
<clus scale="   41.462">  7 10 -1 -1</clus>
<clus scale="  102.688">  1  5  2 -1</clus>
<clus scale="   60.952">  2  5  1 -1</clus>
</clustering>
</event>
<event>
10    2  0.5692308E-006  0.1547965E+03  0.7546771E-02  0.1198018E+00
         21   -1    0    0  503  502  0.00000000000E+00  0.00000000000E+00  0.15393578680E+03  0.15393578680E+03  0.00000000000E+00 0.  1.
          1   -1    0    0  502    0 -0.00000000000E+00 -0.00000000000E+00 -0.80307764501E+03  0.80307764501E+03  0.00000000000E+00 0. -1.
         23    2    1    2    0    0  0.86063037706E+02 -0.61523418808E+02 -0.58560401678E+03  0.60216030571E+03  0.92048855372E+02 0.  0.
         23    2    1    2    0    0 -0.57730852908E+02  0.63911207365E+02 -0.13580258746E+03  0.18253088618E+03  0.86357905521E+02 0.  0.
        -13    1    4    4    0    0 -0.23595622695E+02 -0.19744705628E+02 -0.44313602435E+02  0.53947216532E+02  0.00000000000E+00 0.  1.
         13    1    4    4    0    0 -0.34135230214E+02  0.83655912993E+02 -0.91488985021E+02  0.12858366965E+03  0.00000000000E+00 0. -1.
        -13    1    3    3    0    0  0.10261828602E+02 -0.60519731757E+02 -0.20131276784E+03  0.21046323564E+03  0.00000000000E+00 0.  1.
         13    1    3    3    0    0  0.75801209104E+02 -0.10036870517E+01 -0.38429124894E+03  0.39169707007E+03  0.00000000000E+00 0. -1.
         21    1    1    2  503  501  0.13472309431E+02 -0.25130456105E+02  0.10870520667E+03  0.11238267171E+03  0.00000000000E+00 0.  1.
          1    1    1    2  501    0 -0.41804494229E+02  0.22742667549E+02 -0.36440460637E+02  0.59939568204E+02  0.00000000000E+00 0. -1.
<scales pt_clust_5="13000.00000" pt_clust_6="13000.00000" pt_clust_7="13000.00000" pt_clust_8="13000.00000" pt_clust_9="28.51391" pt_clust_10="13000.00000"></scales>
<clustering>
<clus scale="   28.514">  1  9  2 -1</clus>
<clus scale="   86.358">  5  6 -1 -1</clus>
<clus scale="   41.351">  5 10 -1 -1</clus>
<clus scale="   92.049">  7  8 -1 -1</clus>
<clus scale="  143.968">  2  7  1 -1</clus>
<clus scale="   28.514">  1  5  2 -1</clus>
</clustering>
</event>
<event>
10    2  0.5692308E-006  0.2740751E+03  0.7546771E-02  0.1138939E+00
         21   -1    0    0  501  502  0.00000000000E+00  0.00000000000E+00  0.12778284436E+03  0.12778284436E+03  0.00000000000E+00 0.  1.
         -1   -1    0    0    0  501 -0.00000000000E+00 -0.00000000000E+00 -0.63418261826E+03  0.63418261826E+03  0.00000000000E+00 0.  1.
         23    2    1    2    0    0 -0.29898972867E+02  0.35794986666E+02 -0.29777987420E+03  0.31421709134E+03  0.88793566016E+02 0.  0.
         23    2    1    2    0    0 -0.72160017780E+01 -0.44108249634E+02 -0.29514383290E+03  0.31216141980E+03  0.91308606110E+02 0.  0.
        -11    1    4    4    0    0 -0.29504100464E+02  0.16926916199E+02 -0.13764400541E+03  0.14178464184E+03  0.00000000000E+00 0.  1.
         11    1    4    4    0    0  0.22288098686E+02 -0.61035165832E+02 -0.15749982748E+03  0.17037677796E+03  0.00000000000E+00 0. -1.
        -13    1    3    3    0    0  0.11740266077E+02  0.50905799221E+02 -0.11776948666E+03  0.12883666493E+03  0.00000000000E+00 0.  1.
         13    1    3    3    0    0 -0.41639238944E+02 -0.15110812554E+02 -0.18001038754E+03  0.18538042641E+03  0.00000000000E+00 0. -1.
         21    1    1    2  503  502 -0.24402247768E+02 -0.13857558298E+02  0.57625942555E+02  0.64095638490E+02  0.00000000000E+00 0.  1.
         -1    1    1    2    0  503  0.61517222413E+02  0.22170821265E+02  0.28897990633E+02  0.71491312980E+02  0.00000000000E+00 0.  1.
<scales pt_clust_5="13000.00000" pt_clust_6="13000.00000" pt_clust_7="13000.00000" pt_clust_8="13000.00000" pt_clust_9="28.06246" pt_clust_10="13000.00000"></scales>
<clustering>
<clus scale="   28.062">  1  9  2 -1</clus>
<clus scale="   88.794">  7  8 -1 -1</clus>
<clus scale="   91.309">  5  6 -1 -1</clus>
<clus scale="   44.790">  5 10 -1 -1</clus>
<clus scale="  100.642">  2  7  1 -1</clus>
<clus scale="   28.062">  1  5  2 -1</clus>
</clustering>
</event>
<event>
10    2  0.5692308E-006  0.3673369E+03  0.7546771E-02  0.1095764E+00
         21   -1    0    0  503  502  0.00000000000E+00  0.00000000000E+00  0.20609745282E+03  0.20609745282E+03  0.00000000000E+00 0. -1.
          1   -1    0    0  502    0 -0.00000000000E+00 -0.00000000000E+00 -0.43814851417E+03  0.43814851417E+03  0.00000000000E+00 0. -1.
         23    2    1    2    0    0  0.49697181461E+01 -0.97125197148E+02 -0.59406056441E+02  0.14559255372E+03  0.90609658078E+02 0.  0.
         23    2    1    2    0    0  0.52324263832E+02 -0.24722874906E+02 -0.28999815873E+03  0.30877963281E+03  0.88864393585E+02 0.  0.
        -11    1    3    3    0    0 -0.41846260097E+01 -0.24518672838E+02  0.24047460743E+02  0.34597063181E+02  0.00000000000E+00 0.  1.
         11    1    3    3    0    0  0.91543441559E+01 -0.72606524310E+02 -0.83453517184E+02  0.11099549054E+03  0.00000000000E+00 0. -1.
        -13    1    4    4    0    0 -0.23712157779E+02 -0.33419853627E+01 -0.10370495368E+03  0.10643379497E+03  0.00000000000E+00 0.  1.
         13    1    4    4    0    0  0.76036421610E+02 -0.21380889543E+02 -0.18629320504E+03  0.20234583785E+03  0.00000000000E+00 0. -1.
         21    1    1    2  503  501 -0.52593391719E+02  0.46401315140E+02  0.36053937892E+02  0.78860847933E+02  0.00000000000E+00 0.  1.
          1    1    1    2  501    0 -0.47005902584E+01  0.75446756914E+02  0.81299215930E+02  0.11101293253E+03  0.00000000000E+00 0. -1.
<scales pt_clust_5="13000.00000" pt_clust_6="13000.00000" pt_clust_7="13000.00000" pt_clust_8="13000.00000" pt_clust_9="70.13663" pt_clust_10="13000.00000"></scales>
<clustering>
<clus scale="   70.137">  1  9  2 -1</clus>
<clus scale="   88.864">  7  8 -1 -1</clus>
<clus scale="   90.610">  5  6 -1 -1</clus>
<clus scale="  112.349">  7 10 -1 -1</clus>
<clus scale="  123.761">  2  5  1 -1</clus>
<clus scale="   70.137">  1  5  2 -1</clus>
</clustering>
</event>
<event>
10    2  0.5692308E-006  0.5154106E+03  0.7546771E-02  0.1033162E+00
          4   -1    0    0  503    0 -0.00000000000E+00  0.00000000000E+00  0.21089350409E+04  0.21089350409E+04  0.00000000000E+00 0. -1.
         21   -1    0    0  501  502  0.00000000000E+00 -0.00000000000E+00 -0.20767042478E+03  0.20767042478E+03  0.00000000000E+00 0. -1.
         23    2    1    2    0    0 -0.14264004613E+03 -0.17475406292E+03  0.45193652018E+03  0.51350476979E+03  0.92495216386E+02 0.  0.
         23    2    1    2    0    0  0.25151142138E+03  0.15348243658E+03  0.15042486242E+04  0.15355104829E+04  0.90629278289E+02 0.  0.
        -11    1    3    3    0    0 -0.12953577124E+03 -0.92860286677E+02  0.26950431077E+03  0.31310560902E+03  0.00000000000E+00 0. -1.
         11    1    3    3    0    0 -0.13104274889E+02 -0.81893776248E+02  0.18243220941E+03  0.20039916077E+03  0.00000000000E+00 0.  1.
        -13    1    4    4    0    0  0.48004092442E+02  0.65749107872E+02  0.29026889321E+03  0.30146868567E+03  0.00000000000E+00 0.  1.
         13    1    4    4    0    0  0.20350732894E+03  0.87733328708E+02  0.12139797310E+04  0.12340417972E+04  0.00000000000E+00 0. -1.
         21    1    1    2  503  502 -0.14152315880E+02 -0.24889721159E+02 -0.13325314229E+03  0.13629448336E+03  0.00000000000E+00 0. -1.
          4    1    1    2  501    0 -0.94719059370E+02  0.46161347504E+02  0.78332613984E+02  0.13129572965E+03  0.00000000000E+00 0. -1.
<scales pt_clust_5="13000.00000" pt_clust_6="13000.00000" pt_clust_7="13000.00000" pt_clust_8="13000.00000" pt_clust_9="28.63191" pt_clust_10="13000.00000"></scales>
<clustering>
<clus scale="   28.632">  2  9  1 -1</clus>
<clus scale="   90.629">  7  8 -1 -1</clus>
<clus scale="   92.495">  5  6 -1 -1</clus>
<clus scale="  106.536">  7 10 -1 -1</clus>
<clus scale="  254.883">  1  5  2 -1</clus>
<clus scale="   28.632">  2  5  1 -1</clus>
</clustering>
</event>
<event>
10    2  0.5692308E-006  0.3271784E+03  0.7546771E-02  0.1083060E+00
         21   -1    0    0  503  502  0.00000000000E+00  0.00000000000E+00  0.39722039586E+03  0.39722039586E+03  0.00000000000E+00 0. -1.
         -2   -1    0    0    0  501 -0.00000000000E+00 -0.00000000000E+00 -0.62515527822E+03  0.62515527822E+03  0.00000000000E+00 0.  1.
         23    2    1    2    0    0 -0.98795686291E+02  0.21149172153E+03 -0.50490817664E+03  0.56415401074E+03  0.94064579333E+02 0.  0.
         23    2    1    2    0    0  0.71776107564E+02 -0.19406490882E+03  0.16264356816E+03  0.27842876885E+03  0.90866113639E+02 0.  0.
        -11    1    4    4    0    0  0.44876673408E+02 -0.19298972054E+03  0.13446417297E+03  0.23945680584E+03  0.00000000000E+00 0. -1.
         11    1    4    4    0    0  0.26899434156E+02 -0.10751882799E+01  0.28179395187E+02  0.38971963010E+02  0.00000000000E+00 0.  1.
        -11    1    3    3    0    0 -0.10252966062E+03  0.12833045136E+03 -0.28398849042E+03  0.32807087458E+03  0.00000000000E+00 0.  1.
         11    1    3    3    0    0  0.37339743242E+01  0.83161270166E+02 -0.22091968622E+03  0.23608313616E+03  0.00000000000E+00 0. -1.
         21    1    1    2  503  501  0.89890949071E+01 -0.75409386772E+02  0.78809258201E+02  0.10944532251E+03  0.00000000000E+00 0. -1.
         -2    1    1    2    0  502  0.18030483821E+02  0.57982574064E+02  0.35520467930E+02  0.70347571983E+02  0.00000000000E+00 0.  1.
<scales pt_clust_5="13000.00000" pt_clust_6="13000.00000" pt_clust_7="13000.00000" pt_clust_8="13000.00000" pt_clust_9="75.94326" pt_clust_10="13000.00000"></scales>
<clustering>
<clus scale="   75.943">  1  9  2 -1</clus>
<clus scale="   90.866">  5  6 -1 -1</clus>
<clus scale="   48.912">  5 10 -1 -1</clus>
<clus scale="   94.065">  7  8 -1 -1</clus>
<clus scale="  245.156">  2  7  1 -1</clus>
<clus scale="   75.943">  1  5  2 -1</clus>
</clustering>
</event>
<event>
10    2  0.5692308E-006  0.5504081E+03  0.7546771E-02  0.1036587E+00
         21   -1    0    0  501  502  0.00000000000E+00  0.00000000000E+00  0.14720982234E+03  0.14720982234E+03  0.00000000000E+00 0. -1.
          1   -1    0    0  503    0 -0.00000000000E+00 -0.00000000000E+00 -0.12681764348E+04  0.12681764348E+04  0.00000000000E+00 0. -1.
         23    2    1    2    0    0  0.92759158742E+02  0.14448561452E+03 -0.42016935079E+03  0.46292314947E+03  0.90968151800E+02 0.  0.
         23    2    1    2    0    0 -0.27249834154E+03  0.10908827418E+02 -0.39896860556E+03  0.49165818204E+03  0.90429370691E+02 0.  0.
        -11    1    3    3    0    0  0.14062981097E+02  0.65802096554E+02 -0.77492091887E+02  0.10262898057E+03  0.00000000000E+00 0.  1.
         11    1    3    3    0    0  0.78696177646E+02  0.78683517965E+02 -0.34267725890E+03  0.36029416890E+03  0.00000000000E+00 0. -1.
        -11    1    4    4    0    0 -0.26160800158E+03 -0.11167645101E+02 -0.37439673980E+03  0.45687676847E+03  0.00000000000E+00 0. -1.
         11    1    4    4    0    0 -0.10890339960E+02  0.22076472519E+02 -0.24571865763E+02  0.34781413577E+02  0.00000000000E+00 0.  1.
         21    1    1    2  503  502 -0.34117056007E+02 -0.14151072208E+02  0.25644368914E+02  0.44965097712E+02  0.00000000000E+00 0.  1.
          1    1    1    2  501    0  0.21385623881E+03 -0.14124336973E+03 -0.32747302506E+03  0.41583982795E+03  0.00000000000E+00 0. -1.
<scales pt_clust_5="13000.00000" pt_clust_6="13000.00000" pt_clust_7="13000.00000" pt_clust_8="13000.00000" pt_clust_9="36.93543" pt_clust_10="13000.00000"></scales>
<clustering>
<clus scale="   36.935">  1  9  2 -1</clus>
<clus scale="   90.429">  7  8 -1 -1</clus>
<clus scale="   90.968">  5  6 -1 -1</clus>
<clus scale="  189.249">  2  5  1 -1</clus>
<clus scale="  252.157">  7 10 -1 -1</clus>
<clus scale="   36.935">  1  5  2 -1</clus>
</clustering>
</event>
<event>
10    2  0.5692308E-006  0.4479679E+03  0.7546771E-02  0.1060860E+00
         -3   -1    0    0    0  501 -0.00000000000E+00  0.00000000000E+00  0.45107424209E+03  0.45107424209E+03  0.00000000000E+00 0.  1.
         21   -1    0    0  501  502  0.00000000000E+00 -0.00000000000E+00 -0.51230562953E+03  0.51230562953E+03  0.00000000000E+00 0.  1.
         23    2    1    2    0    0 -0.56605259348E+02 -0.62288178283E+02 -0.24196176543E+03  0.26924721093E+03  0.82852834113E+02 0.  0.
         23    2    1    2    0    0  0.22849937985E+03  0.93880338958E+02  0.34887906853E+03  0.43695941245E+03  0.90506569037E+02 0.  0.
        -11    1    3    3    0    0 -0.27123444882E+02 -0.67425675813E+02 -0.96873664953E+02  0.12110495441E+03  0.00000000000E+00 0.  1.
         11    1    3    3    0    0 -0.29481814466E+02  0.51374975298E+01 -0.14508810048E+03  0.14814225652E+03  0.00000000000E+00 0. -1.
        -13    1    4    4    0    0  0.16743427121E+03  0.10736702822E+03  0.28519615482E+03  0.34770499084E+03  0.00000000000E+00 0.  1.
         13    1    4    4    0    0  0.61065108642E+02 -0.13486689263E+02  0.63682913703E+02  0.89254421618E+02  0.00000000000E+00 0. -1.
         21    1    1    2  503  502 -0.90137479624E+02 -0.58632282326E+02 -0.10586760413E+03  0.15089883819E+03  0.00000000000E+00 0.  1.
         -3    1    1    2    0  503 -0.81756640883E+02  0.27040121651E+02 -0.62281086401E+02  0.10627441005E+03  0.00000000000E+00 0.  1.
<scales pt_clust_5="13000.00000" pt_clust_6="13000.00000" pt_clust_7="13000.00000" pt_clust_8="13000.00000" pt_clust_9="107.52911" pt_clust_10="13000.00000"></scales>
<clustering>
<clus scale="   82.853">  5  6 -1 -1</clus>
<clus scale="   90.507">  7  8 -1 -1</clus>
<clus scale="   86.112">  7 10 -1 -1</clus>
<clus scale="  107.529">  2  9  1 -1</clus>
<clus scale="  175.301">  1  5  2 -1</clus>
<clus scale="  107.529">  2  5  1 -1</clus>
</clustering>
</event>
<event>
10    2  0.5692308E-006  0.1964275E+03  0.7546771E-02  0.1171533E+00
         21   -1    0    0  501  502  0.00000000000E+00  0.00000000000E+00  0.96215456494E+02  0.96215456494E+02  0.00000000000E+00 0.  1.
          2   -1    0    0  503    0 -0.00000000000E+00 -0.00000000000E+00 -0.36015188156E+03  0.36015188156E+03  0.00000000000E+00 0. -1.
         23    2    1    2    0    0  0.93779027757E+02  0.90933933254E+01 -0.13582317776E+03  0.18845509349E+03  0.90499672907E+02 0.  0.
         23    2    1    2    0    0 -0.12760368819E+02 -0.17414321337E+02 -0.14474349124E+03  0.17249294337E+03  0.91307456737E+02 0.  0.
        -13    1    4    4    0    0  0.30645760355E+02  0.12263186130E+02 -0.93154589189E+02  0.98829782195E+02  0.00000000000E+00 0.  1.
         13    1    4    4    0    0 -0.43406129174E+02 -0.29677507468E+02 -0.51588902056E+02  0.73663161178E+02  0.00000000000E+00 0. -1.
        -13    1    3    3    0    0  0.19266722099E+02  0.42464321257E+02 -0.67245653932E+02  0.81831553407E+02  0.00000000000E+00 0. -1.
         13    1    3    3    0    0  0.74512305658E+02 -0.33370927932E+02 -0.68577523833E+02  0.10662354009E+03  0.00000000000E+00 0.  1.
         21    1    1    2  503  502 -0.17362275581E+02  0.22118641343E+02  0.10426697030E+02  0.29989980312E+02  0.00000000000E+00 0.  1.
          2    1    1    2  501    0 -0.63656383357E+02 -0.13797713331E+02  0.62035469176E+01  0.65429320871E+02  0.00000000000E+00 0. -1.
<scales pt_clust_5="13000.00000" pt_clust_6="13000.00000" pt_clust_7="13000.00000" pt_clust_8="13000.00000" pt_clust_9="28.11908" pt_clust_10="13000.00000"></scales>
<clustering>
<clus scale="   28.119">  1  9  2 -1</clus>
<clus scale="   90.500">  7  8 -1 -1</clus>
<clus scale="   91.307">  5  6 -1 -1</clus>
<clus scale="   71.917">  5 10 -1 -1</clus>
<clus scale="  127.177">  2  7  1 -1</clus>
<clus scale="   28.119">  1  5  2 -1</clus>
</clustering>
</event>
<event>
10    2  0.5692308E-006  0.1583442E+03  0.7546771E-02  0.1203907E+00
         21   -1    0    0  501  502  0.00000000000E+00  0.00000000000E+00  0.22457182697E+03  0.22457182697E+03  0.00000000000E+00 0.  1.
          1   -1    0    0  503    0 -0.00000000000E+00 -0.00000000000E+00 -0.63402900102E+03  0.63402900102E+03  0.00000000000E+00 0. -1.
         23    2    1    2    0    0  0.39139227055E+02  0.38177717217E+02 -0.29195754348E+03  0.31092843127E+03  0.91912267913E+02 0.  0.
         23    2    1    2    0    0 -0.98693427998E+02 -0.24290740352E+02 -0.25835908562E+03  0.29227779926E+03  0.91358973391E+02 0.  0.
        -11    1    3    3    0    0  0.16551922688E+02  0.60120754071E+02 -0.25432517912E+03  0.26185829746E+03  0.00000000000E+00 0.  1.
         11    1    3    3    0    0  0.22587304367E+02 -0.21943036855E+02 -0.37632364357E+02  0.49070133810E+02  0.00000000000E+00 0. -1.
        -13    1    4    4    0    0  0.10423036753E+02 -0.24999146399E+02 -0.61477405094E+02  0.67179374461E+02  0.00000000000E+00 0.  1.
         13    1    4    4    0    0 -0.10911646475E+03  0.70840604691E+00 -0.19688168053E+03  0.22509842480E+03  0.00000000000E+00 0. -1.
         21    1    1    2  503  502  0.88329877034E+02  0.28385255376E+02  0.17206757842E+03  0.19548693420E+03  0.00000000000E+00 0.  1.
          1    1    1    2  501    0 -0.28775676090E+02 -0.42272232241E+02 -0.31208123377E+02  0.59907663264E+02  0.00000000000E+00 0. -1.
<scales pt_clust_5="13000.00000" pt_clust_6="13000.00000" pt_clust_7="13000.00000" pt_clust_8="13000.00000" pt_clust_9="92.77871" pt_clust_10="13000.00000"></scales>
<clustering>
<clus scale="   91.359">  7  8 -1 -1</clus>
<clus scale="   51.137">  7 10 -1 -1</clus>
<clus scale="   91.912">  5  6 -1 -1</clus>
<clus scale="   92.779">  1  9  2 -1</clus>
<clus scale="  118.382">  2  5  1 -1</clus>
<clus scale="   92.779">  1  5  2 -1</clus>
</clustering>
</event>
<event>
10    2  0.5692308E-006  0.1850152E+03  0.7546771E-02  0.1174764E+00
         21   -1    0    0  501  502  0.00000000000E+00  0.00000000000E+00  0.97270914851E+02  0.97270914851E+02  0.00000000000E+00 0. -1.
          1   -1    0    0  503    0 -0.00000000000E+00 -0.00000000000E+00 -0.46219040693E+03  0.46219040693E+03  0.00000000000E+00 0. -1.
         23    2    1    2    0    0  0.66684163460E+02 -0.47586981529E+02 -0.92497622874E+02  0.15349960386E+03  0.91076998629E+02 0.  0.
         23    2    1    2    0    0 -0.28482329025E+02  0.69257003041E+02 -0.20772653376E+03  0.24261260672E+03  0.10051262893E+03 0.  0.
        -13    1    3    3    0    0  0.39429107370E+02 -0.63313598970E+02 -0.24389360504E+02  0.78473608483E+02  0.00000000000E+00 0.  1.
         13    1    3    3    0    0  0.27255056090E+02  0.15726617441E+02 -0.68108262370E+02  0.75025995373E+02  0.00000000000E+00 0. -1.
        -13    1    4    4    0    0  0.19205742633E+02  0.21348336899E+02 -0.53042973635E+01  0.29201842561E+02  0.00000000000E+00 0.  1.
         13    1    4    4    0    0 -0.47688071658E+02  0.47908666141E+02 -0.20242223640E+03  0.21341076416E+03  0.00000000000E+00 0. -1.
         21    1    1    2  503  502  0.10659119216E+02 -0.74903579649E+02 -0.19534584930E+02  0.78139382357E+02  0.00000000000E+00 0. -1.
          1    1    1    2  501    0 -0.48860953651E+02  0.53233558137E+02 -0.45160750512E+02  0.85209728849E+02  0.00000000000E+00 0. -1.
<scales pt_clust_5="13000.00000" pt_clust_6="13000.00000" pt_clust_7="13000.00000" pt_clust_8="13000.00000" pt_clust_9="75.65820" pt_clust_10="13000.00000"></scales>
<clustering>
<clus scale="   75.658">  1  9  2 -1</clus>
<clus scale="   91.077">  5  6 -1 -1</clus>
<clus scale="  100.513">  7  8 -1 -1</clus>
<clus scale="   55.333">  7 10 -1 -1</clus>
<clus scale="  141.408">  2  5  1 -1</clus>
<clus scale="   75.658">  1  5  2 -1</clus>
</clustering>
</event>
<event>
10    2  0.5692308E-006  0.1658009E+03  0.7546771E-02  0.1193426E+00
         21   -1    0    0  503  502  0.00000000000E+00  0.00000000000E+00  0.30542605471E+02  0.30542605471E+02  0.00000000000E+00 0. -1.
         -3   -1    0    0    0  501 -0.00000000000E+00 -0.00000000000E+00 -0.10352736296E+04  0.10352736296E+04  0.00000000000E+00 0.  1.
         23    2    1    2    0    0 -0.10016617850E+03 -0.35444707308E+02 -0.27164428539E+03  0.30554547854E+03  0.90982586692E+02 0.  0.
         23    2    1    2    0    0  0.36624617654E+02  0.48846508796E+02 -0.44734801689E+03  0.46188991043E+03  0.97440736354E+02 0.  0.
        -11    1    4    4    0    0  0.52165191440E+02 -0.96280309465E+01 -0.17303375760E+03  0.18098228490E+03  0.00000000000E+00 0.  1.
         11    1    4    4    0    0 -0.15540573786E+02  0.58474539743E+02 -0.27431425929E+03  0.28090762553E+03  0.00000000000E+00 0. -1.
        -13    1    3    3    0    0 -0.64941072735E+02 -0.19215069972E+02 -0.25411347262E+03  0.26298330519E+03  0.00000000000E+00 0.  1.
         13    1    3    3    0    0 -0.35225105761E+02 -0.16229637336E+02 -0.17530812770E+02  0.42562173351E+02  0.00000000000E+00 0. -1.
         21    1    1    2  503  501  0.22313554459E+02  0.19371845802E+01 -0.23444875912E+02  0.32423904811E+02  0.00000000000E+00 0. -1.
         -3    1    1    2    0  502  0.41228006383E+02 -0.15338986068E+02 -0.26229384596E+03  0.26595694131E+03  0.00000000000E+00 0.  1.
<scales pt_clust_5="13000.00000" pt_clust_6="13000.00000" pt_clust_7="13000.00000" pt_clust_8="13000.00000" pt_clust_9="22.39749" pt_clust_10="13000.00000"></scales>
<clustering>
<clus scale="   22.397">  1  9  2 -1</clus>
<clus scale="   90.983">  7  8 -1 -1</clus>
<clus scale="   97.441">  5  6 -1 -1</clus>
<clus scale="   45.417">  5 10 -1 -1</clus>
<clus scale="  129.546">  2  7  1 -1</clus>
<clus scale="   22.397">  1  5  2 -1</clus>
</clustering>
</event>
<event>
10    2  0.5692308E-006  0.2486527E+03  0.7546771E-02  0.1121672E+00
          1   -1    0    0  503    0 -0.00000000000E+00  0.00000000000E+00  0.93606657739E+03  0.93606657739E+03  0.00000000000E+00 0. -1.
         21   -1    0    0  501  502  0.00000000000E+00 -0.00000000000E+00 -0.12192297981E+03  0.12192297981E+03  0.00000000000E+00 0.  1.
         23    2    1    2    0    0  0.78806918637E+02 -0.19284030117E+03  0.23610152009E+03  0.33032281281E+03  0.99856500519E+02 0.  0.
         23    2    1    2    0    0 -0.14325550772E+02  0.23042601006E+02  0.27762847018E+03  0.29320496738E+03  0.90307267547E+02 0.  0.
        -11    1    4    4    0    0 -0.42286181698E+02 -0.16898330566E+02  0.13304767155E+03  0.14062488274E+03  0.00000000000E+00 0. -1.
         11    1    4    4    0    0  0.27960630926E+02  0.39940931572E+02  0.14458079863E+03  0.15258008464E+03  0.00000000000E+00 0.  1.
        -13    1    3    3    0    0  0.23758796482E+02 -0.15352828971E+03  0.12141099411E+03  0.19717009317E+03  0.00000000000E+00 0.  1.
         13    1    3    3    0    0  0.55048122156E+02 -0.39312011461E+02  0.11469052598E+03  0.13315271964E+03  0.00000000000E+00 0. -1.
         21    1    1    2  503  502 -0.59984319183E+02  0.25124471192E+02 -0.31573896873E+02  0.72292935785E+02  0.00000000000E+00 0.  1.
          1    1    1    2  501    0 -0.44970486823E+01  0.14467322897E+03  0.33198750418E+03  0.36216884123E+03  0.00000000000E+00 0. -1.
<scales pt_clust_5="13000.00000" pt_clust_6="13000.00000" pt_clust_7="13000.00000" pt_clust_8="13000.00000" pt_clust_9="65.03351" pt_clust_10="13000.00000"></scales>
<clustering>
<clus scale="   65.034">  2  9  1 -1</clus>
<clus scale="   90.307">  5  6 -1 -1</clus>
<clus scale="   99.857">  7  8 -1 -1</clus>
<clus scale="  151.099">  5 10 -1 -1</clus>
<clus scale="  205.911">  1  7  2 -1</clus>
<clus scale="   65.034">  2  5  1 -1</clus>
</clustering>
</event>
<event>
10    2  0.5692308E-006  0.1915836E+03  0.7546771E-02  0.1185509E+00
          1   -1    0    0  502    0 -0.00000000000E+00  0.00000000000E+00  0.15650025833E+03  0.15650025833E+03  0.00000000000E+00 0. -1.
         21   -1    0    0  503  502  0.00000000000E+00 -0.00000000000E+00 -0.48712703780E+03  0.48712703780E+03  0.00000000000E+00 0. -1.
         23    2    1    2    0    0  0.41268257861E+02  0.32144044571E+02  0.44770773270E+02  0.11602795073E+03  0.93390334096E+02 0.  0.
         23    2    1    2    0    0  0.29600267021E+02  0.95467588744E+02 -0.86220759375E+02  0.16275720836E+03  0.95213723890E+02 0.  0.
        -13    1    4    4    0    0  0.45225465973E+02  0.44070065702E+02 -0.23913271904E+01  0.63192024094E+02  0.00000000000E+00 0.  1.
         13    1    4    4    0    0 -0.15625198952E+02  0.51397523042E+02 -0.83829432184E+02  0.99565184264E+02  0.00000000000E+00 0. -1.
        -13    1    3    3    0    0  0.16684273764E+02  0.57259737212E+02  0.68125985025E+00  0.59644837258E+02  0.00000000000E+00 0. -1.
         13    1    3    3    0    0  0.24583984097E+02 -0.25115692641E+02  0.44089513419E+02  0.56383113469E+02  0.00000000000E+00 0.  1.
         21    1    1    2  503  501 -0.41414249383E+02 -0.91079818976E+02 -0.30037269546E+03  0.31659821486E+03  0.00000000000E+00 0. -1.
          1    1    1    2  501    0 -0.29454275500E+02 -0.36531814339E+02  0.11195902096E+02  0.48243922186E+02  0.00000000000E+00 0. -1.
<scales pt_clust_5="13000.00000" pt_clust_6="13000.00000" pt_clust_7="13000.00000" pt_clust_8="13000.00000" pt_clust_9="100.05335" pt_clust_10="13000.00000"></scales>
<clustering>
<clus scale="   93.390">  7  8 -1 -1</clus>
<clus scale="   95.214">  5  6 -1 -1</clus>
<clus scale="   46.927">  5 10 -1 -1</clus>
<clus scale="  100.053">  2  9  1 -1</clus>
<clus scale="  100.034">  1  7  2 -1</clus>
<clus scale="  100.053">  2  5  1 -1</clus>
</clustering>
</event>
<event>
10    2  0.5692308E-006  0.2912562E+03  0.7546771E-02  0.1104820E+00
         21   -1    0    0  501  502  0.00000000000E+00  0.00000000000E+00  0.70429716542E+03  0.70429716542E+03  0.00000000000E+00 0. -1.
          2   -1    0    0  503    0 -0.00000000000E+00 -0.00000000000E+00 -0.68843337387E+03  0.68843337387E+03  0.00000000000E+00 0. -1.
         23    2    1    2    0    0  0.14464991251E+03  0.97415359182E+02 -0.12699077264E+03  0.23380862604E+03  0.90146923864E+02 0.  0.
         23    2    1    2    0    0 -0.60661637083E+01 -0.77046533083E+02 -0.22900712125E+03  0.25906588158E+03  0.93262547733E+02 0.  0.
        -13    1    3    3    0    0  0.13593975040E+03  0.59764165501E+02 -0.12663575577E+03  0.19516143537E+03  0.00000000000E+00 0.  1.
         13    1    3    3    0    0  0.87101621167E+01  0.37651193681E+02 -0.35501686234E+00  0.38647190670E+02  0.00000000000E+00 0. -1.
        -13    1    4    4    0    0  0.14524419879E+02 -0.51181076968E+02 -0.21772889230E+03  0.22413462908E+03  0.00000000000E+00 0.  1.
         13    1    4    4    0    0 -0.20590583587E+02 -0.25865456115E+02 -0.11278228957E+02  0.34931252496E+02  0.00000000000E+00 0. -1.
         21    1    1    2  503  502 -0.19434107795E+03 -0.87306832896E+02  0.61007822511E+03  0.64620923732E+03  0.00000000000E+00 0. -1.
          2    1    1    2  501    0  0.55757329143E+02  0.66938006797E+02 -0.23821653967E+03  0.25364679434E+03  0.00000000000E+00 0. -1.
<scales pt_clust_5="13000.00000" pt_clust_6="13000.00000" pt_clust_7="13000.00000" pt_clust_8="13000.00000" pt_clust_9="206.94264" pt_clust_10="13000.00000"></scales>
<clustering>
<clus scale="   90.147">  5  6 -1 -1</clus>
<clus scale="   93.263">  7  8 -1 -1</clus>
<clus scale="   87.118">  7 10 -1 -1</clus>
<clus scale="  196.316">  2  5  1 -1</clus>
<clus scale="  206.943">  1  9  2 -1</clus>
<clus scale="  206.943">  1  5  2 -1</clus>
</clustering>
</event>
<event>
10    2  0.5692308E-006  0.1805390E+03  0.7546771E-02  0.1195901E+00
         21   -1    0    0  503  502  0.00000000000E+00  0.00000000000E+00  0.62541831248E+02  0.62541831248E+02  0.00000000000E+00 0.  1.
          1   -1    0    0  502    0 -0.00000000000E+00 -0.00000000000E+00 -0.55738964870E+03  0.55738964870E+03  0.00000000000E+00 0. -1.
         23    2    1    2    0    0  0.69773549479E+01 -0.19919686085E+02 -0.11831632062E+03  0.15122105391E+03  0.91780052546E+02 0.  0.
         23    2    1    2    0    0  0.22398890863E+02  0.13094202026E+02 -0.36369151837E+03  0.37615982991E+03  0.92474475732E+02 0.  0.
        -11    1    3    3    0    0 -0.23911801332E+02 -0.14147785471E+02 -0.11647551307E+03  0.11974338905E+03  0.00000000000E+00 0. -1.
         11    1    3    3    0    0  0.30889156280E+02 -0.57719006139E+01 -0.18408075460E+01  0.31477664857E+02  0.00000000000E+00 0.  1.
        -11    1    4    4    0    0  0.28947392039E+02  0.47794678949E+02 -0.16114140661E+03  0.17055449501E+03  0.00000000000E+00 0.  1.
         11    1    4    4    0    0 -0.65485011757E+01 -0.34700476923E+02 -0.20255011176E+03  0.20560533490E+03  0.00000000000E+00 0. -1.
         21    1    1    2  503  501  0.21582608159E+02  0.40168695027E+01  0.21745151167E+02  0.30899770465E+02  0.00000000000E+00 0.  1.
          1    1    1    2  501    0 -0.50958853970E+02  0.28086145564E+01 -0.34585129628E+02  0.61650825664E+02  0.00000000000E+00 0. -1.
<scales pt_clust_5="13000.00000" pt_clust_6="13000.00000" pt_clust_7="13000.00000" pt_clust_8="13000.00000" pt_clust_9="21.95323" pt_clust_10="13000.00000"></scales>
<clustering>
<clus scale="   21.953">  1  9  2 -1</clus>
<clus scale="   91.780">  5  6 -1 -1</clus>
<clus scale="   92.474">  7  8 -1 -1</clus>
<clus scale="   43.111">  7 10 -1 -1</clus>
<clus scale="   95.040">  2  5  1 -1</clus>
<clus scale="   21.953">  1  5  2 -1</clus>
</clustering>
</event>
<event>
10    2  0.5692308E-006  0.1637303E+03  0.7546771E-02  0.1206217E+00
         21   -1    0    0  501  502  0.00000000000E+00  0.00000000000E+00  0.58819049426E+02  0.58819049426E+02  0.00000000000E+00 0.  1.
         -1   -1    0    0    0  501 -0.00000000000E+00 -0.00000000000E+00 -0.71746353800E+03  0.71746353800E+03  0.00000000000E+00 0.  1.
         23    2    1    2    0    0 -0.17834354649E+02 -0.75898058541E+02 -0.12309993065E+03  0.16493051892E+03  0.77265151578E+02 0.  0.
         23    2    1    2    0    0  0.99690735656E+02  0.88534179462E+01 -0.45430849085E+03  0.47419577752E+03  0.91917380198E+02 0.  0.
        -11    1    3    3    0    0 -0.23460437579E+02  0.61875424075E+01 -0.46818119214E+02  0.52731528512E+02  0.00000000000E+00 0. -1.
         11    1    3    3    0    0  0.56260829297E+01 -0.82085600949E+02 -0.76281811440E+02  0.11219899041E+03  0.00000000000E+00 0.  1.
        -13    1    4    4    0    0  0.73603402679E+01  0.38046843078E+02 -0.14449946531E+03  0.14960558930E+03  0.00000000000E+00 0. -1.
         13    1    4    4    0    0  0.92330395388E+02 -0.29193425132E+02 -0.30980902554E+03  0.32459018822E+03  0.00000000000E+00 0.  1.
         21    1    1    2  503  502 -0.58159823625E+02  0.59090184755E+02 -0.48799918648E+02  0.96206273593E+02  0.00000000000E+00 0.  1.
         -1    1    1    2    0  503 -0.23696557382E+02  0.79544558397E+01 -0.32436148426E+02  0.40950017389E+02  0.00000000000E+00 0.  1.
<scales pt_clust_5="13000.00000" pt_clust_6="13000.00000" pt_clust_7="13000.00000" pt_clust_8="13000.00000" pt_clust_9="82.91089" pt_clust_10="13000.00000"></scales>
<clustering>
<clus scale="   77.265">  5  6 -1 -1</clus>
<clus scale="   82.911">  1  9  2 -1</clus>
<clus scale="   91.917">  7  8 -1 -1</clus>
<clus scale="   34.263">  7 10 -1 -1</clus>
<clus scale="  101.884">  2  5  1 -1</clus>
<clus scale="   82.911">  1  5  2 -1</clus>
</clustering>
</event>
<event>
10    2  0.5692308E-006  0.4847670E+03  0.7546771E-02  0.1047442E+00
         21   -1    0    0  503  502  0.00000000000E+00  0.00000000000E+00  0.12890012127E+03  0.12890012127E+03  0.00000000000E+00 0. -1.
          2   -1    0    0  502    0 -0.00000000000E+00 -0.00000000000E+00 -0.10001289060E+04  0.10001289060E+04  0.00000000000E+00 0. -1.
         23    2    1    2    0    0 -0.18345255248E+03 -0.98622515207E+01 -0.30334044588E+03  0.36597087589E+03  0.90372301504E+02 0.  0.
         23    2    1    2    0    0 -0.61335473892E+02  0.14850176261E+03 -0.30216721647E+03  0.35420206822E+03  0.91319573843E+02 0.  0.
        -11    1    4    4    0    0 -0.35253281341E+02  0.47239268369E+01 -0.36277667501E+02  0.50805299816E+02  0.00000000000E+00 0.  1.
         11    1    4    4    0    0 -0.26082192552E+02  0.14377783577E+03 -0.26588954897E+03  0.30339676841E+03  0.00000000000E+00 0. -1.
        -11    1    3    3    0    0 -0.99553124425E+02 -0.50159598042E+02 -0.15741532140E+03  0.19288958829E+03  0.00000000000E+00 0. -1.
         11    1    3    3    0    0 -0.83899428050E+02  0.40297346522E+02 -0.14592512447E+03  0.17308128760E+03  0.00000000000E+00 0.  1.
         21    1    1    2  503  501  0.99827912477E+01  0.22815412708E+02 -0.13604627093E+02  0.28377544934E+02  0.00000000000E+00 0.  1.
          2    1    1    2  501    0  0.23480523512E+03 -0.16145492380E+03 -0.25211649533E+03  0.38047853826E+03  0.00000000000E+00 0. -1.
<scales pt_clust_5="13000.00000" pt_clust_6="13000.00000" pt_clust_7="13000.00000" pt_clust_8="13000.00000" pt_clust_9="24.90380" pt_clust_10="13000.00000"></scales>
<clustering>
<clus scale="   24.904">  1  9  2 -1</clus>
<clus scale="   90.372">  7  8 -1 -1</clus>
<clus scale="   91.320">  5  6 -1 -1</clus>
<clus scale="  202.239">  2  7  1 -1</clus>
<clus scale="  215.576">  5 10 -1 -1</clus>
<clus scale="   24.904">  1  5  2 -1</clus>
</clustering>
</event>
<event>
10    2  0.5692308E-006  0.1524230E+03  0.7546771E-02  0.1216167E+00
         21   -1    0    0  501  502  0.00000000000E+00  0.00000000000E+00  0.99470315585E+02  0.99470315585E+02  0.00000000000E+00 0.  1.
          4   -1    0    0  503    0 -0.00000000000E+00 -0.00000000000E+00 -0.28480092898E+03  0.28480092898E+03  0.00000000000E+00 0. -1.
         23    2    1    2    0    0 -0.22452385221E+02  0.36738665882E+02 -0.14443628350E+03  0.17749927055E+03  0.93756663132E+02 0.  0.
         23    2    1    2    0    0  0.29348270670E+02 -0.46580420501E+02 -0.20050214519E+02  0.10797778942E+03  0.90698044860E+02 0.  0.
        -11    1    4    4    0    0 -0.20846862538E+02  0.11458728346E+02  0.96842502975E+01  0.25684213766E+02  0.00000000000E+00 0.  1.
         11    1    4    4    0    0  0.50195133208E+02 -0.58039148848E+02 -0.29734464817E+02  0.82293575658E+02  0.00000000000E+00 0. -1.
        -13    1    3    3    0    0 -0.43105860834E+02  0.57696875768E+02 -0.86818666736E+02  0.11280303899E+03  0.00000000000E+00 0.  1.
         13    1    3    3    0    0  0.20653475613E+02 -0.20958209887E+02 -0.57617616759E+02  0.64696231556E+02  0.00000000000E+00 0. -1.
         21    1    1    2  503  502 -0.94085338896E+01 -0.18245597505E+02  0.32508428245E+02  0.38447629904E+02  0.00000000000E+00 0.  1.
          4    1    1    2  501    0  0.25126484407E+01  0.28087352124E+02 -0.53352543627E+02  0.60346554690E+02  0.00000000000E+00 0. -1.
<scales pt_clust_5="13000.00000" pt_clust_6="13000.00000" pt_clust_7="13000.00000" pt_clust_8="13000.00000" pt_clust_9="20.52857" pt_clust_10="13000.00000"></scales>
<clustering>
<clus scale="   20.529">  1  9  2 -1</clus>
<clus scale="   90.698">  5  6 -1 -1</clus>
<clus scale="   27.164">  5 10 -1 -1</clus>
<clus scale="   93.757">  7  8 -1 -1</clus>
<clus scale="  102.152">  2  7  1 -1</clus>
<clus scale="   20.529">  1  5  2 -1</clus>
</clustering>
</event>
<event>
10    2  0.5692308E-006  0.4794094E+03  0.7546771E-02  0.1053381E+00
         -1   -1    0    0    0  501 -0.00000000000E+00  0.00000000000E+00  0.91796275542E+03  0.91796275542E+03  0.00000000000E+00 0.  1.
         21   -1    0    0  501  502  0.00000000000E+00 -0.00000000000E+00 -0.17875937887E+03  0.17875937887E+03  0.00000000000E+00 0. -1.
         23    2    1    2    0    0 -0.89214654184E+02 -0.12042835647E+03  0.43421677632E+03  0.46801449420E+03  0.89616484983E+02 0.  0.
         23    2    1    2    0    0  0.33966335785E+01  0.55278838296E+02  0.41932720189E+03  0.43280679262E+03  0.91755819476E+02 0.  0.
        -11    1    4    4    0    0  0.44232088178E+02  0.48722195556E+02  0.26049960555E+03  0.26868266497E+03  0.00000000000E+00 0. -1.
         11    1    4    4    0    0 -0.40835454600E+02  0.65566427400E+01  0.15882759634E+03  0.16412412765E+03  0.00000000000E+00 0.  1.
        -13    1    3    3    0    0 -0.65740996312E+02 -0.12913800356E+03  0.40127240591E+03  0.42663573023E+03  0.00000000000E+00 0.  1.
         13    1    3    3    0    0 -0.23473657872E+02  0.87096470925E+01  0.32944370408E+02  0.41378763973E+02  0.00000000000E+00 0. -1.
         21    1    1    2  503  502 -0.25826148008E+02 -0.42961129917E+01 -0.29410030078E+02  0.39375073041E+02  0.00000000000E+00 0. -1.
         -1    1    1    2    0  503  0.11164416861E+03  0.69445631164E+02 -0.84930571574E+02  0.15652577443E+03  0.00000000000E+00 0.  1.
<scales pt_clust_5="13000.00000" pt_clust_6="13000.00000" pt_clust_7="13000.00000" pt_clust_8="13000.00000" pt_clust_9="26.18103" pt_clust_10="13000.00000"></scales>
<clustering>
<clus scale="   26.181">  2  9  1 -1</clus>
<clus scale="   89.616">  7  8 -1 -1</clus>
<clus scale="   91.756">  5  6 -1 -1</clus>
<clus scale="  111.557">  5 10 -1 -1</clus>
<clus scale="  176.531">  1  7  2 -1</clus>
<clus scale="   26.181">  2  5  1 -1</clus>
</clustering>
</event>
<event>
10    2  0.5692308E-006  0.7460248E+03  0.7546771E-02  0.1023924E+00
         21   -1    0    0  503  502  0.00000000000E+00  0.00000000000E+00  0.22402100611E+03  0.22402100611E+03  0.00000000000E+00 0. -1.
          1   -1    0    0  502    0 -0.00000000000E+00 -0.00000000000E+00 -0.17444607904E+04  0.17444607904E+04  0.00000000000E+00 0. -1.
         23    2    1    2    0    0  0.57353269329E+02  0.33174713127E+02 -0.33224479271E+03  0.35018547109E+03  0.88618862471E+02 0.  0.
         23    2    1    2    0    0 -0.85131035444E+02 -0.91910272529E+02 -0.79614588331E+03  0.81068481232E+03  0.87560299408E+02 0.  0.
        -13    1    3    3    0    0 -0.11142895725E+02  0.36783763512E+02 -0.79569900637E+02  0.88366161344E+02  0.00000000000E+00 0.  1.
         13    1    3    3    0    0  0.68496165053E+02 -0.36090503851E+01 -0.25267489207E+03  0.26181930974E+03  0.00000000000E+00 0. -1.
        -13    1    4    4    0    0 -0.29746385821E+02  0.11124433692E+02 -0.10459141377E+03  0.10930674421E+03  0.00000000000E+00 0.  1.
         13    1    4    4    0    0 -0.55384649623E+02 -0.10303470622E+03 -0.69155446953E+03  0.70137806811E+03  0.00000000000E+00 0. -1.
         21    1    1    2  503  501 -0.18129870945E+03 -0.26426888339E+03 -0.15878050299E+03  0.35765697660E+03  0.00000000000E+00 0. -1.
          1    1    1    2  501    0  0.20907647557E+03  0.32300444279E+03 -0.23326860527E+03  0.44995453649E+03  0.00000000000E+00 0. -1.
<scales pt_clust_5="13000.00000" pt_clust_6="13000.00000" pt_clust_7="13000.00000" pt_clust_8="13000.00000" pt_clust_9="309.51989" pt_clust_10="13000.00000"></scales>
<clustering>
<clus scale="   87.560">  7  8 -1 -1</clus>
<clus scale="   88.619">  5  6 -1 -1</clus>
<clus scale="  110.649">  2  5  1 -1</clus>
<clus scale="  309.520">  1  9  2 -1</clus>
<clus scale="  117.104">  7 10 -1 -1</clus>
<clus scale="  309.520">  1  5  2 -1</clus>
</clustering>
</event>
<event>
10    2  0.5692308E-006  0.2719482E+03  0.7546771E-02  0.1137510E+00
          3   -1    0    0  502    0 -0.00000000000E+00  0.00000000000E+00  0.21875156984E+03  0.21875156984E+03  0.00000000000E+00 0. -1.
         21   -1    0    0  503  502  0.00000000000E+00 -0.00000000000E+00 -0.40992129711E+03  0.40992129711E+03  0.00000000000E+00 0. -1.
         23    2    1    2    0    0  0.52753009554E+02  0.22773657595E+02 -0.56034906601E+02  0.12046981601E+03  0.89841784900E+02 0.  0.
         23    2    1    2    0    0 -0.11639762918E+03  0.89853287299E+01  0.30170951306E+02  0.15118337706E+03  0.91197494392E+02 0.  0.
        -11    1    3    3    0    0  0.12359969097E+02  0.50258932271E+02 -0.48697519115E+02  0.71064600731E+02  0.00000000000E+00 0.  1.
         11    1    3    3    0    0  0.40393040458E+02 -0.27485274676E+02 -0.73373874862E+01  0.49405215277E+02  0.00000000000E+00 0. -1.
        -13    1    4    4    0    0 -0.21468737914E+02  0.12703985861E+01 -0.31190489762E+02  0.37886241193E+02  0.00000000000E+00 0.  1.
         13    1    4    4    0    0 -0.94928891270E+02  0.77149301438E+01  0.61361441067E+02  0.11329713586E+03  0.00000000000E+00 0. -1.
         21    1    1    2  503  501  0.18785084004E+03 -0.15375240512E+02 -0.76289535316E+02  0.20333329615E+03  0.00000000000E+00 0. -1.
          3    1    1    2  501    0 -0.12420622041E+03 -0.16383745813E+02 -0.89016236659E+02  0.15368637774E+03  0.00000000000E+00 0. -1.
<scales pt_clust_5="13000.00000" pt_clust_6="13000.00000" pt_clust_7="13000.00000" pt_clust_8="13000.00000" pt_clust_9="205.95623" pt_clust_10="13000.00000"></scales>
<clustering>
<clus scale="   89.842">  5  6 -1 -1</clus>
<clus scale="   91.197">  7  8 -1 -1</clus>
<clus scale="  106.645">  1  5  2 -1</clus>
<clus scale="  115.732">  7 10 -1 -1</clus>
<clus scale="  205.956">  2  9  1 -1</clus>
<clus scale="  205.956">  2  5  1 -1</clus>
</clustering>
</event>
<event>
10    2  0.5692308E-006  0.1615288E+03  0.7546771E-02  0.1198517E+00
         21   -1    0    0  503  502  0.00000000000E+00  0.00000000000E+00  0.12922903016E+03  0.12922903016E+03  0.00000000000E+00 0.  1.
          2   -1    0    0  502    0 -0.00000000000E+00 -0.00000000000E+00 -0.74611082283E+03  0.74611082283E+03  0.00000000000E+00 0. -1.
         23    2    1    2    0    0  0.99435550121E+02 -0.12160165694E+01 -0.37782333324E+03  0.40107727744E+03  0.90684089098E+02 0.  0.
         23    2    1    2    0    0 -0.52174854385E+02  0.56282056125E+01 -0.30496196617E+03  0.32267666111E+03  0.91457830101E+02 0.  0.
        -13    1    3    3    0    0  0.68376758001E+02  0.22715959845E+02 -0.33644033807E+03  0.34406902934E+03  0.00000000000E+00 0. -1.
         13    1    3    3    0    0  0.31058792120E+02 -0.23931976414E+02 -0.41382995170E+02  0.57008248107E+02  0.00000000000E+00 0.  1.
        -13    1    4    4    0    0 -0.11733408807E+02  0.43627559741E+02 -0.18600236647E+03  0.19141033719E+03  0.00000000000E+00 0.  1.
         13    1    4    4    0    0 -0.40441445578E+02 -0.37999354128E+02 -0.11895959970E+03  0.13126632392E+03  0.00000000000E+00 0. -1.
         21    1    1    2  503  501 -0.33036233925E+02  0.27495552987E+02  0.96186426668E+02  0.10535286831E+03  0.00000000000E+00 0.  1.
          2    1    1    2  501    0 -0.14224461810E+02 -0.31907742031E+02 -0.30282919919E+02  0.46233046126E+02  0.00000000000E+00 0. -1.
<scales pt_clust_5="13000.00000" pt_clust_6="13000.00000" pt_clust_7="13000.00000" pt_clust_8="13000.00000" pt_clust_9="42.98137" pt_clust_10="13000.00000"></scales>
<clustering>
<clus scale="   42.981">  1  9  2 -1</clus>
<clus scale="   90.684">  5  6 -1 -1</clus>
<clus scale="   91.458">  7  8 -1 -1</clus>
<clus scale="   33.722">  7 10 -1 -1</clus>
<clus scale="  125.337">  2  5  1 -1</clus>
<clus scale="   42.981">  1  5  2 -1</clus>
</clustering>
</event>
<event>
10    2  0.5692308E-006  0.1554074E+03  0.7546771E-02  0.1211627E+00
         -1   -1    0    0    0  501 -0.00000000000E+00  0.00000000000E+00  0.20716967668E+03  0.20716967668E+03  0.00000000000E+00 0.  1.
         21   -1    0    0  503  502  0.00000000000E+00 -0.00000000000E+00 -0.38539679826E+03  0.38539679826E+03  0.00000000000E+00 0. -1.
         23    2    1    2    0    0 -0.68333432947E+02 -0.22939602022E+02  0.12917091101E+03  0.17165482104E+03  0.87089436427E+02 0.  0.
         23    2    1    2    0    0  0.15629053339E+02  0.96572317305E+00  0.27375363285E+01  0.92477450960E+02  0.91100959937E+02 0.  0.
        -11    1    4    4    0    0  0.32650395767E+01  0.35205005559E+02  0.30501724608E+02  0.46694840228E+02  0.00000000000E+00 0. -1.
         11    1    4    4    0    0  0.12364013762E+02 -0.34239282386E+02 -0.27764188280E+02  0.45782610732E+02  0.00000000000E+00 0.  1.
        -11    1    3    3    0    0  0.20350936913E+02 -0.14262541299E+01  0.14139856866E+02  0.24821973859E+02  0.00000000000E+00 0. -1.
         11    1    3    3    0    0 -0.88684369860E+02 -0.21513347892E+02  0.11503105414E+03  0.14683284718E+03  0.00000000000E+00 0.  1.
         21    1    1    2  503  501  0.71767240579E+02 -0.25751647823E+01 -0.25730772054E+03  0.26714121985E+03  0.00000000000E+00 0. -1.
         -1    1    1    2    0  502 -0.19062860971E+02  0.24549043631E+02 -0.52827848373E+02  0.61292983084E+02  0.00000000000E+00 0.  1.
<scales pt_clust_5="13000.00000" pt_clust_6="13000.00000" pt_clust_7="13000.00000" pt_clust_8="13000.00000" pt_clust_9="71.81343" pt_clust_10="13000.00000"></scales>
<clustering>
<clus scale="   71.813">  2  9  1 -1</clus>
<clus scale="   87.089">  7  8 -1 -1</clus>
<clus scale="   91.101">  5  6 -1 -1</clus>
<clus scale="   27.326">  5 10 -1 -1</clus>
<clus scale="  106.125">  1  7  2 -1</clus>
<clus scale="   71.813">  2  5  1 -1</clus>
</clustering>
</event>
<event>
10    2  0.5692308E-006  0.5860312E+03  0.7546771E-02  0.1042701E+00
         21   -1    0    0  501  502  0.00000000000E+00  0.00000000000E+00  0.20794316929E+03  0.20794316929E+03  0.00000000000E+00 0.  1.
          1   -1    0    0  503    0 -0.00000000000E+00 -0.00000000000E+00 -0.19881673182E+04  0.19881673182E+04  0.00000000000E+00 0. -1.
         23    2    1    2    0    0 -0.53680569958E+02 -0.76800759774E+02 -0.13877007358E+03  0.19099169062E+03  0.91873457923E+02 0.  0.
         23    2    1    2    0    0 -0.25660973313E+03  0.15802654283E+02 -0.55590767503E+03  0.62177716927E+03  0.10712248152E+03 0.  0.
        -11    1    3    3    0    0 -0.26043888541E+02  0.11745052573E+02 -0.69742776469E+02  0.75367667205E+02  0.00000000000E+00 0.  1.
         11    1    3    3    0    0 -0.27636681417E+02 -0.88545812347E+02 -0.69027297115E+02  0.11562402342E+03  0.00000000000E+00 0. -1.
        -13    1    4    4    0    0 -0.18168291599E+03  0.44238214020E+02 -0.29897042562E+03  0.35263155976E+03  0.00000000000E+00 0.  1.
         13    1    4    4    0    0 -0.74926817142E+02 -0.28435559737E+02 -0.25693724941E+03  0.26914560951E+03  0.00000000000E+00 0. -1.
         21    1    1    2  503  502  0.56820409335E+03  0.13695304382E+03 -0.67870629483E+03  0.89568647559E+03  0.00000000000E+00 0.  1.
          1    1    1    2  501    0 -0.25791379026E+03 -0.75954938334E+02 -0.40684010544E+03  0.48765515199E+03  0.00000000000E+00 0. -1.
<scales pt_clust_5="13000.00000" pt_clust_6="13000.00000" pt_clust_7="13000.00000" pt_clust_8="13000.00000" pt_clust_9="554.82299" pt_clust_10="13000.00000"></scales>
<clustering>
<clus scale="   91.873">  5  6 -1 -1</clus>
<clus scale="  107.122">  7  8 -1 -1</clus>
<clus scale="  131.228">  2  5  1 -1</clus>
<clus scale="  287.178">  7 10 -1 -1</clus>
<clus scale="  554.823">  1  9  2 -1</clus>
<clus scale="  554.823">  1  5  2 -1</clus>
</clustering>
</event>
<event>
10    2  0.5692308E-006  0.2080972E+03  0.7546771E-02  0.1175865E+00
         21   -1    0    0  501  502  0.00000000000E+00  0.00000000000E+00  0.18450409148E+03  0.18450409148E+03  0.00000000000E+00 0.  1.
          2   -1    0    0  503    0 -0.00000000000E+00 -0.00000000000E+00 -0.53041865607E+03  0.53041865607E+03  0.00000000000E+00 0. -1.
         23    2    1    2    0    0 -0.32262438818E+02 -0.13435006529E+02  0.87959926596E+01  0.97328732939E+02  0.90410997173E+02 0.  0.
         23    2    1    2    0    0  0.19238750558E+02 -0.36399786217E+02 -0.36097143115E+03  0.37436206604E+03  0.90285704407E+02 0.  0.
        -11    1    3    3    0    0 -0.57027095651E+02 -0.80073922976E+01 -0.18103244735E+02  0.60365018344E+02  0.00000000000E+00 0. -1.
         11    1    3    3    0    0  0.24764656832E+02 -0.54276142311E+01  0.26899237395E+02  0.36963714595E+02  0.00000000000E+00 0.  1.
        -13    1    4    4    0    0  0.44046734785E+02  0.47170325398E+01 -0.10560602403E+03  0.11452072979E+03  0.00000000000E+00 0.  1.
         13    1    4    4    0    0 -0.24807984226E+02 -0.41116818757E+02 -0.25536540712E+03  0.25984133624E+03  0.00000000000E+00 0. -1.
         21    1    1    2  503  502 -0.48871033936E+02  0.10044077436E+03  0.77658607912E+02  0.13604259074E+03  0.00000000000E+00 0.  1.
          2    1    1    2  501    0  0.61894722196E+02 -0.50605981614E+02 -0.71397734010E+02  0.10718935783E+03  0.00000000000E+00 0. -1.
<scales pt_clust_5="13000.00000" pt_clust_6="13000.00000" pt_clust_7="13000.00000" pt_clust_8="13000.00000" pt_clust_9="111.84107" pt_clust_10="13000.00000"></scales>
<clustering>
<clus scale="   90.286">  7  8 -1 -1</clus>
<clus scale="   79.950">  7 10 -1 -1</clus>
<clus scale="   90.411">  5  6 -1 -1</clus>
<clus scale="   96.931">  2  5  1 -1</clus>
<clus scale="  111.841">  1  9  2 -1</clus>
<clus scale="  111.841">  1  5  2 -1</clus>
</clustering>
</event>
<event>
10    2  0.5692308E-006  0.2445533E+03  0.7546771E-02  0.1124605E+00
         21   -1    0    0  501  502  0.00000000000E+00  0.00000000000E+00  0.75667717723E+02  0.75667717723E+02  0.00000000000E+00 0. -1.
          1   -1    0    0  503    0 -0.00000000000E+00 -0.00000000000E+00 -0.14196244074E+04  0.14196244074E+04  0.00000000000E+00 0. -1.
         23    2    1    2    0    0  0.16758448125E+03  0.14537529116E+02 -0.81071528566E+03  0.83297070353E+03  0.91022087514E+02 0.  0.
         23    2    1    2    0    0 -0.11011835872E+03  0.19851778618E+02 -0.42099618174E+03  0.44499921462E+03  0.90919579429E+02 0.  0.
        -11    1    4    4    0    0 -0.76514587550E+02 -0.30630462439E+02 -0.21475851409E+03  0.23003027347E+03  0.00000000000E+00 0.  1.
         11    1    4    4    0    0 -0.33603771171E+02  0.50482241057E+02 -0.20623766765E+03  0.21496894114E+03  0.00000000000E+00 0. -1.
        -11    1    3    3    0    0  0.35894092455E+02 -0.33876066787E+02 -0.16694097639E+03  0.17408406984E+03  0.00000000000E+00 0.  1.
         11    1    3    3    0    0  0.13169038880E+03  0.48413595902E+02 -0.64377430927E+03  0.65888663368E+03  0.00000000000E+00 0. -1.
         21    1    1    2  503  502  0.47033419710E+02 -0.45227618971E+02 -0.23584555625E+01  0.65293509632E+02  0.00000000000E+00 0. -1.
          1    1    1    2  501    0 -0.10449954224E+03  0.10838311237E+02 -0.10988676669E+03  0.15202869733E+03  0.00000000000E+00 0. -1.
<scales pt_clust_5="13000.00000" pt_clust_6="13000.00000" pt_clust_7="13000.00000" pt_clust_8="13000.00000" pt_clust_9="65.25090" pt_clust_10="13000.00000"></scales>
<clustering>
<clus scale="   65.251">  1  9  2 -1</clus>
<clus scale="   90.920">  5  6 -1 -1</clus>
<clus scale="   82.775">  5 10 -1 -1</clus>
<clus scale="   91.022">  7  8 -1 -1</clus>
<clus scale="  201.217">  2  7  1 -1</clus>
<clus scale="   65.251">  1  5  2 -1</clus>
</clustering>
</event>
<event>
10    2  0.5692308E-006  0.3212538E+03  0.7546771E-02  0.1108814E+00
         21   -1    0    0  501  502  0.00000000000E+00  0.00000000000E+00  0.75100623474E+03  0.75100623474E+03  0.00000000000E+00 0. -1.
         -1   -1    0    0    0  501 -0.00000000000E+00 -0.00000000000E+00 -0.84862601690E+02  0.84862601690E+02  0.00000000000E+00 0.  1.
         23    2    1    2    0    0 -0.34198163063E+02  0.95508569587E+02  0.14935402276E+03  0.20302925466E+03  0.92859317854E+02 0.  0.
         23    2    1    2    0    0 -0.69538191548E+01  0.73615844342E+02  0.40382737311E+02  0.12350557205E+03  0.90306216375E+02 0.  0.
        -11    1    4    4    0    0 -0.43630889536E+02  0.15291371691E+02  0.63712970619E+01  0.46669840327E+02  0.00000000000E+00 0. -1.
         11    1    4    4    0    0  0.36677070382E+02  0.58324472651E+02  0.34011440249E+02  0.76835731724E+02  0.00000000000E+00 0.  1.
        -11    1    3    3    0    0 -0.50390956531E+02  0.41855231853E+02  0.31838452958E+02  0.72834030648E+02  0.00000000000E+00 0.  1.
         11    1    3    3    0    0  0.16192793468E+02  0.53653337734E+02  0.11751556980E+03  0.13019522401E+03  0.00000000000E+00 0. -1.
         21    1    1    2  503  502  0.59973077649E+01 -0.25903364367E+02  0.13250088493E+03  0.13514228240E+03  0.00000000000E+00 0.  1.
         -1    1    1    2    0  503  0.35154674453E+02 -0.14322104956E+03  0.34390598806E+03  0.37419172732E+03  0.00000000000E+00 0.  1.
<scales pt_clust_5="13000.00000" pt_clust_6="13000.00000" pt_clust_7="13000.00000" pt_clust_8="13000.00000" pt_clust_9="26.58857" pt_clust_10="13000.00000"></scales>
<clustering>
<clus scale="   26.589">  1  9  2 -1</clus>
<clus scale="   90.306">  5  6 -1 -1</clus>
<clus scale="   92.859">  7  8 -1 -1</clus>
<clus scale="  132.069">  2  7  1 -1</clus>
<clus scale="  133.031">  5 10 -1 -1</clus>
<clus scale="   26.589">  1  5  2 -1</clus>
</clustering>
</event>
<event>
10    2  0.5692308E-006  0.2746243E+03  0.7546771E-02  0.1135147E+00
         21   -1    0    0  501  502  0.00000000000E+00  0.00000000000E+00  0.10625957077E+03  0.10625957077E+03  0.00000000000E+00 0. -1.
          1   -1    0    0  503    0 -0.00000000000E+00 -0.00000000000E+00 -0.75222224470E+03  0.75222224470E+03  0.00000000000E+00 0. -1.
         23    2    1    2    0    0 -0.75780183642E+02 -0.60635420939E+01 -0.17231269136E+03  0.20917972075E+03  0.91022465323E+02 0.  0.
         23    2    1    2    0    0  0.73690380840E+02  0.81369859441E+02 -0.46440683430E+03  0.48598906396E+03  0.91980086388E+02 0.  0.
        -11    1    4    4    0    0 -0.12285664574E+02  0.30467093375E+02 -0.50885631463E+02  0.60568381373E+02  0.00000000000E+00 0.  1.
         11    1    4    4    0    0  0.85976045414E+02  0.50902766066E+02 -0.41352120284E+03  0.42542068259E+03  0.00000000000E+00 0. -1.
        -13    1    3    3    0    0 -0.15442114329E+01 -0.36974426986E+02 -0.68587992436E+02  0.77934623540E+02  0.00000000000E+00 0.  1.
         13    1    3    3    0    0 -0.74235972209E+02  0.30910884892E+02 -0.10372469892E+03  0.13124509721E+03  0.00000000000E+00 0. -1.
         21    1    1    2  503  502  0.41733168978E+02 -0.20712615598E+01  0.46949912113E+02  0.62850948798E+02  0.00000000000E+00 0. -1.
          1    1    1    2  501    0 -0.39643366176E+02 -0.73235055788E+02 -0.56193060379E+02  0.10046208196E+03  0.00000000000E+00 0. -1.
<scales pt_clust_5="13000.00000" pt_clust_6="13000.00000" pt_clust_7="13000.00000" pt_clust_8="13000.00000" pt_clust_9="41.78454" pt_clust_10="13000.00000"></scales>
<clustering>
<clus scale="   41.785">  1  9  2 -1</clus>
<clus scale="   91.022">  7  8 -1 -1</clus>
<clus scale="   91.980">  5  6 -1 -1</clus>
<clus scale="   77.227">  5 10 -1 -1</clus>
<clus scale="  109.673">  2  7  1 -1</clus>
<clus scale="   41.785">  1  5  2 -1</clus>
</clustering>
</event>
<event>
10    2  0.5692308E-006  0.1374234E+03  0.7546771E-02  0.1231321E+00
          1   -1    0    0  502    0 -0.00000000000E+00  0.00000000000E+00  0.39439391604E+03  0.39439391604E+03  0.00000000000E+00 0. -1.
         21   -1    0    0  503  502  0.00000000000E+00 -0.00000000000E+00 -0.11466699307E+03  0.11466699307E+03  0.00000000000E+00 0.  1.
         23    2    1    2    0    0  0.52518754318E+02  0.70387009403E+01  0.21939283864E+03  0.24288730864E+03  0.89739980980E+02 0.  0.
         23    2    1    2    0    0 -0.31141915177E+02  0.52170150253E+01  0.13572560777E+03  0.16498765450E+03  0.88331474607E+02 0.  0.
        -13    1    3    3    0    0 -0.21129557470E+02 -0.16464200378E+02  0.51443731571E+02  0.57999875956E+02  0.00000000000E+00 0.  1.
         13    1    3    3    0    0  0.73648311787E+02  0.23502901318E+02  0.16794910707E+03  0.18488743269E+03  0.00000000000E+00 0. -1.
        -13    1    4    4    0    0  0.26791191596E+02  0.17504974069E+02  0.30323346834E+02  0.44087383995E+02  0.00000000000E+00 0. -1.
         13    1    4    4    0    0 -0.57933106773E+02 -0.12287959043E+02  0.10540226094E+03  0.12090027051E+03  0.00000000000E+00 0.  1.
         21    1    1    2  503  501 -0.20470031564E+02  0.11908991230E+02 -0.73164587144E+02  0.76901905544E+02  0.00000000000E+00 0.  1.
          1    1    1    2  501    0 -0.90680757722E+00 -0.24164707195E+02 -0.22269362979E+01  0.24284040419E+02  0.00000000000E+00 0. -1.
<scales pt_clust_5="13000.00000" pt_clust_6="13000.00000" pt_clust_7="13000.00000" pt_clust_8="13000.00000" pt_clust_9="23.68219" pt_clust_10="13000.00000"></scales>
<clustering>
<clus scale="   23.682">  2  9  1 -1</clus>
<clus scale="   88.331">  7  8 -1 -1</clus>
<clus scale="   21.620">  7 10 -1 -1</clus>
<clus scale="   89.740">  5  6 -1 -1</clus>
<clus scale="  101.601">  1  5  2 -1</clus>
<clus scale="   23.682">  2  5  1 -1</clus>
</clustering>
</event>
<event>
10    2  0.5692308E-006  0.2084024E+03  0.7546771E-02  0.1173641E+00
         21   -1    0    0  503  502  0.00000000000E+00  0.00000000000E+00  0.12761097976E+03  0.12761097976E+03  0.00000000000E+00 0.  1.
          2   -1    0    0  502    0 -0.00000000000E+00 -0.00000000000E+00 -0.28006665606E+03  0.28006665606E+03  0.00000000000E+00 0.  1.
         23    2    1    2    0    0 -0.41241154556E+02  0.85324594611E+01 -0.10389295042E+03  0.14601555930E+03  0.93558338580E+02 0.  0.
         23    2    1    2    0    0 -0.51319484714E+01 -0.47569796332E+02 -0.10793139247E+03  0.14909827986E+03  0.91059810885E+02 0.  0.
        -11    1    3    3    0    0  0.94160010616E+01  0.40653092590E+02 -0.52219510991E+02  0.66844688205E+02  0.00000000000E+00 0. -1.
         11    1    3    3    0    0 -0.50657155618E+02 -0.32120633128E+02 -0.51673439426E+02  0.79170871095E+02  0.00000000000E+00 0.  1.
        -11    1    4    4    0    0  0.13921717069E+02 -0.20580566362E+02  0.98822802903E+01  0.26740108109E+02  0.00000000000E+00 0. -1.
         11    1    4    4    0    0 -0.19053665540E+02 -0.26989229970E+02 -0.11781367276E+03  0.12235817175E+03  0.00000000000E+00 0.  1.
         21    1    1    2  503  501  0.92099182650E+01 -0.18765650922E+02  0.32784901215E+02  0.38882155247E+02  0.00000000000E+00 0.  1.
          2    1    1    2  501    0  0.37163184763E+02  0.57802987793E+02  0.26583765376E+02  0.73681641411E+02  0.00000000000E+00 0.  1.
<scales pt_clust_5="13000.00000" pt_clust_6="13000.00000" pt_clust_7="13000.00000" pt_clust_8="13000.00000" pt_clust_9="20.90388" pt_clust_10="13000.00000"></scales>
<clustering>
<clus scale="   20.904">  1  9  2 -1</clus>
<clus scale="   91.060">  7  8 -1 -1</clus>
<clus scale="   63.573">  7 10 -1 -1</clus>
<clus scale="   93.558">  5  6 -1 -1</clus>
<clus scale="  101.499">  2  5  1 -1</clus>
<clus scale="   20.904">  1  5  2 -1</clus>
</clustering>
</event>
<event>
10    2  0.5692308E-006  0.1673858E+03  0.7546771E-02  0.1191049E+00
         21   -1    0    0  503  502  0.00000000000E+00  0.00000000000E+00  0.81377905697E+02  0.81377905697E+02  0.00000000000E+00 0.  1.
          2   -1    0    0  502    0 -0.00000000000E+00 -0.00000000000E+00 -0.53977491021E+03  0.53977491021E+03  0.00000000000E+00 0. -1.
         23    2    1    2    0    0 -0.33635055258E+02  0.70344643594E+02 -0.79200578717E+02  0.14601497646E+03  0.94699291738E+02 0.  0.
         23    2    1    2    0    0  0.95986861905E+01 -0.80783792578E+02 -0.39349921750E+03  0.41220181179E+03  0.91926838040E+02 0.  0.
        -11    1    3    3    0    0  0.62363934333E+01  0.24518172989E+02  0.18241896369E+02  0.31189744996E+02  0.00000000000E+00 0.  1.
         11    1    3    3    0    0 -0.39871448691E+02  0.45826470605E+02 -0.97442475086E+02  0.11482523146E+03  0.00000000000E+00 0. -1.
        -13    1    4    4    0    0  0.24064200483E+02  0.89522527027E+01 -0.42760466912E+02  0.49876709032E+02  0.00000000000E+00 0.  1.
         13    1    4    4    0    0 -0.14465514292E+02 -0.89736045281E+02 -0.35073875059E+03  0.36232510276E+03  0.00000000000E+00 0. -1.
         21    1    1    2  503  501  0.20045044606E+02  0.31131645524E+02  0.18588327763E+02  0.41430774737E+02  0.00000000000E+00 0.  1.
          2    1    1    2  501    0  0.39913244620E+01 -0.20692496539E+02 -0.42855360600E+01  0.21505252923E+02  0.00000000000E+00 0. -1.
<scales pt_clust_5="13000.00000" pt_clust_6="13000.00000" pt_clust_7="13000.00000" pt_clust_8="13000.00000" pt_clust_9="37.02679" pt_clust_10="13000.00000"></scales>
<clustering>
<clus scale="   37.027">  1  9  2 -1</clus>
<clus scale="   91.927">  7  8 -1 -1</clus>
<clus scale="   17.132">  7 10 -1 -1</clus>
<clus scale="   94.699">  5  6 -1 -1</clus>
<clus scale="  132.661">  2  5  1 -1</clus>
<clus scale="   37.027">  1  5  2 -1</clus>
</clustering>
</event>
<event>
10    2  0.5692308E-006  0.1245735E+03  0.7546771E-02  0.1250593E+00
          1   -1    0    0  502    0 -0.00000000000E+00  0.00000000000E+00  0.55511142607E+03  0.55511142607E+03  0.00000000000E+00 0. -1.
         21   -1    0    0  503  502  0.00000000000E+00 -0.00000000000E+00 -0.84448733304E+02  0.84448733304E+02  0.00000000000E+00 0.  1.
         23    2    1    2    0    0  0.11072387378E+01  0.64472636713E+01  0.25906450966E+03  0.27478444811E+03  0.91374392322E+02 0.  0.
         23    2    1    2    0    0  0.76913739691E+01 -0.17952435030E+02  0.24057334080E+03  0.25803688069E+03  0.91247204555E+02 0.  0.
        -11    1    3    3    0    0  0.13926086239E+02  0.46970947401E+02  0.14551674399E+03  0.15354259526E+03  0.00000000000E+00 0.  1.
         11    1    3    3    0    0 -0.12818847502E+02 -0.40523683730E+02  0.11354776567E+03  0.12124185285E+03  0.00000000000E+00 0. -1.
        -13    1    4    4    0    0 -0.50932263572E+01  0.24513676199E+02  0.17375548916E+02  0.30475744054E+02  0.00000000000E+00 0.  1.
         13    1    4    4    0    0  0.12784600326E+02 -0.42466111229E+02  0.22319779188E+03  0.22756113664E+03  0.00000000000E+00 0. -1.
         21    1    1    2  503  501  0.19097411696E+02  0.10083406145E+02 -0.60725079403E+02  0.64450923046E+02  0.00000000000E+00 0.  1.
          1    1    1    2  501    0 -0.27896024403E+02  0.14217652137E+01  0.31749921707E+02  0.42287907518E+02  0.00000000000E+00 0. -1.
<scales pt_clust_5="13000.00000" pt_clust_6="13000.00000" pt_clust_7="13000.00000" pt_clust_8="13000.00000" pt_clust_9="21.59598" pt_clust_10="13000.00000"></scales>
<clustering>
<clus scale="   21.596">  2  9  1 -1</clus>
<clus scale="   91.247">  7  8 -1 -1</clus>
<clus scale="   23.609">  7 10 -1 -1</clus>
<clus scale="   91.374">  5  6 -1 -1</clus>
<clus scale="   92.273">  1  5  2 -1</clus>
<clus scale="   21.596">  2  5  1 -1</clus>
</clustering>
</event>
<event>
10    2  0.5692308E-006  0.2621175E+03  0.7546771E-02  0.1120004E+00
          1   -1    0    0  503    0 -0.00000000000E+00  0.00000000000E+00  0.16670684140E+04  0.16670684140E+04  0.00000000000E+00 0. -1.
         21   -1    0    0  501  502  0.00000000000E+00 -0.00000000000E+00 -0.40672675267E+02  0.40672675267E+02  0.00000000000E+00 0. -1.
         23    2    1    2    0    0  0.11391186479E+03 -0.11066315114E+03  0.52068212259E+03  0.55204759117E+03  0.91784661949E+02 0.  0.
         23    2    1    2    0    0 -0.44096815435E+02  0.36081222987E+02  0.28805234976E+03  0.31218381466E+03  0.10601034925E+03 0.  0.
        -13    1    3    3    0    0  0.78082387181E+02 -0.44427368636E+02  0.39867587764E+03  0.40867236961E+03  0.00000000000E+00 0.  1.
         13    1    3    3    0    0  0.35829477609E+02 -0.66235782503E+02  0.12200624495E+03  0.14337522156E+03  0.00000000000E+00 0. -1.
        -13    1    4    4    0    0 -0.21868570970E+02 -0.26854523770E+02  0.19272762388E+03  0.19581454708E+03  0.00000000000E+00 0.  1.
         13    1    4    4    0    0 -0.22228244465E+02  0.62935746757E+02  0.95324725881E+02  0.11636926758E+03  0.00000000000E+00 0. -1.
         21    1    1    2  503  502 -0.14987749544E+02 -0.13906610175E+02  0.12448590276E+01  0.20483557234E+02  0.00000000000E+00 0. -1.
          1    1    1    2  501    0 -0.54827299810E+02  0.88488538326E+02  0.81641640738E+03  0.82302612623E+03  0.00000000000E+00 0. -1.
<scales pt_clust_5="13000.00000" pt_clust_6="13000.00000" pt_clust_7="13000.00000" pt_clust_8="13000.00000" pt_clust_9="20.44569" pt_clust_10="13000.00000"></scales>
<clustering>
<clus scale="   20.446">  2  9  1 -1</clus>
<clus scale="   91.785">  5  6 -1 -1</clus>
<clus scale="  106.010">  7  8 -1 -1</clus>
<clus scale="  103.701">  7 10 -1 -1</clus>
<clus scale="  183.257">  1  5  2 -1</clus>
<clus scale="   20.446">  2  5  1 -1</clus>
</clustering>
</event>
<event>
10    2  0.5692308E-006  0.3515116E+03  0.7546771E-02  0.1064757E+00
          2   -1    0    0  503    0 -0.00000000000E+00  0.00000000000E+00  0.99946600433E+03  0.99946600433E+03  0.00000000000E+00 0. -1.
         21   -1    0    0  501  502  0.00000000000E+00 -0.00000000000E+00 -0.34431832098E+03  0.34431832098E+03  0.00000000000E+00 0. -1.
         23    2    1    2    0    0 -0.12976800569E+03  0.27924266507E+03  0.81690232537E+03  0.87846048196E+03  0.97709814596E+02 0.  0.
         23    2    1    2    0    0  0.64488054736E+02 -0.18907217600E+03 -0.10169077800E+03  0.24350424993E+03  0.95112083665E+02 0.  0.
        -11    1    4    4    0    0 -0.18630989322E+02 -0.88256456404E+02 -0.48670496237E+02  0.10249455139E+03  0.00000000000E+00 0. -1.
         11    1    4    4    0    0  0.83119044059E+02 -0.10081571960E+03 -0.53020281767E+02  0.14100969854E+03  0.00000000000E+00 0.  1.
        -13    1    3    3    0    0 -0.27040611365E+02  0.15182318958E+03  0.31846137451E+03  0.35383488043E+03  0.00000000000E+00 0.  1.
         13    1    3    3    0    0 -0.10272739432E+03  0.12741947549E+03  0.49844095086E+03  0.52462560153E+03  0.00000000000E+00 0. -1.
         21    1    1    2  503  502  0.45349378773E+01  0.26205013448E+02 -0.84238580301E+02  0.88336893779E+02  0.00000000000E+00 0.  1.
          2    1    1    2  501    0  0.60745013074E+02 -0.11637550252E+03  0.24174716283E+02  0.13348269965E+03  0.00000000000E+00 0. -1.
<scales pt_clust_5="13000.00000" pt_clust_6="13000.00000" pt_clust_7="13000.00000" pt_clust_8="13000.00000" pt_clust_9="26.59452" pt_clust_10="13000.00000"></scales>
<clustering>
<clus scale="   26.595">  2  9  1 -1</clus>
<clus scale="   95.112">  5  6 -1 -1</clus>
<clus scale="   97.710">  7  8 -1 -1</clus>
<clus scale="  126.845">  5 10 -1 -1</clus>
<clus scale="  325.544">  1  7  2 -1</clus>
<clus scale="   26.595">  2  5  1 -1</clus>
</clustering>
</event>
<event>
10    2  0.5692308E-006  0.6224641E+03  0.7546771E-02  0.1011906E+00
         21   -1    0    0  503  502  0.00000000000E+00  0.00000000000E+00  0.19455464812E+03  0.19455464812E+03  0.00000000000E+00 0. -1.
          1   -1    0    0  502    0 -0.00000000000E+00 -0.00000000000E+00 -0.12253304935E+04  0.12253304935E+04  0.00000000000E+00 0. -1.
         23    2    1    2    0    0  0.26205550683E+03  0.47714535233E+01 -0.41460314842E+03  0.49901622173E+03  0.91790867935E+02 0.  0.
         23    2    1    2    0    0 -0.42925831454E+02 -0.22486017140E+03 -0.52583511414E+03  0.58073828229E+03  0.91376482573E+02 0.  0.
        -11    1    4    4    0    0 -0.21363762134E+02 -0.94215765622E+02 -0.12121673369E+03  0.15500489460E+03  0.00000000000E+00 0.  1.
         11    1    4    4    0    0 -0.21562069320E+02 -0.13064440578E+03 -0.40461838045E+03  0.42573338769E+03  0.00000000000E+00 0. -1.
        -13    1    3    3    0    0  0.49896483677E+02  0.18841807747E+02 -0.34610904841E+02  0.63581345821E+02  0.00000000000E+00 0.  1.
         13    1    3    3    0    0  0.21215902315E+03 -0.14070354224E+02 -0.37999224358E+03  0.43543487591E+03  0.00000000000E+00 0. -1.
         21    1    1    2  503  501 -0.14120013756E+02  0.19790658267E+02  0.21513752054E+02  0.32463617644E+02  0.00000000000E+00 0. -1.
          1    1    1    2  501    0 -0.20500966162E+03  0.20029805961E+03 -0.11185133483E+03  0.30766701992E+03  0.00000000000E+00 0. -1.
<scales pt_clust_5="13000.00000" pt_clust_6="13000.00000" pt_clust_7="13000.00000" pt_clust_8="13000.00000" pt_clust_9="24.31142" pt_clust_10="13000.00000"></scales>
<clustering>
<clus scale="   24.311">  1  9  2 -1</clus>
<clus scale="   91.376">  5  6 -1 -1</clus>
<clus scale="   91.791">  7  8 -1 -1</clus>
<clus scale="  274.486">  2  7  1 -1</clus>
<clus scale="  254.001">  5 10 -1 -1</clus>
<clus scale="   24.311">  1  5  2 -1</clus>
</clustering>
</event>
<event>
10    2  0.5692308E-006  0.1608245E+03  0.7546771E-02  0.1212333E+00
         -1   -1    0    0    0  501 -0.00000000000E+00  0.00000000000E+00  0.39546490017E+03  0.39546490017E+03  0.00000000000E+00 0.  1.
         21   -1    0    0  503  502  0.00000000000E+00 -0.00000000000E+00 -0.95774850213E+02  0.95774850213E+02  0.00000000000E+00 0. -1.
         23    2    1    2    0    0  0.34094651022E+02  0.13012063679E+02  0.19637817420E+03  0.21865625590E+03  0.88962980560E+02 0.  0.
         23    2    1    2    0    0 -0.34654265890E+01 -0.38873318069E+02  0.75773066018E+02  0.12438024866E+03  0.90585565541E+02 0.  0.
        -11    1    3    3    0    0  0.46585827677E+02 -0.92495098336E+01  0.18447465298E+03  0.19049065690E+03  0.00000000000E+00 0.  1.
         11    1    3    3    0    0 -0.12491176655E+02  0.22261573513E+02  0.11903521219E+02  0.28165598998E+02  0.00000000000E+00 0. -1.
        -13    1    4    4    0    0 -0.30876864968E+02 -0.46666687907E+02  0.77774251530E+02  0.95812289147E+02  0.00000000000E+00 0. -1.
         13    1    4    4    0    0  0.27411438379E+02  0.77933698378E+01 -0.20011855122E+01  0.28567959516E+02  0.00000000000E+00 0.  1.
         21    1    1    2  503  501 -0.13368025567E+02 -0.31434572695E+02 -0.43507168394E+02  0.55314646974E+02  0.00000000000E+00 0. -1.
         -1    1    1    2    0  502 -0.17261198865E+02  0.57295827085E+02  0.71045978130E+02  0.92888598849E+02  0.00000000000E+00 0.  1.
<scales pt_clust_5="13000.00000" pt_clust_6="13000.00000" pt_clust_7="13000.00000" pt_clust_8="13000.00000" pt_clust_9="34.15899" pt_clust_10="13000.00000"></scales>
<clustering>
<clus scale="   34.159">  2  9  1 -1</clus>
<clus scale="   88.963">  5  6 -1 -1</clus>
<clus scale="   90.586">  7  8 -1 -1</clus>
<clus scale="   53.905">  7 10 -1 -1</clus>
<clus scale="   94.329">  1  5  2 -1</clus>
<clus scale="   34.159">  2  5  1 -1</clus>
</clustering>
</event>
<event>
10    2  0.5692308E-006  0.3381155E+03  0.7546771E-02  0.1110364E+00
         21   -1    0    0  501  502  0.00000000000E+00  0.00000000000E+00  0.11069847252E+03  0.11069847252E+03  0.00000000000E+00 0. -1.
          1   -1    0    0  503    0 -0.00000000000E+00 -0.00000000000E+00 -0.53994735659E+03  0.53994735659E+03  0.00000000000E+00 0. -1.
         23    2    1    2    0    0 -0.28549958325E+02  0.49409118403E+02 -0.13390736272E+03  0.17144670114E+03  0.90589339533E+02 0.  0.
         23    2    1    2    0    0  0.71890890729E+02  0.70600079514E+02 -0.29795849607E+03  0.32711823116E+03  0.89857667327E+02 0.  0.
        -11    1    3    3    0    0 -0.52598407521E+02  0.60214142451E+02 -0.10898847720E+03  0.13516961044E+03  0.00000000000E+00 0. -1.
         11    1    3    3    0    0  0.24048449195E+02 -0.10805024048E+02 -0.24918885521E+02  0.36277090691E+02  0.00000000000E+00 0.  1.
        -13    1    4    4    0    0 -0.34646171556E+01  0.58544349422E+02 -0.13377426991E+03  0.14606505301E+03  0.00000000000E+00 0.  1.
         13    1    4    4    0    0  0.75355507885E+02  0.12055730092E+02 -0.16418422616E+03  0.18105317815E+03  0.00000000000E+00 0. -1.
         21    1    1    2  503  502 -0.22647962610E+02  0.61746249361E+01  0.57678035310E+01  0.24172789683E+02  0.00000000000E+00 0. -1.
          1    1    1    2  501    0 -0.20692969794E+02 -0.12618382285E+03 -0.31508288068E+01  0.12790810713E+03  0.00000000000E+00 0. -1.
<scales pt_clust_5="13000.00000" pt_clust_6="13000.00000" pt_clust_7="13000.00000" pt_clust_8="13000.00000" pt_clust_9="23.47459" pt_clust_10="13000.00000"></scales>
<clustering>
<clus scale="   23.475">  1  9  2 -1</clus>
<clus scale="   89.858">  7  8 -1 -1</clus>
<clus scale="   90.589">  5  6 -1 -1</clus>
<clus scale="  108.891">  2  5  1 -1</clus>
<clus scale="  120.125">  7 10 -1 -1</clus>
<clus scale="   23.475">  1  5  2 -1</clus>
</clustering>
</event>
<event>
10    2  0.5692308E-006  0.3388913E+03  0.7546771E-02  0.1103366E+00
         21   -1    0    0  501  502  0.00000000000E+00  0.00000000000E+00  0.31045787395E+03  0.31045787395E+03  0.00000000000E+00 0. -1.
         -1   -1    0    0    0  501 -0.00000000000E+00 -0.00000000000E+00 -0.32187579001E+03  0.32187579001E+03  0.00000000000E+00 0.  1.
         23    2    1    2    0    0 -0.68346363577E+02 -0.52864930311E+02 -0.10635823847E+03  0.16526730477E+03  0.92386583796E+02 0.  0.
         23    2    1    2    0    0  0.18336939566E+03  0.71906722415E+02  0.50567811478E+02  0.22183754182E+03  0.88655960938E+02 0.  0.
        -11    1    3    3    0    0 -0.71418716452E+02 -0.72923963870E+02 -0.10241687338E+03  0.14459513657E+03  0.00000000000E+00 0.  1.
         11    1    3    3    0    0  0.30723528754E+01  0.20059033559E+02 -0.39413650911E+01  0.20672168205E+02  0.00000000000E+00 0. -1.
        -11    1    4    4    0    0  0.37328172674E+02  0.57984089829E+02  0.21944832562E+02  0.72367968223E+02  0.00000000000E+00 0.  1.
         11    1    4    4    0    0  0.14604122299E+03  0.13922632586E+02  0.28622978915E+02  0.14946957360E+03  0.00000000000E+00 0. -1.
         21    1    1    2  503  502 -0.13627783978E+02 -0.26526154707E+02  0.11670370875E+03  0.12045376298E+03  0.00000000000E+00 0. -1.
         -1    1    1    2    0  503 -0.10139524810E+03  0.74843626033E+01 -0.72331197813E+02  0.12477505439E+03  0.00000000000E+00 0.  1.
<scales pt_clust_5="13000.00000" pt_clust_6="13000.00000" pt_clust_7="13000.00000" pt_clust_8="13000.00000" pt_clust_9="29.82203" pt_clust_10="13000.00000"></scales>
<clustering>
<clus scale="   29.822">  1  9  2 -1</clus>
<clus scale="   88.656">  7  8 -1 -1</clus>
<clus scale="   92.387">  5  6 -1 -1</clus>
<clus scale="  103.330">  7 10 -1 -1</clus>
<clus scale="  129.378">  2  5  1 -1</clus>
<clus scale="   29.822">  1  5  2 -1</clus>
</clustering>
</event>
<event>
10    2  0.5692308E-006  0.5929711E+03  0.7546771E-02  0.1022664E+00
          2   -1    0    0  502    0 -0.00000000000E+00  0.00000000000E+00  0.40610019642E+03  0.40610019642E+03  0.00000000000E+00 0. -1.
         21   -1    0    0  503  502  0.00000000000E+00 -0.00000000000E+00 -0.59998760793E+03  0.59998760793E+03  0.00000000000E+00 0. -1.
         23    2    1    2    0    0 -0.18811120041E+03  0.13161506175E+03 -0.12712970047E+03  0.27784967937E+03  0.91269575344E+02 0.  0.
         23    2    1    2    0    0  0.31710083511E+03 -0.19675856558E+03  0.28015088960E+00  0.38514222945E+03  0.95223871305E+02 0.  0.
        -13    1    3    3    0    0 -0.64751226228E+02  0.53764261712E+02 -0.97855740838E+02  0.12906999322E+03  0.00000000000E+00 0. -1.
         13    1    3    3    0    0 -0.12335997418E+03  0.77850800035E+02 -0.29273959634E+02  0.14877968614E+03  0.00000000000E+00 0.  1.
        -13    1    4    4    0    0  0.71334137537E+02 -0.37945819123E+02  0.39455784187E+02  0.89917758384E+02  0.00000000000E+00 0.  1.
         13    1    4    4    0    0  0.24576669758E+03 -0.15881274645E+03 -0.39175633297E+02  0.29522447107E+03  0.00000000000E+00 0. -1.
         21    1    1    2  503  501  0.47940959177E+02 -0.10981317696E+02 -0.13117014572E+03  0.14008758701E+03  0.00000000000E+00 0. -1.
          2    1    1    2  501    0 -0.17693059388E+03  0.76124821525E+02  0.64132283793E+02  0.20300830852E+03  0.00000000000E+00 0. -1.
<scales pt_clust_5="13000.00000" pt_clust_6="13000.00000" pt_clust_7="13000.00000" pt_clust_8="13000.00000" pt_clust_9="49.18257" pt_clust_10="13000.00000"></scales>
<clustering>
<clus scale="   49.183">  2  9  1 -1</clus>
<clus scale="   91.270">  5  6 -1 -1</clus>
<clus scale="   95.224">  7  8 -1 -1</clus>
<clus scale="  185.383">  7 10 -1 -1</clus>
<clus scale="  228.851">  1  5  2 -1</clus>
<clus scale="   49.183">  2  5  1 -1</clus>
</clustering>
</event>
<event>
10    2  0.5692308E-006  0.2642653E+03  0.7546771E-02  0.1137777E+00
          1   -1    0    0  502    0 -0.00000000000E+00  0.00000000000E+00  0.35323861901E+03  0.35323861901E+03  0.00000000000E+00 0. -1.
         21   -1    0    0  503  502  0.00000000000E+00 -0.00000000000E+00 -0.49241875214E+03  0.49241875214E+03  0.00000000000E+00 0.  1.
         23    2    1    2    0    0 -0.68162800403E+02 -0.31157885506E+02  0.10325180816E+02  0.11593153469E+03  0.87843782867E+02 0.  0.
         23    2    1    2    0    0  0.24353208144E+02 -0.10119965682E+03  0.12244766373E+03  0.18717357864E+03  0.95948261574E+02 0.  0.
        -11    1    3    3    0    0 -0.62571662888E+02 -0.54158389116E+02  0.26920432197E+02  0.87023294455E+02  0.00000000000E+00 0. -1.
         11    1    3    3    0    0 -0.55911375156E+01  0.23000503609E+02 -0.16595251381E+02  0.28908240234E+02  0.00000000000E+00 0.  1.
        -13    1    4    4    0    0 -0.11068072631E+00 -0.11146270313E+03  0.80315037785E+02  0.13738432128E+03  0.00000000000E+00 0. -1.
         13    1    4    4    0    0  0.24463888870E+02  0.10263046318E+02  0.42132625949E+02  0.49789257353E+02  0.00000000000E+00 0.  1.
         21    1    1    2  503  501  0.12683919848E+03  0.10453605741E+03 -0.37373743397E+03  0.40828377279E+03  0.00000000000E+00 0.  1.
          1    1    1    2  501    0 -0.83029606223E+02  0.27821484909E+02  0.10178445629E+03  0.13426848504E+03  0.00000000000E+00 0. -1.
<scales pt_clust_5="13000.00000" pt_clust_6="13000.00000" pt_clust_7="13000.00000" pt_clust_8="13000.00000" pt_clust_9="160.05778" pt_clust_10="13000.00000"></scales>
<clustering>
<clus scale="   87.844">  5  6 -1 -1</clus>
<clus scale="   95.948">  7  8 -1 -1</clus>
<clus scale="   87.567">  7 10 -1 -1</clus>
<clus scale="  115.471">  1  5  2 -1</clus>
<clus scale="  160.058">  2  9  1 -1</clus>
<clus scale="  160.058">  2  5  1 -1</clus>
</clustering>
</event>
<event>
10    2  0.5692308E-006  0.2002116E+03  0.7546771E-02  0.1181448E+00
         21   -1    0    0  503  502  0.00000000000E+00  0.00000000000E+00  0.21362616694E+03  0.21362616694E+03  0.00000000000E+00 0.  1.
         -2   -1    0    0    0  501 -0.00000000000E+00 -0.00000000000E+00 -0.31518183123E+03  0.31518183123E+03  0.00000000000E+00 0.  1.
         23    2    1    2    0    0 -0.27686967445E+01  0.36073311725E+02 -0.18097531679E+03  0.20566796762E+03  0.90765071013E+02 0.  0.
         23    2    1    2    0    0  0.63037625348E+02  0.24918400675E+02 -0.77820511906E+02  0.13587285538E+03  0.88378344943E+02 0.  0.
        -11    1    3    3    0    0 -0.28133153901E+02 -0.18341344269E+02 -0.38674175130E+02  0.51220807101E+02  0.00000000000E+00 0. -1.
         11    1    3    3    0    0  0.25364457157E+02  0.54414655994E+02 -0.14230114166E+03  0.15444716052E+03  0.00000000000E+00 0.  1.
        -11    1    4    4    0    0  0.13039511754E+02  0.50056335300E+02 -0.54811316040E+02  0.75365416051E+02  0.00000000000E+00 0.  1.
         11    1    4    4    0    0  0.49998113594E+02 -0.25137934625E+02 -0.23009195866E+02  0.60507439332E+02  0.00000000000E+00 0. -1.
         21    1    1    2  503  501 -0.15649289033E+02 -0.40865026792E+02  0.11342252000E+03  0.12157104386E+03  0.00000000000E+00 0.  1.
         -2    1    1    2    0  502 -0.44619639570E+02 -0.20126685609E+02  0.43817644407E+02  0.65696131320E+02  0.00000000000E+00 0.  1.
<scales pt_clust_5="13000.00000" pt_clust_6="13000.00000" pt_clust_7="13000.00000" pt_clust_8="13000.00000" pt_clust_9="43.75901" pt_clust_10="13000.00000"></scales>
<clustering>
<clus scale="   43.759">  1  9  2 -1</clus>
<clus scale="   88.378">  7  8 -1 -1</clus>
<clus scale="   68.919">  7 10 -1 -1</clus>
<clus scale="   90.765">  5  6 -1 -1</clus>
<clus scale="   95.976">  2  5  1 -1</clus>
<clus scale="   43.759">  1  5  2 -1</clus>
</clustering>
</event>
<event>
10    2  0.5692308E-006  0.5637193E+03  0.7546771E-02  0.1042330E+00
         21   -1    0    0  501  502  0.00000000000E+00  0.00000000000E+00  0.34443407643E+03  0.34443407643E+03  0.00000000000E+00 0.  1.
         -1   -1    0    0    0  501 -0.00000000000E+00 -0.00000000000E+00 -0.43236826553E+03  0.43236826553E+03  0.00000000000E+00 0.  1.
         23    2    1    2    0    0 -0.33902274836E+02  0.11433030127E+03 -0.42048061090E+02  0.15648567869E+03  0.92189729190E+02 0.  0.
         23    2    1    2    0    0 -0.45607146913E+02 -0.13585339964E+03 -0.29550290028E+03  0.34293624863E+03  0.98727648131E+02 0.  0.
        -13    1    4    4    0    0  0.23190534126E+02 -0.17825349979E+01 -0.42908480487E+02  0.48806925756E+02  0.00000000000E+00 0. -1.
         13    1    4    4    0    0 -0.68797681039E+02 -0.13407086464E+03 -0.25259441980E+03  0.29412932287E+03  0.00000000000E+00 0.  1.
        -13    1    3    3    0    0  0.32141366275E+02  0.37775063319E+02 -0.12480103854E+02  0.51144655898E+02  0.00000000000E+00 0. -1.
         13    1    3    3    0    0 -0.66043641111E+02  0.76555237948E+02 -0.29567957236E+02  0.10534102280E+03  0.00000000000E+00 0.  1.
         21    1    1    2  503  502 -0.13376686698E+02 -0.15883116327E+02  0.46233721883E+02  0.50682996858E+02  0.00000000000E+00 0.  1.
         -1    1    1    2    0  503  0.92886108447E+02  0.37406214700E+02  0.20338305039E+03  0.22669741778E+03  0.00000000000E+00 0.  1.
<scales pt_clust_5="13000.00000" pt_clust_6="13000.00000" pt_clust_7="13000.00000" pt_clust_8="13000.00000" pt_clust_9="20.76558" pt_clust_10="13000.00000"></scales>
<clustering>
<clus scale="   20.766">  1  9  2 -1</clus>
<clus scale="   92.190">  7  8 -1 -1</clus>
<clus scale="   98.728">  5  6 -1 -1</clus>
<clus scale="   87.097">  5 10 -1 -1</clus>
<clus scale="  149.027">  2  7  1 -1</clus>
<clus scale="   20.766">  1  5  2 -1</clus>
</clustering>
</event>
<event>
10    2  0.5692308E-006  0.2341959E+03  0.7546771E-02  0.1151295E+00
         21   -1    0    0  503  502  0.00000000000E+00  0.00000000000E+00  0.21786090396E+03  0.21786090396E+03  0.00000000000E+00 0.  1.
          2   -1    0    0  502    0 -0.00000000000E+00 -0.00000000000E+00 -0.31561147575E+03  0.31561147575E+03  0.00000000000E+00 0. -1.
         23    2    1    2    0    0  0.83862028385E+02  0.36206291652E+02 -0.49630050048E+02  0.13746515841E+03  0.89943274068E+02 0.  0.
         23    2    1    2    0    0 -0.40425257260E+02 -0.20033703136E+01 -0.20527949318E+03  0.22801001272E+03  0.90612806302E+02 0.  0.
        -11    1    3    3    0    0  0.86560337775E+02  0.59155270955E+02 -0.43867925804E+02  0.11365048646E+03  0.00000000000E+00 0.  1.
         11    1    3    3    0    0 -0.26983093902E+01 -0.22948979304E+02 -0.57621242446E+01  0.23814671958E+02  0.00000000000E+00 0. -1.
        -13    1    4    4    0    0 -0.61773017540E+01  0.42506201996E+02 -0.83256270868E+02  0.93683205026E+02  0.00000000000E+00 0.  1.
         13    1    4    4    0    0 -0.34247955506E+02 -0.44509572310E+02 -0.12202322231E+03  0.13432680770E+03  0.00000000000E+00 0. -1.
         21    1    1    2  503  501 -0.20577474696E+02 -0.24151767191E+02  0.11184078107E+03  0.11625446500E+03  0.00000000000E+00 0.  1.
          2    1    1    2  501    0 -0.22859296430E+02 -0.10051154147E+02  0.45318190377E+02  0.51742743568E+02  0.00000000000E+00 0. -1.
<scales pt_clust_5="13000.00000" pt_clust_6="13000.00000" pt_clust_7="13000.00000" pt_clust_8="13000.00000" pt_clust_9="31.72917" pt_clust_10="13000.00000"></scales>
<clustering>
<clus scale="   31.729">  1  9  2 -1</clus>
<clus scale="   89.943">  5  6 -1 -1</clus>
<clus scale="   90.613">  7  8 -1 -1</clus>
<clus scale="   38.863">  7 10 -1 -1</clus>
<clus scale="  120.057">  2  5  1 -1</clus>
<clus scale="   31.729">  1  5  2 -1</clus>
</clustering>
</event>
<event>
10    2  0.5692308E-006  0.2621285E+03  0.7546771E-02  0.1125133E+00
          1   -1    0    0  503    0 -0.00000000000E+00  0.00000000000E+00  0.70134331477E+03  0.70134331477E+03  0.00000000000E+00 0. -1.
         21   -1    0    0  501  502  0.00000000000E+00 -0.00000000000E+00 -0.18355662951E+03  0.18355662951E+03  0.00000000000E+00 0. -1.
         23    2    1    2    0    0 -0.13112136526E+03  0.25863140931E+02  0.52710118466E+03  0.55152096253E+03  0.92076048780E+02 0.  0.
         23    2    1    2    0    0 -0.61145981210E+01  0.12365646063E+02  0.78969961385E+02  0.12236408450E+03  0.92446832619E+02 0.  0.
        -13    1    3    3    0    0 -0.76366966390E+02  0.54865659675E+02  0.23901609846E+03  0.25684791120E+03  0.00000000000E+00 0.  1.
         13    1    3    3    0    0 -0.54754398868E+02 -0.29002518745E+02  0.28808508620E+03  0.29467305133E+03  0.00000000000E+00 0. -1.
        -13    1    4    4    0    0 -0.14767062266E+02  0.51382700840E+02  0.47017739194E+02  0.71196319234E+02  0.00000000000E+00 0.  1.
         13    1    4    4    0    0  0.86524641452E+01 -0.39017054776E+02  0.31952222191E+02  0.51167765264E+02  0.00000000000E+00 0. -1.
         21    1    1    2  503  502  0.19688374709E+02  0.33918727646E+02 -0.57658967001E+02  0.69732837741E+02  0.00000000000E+00 0.  1.
          1    1    1    2  501    0  0.11754758867E+03 -0.72147514640E+02 -0.30625493782E+02  0.14128205951E+03  0.00000000000E+00 0. -1.
<scales pt_clust_5="13000.00000" pt_clust_6="13000.00000" pt_clust_7="13000.00000" pt_clust_8="13000.00000" pt_clust_9="39.21877" pt_clust_10="13000.00000"></scales>
<clustering>
<clus scale="   39.219">  2  9  1 -1</clus>
<clus scale="   92.076">  5  6 -1 -1</clus>
<clus scale="   92.447">  7  8 -1 -1</clus>
<clus scale="  140.083">  7 10 -1 -1</clus>
<clus scale="  161.271">  1  5  2 -1</clus>
<clus scale="   39.219">  2  5  1 -1</clus>
</clustering>
</event>
<event>
10    2  0.5692308E-006  0.1712400E+03  0.7546771E-02  0.1188038E+00
          2   -1    0    0  502    0 -0.00000000000E+00  0.00000000000E+00  0.82133631490E+03  0.82133631490E+03  0.00000000000E+00 0. -1.
         21   -1    0    0  503  502  0.00000000000E+00 -0.00000000000E+00 -0.87034016812E+02  0.87034016812E+02  0.00000000000E+00 0. -1.
         23    2    1    2    0    0  0.64078461506E+02  0.72745385370E+02  0.67388503295E+03  0.68694112711E+03  0.91482971973E+02 0.  0.
         23    2    1    2    0    0 -0.27498579400E+02 -0.21662241450E+02  0.10173014518E+03  0.13289562868E+03  0.78017953770E+02 0.  0.
        -11    1    4    4    0    0  0.21516679307E+02  0.69505600350E+01  0.93382783806E+01  0.24463875741E+02  0.00000000000E+00 0. -1.
         11    1    4    4    0    0 -0.49015258706E+02 -0.28612801485E+02  0.92391866798E+02  0.10843175294E+03  0.00000000000E+00 0.  1.
        -11    1    3    3    0    0  0.60429746955E+01  0.74647378083E+02  0.35522605509E+03  0.36303484518E+03  0.00000000000E+00 0.  1.
         11    1    3    3    0    0  0.58035486811E+02 -0.19019927130E+01  0.31865897786E+03  0.32390628193E+03  0.00000000000E+00 0. -1.
         21    1    1    2  503  501  0.62533563906E+01 -0.19615861687E+02 -0.26113133156E+02  0.33253303883E+02  0.00000000000E+00 0. -1.
          2    1    1    2  501    0 -0.42833238497E+02 -0.31467282232E+02 -0.15199746884E+02  0.55280272038E+02  0.00000000000E+00 0. -1.
<scales pt_clust_5="13000.00000" pt_clust_6="13000.00000" pt_clust_7="13000.00000" pt_clust_8="13000.00000" pt_clust_9="20.58850" pt_clust_10="13000.00000"></scales>
<clustering>
<clus scale="   20.589">  2  9  1 -1</clus>
<clus scale="   78.018">  5  6 -1 -1</clus>
<clus scale="   58.432">  5 10 -1 -1</clus>
<clus scale="   91.483">  7  8 -1 -1</clus>
<clus scale="  132.435">  1  7  2 -1</clus>
<clus scale="   20.589">  2  5  1 -1</clus>
</clustering>
</event>
<event>
10    2  0.5692308E-006  0.1730257E+03  0.7546771E-02  0.1193795E+00
         -3   -1    0    0    0  501 -0.00000000000E+00  0.00000000000E+00  0.38634145948E+03  0.38634145948E+03  0.00000000000E+00 0.  1.
         21   -1    0    0  501  502  0.00000000000E+00 -0.00000000000E+00 -0.34597984739E+03  0.34597984739E+03  0.00000000000E+00 0.  1.
         23    2    1    2    0    0 -0.46374189740E+02 -0.77019282055E+02  0.23418488987E+03  0.26522632976E+03  0.86138888260E+02 0.  0.
         23    2    1    2    0    0  0.44165609372E+02  0.34970631443E+02  0.89157022618E+02  0.14020840540E+03  0.92389805433E+02 0.  0.
        -11    1    3    3    0    0 -0.71012874041E+02 -0.64522375604E+02  0.19441813494E+03  0.21680492713E+03  0.00000000000E+00 0.  1.
         11    1    3    3    0    0  0.24638684302E+02 -0.12496906450E+02  0.39766754931E+02  0.48421402631E+02  0.00000000000E+00 0. -1.
        -13    1    4    4    0    0 -0.27915318808E+02  0.11840414035E+01  0.30233553154E+02  0.41167155774E+02  0.00000000000E+00 0.  1.
         13    1    4    4    0    0  0.72080928180E+02  0.33786590039E+02  0.58923469464E+02  0.99041249625E+02  0.00000000000E+00 0. -1.
         21    1    1    2  503  502  0.39537525086E+02  0.55019234969E+02 -0.27906863877E+03  0.28717527270E+03  0.00000000000E+00 0.  1.
         -3    1    1    2    0  503 -0.37328944718E+02 -0.12970584357E+02 -0.39116616354E+01  0.39711299011E+02  0.00000000000E+00 0.  1.
<scales pt_clust_5="13000.00000" pt_clust_6="13000.00000" pt_clust_7="13000.00000" pt_clust_8="13000.00000" pt_clust_9="67.75199" pt_clust_10="13000.00000"></scales>
<clustering>
<clus scale="   67.752">  2  9  1 -1</clus>
<clus scale="   86.139">  5  6 -1 -1</clus>
<clus scale="   92.390">  7  8 -1 -1</clus>
<clus scale="   24.390">  7 10 -1 -1</clus>
<clus scale="  113.067">  1  5  2 -1</clus>
<clus scale="   67.752">  2  5  1 -1</clus>
</clustering>
</event>
<event>
10    2  0.5692308E-006  0.2916062E+03  0.7546771E-02  0.1134722E+00
         21   -1    0    0  501  502  0.00000000000E+00  0.00000000000E+00  0.70135883207E+03  0.70135883207E+03  0.00000000000E+00 0.  1.
          2   -1    0    0  503    0 -0.00000000000E+00 -0.00000000000E+00 -0.95952678315E+03  0.95952678315E+03  0.00000000000E+00 0. -1.
         23    2    1    2    0    0  0.18645680576E+02  0.11964455594E+02 -0.32572276455E+03  0.33861852834E+03  0.89868675234E+02 0.  0.
         23    2    1    2    0    0  0.19104457467E+03  0.67095990446E+02 -0.45207095516E+03  0.50310491602E+03  0.88014240753E+02 0.  0.
        -13    1    3    3    0    0  0.27482603364E+02  0.47105556740E+02 -0.22690049626E+03  0.23336251234E+03  0.00000000000E+00 0.  1.
         13    1    3    3    0    0 -0.88369227880E+01 -0.35141101146E+02 -0.98822268285E+02  0.10525601599E+03  0.00000000000E+00 0. -1.
        -13    1    4    4    0    0  0.15290690043E+03  0.78796748719E+02 -0.41243734324E+03  0.44687135723E+03  0.00000000000E+00 0. -1.
         13    1    4    4    0    0  0.38137674243E+02 -0.11700758272E+02 -0.39633611922E+02  0.56233558795E+02  0.00000000000E+00 0.  1.
         21    1    1    2  503  502 -0.20908203504E+03 -0.21700833562E+02  0.64655794292E+03  0.67987013253E+03  0.00000000000E+00 0.  1.
          2    1    1    2  501    0 -0.60822020942E+00 -0.57359612479E+02 -0.12693217429E+03  0.13929203834E+03  0.00000000000E+00 0. -1.
<scales pt_clust_5="13000.00000" pt_clust_6="13000.00000" pt_clust_7="13000.00000" pt_clust_8="13000.00000" pt_clust_9="209.68018" pt_clust_10="13000.00000"></scales>
<clustering>
<clus scale="   88.014">  7  8 -1 -1</clus>
<clus scale="   57.363">  7 10 -1 -1</clus>
<clus scale="   89.869">  5  6 -1 -1</clus>
<clus scale="   92.559">  2  5  1 -1</clus>
<clus scale="  209.680">  1  9  2 -1</clus>
<clus scale="  209.680">  1  5  2 -1</clus>
</clustering>
</event>
<event>
10    2  0.5692308E-006  0.2362369E+03  0.7546771E-02  0.1154253E+00
         21   -1    0    0  503  502  0.00000000000E+00  0.00000000000E+00  0.57815307661E+02  0.57815307661E+02  0.00000000000E+00 0.  1.
          1   -1    0    0  502    0 -0.00000000000E+00 -0.00000000000E+00 -0.11508649549E+04  0.11508649549E+04  0.00000000000E+00 0. -1.
         23    2    1    2    0    0  0.60137327857E+02 -0.31860779432E+02 -0.50426073455E+02  0.12803502269E+03  0.96013388042E+02 0.  0.
         23    2    1    2    0    0  0.55980699671E+02 -0.16199133099E+02 -0.40505412411E+03  0.42313395399E+03  0.10759762506E+03 0.  0.
        -13    1    4    4    0    0  0.13365207105E+01 -0.55205823566E+02 -0.18067396885E+03  0.18892472645E+03  0.00000000000E+00 0.  1.
         13    1    4    4    0    0  0.54644178961E+02  0.39006690467E+02 -0.22438015525E+03  0.23420922754E+03  0.00000000000E+00 0. -1.
        -13    1    3    3    0    0 -0.15762066712E+02 -0.22299246291E+02  0.11482656470E+02  0.29623479400E+02  0.00000000000E+00 0.  1.
         13    1    3    3    0    0  0.75899394569E+02 -0.95615331412E+01 -0.61908729924E+02  0.98411543290E+02  0.00000000000E+00 0. -1.
         21    1    1    2  503  501 -0.22233363649E+02  0.52107528560E+01 -0.17127901209E+02  0.28545391997E+02  0.00000000000E+00 0. -1.
          1    1    1    2  501    0 -0.93884663879E+02  0.42849159675E+02 -0.62044154846E+03  0.62896589387E+03  0.00000000000E+00 0. -1.
<scales pt_clust_5="13000.00000" pt_clust_6="13000.00000" pt_clust_7="13000.00000" pt_clust_8="13000.00000" pt_clust_9="22.83581" pt_clust_10="13000.00000"></scales>
<clustering>
<clus scale="   22.836">  1  9  2 -1</clus>
<clus scale="   96.013">  7  8 -1 -1</clus>
<clus scale="  107.598">  5  6 -1 -1</clus>
<clus scale="  105.033">  5 10 -1 -1</clus>
<clus scale="  109.090">  2  7  1 -1</clus>
<clus scale="   22.836">  1  5  2 -1</clus>
</clustering>
</event>
<event>
10    2  0.5692308E-006  0.2569391E+03  0.7546771E-02  0.1118940E+00
         21   -1    0    0  503  502  0.00000000000E+00  0.00000000000E+00  0.13965553778E+03  0.13965553778E+03  0.00000000000E+00 0. -1.
          1   -1    0    0  502    0 -0.00000000000E+00 -0.00000000000E+00 -0.76109625460E+03  0.76109625460E+03  0.00000000000E+00 0. -1.
         23    2    1    2    0    0 -0.12441566482E+03 -0.15573089291E+03 -0.17191968750E+03  0.27816650924E+03  0.89938085685E+02 0.  0.
         23    2    1    2    0    0  0.57977452481E+02  0.12254842552E+03 -0.49755446158E+03  0.52335361692E+03  0.89213589316E+02 0.  0.
        -11    1    4    4    0    0  0.33676690235E+02  0.13177875074E+03 -0.42848843055E+03  0.44955766452E+03  0.00000000000E+00 0. -1.
         11    1    4    4    0    0  0.24300762245E+02 -0.92303252254E+01 -0.69066031029E+02  0.73795952407E+02  0.00000000000E+00 0.  1.
        -11    1    3    3    0    0 -0.28056592457E+02 -0.13640401165E+02  0.50514460839E+01  0.31603006689E+02  0.00000000000E+00 0.  1.
         11    1    3    3    0    0 -0.96359072360E+02 -0.14209049175E+03 -0.17697113358E+03  0.24656350255E+03  0.00000000000E+00 0. -1.
         21    1    1    2  503  501  0.39430455584E+02  0.11364868084E+02  0.49725404287E+02  0.64471209742E+02  0.00000000000E+00 0. -1.
          1    1    1    2  501    0  0.27007756753E+02  0.21817599311E+02 -0.16919720386E+01  0.34760456468E+02  0.00000000000E+00 0. -1.
<scales pt_clust_5="13000.00000" pt_clust_6="13000.00000" pt_clust_7="13000.00000" pt_clust_8="13000.00000" pt_clust_9="41.03561" pt_clust_10="13000.00000"></scales>
<clustering>
<clus scale="   41.036">  1  9  2 -1</clus>
<clus scale="   89.214">  5  6 -1 -1</clus>
<clus scale="   42.413">  5 10 -1 -1</clus>
<clus scale="   89.938">  7  8 -1 -1</clus>
<clus scale="  199.816">  2  7  1 -1</clus>
<clus scale="   41.036">  1  5  2 -1</clus>
</clustering>
</event>
<event>
10    2  0.5692308E-006  0.2601315E+03  0.7546771E-02  0.1146514E+00
         21   -1    0    0  503  502  0.00000000000E+00  0.00000000000E+00  0.18774238289E+03  0.18774238289E+03  0.00000000000E+00 0. -1.
          2   -1    0    0  502    0 -0.00000000000E+00 -0.00000000000E+00 -0.48535504424E+03  0.48535504424E+03  0.00000000000E+00 0. -1.
         23    2    1    2    0    0  0.11748672400E+02  0.33460612396E+02 -0.81846650710E+02  0.12778840181E+03  0.91506051818E+02 0.  0.
         23    2    1    2    0    0  0.23345426590E+02  0.27748321180E+01 -0.15639718337E+03  0.18292304001E+03  0.91913279583E+02 0.  0.
        -13    1    4    4    0    0  0.33344394531E+02  0.23156408726E+02 -0.21134166265E+02  0.45768120952E+02  0.00000000000E+00 0. -1.
         13    1    4    4    0    0 -0.99989679411E+01 -0.20381576608E+02 -0.13526301710E+03  0.13715491906E+03  0.00000000000E+00 0.  1.
        -13    1    3    3    0    0 -0.15524942676E+02 -0.26723135380E+02 -0.35562868685E+02  0.47115469209E+02  0.00000000000E+00 0. -1.
         13    1    3    3    0    0  0.27273615076E+02  0.60183747777E+02 -0.46283782026E+02  0.80672932601E+02  0.00000000000E+00 0.  1.
         21    1    1    2  503  501 -0.17887089262E+03 -0.46634383701E+02  0.37624315005E+02  0.18864026890E+03  0.00000000000E+00 0. -1.
          2    1    1    2  501    0  0.14377679363E+03  0.10398939187E+02 -0.96993142280E+02  0.17374571642E+03  0.00000000000E+00 0. -1.
<scales pt_clust_5="13000.00000" pt_clust_6="13000.00000" pt_clust_7="13000.00000" pt_clust_8="13000.00000" pt_clust_9="181.01340" pt_clust_10="13000.00000"></scales>
<clustering>
<clus scale="   91.506">  7  8 -1 -1</clus>
<clus scale="   91.913">  5  6 -1 -1</clus>
<clus scale="   98.138">  2  7  1 -1</clus>
<clus scale="  149.628">  5 10 -1 -1</clus>
<clus scale="  181.013">  1  9  2 -1</clus>
<clus scale="  181.013">  1  5  2 -1</clus>
</clustering>
</event>
<event>
10    2  0.5692308E-006  0.2936163E+03  0.7546771E-02  0.1122858E+00
         21   -1    0    0  503  502  0.00000000000E+00  0.00000000000E+00  0.96550352515E+02  0.96550352515E+02  0.00000000000E+00 0.  1.
         -2   -1    0    0    0  501 -0.00000000000E+00 -0.00000000000E+00 -0.51370560321E+03  0.51370560321E+03  0.00000000000E+00 0.  1.
         23    2    1    2    0    0  0.40562339356E+02  0.59639924368E+02 -0.13299402215E+03  0.17756159388E+03  0.92943454539E+02 0.  0.
         23    2    1    2    0    0  0.43896702047E+02 -0.15863824964E+02 -0.25552715021E+03  0.27508891016E+03  0.90560491429E+02 0.  0.
        -13    1    3    3    0    0  0.70491141398E+02  0.34493289786E+02 -0.85702027816E+02  0.11620510156E+03  0.00000000000E+00 0.  1.
         13    1    3    3    0    0 -0.29928802042E+02  0.25146634582E+02 -0.47291994330E+02  0.61356492323E+02  0.00000000000E+00 0. -1.
        -13    1    4    4    0    0  0.66336235156E+02 -0.31197491223E+02 -0.16457748592E+03  0.18016528086E+03  0.00000000000E+00 0.  1.
         13    1    4    4    0    0 -0.22439533109E+02  0.15333666259E+02 -0.90949664287E+02  0.94923629308E+02  0.00000000000E+00 0. -1.
         21    1    1    2  503  501  0.23847353161E+02  0.12882725191E+02 -0.22489360662E+02  0.35219770075E+02  0.00000000000E+00 0.  1.
         -2    1    1    2    0  502 -0.10830639456E+03 -0.56658824596E+02 -0.61447176818E+01  0.12238568161E+03  0.00000000000E+00 0.  1.
<scales pt_clust_5="13000.00000" pt_clust_6="13000.00000" pt_clust_7="13000.00000" pt_clust_8="13000.00000" pt_clust_9="27.10463" pt_clust_10="13000.00000"></scales>
<clustering>
<clus scale="   27.105">  1  9  2 -1</clus>
<clus scale="   90.560">  7  8 -1 -1</clus>
<clus scale="   92.943">  5  6 -1 -1</clus>
<clus scale="  104.765">  7 10 -1 -1</clus>
<clus scale="  121.422">  2  5  1 -1</clus>
<clus scale="   27.105">  1  5  2 -1</clus>
</clustering>
</event>
<event>
10    2  0.5692308E-006  0.4054322E+03  0.7546771E-02  0.1057022E+00
          1   -1    0    0  502    0 -0.00000000000E+00  0.00000000000E+00  0.23535285848E+04  0.23535285848E+04  0.00000000000E+00 0. -1.
         21   -1    0    0  503  502  0.00000000000E+00 -0.00000000000E+00 -0.59239778027E+02  0.59239778027E+02  0.00000000000E+00 0.  1.
         23    2    1    2    0    0 -0.22114324975E+03  0.12719830832E+03  0.10282690668E+04  0.10632289466E+04  0.89636892575E+02 0.  0.
         23    2    1    2    0    0  0.18511835596E+03 -0.22798987796E+03  0.95412112811E+03  0.10024392507E+04  0.91044681535E+02 0.  0.
        -11    1    4    4    0    0  0.88025006960E+02 -0.14854424362E+03  0.66928741844E+03  0.69120144868E+03  0.00000000000E+00 0.  1.
         11    1    4    4    0    0  0.97093349003E+02 -0.79445634338E+02  0.28483370967E+03  0.31123780201E+03  0.00000000000E+00 0. -1.
        -13    1    3    3    0    0 -0.12792963469E+03  0.22445957733E+02  0.51951317371E+03  0.53550326807E+03  0.00000000000E+00 0. -1.
         13    1    3    3    0    0 -0.93213615052E+02  0.10475235058E+03  0.50875589309E+03  0.52772567849E+03  0.00000000000E+00 0.  1.
         21    1    1    2  503  501  0.30509994695E+02  0.10580339607E+02  0.12957021310E+02  0.34794938766E+02  0.00000000000E+00 0.  1.
          1    1    1    2  501    0  0.55148990878E+01  0.90211230038E+02  0.29894159052E+03  0.31230522679E+03  0.00000000000E+00 0. -1.
<scales pt_clust_5="13000.00000" pt_clust_6="13000.00000" pt_clust_7="13000.00000" pt_clust_8="13000.00000" pt_clust_9="32.29247" pt_clust_10="13000.00000"></scales>
<clustering>
<clus scale="   32.292">  2  9  1 -1</clus>
<clus scale="   89.637">  7  8 -1 -1</clus>
<clus scale="   91.045">  5  6 -1 -1</clus>
<clus scale="   92.190">  5 10 -1 -1</clus>
<clus scale="  263.339">  1  7  2 -1</clus>
<clus scale="   32.292">  2  5  1 -1</clus>
</clustering>
</event>
<event>
10    2  0.5692308E-006  0.1649216E+03  0.7546771E-02  0.1207050E+00
         -2   -1    0    0    0  501 -0.00000000000E+00  0.00000000000E+00  0.23695522965E+03  0.23695522965E+03  0.00000000000E+00 0.  1.
         21   -1    0    0  501  502  0.00000000000E+00 -0.00000000000E+00 -0.20639693160E+03  0.20639693160E+03  0.00000000000E+00 0.  1.
         23    2    1    2    0    0  0.65497991230E+01  0.38627206398E+02  0.12965234737E+03  0.16341683543E+03  0.91435058813E+02 0.  0.
         23    2    1    2    0    0  0.16775483352E+02  0.66822223501E+01  0.57428287708E+02  0.11067593961E+03  0.92871343488E+02 0.  0.
        -11    1    3    3    0    0  0.25589079119E+02  0.16524749464E+02  0.13072299547E+03  0.13422507165E+03  0.00000000000E+00 0. -1.
         11    1    3    3    0    0 -0.19039279996E+02  0.22102456934E+02 -0.10706480953E+01  0.29191763781E+02  0.00000000000E+00 0.  1.
        -13    1    4    4    0    0  0.31130057992E+02 -0.29951495126E+02  0.27151419832E+01  0.43284461032E+02  0.00000000000E+00 0.  1.
         13    1    4    4    0    0 -0.14354574640E+02  0.36633717476E+02  0.54713145724E+02  0.67391478573E+02  0.00000000000E+00 0. -1.
         21    1    1    2  503  502 -0.19871205098E+01 -0.22072050257E+02 -0.11497676365E+03  0.11709304092E+03  0.00000000000E+00 0.  1.
         -2    1    1    2    0  503 -0.21338161965E+02 -0.23237378491E+02 -0.41545573376E+02  0.52166345304E+02  0.00000000000E+00 0.  1.
<scales pt_clust_5="13000.00000" pt_clust_6="13000.00000" pt_clust_7="13000.00000" pt_clust_8="13000.00000" pt_clust_9="22.16132" pt_clust_10="13000.00000"></scales>
<clustering>
<clus scale="   22.161">  2  9  1 -1</clus>
<clus scale="   91.435">  5  6 -1 -1</clus>
<clus scale="   92.871">  7  8 -1 -1</clus>
<clus scale="   41.270">  7 10 -1 -1</clus>
<clus scale="   97.924">  1  5  2 -1</clus>
<clus scale="   22.161">  2  5  1 -1</clus>
</clustering>
</event>
<event>
10    2  0.5692308E-006  0.1336479E+03  0.7546771E-02  0.1232430E+00
          2   -1    0    0  503    0 -0.00000000000E+00  0.00000000000E+00  0.35465434517E+03  0.35465434517E+03  0.00000000000E+00 0. -1.
         21   -1    0    0  501  502  0.00000000000E+00 -0.00000000000E+00 -0.92123279572E+02  0.92123279572E+02  0.00000000000E+00 0. -1.
         23    2    1    2    0    0 -0.63091604758E+02 -0.13745639287E+02  0.67231049027E+02  0.13052254464E+03  0.91359879130E+02 0.  0.
         23    2    1    2    0    0  0.43770193732E+02 -0.17293597302E+02  0.20034728338E+03  0.22445006146E+03  0.89576212048E+02 0.  0.
        -11    1    3    3    0    0 -0.39842448468E+02 -0.21090327612E+02 -0.12798164853E+02  0.46861664955E+02  0.00000000000E+00 0. -1.
         11    1    3    3    0    0 -0.23249156289E+02  0.73446883252E+01  0.80029213880E+02  0.83660879681E+02  0.00000000000E+00 0.  1.
        -11    1    4    4    0    0  0.70317771294E+01  0.30499985674E+02  0.11992865514E+03  0.12394586456E+03  0.00000000000E+00 0.  1.
         11    1    4    4    0    0  0.36738416602E+02 -0.47793582976E+02  0.80418628235E+02  0.10050419690E+03  0.00000000000E+00 0. -1.
         21    1    1    2  503  502  0.15691711277E+02  0.57009452465E+02 -0.18992474131E+02  0.62104923692E+02  0.00000000000E+00 0. -1.
          2    1    1    2  501    0  0.36296997493E+01 -0.25970215876E+02  0.13945207317E+02  0.29700094950E+02  0.00000000000E+00 0. -1.
<scales pt_clust_5="13000.00000" pt_clust_6="13000.00000" pt_clust_7="13000.00000" pt_clust_8="13000.00000" pt_clust_9="59.12958" pt_clust_10="13000.00000"></scales>
<clustering>
<clus scale="   59.130">  2  9  1 -1</clus>
<clus scale="   89.576">  7  8 -1 -1</clus>
<clus scale="   18.284">  7 10 -1 -1</clus>
<clus scale="   91.360">  5  6 -1 -1</clus>
<clus scale="  107.962">  1  5  2 -1</clus>
<clus scale="   59.130">  2  5  1 -1</clus>
</clustering>
</event>
<event>
10    2  0.5692308E-006  0.1481215E+03  0.7546771E-02  0.1210036E+00
         21   -1    0    0  501  502  0.00000000000E+00  0.00000000000E+00  0.26234898762E+03  0.26234898762E+03  0.00000000000E+00 0. -1.
         -3   -1    0    0    0  501 -0.00000000000E+00 -0.00000000000E+00 -0.19882503609E+03  0.19882503609E+03  0.00000000000E+00 0.  1.
         23    2    1    2    0    0 -0.53881006955E+02 -0.74563605500E+02 -0.11917578418E+03  0.17396544044E+03  0.87167727725E+02 0.  0.
         23    2    1    2    0    0  0.23372662851E+02  0.49150116308E+02  0.24121450727E+02  0.10829940183E+03  0.90470441303E+02 0.  0.
        -11    1    3    3    0    0 -0.47377231567E+02 -0.35319953637E+02 -0.12045096438E+03  0.13416607625E+03  0.00000000000E+00 0.  1.
         11    1    3    3    0    0 -0.65037753882E+01 -0.39243651863E+02  0.12751801936E+01  0.39799364196E+02  0.00000000000E+00 0. -1.
        -13    1    4    4    0    0  0.40528286341E+02  0.23659062509E+02  0.49674338448E+02  0.68336177335E+02  0.00000000000E+00 0. -1.
         13    1    4    4    0    0 -0.17155623490E+02  0.25491053799E+02 -0.25552887721E+02  0.39963224494E+02  0.00000000000E+00 0.  1.
         21    1    1    2  503  502  0.16248102577E+02 -0.11739268662E+02  0.12570154567E+03  0.12728978690E+03  0.00000000000E+00 0. -1.
         -3    1    1    2    0  503  0.14260241526E+02  0.37152757853E+02  0.32876739322E+02  0.51619394543E+02  0.00000000000E+00 0.  1.
<scales pt_clust_5="13000.00000" pt_clust_6="13000.00000" pt_clust_7="13000.00000" pt_clust_8="13000.00000" pt_clust_9="20.04523" pt_clust_10="13000.00000"></scales>
<clustering>
<clus scale="   20.045">  1  9  2 -1</clus>
<clus scale="   87.168">  5  6 -1 -1</clus>
<clus scale="   90.470">  7  8 -1 -1</clus>
<clus scale="   38.670">  7 10 -1 -1</clus>
<clus scale="  126.797">  2  5  1 -1</clus>
<clus scale="   20.045">  1  5  2 -1</clus>
</clustering>
</event>
<event>
10    2  0.5692308E-006  0.3173034E+03  0.7546771E-02  0.1104154E+00
          1   -1    0    0  503    0 -0.00000000000E+00  0.00000000000E+00  0.10125039201E+04  0.10125039201E+04  0.00000000000E+00 0. -1.
         21   -1    0    0  501  502  0.00000000000E+00 -0.00000000000E+00 -0.10731403957E+03  0.10731403957E+03  0.00000000000E+00 0. -1.
         23    2    1    2    0    0  0.11712398805E+03 -0.22112806614E+02  0.58045387052E+03  0.59969023707E+03  0.92166587453E+02 0.  0.
         23    2    1    2    0    0  0.60603582944E+02  0.42534505104E+02  0.97650388513E+02  0.15261267127E+03  0.90956311858E+02 0.  0.
        -11    1    4    4    0    0  0.70742828850E+02  0.53316352622E+01  0.87676923797E+02  0.11278394006E+03  0.00000000000E+00 0. -1.
         11    1    4    4    0    0 -0.10139245906E+02  0.37202869841E+02  0.99734647161E+01  0.39828731218E+02  0.00000000000E+00 0.  1.
        -13    1    3    3    0    0  0.80328720156E+02 -0.57531560485E+02  0.41082372451E+03  0.42253841997E+03  0.00000000000E+00 0. -1.
         13    1    3    3    0    0  0.36795267891E+02  0.35418753872E+02  0.16963014601E+03  0.17715181710E+03  0.00000000000E+00 0.  1.
         21    1    1    2  503  502  0.41083163017E+02 -0.42491899277E+02  0.92218421224E+02  0.10953367063E+03  0.00000000000E+00 0.  1.
          1    1    1    2  501    0 -0.21881073401E+03  0.22070200787E+02  0.13486720030E+03  0.25798138072E+03  0.00000000000E+00 0. -1.
<scales pt_clust_5="13000.00000" pt_clust_6="13000.00000" pt_clust_7="13000.00000" pt_clust_8="13000.00000" pt_clust_9="59.10492" pt_clust_10="13000.00000"></scales>
<clustering>
<clus scale="   59.105">  2  9  1 -1</clus>
<clus scale="   90.956">  5  6 -1 -1</clus>
<clus scale="   92.167">  7  8 -1 -1</clus>
<clus scale="  154.455">  1  7  2 -1</clus>
<clus scale="  131.886">  5 10 -1 -1</clus>
<clus scale="   59.105">  2  5  1 -1</clus>
</clustering>
</event>
<event>
10    2  0.5692308E-006  0.5470563E+03  0.7546771E-02  0.1062753E+00
          1   -1    0    0  502    0 -0.00000000000E+00  0.00000000000E+00  0.12659200705E+04  0.12659200705E+04  0.00000000000E+00 0. -1.
         21   -1    0    0  503  502  0.00000000000E+00 -0.00000000000E+00 -0.30983029340E+03  0.30983029340E+03  0.00000000000E+00 0. -1.
         23    2    1    2    0    0  0.54191955756E+01 -0.66696470626E+01  0.30461821919E+03  0.31800839959E+03  0.90902315017E+02 0.  0.
         23    2    1    2    0    0 -0.25136429842E+03 -0.23695543201E+03  0.52383445773E+03  0.63398389463E+03  0.90560213471E+02 0.  0.
        -11    1    3    3    0    0  0.33900822284E+02 -0.30020121503E+02  0.95746188095E+02  0.10591414439E+03  0.00000000000E+00 0.  1.
         11    1    3    3    0    0 -0.28481626709E+02  0.23350474441E+02  0.20887203110E+03  0.21209425521E+03  0.00000000000E+00 0. -1.
        -11    1    4    4    0    0 -0.12435489133E+03 -0.62974729143E+02  0.24176022386E+03  0.27906623112E+03  0.00000000000E+00 0.  1.
         11    1    4    4    0    0 -0.12700940709E+03 -0.17398070287E+03  0.28207423387E+03  0.35491766351E+03  0.00000000000E+00 0. -1.
         21    1    1    2  503  501  0.28612338325E+03  0.56765811376E+02 -0.11615452462E+03  0.31397582928E+03  0.00000000000E+00 0. -1.
          1    1    1    2  501    0 -0.40178280403E+02  0.18685926770E+03  0.24379162478E+03  0.30978224038E+03  0.00000000000E+00 0. -1.
<scales pt_clust_5="13000.00000" pt_clust_6="13000.00000" pt_clust_7="13000.00000" pt_clust_8="13000.00000" pt_clust_9="292.11745" pt_clust_10="13000.00000"></scales>
<clustering>
<clus scale="   90.560">  7  8 -1 -1</clus>
<clus scale="   90.902">  5  6 -1 -1</clus>
<clus scale="   91.308">  1  5  2 -1</clus>
<clus scale="  188.913">  7 10 -1 -1</clus>
<clus scale="  292.117">  2  9  1 -1</clus>
<clus scale="  292.117">  2  5  1 -1</clus>
</clustering>
</event>
<event>
10    2  0.5692308E-006  0.2115275E+03  0.7546771E-02  0.1173051E+00
          3   -1    0    0  502    0 -0.00000000000E+00  0.00000000000E+00  0.33062277907E+03  0.33062277907E+03  0.00000000000E+00 0. -1.
         21   -1    0    0  503  502  0.00000000000E+00 -0.00000000000E+00 -0.11805320245E+03  0.11805320245E+03  0.00000000000E+00 0. -1.
         23    2    1    2    0    0  0.26242195677E+02  0.92877649108E+01  0.14600488743E+03  0.17544257684E+03  0.93208128434E+02 0.  0.
         23    2    1    2    0    0  0.29327780914E+02 -0.61058405717E+02  0.39578024817E+02  0.12158647120E+03  0.92890270145E+02 0.  0.
        -13    1    4    4    0    0  0.27603024256E+01 -0.25364509269E+02  0.65358191962E+02  0.70161747815E+02  0.00000000000E+00 0.  1.
         13    1    4    4    0    0  0.26567478488E+02 -0.35693896449E+02 -0.25780167144E+02  0.51424723382E+02  0.00000000000E+00 0. -1.
        -13    1    3    3    0    0  0.91958079513E+01  0.50247486316E+02  0.94838353370E+02  0.10772040677E+03  0.00000000000E+00 0.  1.
         13    1    3    3    0    0  0.17046387726E+02 -0.40959721405E+02  0.51166534056E+02  0.67722170073E+02  0.00000000000E+00 0. -1.
         21    1    1    2  503  501  0.24136926560E+02 -0.72498667631E+01 -0.28464708545E+02  0.38018303808E+02  0.00000000000E+00 0. -1.
          3    1    1    2  501    0 -0.79706903151E+02  0.59020507569E+02  0.55451372922E+02  0.11362862968E+03  0.00000000000E+00 0. -1.
<scales pt_clust_5="13000.00000" pt_clust_6="13000.00000" pt_clust_7="13000.00000" pt_clust_8="13000.00000" pt_clust_9="25.20222" pt_clust_10="13000.00000"></scales>
<clustering>
<clus scale="   25.202">  2  9  1 -1</clus>
<clus scale="   92.890">  5  6 -1 -1</clus>
<clus scale="   91.094">  5 10 -1 -1</clus>
<clus scale="   93.208">  7  8 -1 -1</clus>
<clus scale="   98.378">  1  7  2 -1</clus>
<clus scale="   25.202">  2  5  1 -1</clus>
</clustering>
</event>
<event>
10    2  0.5692308E-006  0.3423213E+03  0.7546771E-02  0.1104115E+00
         -1   -1    0    0    0  501 -0.00000000000E+00  0.00000000000E+00  0.59950828472E+03  0.59950828472E+03  0.00000000000E+00 0.  1.
         21   -1    0    0  503  502  0.00000000000E+00 -0.00000000000E+00 -0.20258832642E+03  0.20258832642E+03  0.00000000000E+00 0. -1.
         23    2    1    2    0    0  0.15277259756E+02  0.85988770015E+02  0.17638953826E+03  0.21694560113E+03  0.91239582466E+02 0.  0.
         23    2    1    2    0    0  0.58814036357E+02  0.37689622236E+02 -0.21575401864E+01  0.11625999835E+03  0.92909276928E+02 0.  0.
        -11    1    3    3    0    0 -0.34901164014E+02  0.48939246452E+02  0.11312648356E+03  0.12810441981E+03  0.00000000000E+00 0.  1.
         11    1    3    3    0    0  0.50178423770E+02  0.37049523564E+02  0.63263054701E+02  0.88841181320E+02  0.00000000000E+00 0. -1.
        -13    1    4    4    0    0  0.38632282499E+02 -0.61538740800E+01  0.37199113928E+02  0.53982381332E+02  0.00000000000E+00 0.  1.
         13    1    4    4    0    0  0.20181753858E+02  0.43843496316E+02 -0.39356654115E+02  0.62277617015E+02  0.00000000000E+00 0. -1.
         21    1    1    2  503  501  0.89187865458E+01 -0.23211841604E+02 -0.10937697093E+03  0.11216798167E+03  0.00000000000E+00 0. -1.
         -1    1    1    2    0  502 -0.83010082659E+02 -0.10046655065E+03  0.33206493115E+03  0.35672302998E+03  0.00000000000E+00 0.  1.
<scales pt_clust_5="13000.00000" pt_clust_6="13000.00000" pt_clust_7="13000.00000" pt_clust_8="13000.00000" pt_clust_9="24.86633" pt_clust_10="13000.00000"></scales>
<clustering>
<clus scale="   24.866">  2  9  1 -1</clus>
<clus scale="   91.240">  5  6 -1 -1</clus>
<clus scale="   92.909">  7  8 -1 -1</clus>
<clus scale="  123.129">  1  5  2 -1</clus>
<clus scale="   75.224">  7 10 -1 -1</clus>
<clus scale="   24.866">  2  5  1 -1</clus>
</clustering>
</event>
<event>
10    2  0.5692308E-006  0.1561809E+03  0.7546771E-02  0.1209593E+00
         -1   -1    0    0    0  501 -0.00000000000E+00  0.00000000000E+00  0.34532471134E+03  0.34532471134E+03  0.00000000000E+00 0.  1.
         21   -1    0    0  503  502  0.00000000000E+00 -0.00000000000E+00 -0.12678139886E+03  0.12678139886E+03  0.00000000000E+00 0. -1.
         23    2    1    2    0    0  0.82319142311E+01  0.33476149399E+02  0.70382447197E+02  0.12035216211E+03  0.91337489893E+02 0.  0.
         23    2    1    2    0    0  0.26020496007E+02 -0.55550019125E+02  0.18751377577E+03  0.21605405788E+03  0.88062869506E+02 0.  0.
        -11    1    4    4    0    0  0.36567611005E+02 -0.75786822060E+02  0.15434678128E+03  0.17579465710E+03  0.00000000000E+00 0. -1.
         11    1    4    4    0    0 -0.10547114998E+02  0.20236802935E+02  0.33166994489E+02  0.40259400781E+02  0.00000000000E+00 0.  1.
        -11    1    3    3    0    0 -0.17336073349E+02  0.47084522184E+02  0.69937135978E+01  0.50659685138E+02  0.00000000000E+00 0.  1.
         11    1    3    3    0    0  0.25567987580E+02 -0.13608372785E+02  0.63388733600E+02  0.69692476969E+02  0.00000000000E+00 0. -1.
         21    1    1    2  503  501 -0.54522778302E+00  0.57395165707E+02 -0.59690321283E+02  0.82809641799E+02  0.00000000000E+00 0. -1.
         -1    1    1    2    0  502 -0.33707182455E+02 -0.35321295981E+02  0.20337410801E+02  0.52890248411E+02  0.00000000000E+00 0.  1.
<scales pt_clust_5="13000.00000" pt_clust_6="13000.00000" pt_clust_7="13000.00000" pt_clust_8="13000.00000" pt_clust_9="57.39776" pt_clust_10="13000.00000"></scales>
<clustering>
<clus scale="   57.398">  2  9  1 -1</clus>
<clus scale="   88.063">  5  6 -1 -1</clus>
<clus scale="   38.590">  5 10 -1 -1</clus>
<clus scale="   91.337">  7  8 -1 -1</clus>
<clus scale="  109.191">  1  7  2 -1</clus>
<clus scale="   57.398">  2  5  1 -1</clus>
</clustering>
</event>
<event>
10    2  0.5692308E-006  0.1976392E+03  0.7546771E-02  0.1175013E+00
          1   -1    0    0  502    0 -0.00000000000E+00  0.00000000000E+00  0.72606980088E+03  0.72606980088E+03  0.00000000000E+00 0. -1.
         21   -1    0    0  503  502  0.00000000000E+00 -0.00000000000E+00 -0.58226022457E+02  0.58226022457E+02  0.00000000000E+00 0.  1.
         23    2    1    2    0    0 -0.85366211731E+00 -0.70360016237E+02  0.36947766870E+03  0.38691826077E+03  0.90778478866E+02 0.  0.
         23    2    1    2    0    0  0.36469895544E+02  0.65208636304E+01  0.21683146154E+03  0.23810912691E+03  0.91145480758E+02 0.  0.
        -11    1    4    4    0    0 -0.20614296857E+02 -0.16921161684E+02  0.12261536964E+03  0.12548228488E+03  0.00000000000E+00 0. -1.
         11    1    4    4    0    0  0.57084192400E+02  0.23442025315E+02  0.94216091900E+02  0.11262684203E+03  0.00000000000E+00 0.  1.
        -11    1    3    3    0    0 -0.96725950521E+01 -0.91381066575E+02  0.28733500988E+03  0.30167112279E+03  0.00000000000E+00 0. -1.
         11    1    3    3    0    0  0.88189329348E+01  0.21021050339E+02  0.82142658826E+02  0.85247137984E+02  0.00000000000E+00 0.  1.
         21    1    1    2  503  501  0.27459213296E+02 -0.26575690458E+01 -0.10371031910E+02  0.29472518911E+02  0.00000000000E+00 0.  1.
          1    1    1    2  501    0 -0.63075446722E+02  0.66496721652E+02  0.91905680096E+02  0.12979591674E+03  0.00000000000E+00 0. -1.
<scales pt_clust_5="13000.00000" pt_clust_6="13000.00000" pt_clust_7="13000.00000" pt_clust_8="13000.00000" pt_clust_9="27.58752" pt_clust_10="13000.00000"></scales>
<clustering>
<clus scale="   27.588">  2  9  1 -1</clus>
<clus scale="   90.778">  7  8 -1 -1</clus>
<clus scale="   91.145">  5  6 -1 -1</clus>
<clus scale="   81.844">  5 10 -1 -1</clus>
<clus scale="  115.351">  1  7  2 -1</clus>
<clus scale="   27.588">  2  5  1 -1</clus>
</clustering>
</event>
<event>
10    2  0.5692308E-006  0.2257056E+03  0.7546771E-02  0.1164705E+00
         21   -1    0    0  503  502  0.00000000000E+00  0.00000000000E+00  0.49107917878E+03  0.49107917878E+03  0.00000000000E+00 0.  1.
         -1   -1    0    0    0  501 -0.00000000000E+00 -0.00000000000E+00 -0.90826087190E+02  0.90826087190E+02  0.00000000000E+00 0.  1.
         23    2    1    2    0    0 -0.44468124825E+02  0.77005317915E+01  0.34212394367E+02  0.10655314115E+03  0.90257252590E+02 0.  0.
         23    2    1    2    0    0  0.50505389994E+02  0.44423177145E+02  0.13501530816E+02  0.11326297837E+03  0.90122127404E+02 0.  0.
        -11    1    3    3    0    0  0.47683631273E+01  0.38057902252E+02  0.29745556598E+02  0.48538019614E+02  0.00000000000E+00 0.  1.
         11    1    3    3    0    0 -0.49236487953E+02 -0.30357370460E+02  0.44668377691E+01  0.58015121536E+02  0.00000000000E+00 0. -1.
        -11    1    4    4    0    0 -0.15276375981E+02  0.42940965810E+02  0.13249154680E+02  0.47464031725E+02  0.00000000000E+00 0.  1.
         11    1    4    4    0    0  0.65781765976E+02  0.14822113345E+01  0.25237613610E+00  0.65798946641E+02  0.00000000000E+00 0. -1.
         21    1    1    2  503  501  0.27389330463E+02 -0.18058351585E+02  0.18493189071E+03  0.18781928465E+03  0.00000000000E+00 0.  1.
         -1    1    1    2    0  502 -0.33426595632E+02 -0.34065357351E+02  0.16760727569E+03  0.17426986180E+03  0.00000000000E+00 0.  1.
<scales pt_clust_5="13000.00000" pt_clust_6="13000.00000" pt_clust_7="13000.00000" pt_clust_8="13000.00000" pt_clust_9="32.80670" pt_clust_10="13000.00000"></scales>
<clustering>
<clus scale="   32.807">  1  9  2 -1</clus>
<clus scale="   90.122">  7  8 -1 -1</clus>
<clus scale="   47.744">  7 10 -1 -1</clus>
<clus scale="   90.257">  5  6 -1 -1</clus>
<clus scale="   98.049">  2  5  1 -1</clus>
<clus scale="   32.807">  1  5  2 -1</clus>
</clustering>
</event>
<event>
10    2  0.5692308E-006  0.2356983E+03  0.7546771E-02  0.1156109E+00
          1   -1    0    0  502    0 -0.00000000000E+00  0.00000000000E+00  0.93290556130E+03  0.93290556130E+03  0.00000000000E+00 0. -1.
         21   -1    0    0  503  502  0.00000000000E+00 -0.00000000000E+00 -0.68979981977E+02  0.68979981977E+02  0.00000000000E+00 0.  1.
         23    2    1    2    0    0 -0.10768065339E+02 -0.31784194911E+02  0.27794767911E+03  0.29473431554E+03  0.92126099219E+02 0.  0.
         23    2    1    2    0    0  0.26376942901E+02  0.16156442186E+03  0.37308231846E+03  0.41794169056E+03  0.93198899309E+02 0.  0.
        -11    1    4    4    0    0  0.35331993591E+02  0.12098376348E+03  0.17569433687E+03  0.21622654973E+03  0.00000000000E+00 0.  1.
         11    1    4    4    0    0 -0.89550506897E+01  0.40580658386E+02  0.19738798158E+03  0.20171514083E+03  0.00000000000E+00 0. -1.
        -13    1    3    3    0    0 -0.43256062539E+02 -0.44817471909E+02  0.19488936286E+03  0.20460096894E+03  0.00000000000E+00 0. -1.
         13    1    3    3    0    0  0.32487997200E+02  0.13033276999E+02  0.83058316251E+02  0.90133346603E+02  0.00000000000E+00 0.  1.
         21    1    1    2  503  501 -0.16884099865E+01 -0.73306474066E+02  0.51850810083E+01  0.73509012600E+02  0.00000000000E+00 0.  1.
          1    1    1    2  501    0 -0.13920467576E+02 -0.56473752887E+02  0.20771050074E+03  0.21570052457E+03  0.00000000000E+00 0. -1.
<scales pt_clust_5="13000.00000" pt_clust_6="13000.00000" pt_clust_7="13000.00000" pt_clust_8="13000.00000" pt_clust_9="73.32592" pt_clust_10="13000.00000"></scales>
<clustering>
<clus scale="   73.326">  2  9  1 -1</clus>
<clus scale="   92.126">  7  8 -1 -1</clus>
<clus scale="   93.199">  5  6 -1 -1</clus>
<clus scale="   66.402">  5 10 -1 -1</clus>
<clus scale="  105.157">  1  7  2 -1</clus>
<clus scale="   73.326">  2  5  1 -1</clus>
</clustering>
</event>
<event>
10    2  0.5692308E-006  0.2531587E+03  0.7546771E-02  0.1122897E+00
          1   -1    0    0  502    0 -0.00000000000E+00  0.00000000000E+00  0.51474339229E+03  0.51474339229E+03  0.00000000000E+00 0. -1.
         21   -1    0    0  503  502  0.00000000000E+00 -0.00000000000E+00 -0.19312971587E+03  0.19312971587E+03  0.00000000000E+00 0.  1.
         23    2    1    2    0    0  0.58565210607E+02  0.15767419946E+03  0.34123141898E+03  0.39112044182E+03  0.90803533192E+02 0.  0.
         23    2    1    2    0    0 -0.14293791607E+02 -0.14470751389E+03  0.72560317985E+02  0.18565296619E+03  0.89763283430E+02 0.  0.
        -11    1    3    3    0    0  0.74472631356E+02  0.10757418543E+03  0.18738691258E+03  0.22854372272E+03  0.00000000000E+00 0.  1.
         11    1    3    3    0    0 -0.15907420749E+02  0.50100014033E+02  0.15384450640E+03  0.16257671909E+03  0.00000000000E+00 0. -1.
        -13    1    4    4    0    0  0.27732437124E+01 -0.78535299432E+02 -0.91695896170E+01  0.79117415979E+02  0.00000000000E+00 0.  1.
         13    1    4    4    0    0 -0.17067035319E+02 -0.66172214461E+02  0.81729907602E+02  0.10653555021E+03  0.00000000000E+00 0. -1.
         21    1    1    2  503  501  0.13732817646E+02 -0.17285092175E+02 -0.61496053761E+02  0.65338574519E+02  0.00000000000E+00 0.  1.
          1    1    1    2  501    0 -0.58004236646E+02  0.43184066073E+01 -0.30682006781E+02  0.65761125634E+02  0.00000000000E+00 0. -1.
<scales pt_clust_5="13000.00000" pt_clust_6="13000.00000" pt_clust_7="13000.00000" pt_clust_8="13000.00000" pt_clust_9="22.07634" pt_clust_10="13000.00000"></scales>
<clustering>
<clus scale="   22.076">  2  9  1 -1</clus>
<clus scale="   89.763">  7  8 -1 -1</clus>
<clus scale="   52.941">  7 10 -1 -1</clus>
<clus scale="   90.804">  5  6 -1 -1</clus>
<clus scale="  189.250">  1  5  2 -1</clus>
<clus scale="   22.076">  2  5  1 -1</clus>
</clustering>
</event>
<event>
10    2  0.5692308E-006  0.1469272E+03  0.7546771E-02  0.1219193E+00
          1   -1    0    0  503    0 -0.00000000000E+00  0.00000000000E+00  0.17445816993E+03  0.17445816993E+03  0.00000000000E+00 0. -1.
         21   -1    0    0  501  502  0.00000000000E+00 -0.00000000000E+00 -0.14544363568E+03  0.14544363568E+03  0.00000000000E+00 0. -1.
         23    2    1    2    0    0 -0.10568262234E+02 -0.59112599820E+02 -0.27796016582E+02  0.11300360914E+03  0.91603545331E+02 0.  0.
         23    2    1    2    0    0  0.24388354243E+02  0.28306738653E+02  0.77887069755E+02  0.12631048496E+03  0.92151395540E+02 0.  0.
        -11    1    4    4    0    0 -0.30732820914E+02 -0.41150812489E+01  0.44311525364E+02  0.54082820333E+02  0.00000000000E+00 0.  1.
         11    1    4    4    0    0  0.55121175157E+02  0.32421819902E+02  0.33575544390E+02  0.72227664627E+02  0.00000000000E+00 0. -1.
        -11    1    3    3    0    0  0.10721871019E+02  0.19922526229E+02  0.75423988022E+01  0.23848550253E+02  0.00000000000E+00 0.  1.
         11    1    3    3    0    0 -0.21290133253E+02 -0.79035126050E+02 -0.35338415384E+02  0.89155058889E+02  0.00000000000E+00 0. -1.
         21    1    1    2  503  502  0.21261422452E+02  0.61824063632E+01 -0.29522181021E+02  0.36902972852E+02  0.00000000000E+00 0. -1.
          1    1    1    2  501    0 -0.35081514461E+02  0.24623454804E+02  0.84456621004E+01  0.43684738658E+02  0.00000000000E+00 0. -1.
<scales pt_clust_5="13000.00000" pt_clust_6="13000.00000" pt_clust_7="13000.00000" pt_clust_8="13000.00000" pt_clust_9="22.14205" pt_clust_10="13000.00000"></scales>
<clustering>
<clus scale="   22.142">  2  9  1 -1</clus>
<clus scale="   91.604">  7  8 -1 -1</clus>
<clus scale="   92.151">  5  6 -1 -1</clus>
<clus scale="   40.776">  5 10 -1 -1</clus>
<clus scale="  107.003">  1  7  2 -1</clus>
<clus scale="   22.142">  2  5  1 -1</clus>
</clustering>
</event>
<event>
10    2  0.5692308E-006  0.1294248E+03  0.7546771E-02  0.1245480E+00
          3   -1    0    0  502    0 -0.00000000000E+00  0.00000000000E+00  0.28930130616E+02  0.28930130616E+02  0.00000000000E+00 0. -1.
         21   -1    0    0  503  502  0.00000000000E+00 -0.00000000000E+00 -0.63821256217E+03  0.63821256217E+03  0.00000000000E+00 0. -1.
         23    2    1    2    0    0  0.49173268613E+01 -0.22287856015E+01 -0.15219990182E+03  0.17741618040E+03  0.91008479615E+02 0.  0.
         23    2    1    2    0    0  0.20604660981E+02  0.24168286680E+02 -0.15641422587E+03  0.18418641658E+03  0.91926970274E+02 0.  0.
        -13    1    4    4    0    0 -0.19753749974E+02 -0.20109377796E+02 -0.91982281909E+02  0.96204666719E+02  0.00000000000E+00 0.  1.
         13    1    4    4    0    0  0.40358410955E+02  0.44277664477E+02 -0.64431943959E+02  0.87981749861E+02  0.00000000000E+00 0. -1.
        -13    1    3    3    0    0 -0.13051611447E+02 -0.32266918299E+02 -0.18919593809E+02  0.39616279581E+02  0.00000000000E+00 0.  1.
         13    1    3    3    0    0  0.17968938308E+02  0.30038132698E+02 -0.13328030802E+03  0.13779990081E+03  0.00000000000E+00 0. -1.
         21    1    1    2  503  501 -0.27235530025E+02  0.33752451361E+01 -0.19184742183E+03  0.19380041186E+03  0.00000000000E+00 0.  1.
          3    1    1    2  501    0  0.17135421821E+01 -0.25314746215E+02 -0.10882088203E+03  0.11173968395E+03  0.00000000000E+00 0. -1.
<scales pt_clust_5="13000.00000" pt_clust_6="13000.00000" pt_clust_7="13000.00000" pt_clust_8="13000.00000" pt_clust_9="27.44388" pt_clust_10="13000.00000"></scales>
<clustering>
<clus scale="   27.444">  2  9  1 -1</clus>
<clus scale="   91.008">  7  8 -1 -1</clus>
<clus scale="   91.160">  1  7  2 -1</clus>
<clus scale="   91.927">  5  6 -1 -1</clus>
<clus scale="   25.220">  5 10 -1 -1</clus>
<clus scale="   27.444">  2  5  1 -1</clus>
</clustering>
</event>
<event>
10    2  0.5692308E-006  0.3175270E+03  0.7546771E-02  0.1088540E+00
          2   -1    0    0  502    0 -0.00000000000E+00  0.00000000000E+00  0.25224601843E+03  0.25224601843E+03  0.00000000000E+00 0. -1.
         21   -1    0    0  503  502  0.00000000000E+00 -0.00000000000E+00 -0.67433322169E+03  0.67433322169E+03  0.00000000000E+00 0. -1.
         23    2    1    2    0    0 -0.10501966326E+03  0.17882609978E+03 -0.21742862278E+03  0.31414356884E+03  0.91668272643E+02 0.  0.
         23    2    1    2    0    0  0.19401186998E+03 -0.15233380742E+03  0.10096791866E+03  0.28265724141E+03  0.94097826480E+02 0.  0.
        -13    1    4    4    0    0  0.56346124834E+02 -0.11219447935E+02 -0.70144563180E+01  0.57878876918E+02  0.00000000000E+00 0.  1.
         13    1    4    4    0    0  0.13766574514E+03 -0.14111435948E+03  0.10798237498E+03  0.22477836449E+03  0.00000000000E+00 0. -1.
        -13    1    3    3    0    0  0.36811035456E+01  0.78940472812E+02 -0.80033845996E+02  0.11247473172E+03  0.00000000000E+00 0. -1.
         13    1    3    3    0    0 -0.10870076681E+03  0.99885626965E+02 -0.13739477678E+03  0.20166883712E+03  0.00000000000E+00 0.  1.
         21    1    1    2  503  501 -0.52398401450E+02 -0.27869768157E+02 -0.27702990013E+03  0.28331586969E+03  0.00000000000E+00 0. -1.
          2    1    1    2  501    0 -0.36593805265E+02  0.13774757946E+01 -0.28596599009E+02  0.46462560177E+02  0.00000000000E+00 0. -1.
<scales pt_clust_5="13000.00000" pt_clust_6="13000.00000" pt_clust_7="13000.00000" pt_clust_8="13000.00000" pt_clust_9="59.34911" pt_clust_10="13000.00000"></scales>
<clustering>
<clus scale="   59.349">  2  9  1 -1</clus>
<clus scale="   91.668">  7  8 -1 -1</clus>
<clus scale="   94.098">  5  6 -1 -1</clus>
<clus scale="   41.602">  5 10 -1 -1</clus>
<clus scale="  231.760">  1  7  2 -1</clus>
<clus scale="   59.349">  2  5  1 -1</clus>
</clustering>
</event>
<event>
10    2  0.5692308E-006  0.2546640E+03  0.7546771E-02  0.1144507E+00
         21   -1    0    0  501  502  0.00000000000E+00  0.00000000000E+00  0.58134266093E+03  0.58134266093E+03  0.00000000000E+00 0.  1.
         -1   -1    0    0    0  501 -0.00000000000E+00 -0.00000000000E+00 -0.18543037385E+03  0.18543037385E+03  0.00000000000E+00 0.  1.
         23    2    1    2    0    0  0.35984102024E+02  0.31633148213E+02 -0.20541172875E+02  0.10491219777E+03  0.91044592333E+02 0.  0.
         23    2    1    2    0    0 -0.89833519655E+02 -0.56871339565E+02 -0.74250067393E+02  0.15666702035E+03  0.87903766932E+02 0.  0.
        -11    1    3    3    0    0 -0.24521925492E+02 -0.42034803649E+01  0.11768475121E+02  0.27522555908E+02  0.00000000000E+00 0. -1.
         11    1    3    3    0    0  0.60506027517E+02  0.35836628578E+02 -0.32309647996E+02  0.77389641860E+02  0.00000000000E+00 0.  1.
        -11    1    4    4    0    0 -0.97761773863E+02 -0.35790297912E+02 -0.32213802250E+02  0.10897724032E+03  0.00000000000E+00 0.  1.
         11    1    4    4    0    0  0.79282542073E+01 -0.21081041653E+02 -0.42036265143E+02  0.47689780028E+02  0.00000000000E+00 0. -1.
         21    1    1    2  503  502  0.27270869208E+02  0.60724973686E+02  0.38266396600E+03  0.38841077947E+03  0.00000000000E+00 0.  1.
         -1    1    1    2    0  503  0.26578548423E+02 -0.35486782333E+02  0.10803956135E+03  0.11678303718E+03  0.00000000000E+00 0.  1.
<scales pt_clust_5="13000.00000" pt_clust_6="13000.00000" pt_clust_7="13000.00000" pt_clust_8="13000.00000" pt_clust_9="66.56743" pt_clust_10="13000.00000"></scales>
<clustering>
<clus scale="   66.567">  1  9  2 -1</clus>
<clus scale="   87.904">  7  8 -1 -1</clus>
<clus scale="   42.239">  7 10 -1 -1</clus>
<clus scale="   91.045">  5  6 -1 -1</clus>
<clus scale="  109.731">  2  5  1 -1</clus>
<clus scale="   66.567">  1  5  2 -1</clus>
</clustering>
</event>
<event>
10    2  0.5692308E-006  0.2623156E+03  0.7546771E-02  0.1136953E+00
          1   -1    0    0  502    0 -0.00000000000E+00  0.00000000000E+00  0.44233738298E+03  0.44233738298E+03  0.00000000000E+00 0. -1.
         21   -1    0    0  503  502  0.00000000000E+00 -0.00000000000E+00 -0.37515795418E+03  0.37515795418E+03  0.00000000000E+00 0. -1.
         23    2    1    2    0    0  0.46757483833E+02  0.52286069662E+02  0.25507332317E+03  0.28130923009E+03  0.95668110493E+02 0.  0.
         23    2    1    2    0    0 -0.55136963573E+02 -0.61857566306E+02  0.14822165927E+03  0.19353902725E+03  0.92850694834E+02 0.  0.
        -13    1    4    4    0    0 -0.38277819416E+02 -0.11534196213E+02  0.43779387083E+01  0.40216855780E+02  0.00000000000E+00 0.  1.
         13    1    4    4    0    0 -0.16859144157E+02 -0.50323370093E+02  0.14384372057E+03  0.15332217147E+03  0.00000000000E+00 0. -1.
        -13    1    3    3    0    0  0.66543453699E+02  0.51098950826E+01  0.15963886306E+03  0.17302805801E+03  0.00000000000E+00 0. -1.
         13    1    3    3    0    0 -0.19785969865E+02  0.47176174579E+02  0.95434460112E+02  0.10828117209E+03  0.00000000000E+00 0.  1.
         21    1    1    2  503  501  0.17167480899E+01  0.34984668550E+02 -0.25471052699E+03  0.25710761719E+03  0.00000000000E+00 0. -1.
          1    1    1    2  501    0  0.66627316499E+01 -0.25413171906E+02 -0.81405026659E+02  0.85539462616E+02  0.00000000000E+00 0. -1.
<scales pt_clust_5="13000.00000" pt_clust_6="13000.00000" pt_clust_7="13000.00000" pt_clust_8="13000.00000" pt_clust_9="35.02676" pt_clust_10="13000.00000"></scales>
<clustering>
<clus scale="   35.027">  2  9  1 -1</clus>
<clus scale="   92.851">  5  6 -1 -1</clus>
<clus scale="    7.919">  5 10 -1 -1</clus>
<clus scale="   95.668">  7  8 -1 -1</clus>
<clus scale="  120.447">  1  7  2 -1</clus>
<clus scale="   35.027">  2  5  1 -1</clus>
</clustering>
</event>
<event>
10    2  0.5692308E-006  0.2039034E+03  0.7546771E-02  0.1166433E+00
         21   -1    0    0  503  502  0.00000000000E+00  0.00000000000E+00  0.73305798097E+03  0.73305798097E+03  0.00000000000E+00 0.  1.
          1   -1    0    0  502    0 -0.00000000000E+00 -0.00000000000E+00 -0.19509639416E+03  0.19509639416E+03  0.00000000000E+00 0. -1.
         23    2    1    2    0    0  0.21793921489E+02 -0.65787123057E+02 -0.29457036760E+02  0.11593623331E+03  0.88150851411E+02 0.  0.
         23    2    1    2    0    0 -0.72651366723E+02  0.55888043257E+02 -0.53827273721E+02  0.13981606497E+03  0.90826549865E+02 0.  0.
        -11    1    3    3    0    0  0.53939792792E+02 -0.29034332233E+02 -0.53749826533E+01  0.61492960029E+02  0.00000000000E+00 0. -1.
         11    1    3    3    0    0 -0.32145871302E+02 -0.36752790824E+02 -0.24082054107E+02  0.54443273277E+02  0.00000000000E+00 0.  1.
        -11    1    4    4    0    0 -0.35162557666E+02 -0.11281054651E+02  0.11731468445E+02  0.38746548331E+02  0.00000000000E+00 0.  1.
         11    1    4    4    0    0 -0.37488809057E+02  0.67169097908E+02 -0.65558742166E+02  0.10106951663E+03  0.00000000000E+00 0. -1.
         21    1    1    2  503  501  0.59240188503E+02 -0.73704402297E+02  0.56124486535E+03  0.56915510868E+03  0.00000000000E+00 0.  1.
          1    1    1    2  501    0 -0.83827432688E+01  0.83603482097E+02  0.60001031935E+02  0.10324696817E+03  0.00000000000E+00 0. -1.
<scales pt_clust_5="13000.00000" pt_clust_6="13000.00000" pt_clust_7="13000.00000" pt_clust_8="13000.00000" pt_clust_9="94.56077" pt_clust_10="13000.00000"></scales>
<clustering>
<clus scale="   88.151">  5  6 -1 -1</clus>
<clus scale="   90.827">  7  8 -1 -1</clus>
<clus scale="   84.023">  7 10 -1 -1</clus>
<clus scale="   94.561">  1  9  2 -1</clus>
<clus scale="  127.789">  2  5  1 -1</clus>
<clus scale="   94.561">  1  5  2 -1</clus>
</clustering>
</event>
<event>
10    2  0.5692308E-006  0.4245378E+03  0.7546771E-02  0.1076054E+00
          3   -1    0    0  502    0 -0.00000000000E+00  0.00000000000E+00  0.61912026941E+03  0.61912026941E+03  0.00000000000E+00 0. -1.
         21   -1    0    0  503  502  0.00000000000E+00 -0.00000000000E+00 -0.20069860457E+03  0.20069860457E+03  0.00000000000E+00 0.  1.
         23    2    1    2    0    0 -0.28128128761E+02 -0.85904630970E+02  0.11961104349E+03  0.17850739023E+03  0.96888025014E+02 0.  0.
         23    2    1    2    0    0 -0.21845418073E+02  0.21717962643E+03  0.38294635360E+03  0.45012539072E+03  0.91218118872E+02 0.  0.
        -13    1    3    3    0    0  0.22916541360E+02 -0.75933514786E+02  0.83656157460E+02  0.11527974331E+03  0.00000000000E+00 0. -1.
         13    1    3    3    0    0 -0.51044670121E+02 -0.99711161835E+01  0.35954886029E+02  0.63227646920E+02  0.00000000000E+00 0.  1.
        -13    1    4    4    0    0 -0.23042231974E+02  0.11924751965E+02  0.80722828518E+02  0.84789853212E+02  0.00000000000E+00 0. -1.
         13    1    4    4    0    0  0.11968139007E+01  0.20525487447E+03  0.30222352508E+03  0.36533553751E+03  0.00000000000E+00 0.  1.
         21    1    1    2  503  501  0.10789670144E+02 -0.23171483303E+02 -0.70989800989E+02  0.75451219107E+02  0.00000000000E+00 0.  1.
          3    1    1    2  501    0  0.39183876690E+02 -0.10810351216E+03 -0.13145931267E+02  0.11573487393E+03  0.00000000000E+00 0. -1.
<scales pt_clust_5="13000.00000" pt_clust_6="13000.00000" pt_clust_7="13000.00000" pt_clust_8="13000.00000" pt_clust_9="25.56041" pt_clust_10="13000.00000"></scales>
<clustering>
<clus scale="   25.560">  2  9  1 -1</clus>
<clus scale="   91.218">  7  8 -1 -1</clus>
<clus scale="   96.888">  5  6 -1 -1</clus>
<clus scale="  127.862">  7 10 -1 -1</clus>
<clus scale="  135.545">  1  5  2 -1</clus>
<clus scale="   25.560">  2  5  1 -1</clus>
</clustering>
</event>
<event>
10    2  0.5692308E-006  0.2238013E+03  0.7546771E-02  0.1161364E+00
         -1   -1    0    0    0  501 -0.00000000000E+00  0.00000000000E+00  0.10151996136E+03  0.10151996136E+03  0.00000000000E+00 0.  1.
         21   -1    0    0  503  502  0.00000000000E+00 -0.00000000000E+00 -0.40999394387E+03  0.40999394387E+03  0.00000000000E+00 0. -1.
         23    2    1    2    0    0  0.35540082915E+02 -0.43515020530E+02 -0.99214370320E+02  0.14680402585E+03  0.92473110811E+02 0.  0.
         23    2    1    2    0    0 -0.72220738764E+02  0.47217678024E+02  0.11726705007E+02  0.12632107796E+03  0.91510408710E+02 0.  0.
        -11    1    3    3    0    0 -0.26161390566E+02 -0.35114784313E+02 -0.26977057828E+02  0.51431780863E+02  0.00000000000E+00 0.  1.
         11    1    3    3    0    0  0.61701473481E+02 -0.84002362166E+01 -0.72237312492E+02  0.95372244989E+02  0.00000000000E+00 0. -1.
        -13    1    4    4    0    0 -0.84497400738E+02  0.11460302036E+02  0.20079265695E+02  0.87603231476E+02  0.00000000000E+00 0.  1.
         13    1    4    4    0    0  0.12276661974E+02  0.35757375987E+02 -0.83525606874E+01  0.38717846489E+02  0.00000000000E+00 0. -1.
         21    1    1    2  503  501 -0.18969359265E+02 -0.15265069671E+02 -0.12055432137E+03  0.12298863095E+03  0.00000000000E+00 0. -1.
         -1    1    1    2    0  502  0.55650015114E+02  0.11562412178E+02 -0.10043199582E+03  0.11540017046E+03  0.00000000000E+00 0.  1.
<scales pt_clust_5="13000.00000" pt_clust_6="13000.00000" pt_clust_7="13000.00000" pt_clust_8="13000.00000" pt_clust_9="24.34869" pt_clust_10="13000.00000"></scales>
<clustering>
<clus scale="   24.349">  2  9  1 -1</clus>
<clus scale="   91.510">  7  8 -1 -1</clus>
<clus scale="   48.898">  7 10 -1 -1</clus>
<clus scale="   92.473">  5  6 -1 -1</clus>
<clus scale="  108.662">  1  5  2 -1</clus>
<clus scale="   24.349">  2  5  1 -1</clus>
</clustering>
</event>
<event>
10    2  0.5692308E-006  0.1663735E+03  0.7546771E-02  0.1203755E+00
         21   -1    0    0  501  502  0.00000000000E+00  0.00000000000E+00  0.28206413984E+03  0.28206413984E+03  0.00000000000E+00 0.  1.
         -1   -1    0    0    0  501 -0.00000000000E+00 -0.00000000000E+00 -0.18989785070E+03  0.18989785070E+03  0.00000000000E+00 0.  1.
         23    2    1    2    0    0 -0.19644996405E+02 -0.34623932548E+02 -0.11557632570E+03  0.15393310926E+03  0.93556253001E+02 0.  0.
         23    2    1    2    0    0  0.34449018074E+02  0.78969656038E+02  0.60056840605E+02  0.14242944667E+03  0.96210091744E+02 0.  0.
        -13    1    4    4    0    0 -0.12401230828E+01  0.60309343903E+02 -0.10460346741E+02  0.61222330250E+02  0.00000000000E+00 0.  1.
         13    1    4    4    0    0  0.35689141157E+02  0.18660312134E+02  0.70517187346E+02  0.81207116416E+02  0.00000000000E+00 0. -1.
        -13    1    3    3    0    0 -0.42635171820E+02  0.12542723695E+02 -0.76640442903E+02  0.88593652607E+02  0.00000000000E+00 0.  1.
         13    1    3    3    0    0  0.22990175415E+02 -0.47166656243E+02 -0.38935882800E+02  0.65339456657E+02  0.00000000000E+00 0. -1.
         21    1    1    2  503  502  0.26405120009E+02 -0.30543610044E+02  0.11299716646E+03  0.11999375860E+03  0.00000000000E+00 0.  1.
         -1    1    1    2    0  503 -0.41209141678E+02 -0.13802113446E+02  0.34688607792E+02  0.55605676005E+02  0.00000000000E+00 0.  1.
<scales pt_clust_5="13000.00000" pt_clust_6="13000.00000" pt_clust_7="13000.00000" pt_clust_8="13000.00000" pt_clust_9="40.37502" pt_clust_10="13000.00000"></scales>
<clustering>
<clus scale="   40.375">  1  9  2 -1</clus>
<clus scale="   93.556">  7  8 -1 -1</clus>
<clus scale="   96.210">  5  6 -1 -1</clus>
<clus scale="   40.576">  5 10 -1 -1</clus>
<clus scale="  102.392">  2  7  1 -1</clus>
<clus scale="   40.375">  1  5  2 -1</clus>
</clustering>
</event>
<event>
10    2  0.5692308E-006  0.3577794E+03  0.7546771E-02  0.1066121E+00
         21   -1    0    0  501  502  0.00000000000E+00  0.00000000000E+00  0.64706426200E+03  0.64706426200E+03  0.00000000000E+00 0.  1.
          1   -1    0    0  503    0 -0.00000000000E+00 -0.00000000000E+00 -0.95893168495E+03  0.95893168495E+03  0.00000000000E+00 0. -1.
         23    2    1    2    0    0  0.24676109635E+03 -0.10038654339E+03 -0.49875422254E+03  0.57279059880E+03  0.91459274022E+02 0.  0.
         23    2    1    2    0    0 -0.29361758483E+02  0.62171425903E+02 -0.58892366445E+02  0.12841382233E+03  0.91073595948E+02 0.  0.
        -11    1    3    3    0    0  0.12532420662E+03 -0.95325649831E+02 -0.31982996192E+03  0.35648890701E+03  0.00000000000E+00 0.  1.
         11    1    3    3    0    0  0.12143688973E+03 -0.50608935572E+01 -0.17892426062E+03  0.21630169179E+03  0.00000000000E+00 0. -1.
        -13    1    4    4    0    0 -0.42918870879E+02  0.41552585748E+01  0.20743279257E+01  0.43169416114E+02  0.00000000000E+00 0.  1.
         13    1    4    4    0    0  0.13557112395E+02  0.58016167328E+02 -0.60966694371E+02  0.85244406212E+02  0.00000000000E+00 0. -1.
         21    1    1    2  503  502  0.36829204236E+02 -0.58728651649E+02  0.51640418442E+03  0.52103620460E+03  0.00000000000E+00 0.  1.
          1    1    1    2  501    0 -0.25422854210E+03  0.96943769135E+02 -0.27062501839E+03  0.38375532123E+03  0.00000000000E+00 0. -1.
<scales pt_clust_5="13000.00000" pt_clust_6="13000.00000" pt_clust_7="13000.00000" pt_clust_8="13000.00000" pt_clust_9="69.32132" pt_clust_10="13000.00000"></scales>
<clustering>
<clus scale="   69.321">  1  9  2 -1</clus>
<clus scale="   91.074">  7  8 -1 -1</clus>
<clus scale="   91.459">  5  6 -1 -1</clus>
<clus scale="  248.379">  7 10 -1 -1</clus>
<clus scale="  297.282">  2  5  1 -1</clus>
<clus scale="   69.321">  1  5  2 -1</clus>
</clustering>
</event>
<event>
10    2  0.5692308E-006  0.2373038E+03  0.7546771E-02  0.1145482E+00
         21   -1    0    0  503  502  0.00000000000E+00  0.00000000000E+00  0.87895736124E+02  0.87895736124E+02  0.00000000000E+00 0. -1.
          1   -1    0    0  502    0 -0.00000000000E+00 -0.00000000000E+00 -0.88579117192E+03  0.88579117192E+03  0.00000000000E+00 0. -1.
         23    2    1    2    0    0  0.86321131230E+02  0.55827479257E+02 -0.34429157544E+03  0.37055541719E+03  0.90590193469E+02 0.  0.
         23    2    1    2    0    0  0.39424201816E+01  0.46065255454E+02 -0.16864549373E+03  0.19251178565E+03  0.80510462816E+02 0.  0.
        -11    1    3    3    0    0  0.63944433088E+02  0.63709656542E+02 -0.33156662190E+03  0.34363386855E+03  0.00000000000E+00 0. -1.
         11    1    3    3    0    0  0.22376698142E+02 -0.78821772851E+01 -0.12724953547E+02  0.26921548641E+02  0.00000000000E+00 0.  1.
        -13    1    4    4    0    0 -0.35745606548E+02  0.38105813026E+02 -0.90239991074E+02  0.10427395342E+03  0.00000000000E+00 0.  1.
         13    1    4    4    0    0  0.39688026730E+02  0.79594424275E+01 -0.78405502659E+02  0.88237832230E+02  0.00000000000E+00 0. -1.
         21    1    1    2  503  501 -0.56423659249E+02  0.39348834046E+02  0.21012866089E+02  0.71927050580E+02  0.00000000000E+00 0. -1.
          1    1    1    2  501    0 -0.33839892162E+02 -0.14124156876E+03 -0.30597123271E+03  0.33869265462E+03  0.00000000000E+00 0. -1.
<scales pt_clust_5="13000.00000" pt_clust_6="13000.00000" pt_clust_7="13000.00000" pt_clust_8="13000.00000" pt_clust_9="68.78924" pt_clust_10="13000.00000"></scales>
<clustering>
<clus scale="   68.789">  1  9  2 -1</clus>
<clus scale="   80.510">  7  8 -1 -1</clus>
<clus scale="   90.590">  5  6 -1 -1</clus>
<clus scale="  132.495">  2  5  1 -1</clus>
<clus scale="   88.824">  7 10 -1 -1</clus>
<clus scale="   68.789">  1  5  2 -1</clus>
</clustering>
</event>
<event>
10    2  0.5692308E-006  0.1418684E+03  0.7546771E-02  0.1224835E+00
          3   -1    0    0  503    0 -0.00000000000E+00  0.00000000000E+00  0.23170786534E+03  0.23170786534E+03  0.00000000000E+00 0. -1.
         21   -1    0    0  501  502  0.00000000000E+00 -0.00000000000E+00 -0.15505193577E+03  0.15505193577E+03  0.00000000000E+00 0.  1.
         23    2    1    2    0    0  0.54911031817E+02  0.19754157478E+01  0.16263267324E+03  0.19429453780E+03  0.91004710480E+02 0.  0.
         23    2    1    2    0    0 -0.55795057676E+02  0.25215173234E-01 -0.26874825729E+02  0.11752982187E+03  0.99889507326E+02 0.  0.
        -11    1    4    4    0    0  0.15392138483E+02 -0.28119828884E+02  0.85555869665E+01  0.33178920595E+02  0.00000000000E+00 0. -1.
         11    1    4    4    0    0 -0.71187196159E+02  0.28145044057E+02 -0.35430412695E+02  0.84350901274E+02  0.00000000000E+00 0.  1.
        -11    1    3    3    0    0  0.51889622348E+02 -0.38546233967E+02  0.11265455553E+03  0.12988223105E+03  0.00000000000E+00 0. -1.
         11    1    3    3    0    0  0.30214094692E+01  0.40521649714E+02  0.49978117713E+02  0.64412306751E+02  0.00000000000E+00 0.  1.
         21    1    1    2  503  502 -0.10524468980E+02  0.17927667121E+02 -0.39945818478E+02  0.45031479096E+02  0.00000000000E+00 0.  1.
          3    1    1    2  501    0  0.11408494839E+02 -0.19928298042E+02 -0.19156099463E+02  0.29903962346E+02  0.00000000000E+00 0. -1.
<scales pt_clust_5="13000.00000" pt_clust_6="13000.00000" pt_clust_7="13000.00000" pt_clust_8="13000.00000" pt_clust_9="20.78860" pt_clust_10="13000.00000"></scales>
<clustering>
<clus scale="   20.789">  2  9  1 -1</clus>
<clus scale="   91.005">  7  8 -1 -1</clus>
<clus scale="   99.890">  5  6 -1 -1</clus>
<clus scale="   18.433">  5 10 -1 -1</clus>
<clus scale="  105.626">  1  7  2 -1</clus>
<clus scale="   20.789">  2  5  1 -1</clus>
</clustering>
</event>
<event>
10    2  0.5692308E-006  0.2295016E+03  0.7546771E-02  0.1164763E+00
         21   -1    0    0  503  502  0.00000000000E+00  0.00000000000E+00  0.25380146964E+03  0.25380146964E+03  0.00000000000E+00 0.  1.
          4   -1    0    0  502    0 -0.00000000000E+00 -0.00000000000E+00 -0.29606331010E+03  0.29606331010E+03  0.00000000000E+00 0. -1.
         23    2    1    2    0    0  0.19025029335E+02 -0.21067663104E+02 -0.20753402541E+03  0.22759787182E+03  0.89020342534E+02 0.  0.
         23    2    1    2    0    0  0.33401624582E+01  0.21036605884E+02  0.18531354453E+03  0.20804501366E+03  0.92129921587E+02 0.  0.
        -11    1    3    3    0    0  0.26972861592E+02  0.13644072314E+02 -0.18939142377E+02  0.35670535260E+02  0.00000000000E+00 0.  1.
         11    1    3    3    0    0 -0.79478322567E+01 -0.34711735419E+02 -0.18859488303E+03  0.19192733656E+03  0.00000000000E+00 0. -1.
        -11    1    4    4    0    0 -0.31322871878E+02  0.13629918449E+02  0.16213333569E+03  0.16569283485E+03  0.00000000000E+00 0.  1.
         11    1    4    4    0    0  0.34663034337E+02  0.74066874352E+01  0.23180208841E+02  0.42352178812E+02  0.00000000000E+00 0. -1.
         21    1    1    2  503  501  0.12749156690E+02  0.42709708288E+02  0.16984349990E+02  0.47698305242E+02  0.00000000000E+00 0.  1.
          4    1    1    2  501    0 -0.35114348483E+02 -0.42678651068E+02 -0.37025709575E+02  0.66523589018E+02  0.00000000000E+00 0. -1.
<scales pt_clust_5="13000.00000" pt_clust_6="13000.00000" pt_clust_7="13000.00000" pt_clust_8="13000.00000" pt_clust_9="44.57197" pt_clust_10="13000.00000"></scales>
<clustering>
<clus scale="   44.572">  1  9  2 -1</clus>
<clus scale="   89.020">  5  6 -1 -1</clus>
<clus scale="   92.130">  7  8 -1 -1</clus>
<clus scale="   52.544">  7 10 -1 -1</clus>
<clus scale="   93.139">  2  5  1 -1</clus>
<clus scale="   44.572">  1  5  2 -1</clus>
</clustering>
</event>
<event>
10    2  0.5692308E-006  0.1937140E+03  0.7546771E-02  0.1187744E+00
         21   -1    0    0  503  502  0.00000000000E+00  0.00000000000E+00  0.23217271214E+03  0.23217271214E+03  0.00000000000E+00 0.  1.
          2   -1    0    0  502    0 -0.00000000000E+00 -0.00000000000E+00 -0.25921578725E+03  0.25921578725E+03  0.00000000000E+00 0. -1.
         23    2    1    2    0    0 -0.16790870038E+02 -0.25944029313E+01 -0.18599981254E+03  0.20771827675E+03  0.90897128591E+02 0.  0.
         23    2    1    2    0    0 -0.26511006193E+02  0.73220492745E+02  0.60359962651E+02  0.13469739593E+03  0.91847642165E+02 0.  0.
        -11    1    3    3    0    0 -0.48951279860E+02  0.11153670733E+02 -0.14697610286E+03  0.15531454208E+03  0.00000000000E+00 0.  1.
         11    1    3    3    0    0  0.32160409822E+02 -0.13748073664E+02 -0.39023709686E+02  0.52403734667E+02  0.00000000000E+00 0. -1.
        -11    1    4    4    0    0 -0.34131186986E+02  0.43115805360E+01 -0.10094033810E+02  0.35852714965E+02  0.00000000000E+00 0. -1.
         11    1    4    4    0    0  0.76201807935E+01  0.68908912209E+02  0.70453996461E+02  0.98844680962E+02  0.00000000000E+00 0.  1.
         21    1    1    2  503  501  0.39822044389E+02  0.11263233859E+01  0.34802033034E+02  0.52898443522E+02  0.00000000000E+00 0. -1.
          2    1    1    2  501    0  0.34798318412E+01 -0.71752413199E+02  0.63794741754E+02  0.96074383188E+02  0.00000000000E+00 0. -1.
<scales pt_clust_5="13000.00000" pt_clust_6="13000.00000" pt_clust_7="13000.00000" pt_clust_8="13000.00000" pt_clust_9="39.83797" pt_clust_10="13000.00000"></scales>
<clustering>
<clus scale="   39.838">  1  9  2 -1</clus>
<clus scale="   90.897">  5  6 -1 -1</clus>
<clus scale="   91.848">  7  8 -1 -1</clus>
<clus scale="   74.132">  7 10 -1 -1</clus>
<clus scale="   92.080">  2  5  1 -1</clus>
<clus scale="   39.838">  1  5  2 -1</clus>
</clustering>
</event>
<event>
10    2  0.5692308E-006  0.3342295E+03  0.7546771E-02  0.1073258E+00
         21   -1    0    0  503  502  0.00000000000E+00  0.00000000000E+00  0.89495033104E+03  0.89495033104E+03  0.00000000000E+00 0.  1.
          3   -1    0    0  502    0 -0.00000000000E+00 -0.00000000000E+00 -0.17551241831E+03  0.17551241831E+03  0.00000000000E+00 0. -1.
         23    2    1    2    0    0 -0.15638943895E+03 -0.16322894603E+03  0.26302762196E+03  0.35873425867E+03  0.91680930359E+02 0.  0.
         23    2    1    2    0    0  0.13782198874E+03  0.17781093129E+03  0.21876218969E+03  0.32678822915E+03  0.91225123763E+02 0.  0.
        -11    1    4    4    0    0  0.27172917272E+02  0.33203146088E+02  0.98053589153E+00  0.42915938693E+02  0.00000000000E+00 0.  1.
         11    1    4    4    0    0  0.11064907147E+03  0.14460778520E+03  0.21778165380E+03  0.28387229045E+03  0.00000000000E+00 0. -1.
        -11    1    3    3    0    0 -0.12882363012E+03 -0.69817797315E+02  0.16023812202E+03  0.21713200650E+03  0.00000000000E+00 0.  1.
         11    1    3    3    0    0 -0.27565808834E+02 -0.93411148720E+02  0.10278949994E+03  0.14160225217E+03  0.00000000000E+00 0. -1.
         21    1    1    2  503  501 -0.83518067867E+02 -0.93389518610E+02  0.22215379758E+03  0.25504740663E+03  0.00000000000E+00 0.  1.
          3    1    1    2  501    0  0.10208551808E+03  0.78807533354E+02  0.15494303501E+02  0.12989285491E+03  0.00000000000E+00 0. -1.
<scales pt_clust_5="13000.00000" pt_clust_6="13000.00000" pt_clust_7="13000.00000" pt_clust_8="13000.00000" pt_clust_9="125.28715" pt_clust_10="13000.00000"></scales>
<clustering>
<clus scale="   91.225">  5  6 -1 -1</clus>
<clus scale="   91.681">  7  8 -1 -1</clus>
<clus scale="  125.287">  1  9  2 -1</clus>
<clus scale="  115.351">  5 10 -1 -1</clus>
<clus scale="  299.736">  2  7  1 -1</clus>
<clus scale="  125.287">  1  5  2 -1</clus>
</clustering>
</event>
<event>
10    2  0.5692308E-006  0.3161403E+03  0.7546771E-02  0.1097620E+00
         -3   -1    0    0    0  501 -0.00000000000E+00  0.00000000000E+00  0.41598342033E+03  0.41598342033E+03  0.00000000000E+00 0.  1.
         21   -1    0    0  501  502  0.00000000000E+00 -0.00000000000E+00 -0.21342701611E+03  0.21342701611E+03  0.00000000000E+00 0.  1.
         23    2    1    2    0    0 -0.98823612045E+02 -0.11759667258E+03  0.14591564326E+03  0.23065211506E+03  0.91180806830E+02 0.  0.
         23    2    1    2    0    0  0.78712011777E+02  0.21695579622E+03  0.10556644137E+03  0.26870857146E+03  0.88287170772E+02 0.  0.
        -13    1    3    3    0    0 -0.60247744776E+02 -0.37173978744E+02  0.15204547589E+02  0.72407690984E+02  0.00000000000E+00 0. -1.
         13    1    3    3    0    0 -0.38575867269E+02 -0.80422693836E+02  0.13071109568E+03  0.15824442408E+03  0.00000000000E+00 0.  1.
        -13    1    4    4    0    0  0.61992039942E+02  0.15204398030E+03  0.11577023375E+03  0.20090577887E+03  0.00000000000E+00 0.  1.
         13    1    4    4    0    0  0.16719971834E+02  0.64911815920E+02 -0.10203792381E+02  0.67802792591E+02  0.00000000000E+00 0. -1.
         21    1    1    2  503  502 -0.74476631456E+01 -0.30270731255E+02 -0.46053414210E+02  0.55612065395E+02  0.00000000000E+00 0.  1.
         -3    1    1    2    0  503  0.27559263414E+02 -0.69088392388E+02 -0.28722662024E+01  0.74437684514E+02  0.00000000000E+00 0.  1.
<scales pt_clust_5="13000.00000" pt_clust_6="13000.00000" pt_clust_7="13000.00000" pt_clust_8="13000.00000" pt_clust_9="31.17346" pt_clust_10="13000.00000"></scales>
<clustering>
<clus scale="   31.173">  2  9  1 -1</clus>
<clus scale="   88.287">  7  8 -1 -1</clus>
<clus scale="   80.526">  7 10 -1 -1</clus>
<clus scale="   91.181">  5  6 -1 -1</clus>
<clus scale="  184.970">  1  5  2 -1</clus>
<clus scale="   31.173">  2  5  1 -1</clus>
</clustering>
</event>
<event>
10    2  0.5692308E-006  0.2238902E+03  0.7546771E-02  0.1155384E+00
          1   -1    0    0  502    0 -0.00000000000E+00  0.00000000000E+00  0.11242443822E+04  0.11242443822E+04  0.00000000000E+00 0. -1.
         21   -1    0    0  503  502  0.00000000000E+00 -0.00000000000E+00 -0.45031637581E+02  0.45031637581E+02  0.00000000000E+00 0.  1.
         23    2    1    2    0    0 -0.89261641377E+02  0.31491121513E+00  0.47793712675E+03  0.49513561445E+03  0.93635675757E+02 0.  0.
         23    2    1    2    0    0  0.87058878548E+01  0.56183497346E+02  0.54260570330E+03  0.55347662733E+03  0.93182884062E+02 0.  0.
        -11    1    3    3    0    0 -0.53428007995E+02  0.37572712652E+02  0.36672886286E+03  0.37250009346E+03  0.00000000000E+00 0.  1.
         11    1    3    3    0    0 -0.35833633382E+02 -0.37257801437E+02  0.11120826389E+03  0.12263552099E+03  0.00000000000E+00 0. -1.
        -13    1    4    4    0    0 -0.26047945052E+02 -0.14892187607E+02  0.15560101174E+03  0.15846749681E+03  0.00000000000E+00 0.  1.
         13    1    4    4    0    0  0.34753832907E+02  0.71075684954E+02  0.38700469157E+03  0.39500913051E+03  0.00000000000E+00 0. -1.
         21    1    1    2  503  501  0.24488383146E+02 -0.34449979359E+02  0.10563032025E+02  0.43566726208E+02  0.00000000000E+00 0.  1.
          1    1    1    2  501    0  0.56067370376E+02 -0.22048429203E+02  0.48106882582E+02  0.77097051844E+02  0.00000000000E+00 0. -1.
<scales pt_clust_5="13000.00000" pt_clust_6="13000.00000" pt_clust_7="13000.00000" pt_clust_8="13000.00000" pt_clust_9="42.26680" pt_clust_10="13000.00000"></scales>
<clustering>
<clus scale="   42.267">  2  9  1 -1</clus>
<clus scale="   93.183">  7  8 -1 -1</clus>
<clus scale="   79.106">  7 10 -1 -1</clus>
<clus scale="   93.636">  5  6 -1 -1</clus>
<clus scale="  124.794">  1  5  2 -1</clus>
<clus scale="   42.267">  2  5  1 -1</clus>
</clustering>
</event>
<event>
10    2  0.5692308E-006  0.2882345E+03  0.7546771E-02  0.1113012E+00
          2   -1    0    0  502    0 -0.00000000000E+00  0.00000000000E+00  0.13236139050E+04  0.13236139050E+04  0.00000000000E+00 0. -1.
         21   -1    0    0  503  502  0.00000000000E+00 -0.00000000000E+00 -0.65270105948E+02  0.65270105948E+02  0.00000000000E+00 0. -1.
         23    2    1    2    0    0 -0.42749736914E+02 -0.11915633197E+03  0.60090392754E+03  0.62062299488E+03  0.89786414245E+02 0.  0.
         23    2    1    2    0    0  0.16604648439E+03  0.91861517793E+02  0.45475433204E+03  0.50114614443E+03  0.91301599840E+02 0.  0.
        -11    1    4    4    0    0  0.70497650858E+02  0.75647915730E+02  0.15679997096E+03  0.18782640076E+03  0.00000000000E+00 0.  1.
         11    1    4    4    0    0  0.95548833531E+02  0.16213602063E+02  0.29795436108E+03  0.31331974366E+03  0.00000000000E+00 0. -1.
        -13    1    3    3    0    0  0.22691909944E+02 -0.12876817704E+02  0.58669739679E+02  0.64209606486E+02  0.00000000000E+00 0.  1.
         13    1    3    3    0    0 -0.65441646858E+02 -0.10627951427E+03  0.54223418786E+03  0.55641338840E+03  0.00000000000E+00 0. -1.
         21    1    1    2  503  501 -0.47735426473E+02 -0.37045841482E+02  0.28880251180E+02  0.66971144681E+02  0.00000000000E+00 0. -1.
          2    1    1    2  501    0 -0.75561321002E+02  0.64340655662E+02  0.17380528825E+03  0.20014372692E+03  0.00000000000E+00 0. -1.
<scales pt_clust_5="13000.00000" pt_clust_6="13000.00000" pt_clust_7="13000.00000" pt_clust_8="13000.00000" pt_clust_9="60.42405" pt_clust_10="13000.00000"></scales>
<clustering>
<clus scale="   60.424">  2  9  1 -1</clus>
<clus scale="   89.786">  7  8 -1 -1</clus>
<clus scale="   91.302">  5  6 -1 -1</clus>
<clus scale="  104.128">  5 10 -1 -1</clus>
<clus scale="  164.338">  1  7  2 -1</clus>
<clus scale="   60.424">  2  5  1 -1</clus>
</clustering>
</event>
<event>
10    2  0.5692308E-006  0.2310318E+03  0.7546771E-02  0.1158583E+00
         -1   -1    0    0    0  501 -0.00000000000E+00  0.00000000000E+00  0.12449427146E+03  0.12449427146E+03  0.00000000000E+00 0.  1.
         21   -1    0    0  501  502  0.00000000000E+00 -0.00000000000E+00 -0.36039262495E+03  0.36039262495E+03  0.00000000000E+00 0.  1.
         23    2    1    2    0    0 -0.20215547072E+02  0.46886121206E+02  0.93103969054E+01  0.10422928234E+03  0.90388511997E+02 0.  0.
         23    2    1    2    0    0 -0.71030468761E+02 -0.91747831493E+02 -0.48071365644E+02  0.15584673513E+03  0.92273271213E+02 0.  0.
        -11    1    4    4    0    0 -0.75724456216E+02 -0.23249027098E+02 -0.20216960205E+02  0.81752284434E+02  0.00000000000E+00 0.  1.
         11    1    4    4    0    0  0.46939874557E+01 -0.68498804395E+02 -0.27854405439E+02  0.74094450698E+02  0.00000000000E+00 0. -1.
        -13    1    3    3    0    0 -0.31729597639E+02  0.65699006626E+02  0.25041411457E+02  0.77137533832E+02  0.00000000000E+00 0.  1.
         13    1    3    3    0    0  0.11514050567E+02 -0.18812885420E+02 -0.15731014552E+02  0.27091748506E+02  0.00000000000E+00 0. -1.
         21    1    1    2  503  502  0.24347289036E+02  0.27533686577E+02 -0.91181003097E+02  0.98310069198E+02  0.00000000000E+00 0.  1.
         -1    1    1    2    0  503  0.66898726797E+02  0.17328023710E+02 -0.10595638166E+03  0.12650080975E+03  0.00000000000E+00 0.  1.
<scales pt_clust_5="13000.00000" pt_clust_6="13000.00000" pt_clust_7="13000.00000" pt_clust_8="13000.00000" pt_clust_9="36.75452" pt_clust_10="13000.00000"></scales>
<clustering>
<clus scale="   36.755">  2  9  1 -1</clus>
<clus scale="   90.389">  7  8 -1 -1</clus>
<clus scale="   92.273">  5  6 -1 -1</clus>
<clus scale="   82.928">  5 10 -1 -1</clus>
<clus scale="  105.383">  1  7  2 -1</clus>
<clus scale="   36.755">  2  5  1 -1</clus>
</clustering>
</event>
<event>
10    2  0.5692308E-006  0.9213802E+03  0.7546771E-02  0.1004831E+00
          1   -1    0    0  502    0 -0.00000000000E+00  0.00000000000E+00  0.14457923489E+04  0.14457923489E+04  0.00000000000E+00 0. -1.
         21   -1    0    0  503  502  0.00000000000E+00 -0.00000000000E+00 -0.21071889774E+03  0.21071889774E+03  0.00000000000E+00 0. -1.
         23    2    1    2    0    0 -0.44018058395E+02 -0.21891031985E+01  0.23940778771E+03  0.26132515240E+03  0.95038754337E+02 0.  0.
         23    2    1    2    0    0  0.19443089800E+03  0.16408499219E+03  0.11079477770E+04  0.11405172634E+04  0.92217638387E+02 0.  0.
        -11    1    4    4    0    0  0.15065187915E+03  0.74520656094E+02  0.61267827960E+03  0.63531408860E+03  0.00000000000E+00 0.  1.
         11    1    4    4    0    0  0.43779018854E+02  0.89564336100E+02  0.49526949741E+03  0.50520317483E+03  0.00000000000E+00 0. -1.
        -11    1    3    3    0    0 -0.22491307747E+02  0.40981293169E+02  0.63055742885E+02  0.78494280204E+02  0.00000000000E+00 0. -1.
         11    1    3    3    0    0 -0.21526750648E+02 -0.43170396368E+02  0.17635204482E+03  0.18283087220E+03  0.00000000000E+00 0.  1.
         21    1    1    2  503  501 -0.25142822669E+02 -0.16754953718E+01 -0.12740940204E+02  0.28236507819E+02  0.00000000000E+00 0. -1.
          1    1    1    2  501    0 -0.12527001694E+03 -0.16022039362E+03 -0.99541173396E+02  0.22643232295E+03  0.00000000000E+00 0. -1.
<scales pt_clust_5="13000.00000" pt_clust_6="13000.00000" pt_clust_7="13000.00000" pt_clust_8="13000.00000" pt_clust_9="25.19859" pt_clust_10="13000.00000"></scales>
<clustering>
<clus scale="   25.199">  2  9  1 -1</clus>
<clus scale="   92.218">  5  6 -1 -1</clus>
<clus scale="   95.039">  7  8 -1 -1</clus>
<clus scale="  105.379">  1  7  2 -1</clus>
<clus scale="  220.565">  5 10 -1 -1</clus>
<clus scale="   25.199">  2  5  1 -1</clus>
</clustering>
</event>
<event>
10    2  0.5692308E-006  0.2248040E+03  0.7546771E-02  0.1164191E+00
         -3   -1    0    0    0  501 -0.00000000000E+00  0.00000000000E+00  0.64270928923E+03  0.64270928923E+03  0.00000000000E+00 0.  1.
         21   -1    0    0  503  502  0.00000000000E+00 -0.00000000000E+00 -0.56258849956E+02  0.56258849956E+02  0.00000000000E+00 0.  1.
         23    2    1    2    0    0  0.40355707969E+02 -0.83147843720E+01  0.26026534747E+03  0.27865097882E+03  0.90612350714E+02 0.  0.
         23    2    1    2    0    0  0.26733422530E+02  0.22314292483E+01  0.40946313264E+02  0.10444416873E+03  0.92262281871E+02 0.  0.
        -11    1    3    3    0    0  0.68965119846E+02 -0.13643430783E+02  0.19058229194E+03  0.20313527749E+03  0.00000000000E+00 0.  1.
         11    1    3    3    0    0 -0.28609411877E+02  0.53286464112E+01  0.69683055529E+02  0.75515701337E+02  0.00000000000E+00 0. -1.
        -13    1    4    4    0    0 -0.17588604363E+02  0.35973755594E+02  0.21449100458E+02  0.45426137910E+02  0.00000000000E+00 0. -1.
         13    1    4    4    0    0  0.44322026893E+02 -0.33742326346E+02  0.19497212806E+02  0.59018030824E+02  0.00000000000E+00 0.  1.
         21    1    1    2  503  501  0.14902839076E+02  0.31202616970E+02  0.27310880754E+02  0.44063387590E+02  0.00000000000E+00 0. -1.
         -3    1    1    2    0  502 -0.81991969576E+02 -0.25119261846E+02  0.25792789779E+03  0.27180960404E+03  0.00000000000E+00 0.  1.
<scales pt_clust_5="13000.00000" pt_clust_6="13000.00000" pt_clust_7="13000.00000" pt_clust_8="13000.00000" pt_clust_9="34.57887" pt_clust_10="13000.00000"></scales>
<clustering>
<clus scale="   34.579">  2  9  1 -1</clus>
<clus scale="   90.612">  5  6 -1 -1</clus>
<clus scale="   92.262">  7  8 -1 -1</clus>
<clus scale="   82.446">  7 10 -1 -1</clus>
<clus scale="  100.418">  1  5  2 -1</clus>
<clus scale="   34.579">  2  5  1 -1</clus>
</clustering>
</event>
<event>
10    2  0.5692308E-006  0.2409842E+03  0.7546771E-02  0.1143963E+00
          1   -1    0    0  503    0 -0.00000000000E+00  0.00000000000E+00  0.36454286754E+03  0.36454286754E+03  0.00000000000E+00 0. -1.
         21   -1    0    0  501  502  0.00000000000E+00 -0.00000000000E+00 -0.25810556176E+03  0.25810556176E+03  0.00000000000E+00 0. -1.
         23    2    1    2    0    0  0.88779933602E+02 -0.40797249705E+02  0.25593503194E+03  0.28852542110E+03  0.90542177208E+02 0.  0.
         23    2    1    2    0    0 -0.27109127240E+02 -0.16539185979E+02  0.44202554696E+02  0.10623997276E+03  0.91239336456E+02 0.  0.
        -13    1    4    4    0    0 -0.12216431930E+02  0.21917295311E+02  0.57641413413E+02  0.62866060661E+02  0.00000000000E+00 0.  1.
         13    1    4    4    0    0 -0.14892695311E+02 -0.38456481289E+02 -0.13438858717E+02  0.43373912094E+02  0.00000000000E+00 0. -1.
        -13    1    3    3    0    0  0.21710436361E+02 -0.23919170522E+02  0.19082091498E+03  0.19353576248E+03  0.00000000000E+00 0. -1.
         13    1    3    3    0    0  0.67069497241E+02 -0.16878079183E+02  0.65114116956E+02  0.94989658616E+02  0.00000000000E+00 0.  1.
         21    1    1    2  503  502 -0.10192355569E+02  0.57315867489E+02 -0.55602037184E+02  0.80502045422E+02  0.00000000000E+00 0. -1.
          1    1    1    2  501    0 -0.51478450793E+02  0.20568194986E-01 -0.13809824367E+03  0.14738099003E+03  0.00000000000E+00 0. -1.
<scales pt_clust_5="13000.00000" pt_clust_6="13000.00000" pt_clust_7="13000.00000" pt_clust_8="13000.00000" pt_clust_9="58.21506" pt_clust_10="13000.00000"></scales>
<clustering>
<clus scale="   58.215">  2  9  1 -1</clus>
<clus scale="   90.542">  7  8 -1 -1</clus>
<clus scale="   91.239">  5  6 -1 -1</clus>
<clus scale="   73.155">  5 10 -1 -1</clus>
<clus scale="  131.198">  1  7  2 -1</clus>
<clus scale="   58.215">  2  5  1 -1</clus>
</clustering>
</event>
<event>
10    2  0.5692308E-006  0.3380735E+03  0.7546771E-02  0.1103833E+00
          2   -1    0    0  503    0 -0.00000000000E+00  0.00000000000E+00  0.75510962148E+03  0.75510962148E+03  0.00000000000E+00 0. -1.
         21   -1    0    0  501  502  0.00000000000E+00 -0.00000000000E+00 -0.40120374217E+03  0.40120374217E+03  0.00000000000E+00 0.  1.
         23    2    1    2    0    0  0.68737190886E+02  0.51361010071E+02  0.16975787852E+03  0.21306668272E+03  0.96004787370E+02 0.  0.
         23    2    1    2    0    0 -0.30109382683E+02  0.14175905360E+03  0.32498203639E+03  0.36682823239E+03  0.89148325251E+02 0.  0.
        -13    1    3    3    0    0 -0.79656814431E+01 -0.19986811376E+02  0.15160838864E+02  0.26320633443E+02  0.00000000000E+00 0.  1.
         13    1    3    3    0    0  0.76702872329E+02  0.71347821447E+02  0.15459703965E+03  0.18674604927E+03  0.00000000000E+00 0. -1.
        -13    1    4    4    0    0 -0.96347425771E+01  0.85399352002E+02  0.27701446501E+03  0.29003946527E+03  0.00000000000E+00 0. -1.
         13    1    4    4    0    0 -0.20474640106E+02  0.56359701595E+02  0.47967571381E+02  0.76788767118E+02  0.00000000000E+00 0.  1.
         21    1    1    2  503  502 -0.13794670476E+03 -0.10780598340E+03 -0.31388981984E+03  0.35941374822E+03  0.00000000000E+00 0.  1.
          2    1    1    2  501    0  0.99318896559E+02 -0.85314080272E+02  0.17305578423E+03  0.21700470032E+03  0.00000000000E+00 0. -1.
<scales pt_clust_5="13000.00000" pt_clust_6="13000.00000" pt_clust_7="13000.00000" pt_clust_8="13000.00000" pt_clust_9="171.61146" pt_clust_10="13000.00000"></scales>
<clustering>
<clus scale="   89.148">  7  8 -1 -1</clus>
<clus scale="   96.005">  5  6 -1 -1</clus>
<clus scale="  128.762">  1  5  2 -1</clus>
<clus scale="  140.414">  7 10 -1 -1</clus>
<clus scale="  171.611">  2  9  1 -1</clus>
<clus scale="  171.611">  2  5  1 -1</clus>
</clustering>
</event>
<event>
10    2  0.5692308E-006  0.1499444E+03  0.7546771E-02  0.1223690E+00
         21   -1    0    0  503  502  0.00000000000E+00  0.00000000000E+00  0.24888274201E+03  0.24888274201E+03  0.00000000000E+00 0.  1.
          1   -1    0    0  502    0 -0.00000000000E+00 -0.00000000000E+00 -0.38844434145E+03  0.38844434145E+03  0.00000000000E+00 0. -1.
         23    2    1    2    0    0  0.14481086041E+02  0.14207898828E+02 -0.14569356725E+03  0.17317832567E+03  0.91392290172E+02 0.  0.
         23    2    1    2    0    0 -0.71222764708E+01  0.36372466320E+01 -0.13757544600E+03  0.16559482855E+03  0.91818775391E+02 0.  0.
        -11    1    4    4    0    0  0.88505483808E+01 -0.25207896287E+02 -0.28208714116E+01  0.26864987574E+02  0.00000000000E+00 0.  1.
         11    1    4    4    0    0 -0.15972824852E+02  0.28845142919E+02 -0.13475457459E+03  0.13872984098E+03  0.00000000000E+00 0. -1.
        -13    1    3    3    0    0 -0.19042601522E+02 -0.24076058022E+02 -0.17686055889E+02  0.35427020980E+02  0.00000000000E+00 0.  1.
         13    1    3    3    0    0  0.33523687563E+02  0.38283956849E+02 -0.12800751136E+03  0.13775130469E+03  0.00000000000E+00 0. -1.
         21    1    1    2  503  501 -0.66020213891E+02 -0.47970810506E+02  0.19734287545E+03  0.21355111284E+03  0.00000000000E+00 0.  1.
          1    1    1    2  501    0  0.58661404320E+02  0.30125665046E+02 -0.53635461640E+02  0.85002816404E+02  0.00000000000E+00 0. -1.
<scales pt_clust_5="13000.00000" pt_clust_6="13000.00000" pt_clust_7="13000.00000" pt_clust_8="13000.00000" pt_clust_9="81.60801" pt_clust_10="13000.00000"></scales>
<clustering>
<clus scale="   81.608">  1  9  2 -1</clus>
<clus scale="   91.392">  7  8 -1 -1</clus>
<clus scale="   91.622">  2  7  1 -1</clus>
<clus scale="   91.819">  5  6 -1 -1</clus>
<clus scale="   36.007">  5 10 -1 -1</clus>
<clus scale="   81.608">  1  5  2 -1</clus>
</clustering>
</event>
<event>
10    2  0.5692308E-006  0.2690868E+03  0.7546771E-02  0.1114234E+00
         21   -1    0    0  501  502  0.00000000000E+00  0.00000000000E+00  0.41079511844E+02  0.41079511844E+02  0.00000000000E+00 0. -1.
          2   -1    0    0  503    0 -0.00000000000E+00 -0.00000000000E+00 -0.15037921908E+04  0.15037921908E+04  0.00000000000E+00 0. -1.
         23    2    1    2    0    0 -0.12012948042E+03  0.11493646801E+03 -0.61535932711E+03  0.64336801384E+03  0.87257183203E+02 0.  0.
         23    2    1    2    0    0  0.44690424686E+02 -0.77843802259E+02 -0.63721285238E+03  0.65005012158E+03  0.92022006684E+02 0.  0.
        -13    1    4    4    0    0 -0.27863257785E+02 -0.29156529154E+02 -0.23738147613E+03  0.24078295109E+03  0.00000000000E+00 0.  1.
         13    1    4    4    0    0  0.72553682471E+02 -0.48687273105E+02 -0.39983137625E+03  0.40926717049E+03  0.00000000000E+00 0. -1.
        -13    1    3    3    0    0 -0.49154083620E+02  0.14196312706E+02 -0.30807285926E+03  0.31229240440E+03  0.00000000000E+00 0.  1.
         13    1    3    3    0    0 -0.70975396804E+02  0.10074015530E+03 -0.30728646785E+03  0.33107560944E+03  0.00000000000E+00 0. -1.
         21    1    1    2  503  502 -0.90587477923E+01  0.26344891023E+02 -0.74347402435E+02  0.79395531634E+02  0.00000000000E+00 0.  1.
          2    1    1    2  501    0  0.84497803530E+02 -0.63437556774E+02 -0.13579309700E+03  0.17205803557E+03  0.00000000000E+00 0. -1.
<scales pt_clust_5="13000.00000" pt_clust_6="13000.00000" pt_clust_7="13000.00000" pt_clust_8="13000.00000" pt_clust_9="27.85883" pt_clust_10="13000.00000"></scales>
<clustering>
<clus scale="   27.859">  1  9  2 -1</clus>
<clus scale="   87.257">  7  8 -1 -1</clus>
<clus scale="   92.022">  5  6 -1 -1</clus>
<clus scale="   95.100">  5 10 -1 -1</clus>
<clus scale="  195.826">  2  7  1 -1</clus>
<clus scale="   27.859">  1  5  2 -1</clus>
</clustering>
</event>
<event>
10    2  0.5692308E-006  0.3319625E+03  0.7546771E-02  0.1112392E+00
         -3   -1    0    0    0  501 -0.00000000000E+00  0.00000000000E+00  0.38750800529E+03  0.38750800529E+03  0.00000000000E+00 0.  1.
         21   -1    0    0  503  502  0.00000000000E+00 -0.00000000000E+00 -0.15690385768E+03  0.15690385768E+03  0.00000000000E+00 0. -1.
         23    2    1    2    0    0  0.26861478281E+02  0.61386298977E+02  0.87252033375E+02  0.14048962831E+03  0.87376207378E+02 0.  0.
         23    2    1    2    0    0 -0.87400596669E+02 -0.15836826235E+03  0.81291156432E+02  0.21883879667E+03  0.92535376991E+02 0.  0.
        -11    1    3    3    0    0  0.92626489629E+01  0.76138505205E+02  0.88963136161E+02  0.11746194378E+03  0.00000000000E+00 0.  1.
         11    1    3    3    0    0  0.17598829318E+02 -0.14752206228E+02 -0.17111027853E+01  0.23027684527E+02  0.00000000000E+00 0. -1.
        -13    1    4    4    0    0 -0.42693174568E+02 -0.67868719637E+01  0.55329385711E+01  0.43581902150E+02  0.00000000000E+00 0.  1.
         13    1    4    4    0    0 -0.44707422101E+02 -0.15158139039E+03  0.75758217861E+02  0.17525689452E+03  0.00000000000E+00 0. -1.
         21    1    1    2  503  501 -0.21112747248E+02  0.13146246325E+01 -0.24524124749E+02  0.32386865069E+02  0.00000000000E+00 0. -1.
         -3    1    1    2    0  502  0.81651865636E+02  0.95667338744E+02  0.86585082549E+02  0.15269657293E+03  0.00000000000E+00 0.  1.
<scales pt_clust_5="13000.00000" pt_clust_6="13000.00000" pt_clust_7="13000.00000" pt_clust_8="13000.00000" pt_clust_9="21.15364" pt_clust_10="13000.00000"></scales>
<clustering>
<clus scale="   21.154">  2  9  1 -1</clus>
<clus scale="   87.376">  5  6 -1 -1</clus>
<clus scale="   92.535">  7  8 -1 -1</clus>
<clus scale="  109.280">  1  5  2 -1</clus>
<clus scale="  149.059">  7 10 -1 -1</clus>
<clus scale="   21.154">  2  5  1 -1</clus>
</clustering>
</event>
<event>
10    2  0.5692308E-006  0.1503484E+03  0.7546771E-02  0.1219640E+00
         21   -1    0    0  501  502  0.00000000000E+00  0.00000000000E+00  0.29664022201E+03  0.29664022201E+03  0.00000000000E+00 0. -1.
          2   -1    0    0  503    0 -0.00000000000E+00 -0.00000000000E+00 -0.22718502048E+03  0.22718502048E+03  0.00000000000E+00 0. -1.
         23    2    1    2    0    0 -0.55370225377E+02 -0.53077761614E+01  0.16229437045E+03  0.19448169772E+03  0.91594943758E+02 0.  0.
         23    2    1    2    0    0  0.25900490210E+02  0.56531400318E+01 -0.18930863901E+03  0.21225344605E+03  0.92254924912E+02 0.  0.
        -11    1    3    3    0    0 -0.30439107064E+02  0.31754228433E+02  0.13534713711E+03  0.14231555707E+03  0.00000000000E+00 0.  1.
         11    1    3    3    0    0 -0.24931118314E+02 -0.37062004595E+02  0.26947233341E+02  0.52166140644E+02  0.00000000000E+00 0. -1.
        -13    1    4    4    0    0 -0.22761063229E+02 -0.25110677616E+02 -0.10361617987E+03  0.10901800246E+03  0.00000000000E+00 0.  1.
         13    1    4    4    0    0  0.48661553439E+02  0.30763817648E+02 -0.85692459139E+02  0.10323544359E+03  0.00000000000E+00 0. -1.
         21    1    1    2  503  502  0.30122929395E+02 -0.20738730986E+02  0.87435464160E+02  0.94775768164E+02  0.00000000000E+00 0. -1.
          2    1    1    2  501    0 -0.65319422808E+00  0.20393367115E+02  0.90340059381E+01  0.22314330559E+02  0.00000000000E+00 0. -1.
<scales pt_clust_5="13000.00000" pt_clust_6="13000.00000" pt_clust_7="13000.00000" pt_clust_8="13000.00000" pt_clust_9="36.57165" pt_clust_10="13000.00000"></scales>
<clustering>
<clus scale="   36.572">  1  9  2 -1</clus>
<clus scale="   91.595">  5  6 -1 -1</clus>
<clus scale="   92.255">  7  8 -1 -1</clus>
<clus scale="   18.884">  7 10 -1 -1</clus>
<clus scale="   98.929">  2  5  1 -1</clus>
<clus scale="   36.572">  1  5  2 -1</clus>
</clustering>
</event>
<event>
10    2  0.5692308E-006  0.4702884E+03  0.7546771E-02  0.1042630E+00
          1   -1    0    0  503    0 -0.00000000000E+00  0.00000000000E+00  0.46074556854E+03  0.46074556854E+03  0.00000000000E+00 0. -1.
         21   -1    0    0  501  502  0.00000000000E+00 -0.00000000000E+00 -0.54341800133E+03  0.54341800133E+03  0.00000000000E+00 0. -1.
         23    2    1    2    0    0  0.72267723752E+02  0.22138622840E+03  0.25306714128E+03  0.35540040578E+03  0.89621339066E+02 0.  0.
         23    2    1    2    0    0 -0.16137851199E+03 -0.15172043298E+03  0.29937895850E+02  0.24112643253E+03  0.90463058428E+02 0.  0.
        -11    1    4    4    0    0 -0.38177357945E+02 -0.11440350400E+01 -0.15691162374E+02  0.41292033765E+02  0.00000000000E+00 0. -1.
         11    1    4    4    0    0 -0.12320115405E+03 -0.15057639794E+03  0.45629058224E+02  0.19983439877E+03  0.00000000000E+00 0.  1.
        -13    1    3    3    0    0  0.64734530443E+02  0.12158658107E+03  0.91569235907E+02  0.16540490045E+03  0.00000000000E+00 0.  1.
         13    1    3    3    0    0  0.75331933094E+01  0.99799647329E+02  0.16149790537E+03  0.18999550534E+03  0.00000000000E+00 0. -1.
         21    1    1    2  503  502  0.40793657299E+02  0.36938391684E+02 -0.66120212407E+02  0.86025866719E+02  0.00000000000E+00 0. -1.
          1    1    1    2  501    0  0.48317130943E+02 -0.10660418710E+03 -0.29955725752E+03  0.32161086484E+03  0.00000000000E+00 0. -1.
<scales pt_clust_5="13000.00000" pt_clust_6="13000.00000" pt_clust_7="13000.00000" pt_clust_8="13000.00000" pt_clust_9="55.03242" pt_clust_10="13000.00000"></scales>
<clustering>
<clus scale="   55.032">  2  9  1 -1</clus>
<clus scale="   89.621">  7  8 -1 -1</clus>
<clus scale="   90.463">  5  6 -1 -1</clus>
<clus scale="  111.456">  5 10 -1 -1</clus>
<clus scale="  254.438">  1  7  2 -1</clus>
<clus scale="   55.032">  2  5  1 -1</clus>
</clustering>
</event>
<event>
10    2  0.5692308E-006  0.1805681E+03  0.7546771E-02  0.1184662E+00
         21   -1    0    0  501  502  0.00000000000E+00  0.00000000000E+00  0.10783905377E+03  0.10783905377E+03  0.00000000000E+00 0.  1.
          1   -1    0    0  503    0 -0.00000000000E+00 -0.00000000000E+00 -0.46911366241E+03  0.46911366241E+03  0.00000000000E+00 0. -1.
         23    2    1    2    0    0 -0.98195145873E+01  0.93799334153E+02 -0.10410282144E+03  0.16658146307E+03  0.89539088954E+02 0.  0.
         23    2    1    2    0    0 -0.52888334237E+02 -0.19117002276E+02 -0.24590433490E+03  0.26709094781E+03  0.87783807181E+02 0.  0.
        -11    1    3    3    0    0  0.31865860373E+02  0.58454902031E+02 -0.26480652409E+02  0.71649379486E+02  0.00000000000E+00 0.  1.
         11    1    3    3    0    0 -0.41685374960E+02  0.35344432123E+02 -0.77622169032E+02  0.94932083580E+02  0.00000000000E+00 0. -1.
        -13    1    4    4    0    0  0.21600836847E+02 -0.12018943189E+02 -0.10131601196E+03  0.10428799272E+03  0.00000000000E+00 0. -1.
         13    1    4    4    0    0 -0.74489171084E+02 -0.70980590866E+01 -0.14458832294E+03  0.16280295508E+03  0.00000000000E+00 0.  1.
         21    1    1    2  503  502  0.32368293485E+02 -0.20806453520E+02  0.45328210038E+02  0.59458065529E+02  0.00000000000E+00 0.  1.
          1    1    1    2  501    0  0.30339555339E+02 -0.53875878358E+02 -0.56595662338E+02  0.83822239784E+02  0.00000000000E+00 0. -1.
<scales pt_clust_5="13000.00000" pt_clust_6="13000.00000" pt_clust_7="13000.00000" pt_clust_8="13000.00000" pt_clust_9="38.47876" pt_clust_10="13000.00000"></scales>
<clustering>
<clus scale="   38.479">  1  9  2 -1</clus>
<clus scale="   87.784">  7  8 -1 -1</clus>
<clus scale="   70.321">  7 10 -1 -1</clus>
<clus scale="   89.539">  5  6 -1 -1</clus>
<clus scale="  121.757">  2  5  1 -1</clus>
<clus scale="   38.479">  1  5  2 -1</clus>
</clustering>
</event>
<event>
10    2  0.5692308E-006  0.5020637E+03  0.7546771E-02  0.1065767E+00
          1   -1    0    0  503    0 -0.00000000000E+00  0.00000000000E+00  0.13687923343E+04  0.13687923343E+04  0.00000000000E+00 0. -1.
         21   -1    0    0  501  502  0.00000000000E+00 -0.00000000000E+00 -0.14079156972E+03  0.14079156972E+03  0.00000000000E+00 0. -1.
         23    2    1    2    0    0  0.32710419894E+02  0.53887723513E+02  0.40074770488E+03  0.41597441149E+03  0.91989834946E+02 0.  0.
         23    2    1    2    0    0  0.24570295885E+03 -0.14202282284E+03  0.43995192202E+03  0.53255056031E+03  0.97529377112E+02 0.  0.
        -13    1    3    3    0    0  0.62079948516E+02  0.17018330773E+02  0.23396641445E+03  0.24265989920E+03  0.00000000000E+00 0.  1.
         13    1    3    3    0    0 -0.29369528622E+02  0.36869392740E+02  0.16678129043E+03  0.17331451229E+03  0.00000000000E+00 0. -1.
        -13    1    4    4    0    0  0.95098611736E+02 -0.95670367193E+02  0.26321247737E+03  0.29576574067E+03  0.00000000000E+00 0.  1.
         13    1    4    4    0    0  0.15060434711E+03 -0.46352455651E+02  0.17673944465E+03  0.23678481964E+03  0.00000000000E+00 0. -1.
         21    1    1    2  503  502 -0.10192514146E+03 -0.72382940726E+01 -0.22644077394E+02  0.10466079306E+03  0.00000000000E+00 0. -1.
          1    1    1    2  501    0 -0.17648823729E+03  0.95373393403E+02  0.40994521508E+03  0.45639813917E+03  0.00000000000E+00 0. -1.
<scales pt_clust_5="13000.00000" pt_clust_6="13000.00000" pt_clust_7="13000.00000" pt_clust_8="13000.00000" pt_clust_9="102.18183" pt_clust_10="13000.00000"></scales>
<clustering>
<clus scale="   91.990">  5  6 -1 -1</clus>
<clus scale="   97.529">  7  8 -1 -1</clus>
<clus scale="  102.182">  2  9  1 -1</clus>
<clus scale="  108.640">  1  5  2 -1</clus>
<clus scale="  230.438">  7 10 -1 -1</clus>
<clus scale="  102.182">  2  5  1 -1</clus>
</clustering>
</event>
<event>
10    2  0.5692308E-006  0.1211687E+03  0.7546771E-02  0.1252983E+00
         21   -1    0    0  503  502  0.00000000000E+00  0.00000000000E+00  0.91824980770E+02  0.91824980770E+02  0.00000000000E+00 0. -1.
         -3   -1    0    0    0  501 -0.00000000000E+00 -0.00000000000E+00 -0.17843576324E+03  0.17843576324E+03  0.00000000000E+00 0.  1.
         23    2    1    2    0    0  0.91426683198E+01 -0.36503774132E+02 -0.19020475385E+02  0.98746763928E+02  0.89291830491E+02 0.  0.
         23    2    1    2    0    0 -0.44704104170E+02  0.14417898235E+02 -0.69504747699E+02  0.12120228135E+03  0.87479999610E+02 0.  0.
        -13    1    4    4    0    0 -0.71200655294E+02  0.59763740340E+01 -0.48615948796E+02  0.86421992793E+02  0.00000000000E+00 0. -1.
         13    1    4    4    0    0  0.26496551124E+02  0.84415242008E+01 -0.20888798903E+02  0.34780288554E+02  0.00000000000E+00 0.  1.
        -13    1    3    3    0    0 -0.62689872682E+01 -0.58154283988E+02 -0.34582739600E+02  0.67949884663E+02  0.00000000000E+00 0.  1.
         13    1    3    3    0    0  0.15411655588E+02  0.21650509855E+02  0.15562264215E+02  0.30796879265E+02  0.00000000000E+00 0. -1.
         21    1    1    2  503  501  0.15691357728E+02  0.13268163806E+02  0.14539683497E+02  0.25172708919E+02  0.00000000000E+00 0. -1.
         -3    1    1    2    0  502  0.19870078123E+02  0.88177120911E+01 -0.12625242883E+02  0.25138989816E+02  0.00000000000E+00 0.  1.
<scales pt_clust_5="13000.00000" pt_clust_6="13000.00000" pt_clust_7="13000.00000" pt_clust_8="13000.00000" pt_clust_9="20.54904" pt_clust_10="13000.00000"></scales>
<clustering>
<clus scale="   20.549">  1  9  2 -1</clus>
<clus scale="   87.480">  5  6 -1 -1</clus>
<clus scale="   23.459">  5 10 -1 -1</clus>
<clus scale="   89.292">  7  8 -1 -1</clus>
<clus scale="   95.609">  2  7  1 -1</clus>
<clus scale="   20.549">  1  5  2 -1</clus>
</clustering>
</event>
<event>
10    2  0.5692308E-006  0.1659457E+03  0.7546771E-02  0.1197331E+00
         21   -1    0    0  501  502  0.00000000000E+00  0.00000000000E+00  0.78730572171E+02  0.78730572171E+02  0.00000000000E+00 0.  1.
          2   -1    0    0  503    0 -0.00000000000E+00 -0.00000000000E+00 -0.66074071205E+03  0.66074071205E+03  0.00000000000E+00 0. -1.
         23    2    1    2    0    0 -0.23090701403E+02 -0.42095895217E+02 -0.17872152603E+03  0.20879298352E+03  0.96684441426E+02 0.  0.
         23    2    1    2    0    0  0.44900302055E+02  0.34468676675E+02 -0.38601744154E+03  0.40042842744E+03  0.90162816821E+02 0.  0.
        -13    1    4    4    0    0 -0.21211046361E+02 -0.64647020028E+01 -0.39544816524E+02  0.45337549268E+02  0.00000000000E+00 0.  1.
         13    1    4    4    0    0  0.66111348416E+02  0.40933378678E+02 -0.34647262501E+03  0.35509087818E+03  0.00000000000E+00 0. -1.
        -13    1    3    3    0    0  0.76312935554E+00 -0.70447072802E+02 -0.10786781903E+03  0.12883648092E+03  0.00000000000E+00 0.  1.
         13    1    3    3    0    0 -0.23853830759E+02  0.28351177585E+02 -0.70853707000E+02  0.79956502600E+02  0.00000000000E+00 0. -1.
         21    1    1    2  503  502 -0.67751629220E+02 -0.30533584498E+01  0.19359347794E+02  0.70529359892E+02  0.00000000000E+00 0.  1.
          2    1    1    2  501    0  0.45942028568E+02  0.10680576991E+02 -0.36630520101E+02  0.59720513366E+02  0.00000000000E+00 0. -1.
<scales pt_clust_5="13000.00000" pt_clust_6="13000.00000" pt_clust_7="13000.00000" pt_clust_8="13000.00000" pt_clust_9="67.82040" pt_clust_10="13000.00000"></scales>
<clustering>
<clus scale="   67.820">  1  9  2 -1</clus>
<clus scale="   90.163">  5  6 -1 -1</clus>
<clus scale="   24.745">  5 10 -1 -1</clus>
<clus scale="   96.684">  7  8 -1 -1</clus>
<clus scale="  118.621">  2  7  1 -1</clus>
<clus scale="   67.820">  1  5  2 -1</clus>
</clustering>
</event>
<event>
10    2  0.5692308E-006  0.2975828E+03  0.7546771E-02  0.1128391E+00
         21   -1    0    0  503  502  0.00000000000E+00  0.00000000000E+00  0.14852250514E+03  0.14852250514E+03  0.00000000000E+00 0. -1.
          1   -1    0    0  502    0 -0.00000000000E+00 -0.00000000000E+00 -0.47845414665E+03  0.47845414665E+03  0.00000000000E+00 0. -1.
         23    2    1    2    0    0 -0.27483570525E+02  0.48734351246E+01 -0.67806877592E+02  0.11692108514E+03  0.91069591430E+02 0.  0.
         23    2    1    2    0    0  0.10984205412E+03  0.52371647728E+02 -0.28732050344E+03  0.32646227331E+03  0.96002488820E+02 0.  0.
        -11    1    4    4    0    0  0.14745028863E+02 -0.24427312785E+02 -0.89352977718E+02  0.93797996317E+02  0.00000000000E+00 0.  1.
         11    1    4    4    0    0  0.95097025257E+02  0.76798960514E+02 -0.19796752572E+03  0.23266427699E+03  0.00000000000E+00 0. -1.
        -13    1    3    3    0    0 -0.35404110228E+02  0.41833364970E+02 -0.53256555997E+02  0.76418205962E+02  0.00000000000E+00 0.  1.
         13    1    3    3    0    0  0.79205397038E+01 -0.36959929845E+02 -0.14550321595E+02  0.40502879180E+02  0.00000000000E+00 0. -1.
         21    1    1    2  503  501 -0.53486204999E+02  0.42591436971E+02  0.39062957110E+02  0.78744645828E+02  0.00000000000E+00 0. -1.
          1    1    1    2  501    0 -0.28872278596E+02 -0.99836519824E+02 -0.13867217590E+02  0.10484864751E+03  0.00000000000E+00 0. -1.
<scales pt_clust_5="13000.00000" pt_clust_6="13000.00000" pt_clust_7="13000.00000" pt_clust_8="13000.00000" pt_clust_9="68.37254" pt_clust_10="13000.00000"></scales>
<clustering>
<clus scale="   68.373">  1  9  2 -1</clus>
<clus scale="   91.070">  7  8 -1 -1</clus>
<clus scale="   96.002">  5  6 -1 -1</clus>
<clus scale="   96.210">  5 10 -1 -1</clus>
<clus scale="  101.701">  2  7  1 -1</clus>
<clus scale="   68.373">  1  5  2 -1</clus>
</clustering>
</event>
<event>
10    2  0.5692308E-006  0.2343351E+03  0.7546771E-02  0.1138343E+00
         21   -1    0    0  501  502  0.00000000000E+00  0.00000000000E+00  0.53204788963E+02  0.53204788963E+02  0.00000000000E+00 0. -1.
          1   -1    0    0  503    0 -0.00000000000E+00 -0.00000000000E+00 -0.14120354608E+04  0.14120354608E+04  0.00000000000E+00 0. -1.
         23    2    1    2    0    0  0.91661944735E+02 -0.84967262886E+02 -0.63895594617E+03  0.65757246408E+03  0.92279447900E+02 0.  0.
         23    2    1    2    0    0 -0.16561576550E+01  0.66096034465E+02 -0.49201976996E+03  0.50557338944E+03  0.95653381822E+02 0.  0.
        -13    1    3    3    0    0  0.10543530493E+03 -0.50597116169E+02 -0.51993258404E+03  0.53292266197E+03  0.00000000000E+00 0. -1.
         13    1    3    3    0    0 -0.13773360192E+02 -0.34370146717E+02 -0.11902336212E+03  0.12464980212E+03  0.00000000000E+00 0.  1.
        -13    1    4    4    0    0  0.41713906112E+02  0.70034904117E+01 -0.15445380198E+03  0.16014079988E+03  0.00000000000E+00 0.  1.
         13    1    4    4    0    0 -0.43370063767E+02  0.59092544053E+02 -0.33756596798E+03  0.34543258956E+03  0.00000000000E+00 0. -1.
         21    1    1    2  503  502  0.18370469425E+02 -0.25995919387E+02  0.12852500095E+02  0.34328541046E+02  0.00000000000E+00 0. -1.
          1    1    1    2  501    0 -0.10837625650E+03  0.44867147808E+02 -0.24070745586E+03  0.26776585524E+03  0.00000000000E+00 0. -1.
<scales pt_clust_5="13000.00000" pt_clust_6="13000.00000" pt_clust_7="13000.00000" pt_clust_8="13000.00000" pt_clust_9="31.83178" pt_clust_10="13000.00000"></scales>
<clustering>
<clus scale="   31.832">  1  9  2 -1</clus>
<clus scale="   92.279">  5  6 -1 -1</clus>
<clus scale="   95.653">  7  8 -1 -1</clus>
<clus scale="  105.286">  7 10 -1 -1</clus>
<clus scale="  163.352">  2  5  1 -1</clus>
<clus scale="   31.832">  1  5  2 -1</clus>
</clustering>
</event>
<event>
10    2  0.5692308E-006  0.1740569E+03  0.7546771E-02  0.1177775E+00
         21   -1    0    0  501  502  0.00000000000E+00  0.00000000000E+00  0.77852389118E+02  0.77852389118E+02  0.00000000000E+00 0.  1.
          2   -1    0    0  503    0 -0.00000000000E+00 -0.00000000000E+00 -0.15129297375E+04  0.15129297375E+04  0.00000000000E+00 0. -1.
         23    2    1    2    0    0  0.75946026293E+01  0.89033836601E+02 -0.43783793001E+03  0.45611769760E+03  0.91414435727E+02 0.  0.
         23    2    1    2    0    0 -0.64053676066E+02 -0.13569601222E+03 -0.71194188924E+03  0.73339638990E+03  0.92156008563E+02 0.  0.
        -11    1    4    4    0    0 -0.80646363358E+02 -0.85836368004E+02 -0.56997251799E+03  0.58201407995E+03  0.00000000000E+00 0.  1.
         11    1    4    4    0    0  0.16592687292E+02 -0.49859644220E+02 -0.14196937125E+03  0.15138230995E+03  0.00000000000E+00 0. -1.
        -13    1    3    3    0    0 -0.31179670855E+02  0.82554690720E+02 -0.31634603062E+03  0.32842390279E+03  0.00000000000E+00 0.  1.
         13    1    3    3    0    0  0.38774273485E+02  0.64791458811E+01 -0.12149189939E+03  0.12769379481E+03  0.00000000000E+00 0. -1.
         21    1    1    2  503  502  0.94304984218E+02  0.76619637555E+02 -0.10162717243E+02  0.12193145504E+03  0.00000000000E+00 0.  1.
          2    1    1    2  501    0 -0.37845910781E+02 -0.29957461932E+02 -0.27513481187E+03  0.27933658406E+03  0.00000000000E+00 0. -1.
<scales pt_clust_5="13000.00000" pt_clust_6="13000.00000" pt_clust_7="13000.00000" pt_clust_8="13000.00000" pt_clust_9="121.50720" pt_clust_10="13000.00000"></scales>
<clustering>
<clus scale="   91.414">  7  8 -1 -1</clus>
<clus scale="   92.156">  5  6 -1 -1</clus>
<clus scale="   48.268">  5 10 -1 -1</clus>
<clus scale="  121.507">  1  9  2 -1</clus>
<clus scale="  158.649">  2  7  1 -1</clus>
<clus scale="  121.507">  1  5  2 -1</clus>
</clustering>
</event>
<event>
10    2  0.5692308E-006  0.2791645E+03  0.7546771E-02  0.1130610E+00
         -4   -1    0    0    0  501 -0.00000000000E+00  0.00000000000E+00  0.55806753725E+03  0.55806753725E+03  0.00000000000E+00 0.  1.
         21   -1    0    0  503  502  0.00000000000E+00 -0.00000000000E+00 -0.43664117703E+03  0.43664117703E+03  0.00000000000E+00 0.  1.
         23    2    1    2    0    0  0.85345065548E+02  0.18998415218E+01  0.21140942007E+03  0.24594537286E+03  0.92237703387E+02 0.  0.
         23    2    1    2    0    0 -0.93426751259E+02 -0.51055554098E+02  0.14800591204E+03  0.20470720488E+03  0.93080944739E+02 0.  0.
        -11    1    3    3    0    0  0.38026168764E+02  0.98392041294E+01  0.18891256602E+03  0.19295273268E+03  0.00000000000E+00 0. -1.
         11    1    3    3    0    0  0.47318896784E+02 -0.79393626076E+01  0.22496854058E+02  0.52992640187E+02  0.00000000000E+00 0.  1.
        -11    1    4    4    0    0 -0.41097676473E+02  0.20815635726E+02  0.23493252972E+02  0.51713079945E+02  0.00000000000E+00 0. -1.
         11    1    4    4    0    0 -0.52329074785E+02 -0.71871189824E+02  0.12451265907E+03  0.15299412493E+03  0.00000000000E+00 0.  1.
         21    1    1    2  503  501 -0.66800628003E+02 -0.63648797274E+02 -0.35395632167E+03  0.36578486976E+03  0.00000000000E+00 0.  1.
         -4    1    1    2    0  502  0.74882313714E+02  0.11280450985E+03  0.11596734977E+03  0.17827126679E+03  0.00000000000E+00 0.  1.
<scales pt_clust_5="13000.00000" pt_clust_6="13000.00000" pt_clust_7="13000.00000" pt_clust_8="13000.00000" pt_clust_9="92.26859" pt_clust_10="13000.00000"></scales>
<clustering>
<clus scale="   92.238">  5  6 -1 -1</clus>
<clus scale="   92.269">  2  9  1 -1</clus>
<clus scale="   93.081">  7  8 -1 -1</clus>
<clus scale="   99.235">  7 10 -1 -1</clus>
<clus scale="  116.648">  1  5  2 -1</clus>
<clus scale="   92.269">  2  5  1 -1</clus>
</clustering>
</event>
<event>
10    2  0.5692308E-006  0.4388086E+03  0.7546771E-02  0.1055622E+00
          2   -1    0    0  502    0 -0.00000000000E+00  0.00000000000E+00  0.49361878531E+03  0.49361878531E+03  0.00000000000E+00 0. -1.
         21   -1    0    0  503  502  0.00000000000E+00 -0.00000000000E+00 -0.31425554468E+03  0.31425554468E+03  0.00000000000E+00 0.  1.
         23    2    1    2    0    0 -0.58034370486E+02  0.16554430293E+03  0.32841782150E+02  0.20061116949E+03  0.91615251347E+02 0.  0.
         23    2    1    2    0    0 -0.16136333556E+02 -0.32028570029E+03  0.23527700484E+03  0.40815606834E+03  0.91612204706E+02 0.  0.
        -11    1    3    3    0    0  0.10536370087E+01  0.34880052768E+02 -0.28092573835E+02  0.44798671149E+02  0.00000000000E+00 0.  1.
         11    1    3    3    0    0 -0.59088007495E+02  0.13066425017E+03  0.60934355985E+02  0.15581249835E+03  0.00000000000E+00 0. -1.
        -13    1    4    4    0    0 -0.44687393249E+02 -0.22959047639E+03  0.13542620363E+03  0.27027579728E+03  0.00000000000E+00 0.  1.
         13    1    4    4    0    0  0.28551059693E+02 -0.90695223894E+02  0.99850801204E+02  0.13788027106E+03  0.00000000000E+00 0. -1.
         21    1    1    2  503  501  0.36487437386E+02  0.68331511044E+02 -0.66863623837E+02  0.10232923669E+03  0.00000000000E+00 0. -1.
          2    1    1    2  501    0  0.37683266657E+02  0.86409886307E+02 -0.21891922514E+02  0.96777855467E+02  0.00000000000E+00 0. -1.
<scales pt_clust_5="13000.00000" pt_clust_6="13000.00000" pt_clust_7="13000.00000" pt_clust_8="13000.00000" pt_clust_9="77.46308" pt_clust_10="13000.00000"></scales>
<clustering>
<clus scale="   77.463">  2  9  1 -1</clus>
<clus scale="   91.612">  7  8 -1 -1</clus>
<clus scale="   91.615">  5  6 -1 -1</clus>
<clus scale="  114.231">  7 10 -1 -1</clus>
<clus scale="  216.064">  1  5  2 -1</clus>
<clus scale="   77.463">  2  5  1 -1</clus>
</clustering>
</event>
<event>
10    2  0.5692308E-006  0.7772120E+03  0.7546771E-02  0.1014330E+00
          1   -1    0    0  502    0 -0.00000000000E+00  0.00000000000E+00  0.78418219864E+03  0.78418219864E+03  0.00000000000E+00 0. -1.
         21   -1    0    0  503  502  0.00000000000E+00 -0.00000000000E+00 -0.35382711876E+03  0.35382711876E+03  0.00000000000E+00 0. -1.
         23    2    1    2    0    0  0.85460627783E+02 -0.39319629789E+02  0.26096052353E+03  0.29219384904E+03  0.91800318007E+02 0.  0.
         23    2    1    2    0    0 -0.16906262845E+03 -0.19503848554E+03  0.40990648597E+03  0.49297929060E+03  0.91559109537E+02 0.  0.
        -13    1    3    3    0    0  0.27424973348E+02 -0.60622143863E+02  0.16648594801E+03  0.17928955456E+03  0.00000000000E+00 0.  1.
         13    1    3    3    0    0  0.58035654435E+02  0.21302514074E+02  0.94474575522E+02  0.11290429448E+03  0.00000000000E+00 0. -1.
        -13    1    4    4    0    0 -0.46113559028E+02 -0.66764286292E+02  0.61268336773E+02  0.10167467404E+03  0.00000000000E+00 0.  1.
         13    1    4    4    0    0 -0.12294906942E+03 -0.12827419925E+03  0.34863814920E+03  0.39130461656E+03  0.00000000000E+00 0. -1.
         21    1    1    2  503  501 -0.82951035245E+01  0.18824380740E+02 -0.37690420446E+02  0.42938721990E+02  0.00000000000E+00 0. -1.
          1    1    1    2  501    0  0.91897104191E+02  0.21553373459E+03 -0.20282150918E+03  0.30989745577E+03  0.00000000000E+00 0. -1.
<scales pt_clust_5="13000.00000" pt_clust_6="13000.00000" pt_clust_7="13000.00000" pt_clust_8="13000.00000" pt_clust_9="20.57100" pt_clust_10="13000.00000"></scales>
<clustering>
<clus scale="   20.571">  2  9  1 -1</clus>
<clus scale="   91.559">  7  8 -1 -1</clus>
<clus scale="   91.800">  5  6 -1 -1</clus>
<clus scale="  130.895">  1  5  2 -1</clus>
<clus scale="  245.573">  7 10 -1 -1</clus>
<clus scale="   20.571">  2  5  1 -1</clus>
</clustering>
</event>
<event>
10    2  0.5692308E-006  0.1627400E+03  0.7546771E-02  0.1201811E+00
         -3   -1    0    0    0  501 -0.00000000000E+00  0.00000000000E+00  0.13404431333E+03  0.13404431333E+03  0.00000000000E+00 0.  1.
         21   -1    0    0  501  502  0.00000000000E+00 -0.00000000000E+00 -0.36623016206E+03  0.36623016206E+03  0.00000000000E+00 0. -1.
         23    2    1    2    0    0 -0.16114067197E+02 -0.23682389734E+01 -0.77983744302E+02  0.13484266401E+03  0.10879249949E+03 0.  0.
         23    2    1    2    0    0  0.26736812159E+02 -0.87432117880E+01 -0.22619196357E+02  0.95471299664E+02  0.88384614831E+02 0.  0.
        -11    1    3    3    0    0  0.16086232158E+02  0.43074457872E+02 -0.10173340009E+02  0.47092171673E+02  0.00000000000E+00 0.  1.
         11    1    3    3    0    0 -0.32200299355E+02 -0.45442696845E+02 -0.67810404293E+02  0.87750492338E+02  0.00000000000E+00 0. -1.
        -13    1    4    4    0    0  0.53738501346E+02 -0.19942626173E+02 -0.30861107141E+02  0.65099483865E+02  0.00000000000E+00 0.  1.
         13    1    4    4    0    0 -0.27001689187E+02  0.11199414385E+02  0.82419107840E+01  0.30371815798E+02  0.00000000000E+00 0. -1.
         21    1    1    2  503  502 -0.15829491854E+02 -0.32972069552E+02 -0.19174077068E+03  0.19519798494E+03  0.00000000000E+00 0.  1.
         -3    1    1    2    0  503  0.52067468930E+01  0.44083520314E+02  0.60157862604E+02  0.74762526774E+02  0.00000000000E+00 0.  1.
<scales pt_clust_5="13000.00000" pt_clust_6="13000.00000" pt_clust_7="13000.00000" pt_clust_8="13000.00000" pt_clust_9="36.57499" pt_clust_10="13000.00000"></scales>
<clustering>
<clus scale="   36.575">  2  9  1 -1</clus>
<clus scale="   88.385">  7  8 -1 -1</clus>
<clus scale="   42.930">  7 10 -1 -1</clus>
<clus scale="  108.792">  5  6 -1 -1</clus>
<clus scale="  114.101">  1  5  2 -1</clus>
<clus scale="   36.575">  2  5  1 -1</clus>
</clustering>
</event>
<event>
10    2  0.5692308E-006  0.2926859E+03  0.7546771E-02  0.1122267E+00
         21   -1    0    0  501  502  0.00000000000E+00  0.00000000000E+00  0.57036600947E+02  0.57036600947E+02  0.00000000000E+00 0. -1.
          1   -1    0    0  503    0 -0.00000000000E+00 -0.00000000000E+00 -0.14315744994E+04  0.14315744994E+04  0.00000000000E+00 0. -1.
         23    2    1    2    0    0  0.60840131877E+02 -0.83013140174E+02 -0.20414691477E+03  0.24643619952E+03  0.91989861060E+02 0.  0.
         23    2    1    2    0    0 -0.69641238371E+02 -0.87724147468E+02 -0.52525771486E+03  0.54459349556E+03  0.90227380846E+02 0.  0.
        -11    1    4    4    0    0 -0.83237915439E+02 -0.44711829426E+02 -0.41171340765E+03  0.42241641575E+03  0.00000000000E+00 0. -1.
         11    1    4    4    0    0  0.13596677068E+02 -0.43012318042E+02 -0.11354430721E+03  0.12217707981E+03  0.00000000000E+00 0.  1.
        -11    1    3    3    0    0  0.44262343192E+02 -0.34242672288E+02 -0.18192264427E+03  0.19033539904E+03  0.00000000000E+00 0. -1.
         11    1    3    3    0    0  0.16577788685E+02 -0.48770467886E+02 -0.22224270498E+02  0.56100800481E+02  0.00000000000E+00 0.  1.
         21    1    1    2  503  502 -0.18257031681E+02  0.30115495793E+02  0.15315629966E+01  0.35250645071E+02  0.00000000000E+00 0. -1.
          1    1    1    2  501    0  0.27058138175E+02  0.14062179185E+03 -0.64666483179E+03  0.66233076016E+03  0.00000000000E+00 0. -1.
<scales pt_clust_5="13000.00000" pt_clust_6="13000.00000" pt_clust_7="13000.00000" pt_clust_8="13000.00000" pt_clust_9="35.21736" pt_clust_10="13000.00000"></scales>
<clustering>
<clus scale="   35.217">  1  9  2 -1</clus>
<clus scale="   90.227">  5  6 -1 -1</clus>
<clus scale="   91.990">  7  8 -1 -1</clus>
<clus scale="  124.398">  2  7  1 -1</clus>
<clus scale="  120.601">  5 10 -1 -1</clus>
<clus scale="   35.217">  1  5  2 -1</clus>
</clustering>
</event>
<event>
10    2  0.5692308E-006  0.1870713E+03  0.7546771E-02  0.1181203E+00
         21   -1    0    0  503  502  0.00000000000E+00  0.00000000000E+00  0.27957220107E+03  0.27957220107E+03  0.00000000000E+00 0. -1.
         -1   -1    0    0    0  501 -0.00000000000E+00 -0.00000000000E+00 -0.19489473269E+03  0.19489473269E+03  0.00000000000E+00 0.  1.
         23    2    1    2    0    0 -0.10223421074E+02  0.53001039989E+02  0.38099128782E+02  0.11443065579E+03  0.93430202786E+02 0.  0.
         23    2    1    2    0    0 -0.13668598126E+02 -0.90156713134E+02 -0.82580786241E+02  0.15605624331E+03  0.96015109871E+02 0.  0.
        -11    1    4    4    0    0  0.42241797702E+01 -0.24930966550E+02  0.20646481415E+02  0.32644662392E+02  0.00000000000E+00 0. -1.
         11    1    4    4    0    0 -0.17892777897E+02 -0.65225746584E+02 -0.10322726766E+03  0.12341158092E+03  0.00000000000E+00 0.  1.
        -13    1    3    3    0    0 -0.50318640040E+02  0.43734883745E+02  0.25708828411E+02  0.71453827399E+02  0.00000000000E+00 0.  1.
         13    1    3    3    0    0  0.40095218965E+02  0.92661562437E+01  0.12390300371E+02  0.42976828393E+02  0.00000000000E+00 0. -1.
         21    1    1    2  503  501 -0.32822897318E+02  0.24811964809E+02  0.13913048700E+03  0.14508710694E+03  0.00000000000E+00 0. -1.
         -1    1    1    2    0  502  0.56714916519E+02  0.12343708336E+02 -0.99713611672E+01  0.58892927714E+02  0.00000000000E+00 0.  1.
<scales pt_clust_5="13000.00000" pt_clust_6="13000.00000" pt_clust_7="13000.00000" pt_clust_8="13000.00000" pt_clust_9="41.14579" pt_clust_10="13000.00000"></scales>
<clustering>
<clus scale="   41.146">  1  9  2 -1</clus>
<clus scale="   93.430">  7  8 -1 -1</clus>
<clus scale="   96.015">  5  6 -1 -1</clus>
<clus scale="   53.564">  5 10 -1 -1</clus>
<clus scale="  118.303">  2  7  1 -1</clus>
<clus scale="   41.146">  1  5  2 -1</clus>
</clustering>
</event>
<event>
10    2  0.5692308E-006  0.1695173E+03  0.7546771E-02  0.1201216E+00
         21   -1    0    0  503  502  0.00000000000E+00  0.00000000000E+00  0.20035618537E+03  0.20035618537E+03  0.00000000000E+00 0.  1.
          1   -1    0    0  502    0 -0.00000000000E+00 -0.00000000000E+00 -0.24151686762E+03  0.24151686762E+03  0.00000000000E+00 0. -1.
         23    2    1    2    0    0  0.41406248453E+01  0.41449933721E+02 -0.76421511860E+02  0.12696044293E+03  0.92430865053E+02 0.  0.
         23    2    1    2    0    0 -0.45374400272E+02 -0.72096700544E+02 -0.93058681900E+02  0.15654334097E+03  0.92677553359E+02 0.  0.
        -11    1    4    4    0    0  0.44998905176E+01 -0.72321834662E+02 -0.72785848717E+02  0.10270577665E+03  0.00000000000E+00 0. -1.
         11    1    4    4    0    0 -0.49874290790E+02  0.22513411755E+00 -0.20272833183E+02  0.53837564325E+02  0.00000000000E+00 0.  1.
        -13    1    3    3    0    0  0.45339570186E+02  0.18071163770E+02 -0.58802793309E+02  0.76419971771E+02  0.00000000000E+00 0. -1.
         13    1    3    3    0    0 -0.41198945340E+02  0.23378769952E+02 -0.17618718552E+02  0.50540471159E+02  0.00000000000E+00 0.  1.
         21    1    1    2  503  501  0.38562421242E+02 -0.26325663289E+01  0.11683535066E+03  0.12306295097E+03  0.00000000000E+00 0.  1.
          1    1    1    2  501    0  0.26713541845E+01  0.33279333152E+02  0.11484160852E+02  0.35306318113E+02  0.00000000000E+00 0. -1.
<scales pt_clust_5="13000.00000" pt_clust_6="13000.00000" pt_clust_7="13000.00000" pt_clust_8="13000.00000" pt_clust_9="38.65218" pt_clust_10="13000.00000"></scales>
<clustering>
<clus scale="   38.652">  1  9  2 -1</clus>
<clus scale="   92.431">  7  8 -1 -1</clus>
<clus scale="   92.678">  5  6 -1 -1</clus>
<clus scale="   35.357">  5 10 -1 -1</clus>
<clus scale="  102.265">  2  7  1 -1</clus>
<clus scale="   38.652">  1  5  2 -1</clus>
</clustering>
</event>
<event>
10    2  0.5692308E-006  0.2546286E+03  0.7546771E-02  0.1146261E+00
         21   -1    0    0  503  502  0.00000000000E+00  0.00000000000E+00  0.41702057989E+03  0.41702057989E+03  0.00000000000E+00 0. -1.
         -1   -1    0    0    0  501 -0.00000000000E+00 -0.00000000000E+00 -0.11164275288E+03  0.11164275288E+03  0.00000000000E+00 0.  1.
         23    2    1    2    0    0  0.16774341607E+02 -0.44513979656E+02  0.34442318067E+02  0.10831197494E+03  0.91007349814E+02 0.  0.
         23    2    1    2    0    0 -0.18959024252E+02  0.82737354690E+02 -0.50751104044E+00  0.12563904104E+03  0.92628271092E+02 0.  0.
        -11    1    3    3    0    0  0.13061568778E+02 -0.72420230603E+02  0.31358023758E+02  0.79991374745E+02  0.00000000000E+00 0.  1.
         11    1    3    3    0    0  0.37127728297E+01  0.27906250947E+02  0.30842943084E+01  0.28320600194E+02  0.00000000000E+00 0. -1.
        -13    1    4    4    0    0  0.15553678730E+02  0.73566113960E+02 -0.28347888849E+02  0.80358526911E+02  0.00000000000E+00 0. -1.
         13    1    4    4    0    0 -0.34512702982E+02  0.91712407304E+01  0.27840377809E+02  0.45280514133E+02  0.00000000000E+00 0.  1.
         21    1    1    2  503  501  0.50383842851E+02 -0.21920469412E+01  0.85405307835E+02  0.99183684629E+02  0.00000000000E+00 0. -1.
         -1    1    1    2    0  502 -0.48199160207E+02 -0.36031328093E+02  0.18603771216E+03  0.19552863216E+03  0.00000000000E+00 0.  1.
<scales pt_clust_5="13000.00000" pt_clust_6="13000.00000" pt_clust_7="13000.00000" pt_clust_8="13000.00000" pt_clust_9="50.43150" pt_clust_10="13000.00000"></scales>
<clustering>
<clus scale="   50.432">  1  9  2 -1</clus>
<clus scale="   91.007">  5  6 -1 -1</clus>
<clus scale="   92.628">  7  8 -1 -1</clus>
<clus scale="   41.696">  7 10 -1 -1</clus>
<clus scale="  105.274">  2  5  1 -1</clus>
<clus scale="   50.432">  1  5  2 -1</clus>
</clustering>
</event>
<event>
10    2  0.5692308E-006  0.2357414E+03  0.7546771E-02  0.1147829E+00
         21   -1    0    0  503  502  0.00000000000E+00  0.00000000000E+00  0.18740713398E+03  0.18740713398E+03  0.00000000000E+00 0.  1.
         -3   -1    0    0    0  501 -0.00000000000E+00 -0.00000000000E+00 -0.56465098744E+03  0.56465098744E+03  0.00000000000E+00 0.  1.
         23    2    1    2    0    0  0.18965180213E+02 -0.88896365487E+02 -0.34323833919E+03  0.36678490325E+03  0.91958501028E+02 0.  0.
         23    2    1    2    0    0 -0.10953847204E+03  0.62425863455E+02 -0.42827214697E+02  0.16097731259E+03  0.90464686832E+02 0.  0.
        -11    1    3    3    0    0 -0.28517576953E+02 -0.65403556988E+02 -0.14520547184E+03  0.16178846224E+03  0.00000000000E+00 0.  1.
         11    1    3    3    0    0  0.47482757166E+02 -0.23492808499E+02 -0.19803286735E+03  0.20499644102E+03  0.00000000000E+00 0. -1.
        -13    1    4    4    0    0 -0.96149263887E+02  0.24786688009E+02 -0.61587363142E+02  0.11684204786E+03  0.00000000000E+00 0.  1.
         13    1    4    4    0    0 -0.13389208157E+02  0.37639175446E+02  0.18760148445E+02  0.44135264732E+02  0.00000000000E+00 0. -1.
         21    1    1    2  503  501  0.34483548707E+02  0.23348153994E+02  0.10497573561E+03  0.11293430167E+03  0.00000000000E+00 0.  1.
         -3    1    1    2    0  502  0.56089743125E+02  0.31223480373E+01 -0.96154035194E+02  0.11136160391E+03  0.00000000000E+00 0.  1.
<scales pt_clust_5="13000.00000" pt_clust_6="13000.00000" pt_clust_7="13000.00000" pt_clust_8="13000.00000" pt_clust_9="41.64434" pt_clust_10="13000.00000"></scales>
<clustering>
<clus scale="   41.644">  1  9  2 -1</clus>
<clus scale="   90.465">  7  8 -1 -1</clus>
<clus scale="   59.675">  7 10 -1 -1</clus>
<clus scale="   91.959">  5  6 -1 -1</clus>
<clus scale="  127.793">  2  5  1 -1</clus>
<clus scale="   41.644">  1  5  2 -1</clus>
</clustering>
</event>
<event>
10    2  0.5692308E-006  0.2574782E+03  0.7546771E-02  0.1142271E+00
         21   -1    0    0  501  502  0.00000000000E+00  0.00000000000E+00  0.60280754702E+02  0.60280754702E+02  0.00000000000E+00 0.  1.
          2   -1    0    0  503    0 -0.00000000000E+00 -0.00000000000E+00 -0.10883638184E+04  0.10883638184E+04  0.00000000000E+00 0. -1.
         23    2    1    2    0    0  0.98284014874E+01  0.40286899916E+02 -0.19882449015E+03  0.22329113158E+03  0.92779953522E+02 0.  0.
         23    2    1    2    0    0 -0.11175690437E+03  0.21984205927E+02 -0.34699090934E+03  0.37738993215E+03  0.95118656123E+02 0.  0.
        -13    1    3    3    0    0  0.13416950353E+02 -0.28959668102E+02 -0.54095996131E+02  0.62809662718E+02  0.00000000000E+00 0. -1.
         13    1    3    3    0    0 -0.35885488659E+01  0.69246568018E+02 -0.14472849402E+03  0.16048146886E+03  0.00000000000E+00 0.  1.
        -13    1    4    4    0    0 -0.82768177723E+02  0.42977805371E+02 -0.14605310565E+03  0.17328927453E+03  0.00000000000E+00 0.  1.
         13    1    4    4    0    0 -0.28988726651E+02 -0.20993599443E+02 -0.20093780369E+03  0.20410065762E+03  0.00000000000E+00 0. -1.
         21    1    1    2  503  502  0.56126898035E+02  0.42030796256E+02 -0.21528069143E+02  0.73350352950E+02  0.00000000000E+00 0.  1.
          2    1    1    2  501    0  0.45801604852E+02 -0.10430190210E+03 -0.46073959511E+03  0.47461315646E+03  0.00000000000E+00 0. -1.
<scales pt_clust_5="13000.00000" pt_clust_6="13000.00000" pt_clust_7="13000.00000" pt_clust_8="13000.00000" pt_clust_9="70.12002" pt_clust_10="13000.00000"></scales>
<clustering>
<clus scale="   70.120">  1  9  2 -1</clus>
<clus scale="   92.780">  5  6 -1 -1</clus>
<clus scale="   95.119">  7  8 -1 -1</clus>
<clus scale="  111.557">  7 10 -1 -1</clus>
<clus scale="  112.021">  2  5  1 -1</clus>
<clus scale="   70.120">  1  5  2 -1</clus>
</clustering>
</event>
<event>
10    2  0.5692308E-006  0.3490088E+03  0.7546771E-02  0.1103899E+00
          4   -1    0    0  503    0 -0.00000000000E+00  0.00000000000E+00  0.10867663340E+04  0.10867663340E+04  0.00000000000E+00 0. -1.
         21   -1    0    0  501  502  0.00000000000E+00 -0.00000000000E+00 -0.60799759172E+02  0.60799759172E+02  0.00000000000E+00 0. -1.
         23    2    1    2    0    0  0.66935382508E+02 -0.64575812993E+01  0.36648019767E+03  0.38389183523E+03  0.92429216640E+02 0.  0.
         23    2    1    2    0    0 -0.13653104978E+03 -0.11247975878E+03  0.46217704173E+03  0.50291938867E+03  0.89598381150E+02 0.  0.
        -11    1    3    3    0    0  0.33883966198E+02  0.35588784897E+02  0.26146372949E+03  0.26604128742E+03  0.00000000000E+00 0.  1.
         11    1    3    3    0    0  0.33051416310E+02 -0.42046366196E+02  0.10501646818E+03  0.11785054781E+03  0.00000000000E+00 0. -1.
        -11    1    4    4    0    0 -0.45545976859E+02 -0.52066775502E+02  0.81574725994E+02  0.10695709906E+03  0.00000000000E+00 0.  1.
         11    1    4    4    0    0 -0.90985072917E+02 -0.60412983277E+02  0.38060231574E+03  0.39596228960E+03  0.00000000000E+00 0. -1.
         21    1    1    2  503  502  0.27399824178E+02 -0.83444712191E+01  0.70917741433E+02  0.76483374762E+02  0.00000000000E+00 0.  1.
          4    1    1    2  501    0  0.42195843090E+02  0.12728181130E+03  0.12639159404E+03  0.18427149455E+03  0.00000000000E+00 0. -1.
<scales pt_clust_5="13000.00000" pt_clust_6="13000.00000" pt_clust_7="13000.00000" pt_clust_8="13000.00000" pt_clust_9="28.64230" pt_clust_10="13000.00000"></scales>
<clustering>
<clus scale="   28.642">  2  9  1 -1</clus>
<clus scale="   89.598">  7  8 -1 -1</clus>
<clus scale="   92.429">  5  6 -1 -1</clus>
<clus scale="  116.834">  1  5  2 -1</clus>
<clus scale="  143.165">  7 10 -1 -1</clus>
<clus scale="   28.642">  2  5  1 -1</clus>
</clustering>
</event>
<event>
10    2  0.5692308E-006  0.6317064E+03  0.7546771E-02  0.1044427E+00
         21   -1    0    0  501  502  0.00000000000E+00  0.00000000000E+00  0.11804677497E+03  0.11804677497E+03  0.00000000000E+00 0.  1.
          2   -1    0    0  503    0 -0.00000000000E+00 -0.00000000000E+00 -0.16416663496E+04  0.16416663496E+04  0.00000000000E+00 0. -1.
         23    2    1    2    0    0  0.29655825753E+02 -0.35541799528E+02 -0.48871020902E+03  0.49885805801E+03  0.88763765822E+02 0.  0.
         23    2    1    2    0    0 -0.15119311224E+03  0.23387360439E+03 -0.76239918710E+03  0.81673045032E+03  0.90773828659E+02 0.  0.
        -11    1    3    3    0    0 -0.97396041999E+01 -0.54910394659E+02 -0.24995638164E+03  0.25610194074E+03  0.00000000000E+00 0. -1.
         11    1    3    3    0    0  0.39395429953E+02  0.19368595131E+02 -0.23875382738E+03  0.24275611726E+03  0.00000000000E+00 0.  1.
        -13    1    4    4    0    0 -0.87794859268E+02  0.12605598723E+03 -0.29145714344E+03  0.32946216124E+03  0.00000000000E+00 0.  1.
         13    1    4    4    0    0 -0.63398252967E+02  0.10781761716E+03 -0.47094204366E+03  0.48726828908E+03  0.00000000000E+00 0. -1.
         21    1    1    2  503  502 -0.77075397190E+02 -0.34325238810E+02 -0.11348536734E+03  0.14141346283E+03  0.00000000000E+00 0.  1.
          2    1    1    2  501    0  0.19861268367E+03 -0.16400656605E+03 -0.15902481115E+03  0.30271115339E+03  0.00000000000E+00 0. -1.
<scales pt_clust_5="13000.00000" pt_clust_6="13000.00000" pt_clust_7="13000.00000" pt_clust_8="13000.00000" pt_clust_9="84.37321" pt_clust_10="13000.00000"></scales>
<clustering>
<clus scale="   84.373">  1  9  2 -1</clus>
<clus scale="   88.764">  5  6 -1 -1</clus>
<clus scale="   90.774">  7  8 -1 -1</clus>
<clus scale="   99.673">  2  5  1 -1</clus>
<clus scale="  249.410">  7 10 -1 -1</clus>
<clus scale="   84.373">  1  5  2 -1</clus>
</clustering>
</event>
<event>
10    2  0.5692308E-006  0.2032622E+03  0.7546771E-02  0.1178113E+00
         21   -1    0    0  501  502  0.00000000000E+00  0.00000000000E+00  0.19563563771E+03  0.19563563771E+03  0.00000000000E+00 0. -1.
          1   -1    0    0  503    0 -0.00000000000E+00 -0.00000000000E+00 -0.43905518366E+03  0.43905518366E+03  0.00000000000E+00 0. -1.
         23    2    1    2    0    0 -0.27735949838E+02 -0.92067853617E+01 -0.11922669419E+03  0.15494836093E+03  0.94551267245E+02 0.  0.
         23    2    1    2    0    0  0.93982766225E+01  0.65872109679E+01 -0.27670068556E+03  0.29118117044E+03  0.89952685768E+02 0.  0.
        -11    1    4    4    0    0  0.48524879414E+02 -0.39211871286E+01 -0.17674979688E+03  0.18333174938E+03  0.00000000000E+00 0.  1.
         11    1    4    4    0    0 -0.39126602791E+02  0.10508398097E+02 -0.99950888679E+02  0.10784942107E+03  0.00000000000E+00 0. -1.
        -13    1    3    3    0    0 -0.45943904094E+02  0.30540746264E+02 -0.69528443050E+02  0.88756880853E+02  0.00000000000E+00 0.  1.
         13    1    3    3    0    0  0.18207954257E+02 -0.39747531626E+02 -0.49698251145E+02  0.66191480082E+02  0.00000000000E+00 0. -1.
         21    1    1    2  503  502 -0.26573956456E+01  0.38518544558E+02  0.13986206971E+03  0.14509355109E+03  0.00000000000E+00 0. -1.
          1    1    1    2  501    0  0.20995068861E+02 -0.35898970164E+02  0.12645764109E+02  0.43467738902E+02  0.00000000000E+00 0. -1.
<scales pt_clust_5="13000.00000" pt_clust_6="13000.00000" pt_clust_7="13000.00000" pt_clust_8="13000.00000" pt_clust_9="38.61010" pt_clust_10="13000.00000"></scales>
<clustering>
<clus scale="   38.610">  1  9  2 -1</clus>
<clus scale="   89.953">  5  6 -1 -1</clus>
<clus scale="   25.025">  5 10 -1 -1</clus>
<clus scale="   94.551">  7  8 -1 -1</clus>
<clus scale="   98.861">  2  7  1 -1</clus>
<clus scale="   38.610">  1  5  2 -1</clus>
</clustering>
</event>
<event>
10    2  0.5692308E-006  0.8217554E+03  0.7546771E-02  0.1009782E+00
         21   -1    0    0  501  502  0.00000000000E+00  0.00000000000E+00  0.60131856324E+03  0.60131856324E+03  0.00000000000E+00 0. -1.
          1   -1    0    0  503    0 -0.00000000000E+00 -0.00000000000E+00 -0.11630263476E+04  0.11630263476E+04  0.00000000000E+00 0. -1.
         23    2    1    2    0    0  0.48065402138E+02 -0.39028873753E+02 -0.16802381889E+03  0.21084414661E+03  0.11130909477E+03 0.  0.
         23    2    1    2    0    0 -0.16109712459E+02  0.64008944312E+02 -0.12862111645E+03  0.17533835697E+03  0.99214313674E+02 0.  0.
        -11    1    3    3    0    0 -0.32131512481E+02  0.74447295251E+01 -0.60311469314E+02  0.68741046128E+02  0.00000000000E+00 0.  1.
         11    1    3    3    0    0  0.80196914619E+02 -0.46473603279E+02 -0.10771234957E+03  0.14210310048E+03  0.00000000000E+00 0. -1.
        -13    1    4    4    0    0 -0.28006347328E+02 -0.16243581345E+02 -0.63607510769E+02  0.71373138167E+02  0.00000000000E+00 0. -1.
         13    1    4    4    0    0  0.11896634869E+02  0.80252525657E+02 -0.65013605686E+02  0.10396521880E+03  0.00000000000E+00 0.  1.
         21    1    1    2  503  502  0.64035066610E+03 -0.37194562393E+02 -0.29296316646E+03  0.70516652497E+03  0.00000000000E+00 0. -1.
          1    1    1    2  501    0 -0.67230635577E+03  0.12214491834E+02  0.27900317473E+02  0.67299588226E+03  0.00000000000E+00 0. -1.
<scales pt_clust_5="13000.00000" pt_clust_6="13000.00000" pt_clust_7="13000.00000" pt_clust_8="13000.00000" pt_clust_9="667.44500" pt_clust_10="13000.00000"></scales>
<clustering>
<clus scale="   99.214">  7  8 -1 -1</clus>
<clus scale="  111.309">  5  6 -1 -1</clus>
<clus scale="  127.371">  2  5  1 -1</clus>
<clus scale="  656.383">  7 10 -1 -1</clus>
<clus scale="  667.445">  1  9  2 -1</clus>
<clus scale="  667.445">  1  5  2 -1</clus>
</clustering>
</event>
<event>
10    2  0.5692308E-006  0.1880644E+03  0.7546771E-02  0.1180301E+00
         -1   -1    0    0    0  501 -0.00000000000E+00  0.00000000000E+00  0.65058578641E+03  0.65058578641E+03  0.00000000000E+00 0.  1.
         21   -1    0    0  503  502  0.00000000000E+00 -0.00000000000E+00 -0.11041425767E+03  0.11041425767E+03  0.00000000000E+00 0.  1.
         23    2    1    2    0    0 -0.31920989563E+02 -0.69591878213E+02  0.44558616110E+03  0.46103814938E+03  0.90261670339E+02 0.  0.
         23    2    1    2    0    0  0.49352233804E+02  0.10199124058E+03  0.13341542330E+03  0.19534094857E+03  0.86721132822E+02 0.  0.
        -11    1    4    4    0    0  0.37209352047E+02  0.41580509497E+01  0.12812846369E+02  0.39572645850E+02  0.00000000000E+00 0. -1.
         11    1    4    4    0    0  0.12142881757E+02  0.97833189626E+02  0.12060257693E+03  0.15576830272E+03  0.00000000000E+00 0.  1.
        -13    1    3    3    0    0 -0.56384687056E+02 -0.19926681604E+02  0.17776425484E+03  0.18755382127E+03  0.00000000000E+00 0.  1.
         13    1    3    3    0    0  0.24463697493E+02 -0.49665196609E+02  0.26782190626E+03  0.27348432811E+03  0.00000000000E+00 0. -1.
         21    1    1    2  503  501  0.23036826355E+02 -0.15377689175E+02 -0.51888154020E+02  0.58817932813E+02  0.00000000000E+00 0.  1.
         -1    1    1    2    0  502 -0.40468070596E+02 -0.17021673188E+02  0.13058098353E+02  0.45803013312E+02  0.00000000000E+00 0.  1.
<scales pt_clust_5="13000.00000" pt_clust_6="13000.00000" pt_clust_7="13000.00000" pt_clust_8="13000.00000" pt_clust_9="27.69781" pt_clust_10="13000.00000"></scales>
<clustering>
<clus scale="   27.698">  2  9  1 -1</clus>
<clus scale="   86.721">  5  6 -1 -1</clus>
<clus scale="   39.956">  5 10 -1 -1</clus>
<clus scale="   90.262">  7  8 -1 -1</clus>
<clus scale="  118.820">  1  7  2 -1</clus>
<clus scale="   27.698">  2  5  1 -1</clus>
</clustering>
</event>
<event>
10    2  0.5692308E-006  0.1824655E+03  0.7546771E-02  0.1180572E+00
          1   -1    0    0  503    0 -0.00000000000E+00  0.00000000000E+00  0.85040706854E+03  0.85040706854E+03  0.00000000000E+00 0. -1.
         21   -1    0    0  501  502  0.00000000000E+00 -0.00000000000E+00 -0.62264386185E+02  0.62264386185E+02  0.00000000000E+00 0. -1.
         23    2    1    2    0    0 -0.71893808709E+02 -0.29386381056E+02  0.43081658274E+03  0.44730148504E+03  0.91888037508E+02 0.  0.
         23    2    1    2    0    0  0.35432431740E+02  0.32697979180E+02  0.86470950900E+02  0.13489472120E+03  0.91622843204E+02 0.  0.
        -11    1    4    4    0    0  0.49970042090E+02 -0.13310123109E+02  0.62184596665E+02  0.80876996397E+02  0.00000000000E+00 0.  1.
         11    1    4    4    0    0 -0.14537610351E+02  0.46008102290E+02  0.24286354235E+02  0.54017724804E+02  0.00000000000E+00 0. -1.
        -11    1    3    3    0    0 -0.80830419307E+01  0.30705422299E+02  0.91750667941E+02  0.97089358804E+02  0.00000000000E+00 0.  1.
         11    1    3    3    0    0 -0.63810766779E+02 -0.60091803355E+02  0.33906591480E+03  0.35021212624E+03  0.00000000000E+00 0. -1.
         21    1    1    2  503  502 -0.59307315021E+02 -0.48686522357E+02  0.72394324345E+02  0.10549252709E+03  0.00000000000E+00 0. -1.
          1    1    1    2  501    0  0.95768691991E+02  0.45374924233E+02  0.19846082437E+03  0.22498272139E+03  0.00000000000E+00 0. -1.
<scales pt_clust_5="13000.00000" pt_clust_6="13000.00000" pt_clust_7="13000.00000" pt_clust_8="13000.00000" pt_clust_9="76.73158" pt_clust_10="13000.00000"></scales>
<clustering>
<clus scale="   76.732">  2  9  1 -1</clus>
<clus scale="   91.623">  5  6 -1 -1</clus>
<clus scale="   84.553">  5 10 -1 -1</clus>
<clus scale="   91.888">  7  8 -1 -1</clus>
<clus scale="  129.308">  1  7  2 -1</clus>
<clus scale="   76.732">  2  5  1 -1</clus>
</clustering>
</event>
<event>
10    2  0.5692308E-006  0.1797821E+03  0.7546771E-02  0.1197824E+00
          4   -1    0    0  503    0 -0.00000000000E+00  0.00000000000E+00  0.15410894918E+03  0.15410894918E+03  0.00000000000E+00 0. -1.
         21   -1    0    0  501  502  0.00000000000E+00 -0.00000000000E+00 -0.30410760695E+03  0.30410760695E+03  0.00000000000E+00 0.  1.
         23    2    1    2    0    0  0.20511176472E+02 -0.26984021956E+01 -0.34346499787E+02  0.95760887335E+02  0.86962496290E+02 0.  0.
         23    2    1    2    0    0 -0.33023496797E+02  0.30284815429E+02  0.73515686159E+02  0.11878455120E+03  0.81838206890E+02 0.  0.
        -11    1    4    4    0    0  0.16893954857E+02 -0.14737546697E+02  0.53488398333E+01  0.23048016855E+02  0.00000000000E+00 0.  1.
         11    1    4    4    0    0 -0.49917451655E+02  0.45022362126E+02  0.68166846326E+02  0.95736534349E+02  0.00000000000E+00 0. -1.
        -13    1    3    3    0    0 -0.94702613425E+01  0.36410766148E+02 -0.38734097283E+01  0.37821066144E+02  0.00000000000E+00 0.  1.
         13    1    3    3    0    0  0.29981437815E+02 -0.39109168343E+02 -0.30473090059E+02  0.57939821191E+02  0.00000000000E+00 0. -1.
         21    1    1    2  503  502  0.11114948546E+02  0.40689754486E+02 -0.16643420945E+03  0.17169608113E+03  0.00000000000E+00 0.  1.
          4    1    1    2  501    0  0.13973717790E+01 -0.68276167719E+02 -0.22733634697E+02  0.71975036456E+02  0.00000000000E+00 0. -1.
<scales pt_clust_5="13000.00000" pt_clust_6="13000.00000" pt_clust_7="13000.00000" pt_clust_8="13000.00000" pt_clust_9="42.18054" pt_clust_10="13000.00000"></scales>
<clustering>
<clus scale="   42.181">  2  9  1 -1</clus>
<clus scale="   81.838">  5  6 -1 -1</clus>
<clus scale="   54.267">  5 10 -1 -1</clus>
<clus scale="   86.962">  7  8 -1 -1</clus>
<clus scale="   92.289">  1  7  2 -1</clus>
<clus scale="   42.181">  2  5  1 -1</clus>
</clustering>
</event>
<event>
10    2  0.5692308E-006  0.1878461E+03  0.7546771E-02  0.1188448E+00
         21   -1    0    0  501  502  0.00000000000E+00  0.00000000000E+00  0.68056063031E+02  0.68056063031E+02  0.00000000000E+00 0.  1.
         -2   -1    0    0    0  501 -0.00000000000E+00 -0.00000000000E+00 -0.69807710706E+03  0.69807710706E+03  0.00000000000E+00 0.  1.
         23    2    1    2    0    0  0.49251751230E+02  0.49565987477E+01 -0.47310088613E+02  0.11456661455E+03  0.91852935793E+02 0.  0.
         23    2    1    2    0    0  0.47262978361E+02  0.27109680663E+02 -0.33771393840E+03  0.35372521595E+03  0.90011667563E+02 0.  0.
        -13    1    4    4    0    0  0.19295431160E+02 -0.19912980536E+02 -0.28704534155E+02  0.39909782491E+02  0.00000000000E+00 0. -1.
         13    1    4    4    0    0  0.27967547202E+02  0.47022661199E+02 -0.30900940425E+03  0.31381543346E+03  0.00000000000E+00 0.  1.
        -13    1    3    3    0    0  0.70299879509E+02  0.22982005362E+02 -0.22331682872E+02  0.77258978050E+02  0.00000000000E+00 0.  1.
         13    1    3    3    0    0 -0.21048128279E+02 -0.18025406614E+02 -0.24978405741E+02  0.37307636497E+02  0.00000000000E+00 0. -1.
         21    1    1    2  503  502 -0.16516237455E+02 -0.14648618389E+02  0.14047340533E+02  0.26166694412E+02  0.00000000000E+00 0.  1.
         -2    1    1    2    0  503 -0.79998492136E+02 -0.17417661022E+02 -0.25904435755E+03  0.27167464519E+03  0.00000000000E+00 0.  1.
<scales pt_clust_5="13000.00000" pt_clust_6="13000.00000" pt_clust_7="13000.00000" pt_clust_8="13000.00000" pt_clust_9="22.07642" pt_clust_10="13000.00000"></scales>
<clustering>
<clus scale="   22.076">  1  9  2 -1</clus>
<clus scale="   90.012">  5  6 -1 -1</clus>
<clus scale="   84.421">  5 10 -1 -1</clus>
<clus scale="   91.853">  7  8 -1 -1</clus>
<clus scale="   99.419">  2  7  1 -1</clus>
<clus scale="   22.076">  1  5  2 -1</clus>
</clustering>
</event>
<event>
10    2  0.5692308E-006  0.1928302E+03  0.7546771E-02  0.1174125E+00
         -2   -1    0    0    0  501 -0.00000000000E+00  0.00000000000E+00  0.19326372287E+03  0.19326372287E+03  0.00000000000E+00 0.  1.
         21   -1    0    0  503  502  0.00000000000E+00 -0.00000000000E+00 -0.19073070688E+03  0.19073070688E+03  0.00000000000E+00 0.  1.
         23    2    1    2    0    0  0.53515052040E+02 -0.19770853113E+02  0.74904375596E+02  0.14586598953E+03  0.11140679508E+03 0.  0.
         23    2    1    2    0    0 -0.56182672099E+02  0.66844765473E+02 -0.57510424477E+02  0.13911550335E+03  0.91765783571E+02 0.  0.
        -11    1    3    3    0    0  0.29246688183E+02 -0.21906374807E+02  0.10263975275E+03  0.10895034131E+03  0.00000000000E+00 0.  1.
         11    1    3    3    0    0  0.24268363856E+02  0.21355216940E+01 -0.27735377158E+02  0.36915648217E+02  0.00000000000E+00 0. -1.
        -13    1    4    4    0    0 -0.46485954904E+02 -0.28281426189E+01 -0.50066436930E+02  0.68378289689E+02  0.00000000000E+00 0. -1.
         13    1    4    4    0    0 -0.96967171948E+01  0.69672908092E+02 -0.74439875472E+01  0.70737213664E+02  0.00000000000E+00 0.  1.
         21    1    1    2  503  501  0.20608438213E+02  0.14008654331E+02 -0.24120023495E+02  0.34680335280E+02  0.00000000000E+00 0. -1.
         -2    1    1    2    0  502 -0.17940818153E+02 -0.61082566690E+02  0.92590883647E+01  0.64332601586E+02  0.00000000000E+00 0.  1.
<scales pt_clust_5="13000.00000" pt_clust_6="13000.00000" pt_clust_7="13000.00000" pt_clust_8="13000.00000" pt_clust_9="24.91887" pt_clust_10="13000.00000"></scales>
<clustering>
<clus scale="   24.919">  2  9  1 -1</clus>
<clus scale="   91.766">  7  8 -1 -1</clus>
<clus scale="   60.438">  7 10 -1 -1</clus>
<clus scale="  111.407">  5  6 -1 -1</clus>
<clus scale="  126.726">  1  5  2 -1</clus>
<clus scale="   24.919">  2  5  1 -1</clus>
</clustering>
</event>
<event>
10    2  0.5692308E-006  0.2531843E+03  0.7546771E-02  0.1142542E+00
         21   -1    0    0  501  502  0.00000000000E+00  0.00000000000E+00  0.97470626847E+03  0.97470626847E+03  0.00000000000E+00 0.  1.
         -3   -1    0    0    0  501 -0.00000000000E+00 -0.00000000000E+00 -0.16529001737E+03  0.16529001737E+03  0.00000000000E+00 0.  1.
         23    2    1    2    0    0 -0.44509394459E+02 -0.58372872198E+02 -0.27757383469E+02  0.12029823163E+03  0.91174085099E+02 0.  0.
         23    2    1    2    0    0  0.23913609654E+02 -0.26330240721E+02 -0.38503388995E+02  0.10476338297E+03  0.90706742545E+02 0.  0.
        -11    1    4    4    0    0  0.34124171997E+02  0.26757689346E+02 -0.16541542956E+02  0.46411805578E+02  0.00000000000E+00 0.  1.
         11    1    4    4    0    0 -0.10210562343E+02 -0.53087930067E+02 -0.21961846039E+02  0.58351577388E+02  0.00000000000E+00 0. -1.
        -13    1    3    3    0    0 -0.11248773818E+02 -0.56841420560E+02 -0.52990978933E+02  0.78520862526E+02  0.00000000000E+00 0.  1.
         13    1    3    3    0    0 -0.33260620642E+02 -0.15314516385E+01  0.25233595464E+02  0.41777369108E+02  0.00000000000E+00 0. -1.
         21    1    1    2  503  502  0.10020246223E+03  0.91835862817E+02  0.77278485881E+03  0.78464692515E+03  0.00000000000E+00 0.  1.
         -3    1    1    2    0  503 -0.79606677428E+02 -0.71327498974E+01  0.10289216476E+03  0.13028774609E+03  0.00000000000E+00 0.  1.
<scales pt_clust_5="13000.00000" pt_clust_6="13000.00000" pt_clust_7="13000.00000" pt_clust_8="13000.00000" pt_clust_9="131.22746" pt_clust_10="13000.00000"></scales>
<clustering>
<clus scale="   90.707">  5  6 -1 -1</clus>
<clus scale="   79.926">  5 10 -1 -1</clus>
<clus scale="   91.174">  7  8 -1 -1</clus>
<clus scale="  117.052">  2  7  1 -1</clus>
<clus scale="  131.227">  1  9  2 -1</clus>
<clus scale="  131.227">  1  5  2 -1</clus>
</clustering>
</event>
<event>
10    2  0.5692308E-006  0.3594177E+03  0.7546771E-02  0.1079851E+00
         21   -1    0    0  501  502  0.00000000000E+00  0.00000000000E+00  0.26387694758E+03  0.26387694758E+03  0.00000000000E+00 0. -1.
          1   -1    0    0  503    0 -0.00000000000E+00 -0.00000000000E+00 -0.61397025909E+03  0.61397025909E+03  0.00000000000E+00 0. -1.
         23    2    1    2    0    0 -0.12349044014E+03  0.15536547133E+03 -0.35835001080E+03  0.42036994745E+03  0.94381375226E+02 0.  0.
         23    2    1    2    0    0  0.10762881369E+02  0.98389924644E+02  0.10695444943E+02  0.13641224791E+03  0.93260345002E+02 0.  0.
        -11    1    4    4    0    0  0.45419125845E+02  0.26430693088E+02 -0.10913121138E+02  0.53670986041E+02  0.00000000000E+00 0. -1.
         11    1    4    4    0    0 -0.34656244475E+02  0.71959231556E+02  0.21608566081E+02  0.82741261867E+02  0.00000000000E+00 0.  1.
        -11    1    3    3    0    0 -0.11104819415E+03  0.11818238948E+03 -0.20128550825E+03  0.25848526929E+03  0.00000000000E+00 0. -1.
         11    1    3    3    0    0 -0.12442245987E+02  0.37183081850E+02 -0.15706450256E+03  0.16188467816E+03  0.00000000000E+00 0.  1.
         21    1    1    2  503  502  0.86894098349E+02 -0.73491853553E+02  0.59873098385E+02  0.12859403088E+03  0.00000000000E+00 0.  1.
          1    1    1    2  501    0  0.25833460420E+02 -0.18026354242E+03 -0.62311844032E+02  0.19247098044E+03  0.00000000000E+00 0. -1.
<scales pt_clust_5="13000.00000" pt_clust_6="13000.00000" pt_clust_7="13000.00000" pt_clust_8="13000.00000" pt_clust_9="113.80526" pt_clust_10="13000.00000"></scales>
<clustering>
<clus scale="   93.260">  5  6 -1 -1</clus>
<clus scale="   94.381">  7  8 -1 -1</clus>
<clus scale="  113.805">  1  9  2 -1</clus>
<clus scale="  201.573">  2  7  1 -1</clus>
<clus scale="  110.713">  5 10 -1 -1</clus>
<clus scale="  113.805">  1  5  2 -1</clus>
</clustering>
</event>
<event>
10    2  0.5692308E-006  0.3057240E+03  0.7546771E-02  0.1111496E+00
          1   -1    0    0  503    0 -0.00000000000E+00  0.00000000000E+00  0.97056300445E+03  0.97056300445E+03  0.00000000000E+00 0. -1.
         21   -1    0    0  501  502  0.00000000000E+00 -0.00000000000E+00 -0.82606349393E+02  0.82606349393E+02  0.00000000000E+00 0. -1.
         23    2    1    2    0    0 -0.82039033940E+02 -0.42202774300E+02  0.21522550697E+03  0.25158502879E+03  0.91986578431E+02 0.  0.
         23    2    1    2    0    0 -0.41561209173E+02  0.85810612949E+02  0.22590809399E+03  0.26433536640E+03  0.98731573447E+02 0.  0.
        -11    1    3    3    0    0 -0.82612808751E+02 -0.17372745190E+02  0.87951986572E+02  0.12191078864E+03  0.00000000000E+00 0. -1.
         11    1    3    3    0    0  0.57377481032E+00 -0.24830029110E+02  0.12727352040E+03  0.12967424015E+03  0.00000000000E+00 0.  1.
        -11    1    4    4    0    0 -0.35297535025E+02  0.10561386463E+03  0.21160446138E+03  0.23911639939E+03  0.00000000000E+00 0.  1.
         11    1    4    4    0    0 -0.62636741485E+01 -0.19803251683E+02  0.14303632609E+02  0.25218967006E+02  0.00000000000E+00 0. -1.
         21    1    1    2  503  502 -0.50383317072E+02 -0.14620089367E+02 -0.45293293194E+01  0.52656817948E+02  0.00000000000E+00 0. -1.
          1    1    1    2  501    0  0.17398356019E+03 -0.28987749282E+02  0.45135238341E+03  0.48459214071E+03  0.00000000000E+00 0. -1.
<scales pt_clust_5="13000.00000" pt_clust_6="13000.00000" pt_clust_7="13000.00000" pt_clust_8="13000.00000" pt_clust_9="52.46166" pt_clust_10="13000.00000"></scales>
<clustering>
<clus scale="   52.462">  2  9  1 -1</clus>
<clus scale="   91.987">  5  6 -1 -1</clus>
<clus scale="   98.732">  7  8 -1 -1</clus>
<clus scale="  143.117">  1  5  2 -1</clus>
<clus scale="  117.056">  7 10 -1 -1</clus>
<clus scale="   52.462">  2  5  1 -1</clus>
</clustering>
</event>
<event>
10    2  0.5692308E-006  0.1689510E+03  0.7546771E-02  0.1193486E+00
         21   -1    0    0  503  502  0.00000000000E+00  0.00000000000E+00  0.14908922801E+03  0.14908922801E+03  0.00000000000E+00 0.  1.
         -2   -1    0    0    0  501 -0.00000000000E+00 -0.00000000000E+00 -0.71094563966E+03  0.71094563966E+03  0.00000000000E+00 0.  1.
         23    2    1    2    0    0 -0.52354575589E+02  0.24898880032E+02 -0.19162343602E+03  0.21995942442E+03  0.91113398280E+02 0.  0.
         23    2    1    2    0    0  0.33868476048E+02 -0.14744855670E+02 -0.24671471383E+03  0.26642269022E+03  0.93532964248E+02 0.  0.
        -13    1    3    3    0    0 -0.45337325945E+02 -0.36214913932E+01 -0.18410731943E+03  0.18964201379E+03  0.00000000000E+00 0.  1.
         13    1    3    3    0    0 -0.70172496442E+01  0.28520371425E+02 -0.75161165838E+01  0.30317410630E+02  0.00000000000E+00 0. -1.
        -13    1    4    4    0    0  0.38955962173E+02 -0.50869290089E+02 -0.15541477521E+03  0.16810414634E+03  0.00000000000E+00 0. -1.
         13    1    4    4    0    0 -0.50874861250E+01  0.36124434419E+02 -0.91299938619E+02  0.98318543871E+02  0.00000000000E+00 0.  1.
         21    1    1    2  503  501 -0.66147583443E+02 -0.39383291676E+02  0.10385966582E+03  0.12928022526E+03  0.00000000000E+00 0.  1.
         -2    1    1    2    0  502  0.84633682984E+02  0.29229267315E+02 -0.22737792762E+03  0.24437252777E+03  0.00000000000E+00 0.  1.
<scales pt_clust_5="13000.00000" pt_clust_6="13000.00000" pt_clust_7="13000.00000" pt_clust_8="13000.00000" pt_clust_9="76.98407" pt_clust_10="13000.00000"></scales>
<clustering>
<clus scale="   76.984">  1  9  2 -1</clus>
<clus scale="   91.113">  5  6 -1 -1</clus>
<clus scale="   93.533">  7  8 -1 -1</clus>
<clus scale="   69.961">  7 10 -1 -1</clus>
<clus scale="  122.273">  2  5  1 -1</clus>
<clus scale="   76.984">  1  5  2 -1</clus>
</clustering>
</event>
<event>
10    2  0.5692308E-006  0.2224851E+03  0.7546771E-02  0.1155461E+00
          1   -1    0    0  503    0 -0.00000000000E+00  0.00000000000E+00  0.43439974767E+03  0.43439974767E+03  0.00000000000E+00 0. -1.
         21   -1    0    0  501  502  0.00000000000E+00 -0.00000000000E+00 -0.30269361020E+03  0.30269361020E+03  0.00000000000E+00 0.  1.
         23    2    1    2    0    0 -0.16247490440E+02 -0.88269478995E+02  0.34170962163E+03  0.36506590565E+03  0.91935673639E+02 0.  0.
         23    2    1    2    0    0 -0.45600930126E+02  0.93665435479E+02 -0.49170371261E+02  0.14709094554E+03  0.91462354106E+02 0.  0.
        -11    1    4    4    0    0 -0.38527469891E+02  0.52327544108E+02 -0.73898456785E+02  0.98404876524E+02  0.00000000000E+00 0.  1.
         11    1    4    4    0    0 -0.70734602347E+01  0.41337891371E+02  0.24728085524E+02  0.48686069017E+02  0.00000000000E+00 0. -1.
        -11    1    3    3    0    0  0.29328926786E+02 -0.74635372117E+02  0.19533842208E+03  0.21115805421E+03  0.00000000000E+00 0. -1.
         11    1    3    3    0    0 -0.45576417226E+02 -0.13634106878E+02  0.14637119955E+03  0.15390785144E+03  0.00000000000E+00 0.  1.
         21    1    1    2  503  502 -0.30872715263E+01  0.30570474069E+02 -0.14605103147E+03  0.14924807846E+03  0.00000000000E+00 0.  1.
          1    1    1    2  501    0  0.64935692092E+02 -0.35966430553E+02 -0.14782081417E+02  0.75688428212E+02  0.00000000000E+00 0. -1.
<scales pt_clust_5="13000.00000" pt_clust_6="13000.00000" pt_clust_7="13000.00000" pt_clust_8="13000.00000" pt_clust_9="30.72597" pt_clust_10="13000.00000"></scales>
<clustering>
<clus scale="   30.726">  2  9  1 -1</clus>
<clus scale="   91.462">  5  6 -1 -1</clus>
<clus scale="   69.513">  5 10 -1 -1</clus>
<clus scale="   91.936">  7  8 -1 -1</clus>
<clus scale="  126.941">  1  7  2 -1</clus>
<clus scale="   30.726">  2  5  1 -1</clus>
</clustering>
</event>
<event>
10    2  0.5692308E-006  0.4300391E+03  0.7546771E-02  0.1064628E+00
         21   -1    0    0  503  502  0.00000000000E+00  0.00000000000E+00  0.48366024403E+03  0.48366024403E+03  0.00000000000E+00 0.  1.
          4   -1    0    0  502    0 -0.00000000000E+00 -0.00000000000E+00 -0.49566197253E+03  0.49566197253E+03  0.00000000000E+00 0. -1.
         23    2    1    2    0    0  0.11625364646E+03  0.11654791448E+03  0.22779716626E+03  0.29497054852E+03  0.89541883252E+02 0.  0.
         23    2    1    2    0    0  0.88092197269E+02  0.87668510652E+02 -0.13644307789E+03  0.20577640426E+03  0.91001165186E+02 0.  0.
        -11    1    3    3    0    0  0.66530947714E+01  0.62796947929E+02  0.99759066119E+02  0.11806604767E+03  0.00000000000E+00 0. -1.
         11    1    3    3    0    0  0.10960055169E+03  0.53750966549E+02  0.12803810014E+03  0.17690450085E+03  0.00000000000E+00 0.  1.
        -11    1    4    4    0    0  0.28120278176E+02  0.89115671430E+02 -0.74126398853E+02  0.11927730692E+03  0.00000000000E+00 0. -1.
         11    1    4    4    0    0  0.59971919093E+02 -0.14471607780E+01 -0.62316679036E+02  0.86499097336E+02  0.00000000000E+00 0.  1.
         21    1    1    2  503  501 -0.20456704760E+02 -0.33759406669E+00  0.12179736082E+03  0.12350379688E+03  0.00000000000E+00 0.  1.
          4    1    1    2  501    0 -0.18388913897E+03 -0.20387883106E+03 -0.22515317769E+03  0.35507146690E+03  0.00000000000E+00 0. -1.
<scales pt_clust_5="13000.00000" pt_clust_6="13000.00000" pt_clust_7="13000.00000" pt_clust_8="13000.00000" pt_clust_9="20.45949" pt_clust_10="13000.00000"></scales>
<clustering>
<clus scale="   20.459">  1  9  2 -1</clus>
<clus scale="   89.542">  5  6 -1 -1</clus>
<clus scale="   91.001">  7  8 -1 -1</clus>
<clus scale="  178.423">  2  5  1 -1</clus>
<clus scale="  178.904">  7 10 -1 -1</clus>
<clus scale="   20.459">  1  5  2 -1</clus>
</clustering>
</event>
<event>
10    2  0.5692308E-006  0.1820110E+03  0.7546771E-02  0.1187462E+00
         21   -1    0    0  501  502  0.00000000000E+00  0.00000000000E+00  0.78760379465E+02  0.78760379465E+02  0.00000000000E+00 0.  1.
          3   -1    0    0  503    0 -0.00000000000E+00 -0.00000000000E+00 -0.41515170667E+03  0.41515170667E+03  0.00000000000E+00 0. -1.
         23    2    1    2    0    0  0.52523246651E+02  0.25093425887E+02 -0.21033143306E+03  0.23670746728E+03  0.91666470795E+02 0.  0.
         23    2    1    2    0    0 -0.10533792893E+03 -0.24941735982E+02 -0.37277186591E+02  0.14732194424E+03  0.92714600526E+02 0.  0.
        -11    1    4    4    0    0 -0.14596583554E+02 -0.46657034203E+02 -0.17656095756E+02  0.51977656828E+02  0.00000000000E+00 0.  1.
         11    1    4    4    0    0 -0.90741345372E+02  0.21715298220E+02 -0.19621090835E+02  0.95344287413E+02  0.00000000000E+00 0. -1.
        -13    1    3    3    0    0  0.28382673229E+02 -0.13989247475E+02 -0.13185273148E+02  0.34280119786E+02  0.00000000000E+00 0.  1.
         13    1    3    3    0    0  0.24140573422E+02  0.39082673361E+02 -0.19714615992E+03  0.20242734749E+03  0.00000000000E+00 0. -1.
         21    1    1    2  503  502  0.32014315302E+02  0.15319023999E+01 -0.19480576891E+02  0.37506745863E+02  0.00000000000E+00 0. -1.
          3    1    1    2  501    0  0.20800366974E+02 -0.16835923043E+01 -0.69302130654E+02  0.72375928750E+02  0.00000000000E+00 0. -1.
<scales pt_clust_5="13000.00000" pt_clust_6="13000.00000" pt_clust_7="13000.00000" pt_clust_8="13000.00000" pt_clust_9="32.05095" pt_clust_10="13000.00000"></scales>
<clustering>
<clus scale="   32.051">  1  9  2 -1</clus>
<clus scale="   91.666">  7  8 -1 -1</clus>
<clus scale="   92.715">  5  6 -1 -1</clus>
<clus scale="   21.569">  5 10 -1 -1</clus>
<clus scale="  111.706">  2  7  1 -1</clus>
<clus scale="   32.051">  1  5  2 -1</clus>
</clustering>
</event>
<event>
10    2  0.5692308E-006  0.3301842E+03  0.7546771E-02  0.1090462E+00
         21   -1    0    0  501  502  0.00000000000E+00  0.00000000000E+00  0.11987339904E+04  0.11987339904E+04  0.00000000000E+00 0.  1.
          1   -1    0    0  503    0 -0.00000000000E+00 -0.00000000000E+00 -0.34966359342E+03  0.34966359342E+03  0.00000000000E+00 0. -1.
         23    2    1    2    0    0 -0.75391894833E+02 -0.15370116031E+03 -0.20694829315E+03  0.27846821069E+03  0.73545658217E+02 0.  0.
         23    2    1    2    0    0  0.64852899475E+02  0.14407665786E+02  0.59414560015E+02  0.15025484198E+03  0.12096672350E+03 0.  0.
        -11    1    3    3    0    0 -0.33208968419E+02 -0.73478961621E+01 -0.38219053715E+02  0.51161735979E+02  0.00000000000E+00 0.  1.
         11    1    3    3    0    0 -0.42182926413E+02 -0.14635326414E+03 -0.16872923943E+03  0.22730647471E+03  0.00000000000E+00 0. -1.
        -13    1    4    4    0    0  0.76230167413E+02 -0.15160801523E+02 -0.56073321968E+01  0.77925159615E+02  0.00000000000E+00 0. -1.
         13    1    4    4    0    0 -0.11377267938E+02  0.29568467309E+02  0.65021892212E+02  0.72329682368E+02  0.00000000000E+00 0.  1.
         21    1    1    2  503  502 -0.12581612356E+03 -0.96072806156E+02  0.69810483111E+03  0.71582821699E+03  0.00000000000E+00 0.  1.
          1    1    1    2  501    0  0.13635511891E+03  0.23536630068E+03  0.29849929899E+03  0.40384631414E+03  0.00000000000E+00 0. -1.
<scales pt_clust_5="13000.00000" pt_clust_6="13000.00000" pt_clust_7="13000.00000" pt_clust_8="13000.00000" pt_clust_9="158.30250" pt_clust_10="13000.00000"></scales>
<clustering>
<clus scale="   73.546">  5  6 -1 -1</clus>
<clus scale="  120.967">  7  8 -1 -1</clus>
<clus scale="  158.302">  1  9  2 -1</clus>
<clus scale="  173.125">  7 10 -1 -1</clus>
<clus scale="  195.899">  2  5  1 -1</clus>
<clus scale="  158.302">  1  5  2 -1</clus>
</clustering>
</event>
<event>
10    2  0.5692308E-006  0.3007941E+03  0.7546771E-02  0.1106671E+00
         21   -1    0    0  501  502  0.00000000000E+00  0.00000000000E+00  0.16175238155E+03  0.16175238155E+03  0.00000000000E+00 0. -1.
          2   -1    0    0  503    0 -0.00000000000E+00 -0.00000000000E+00 -0.90568035030E+03  0.90568035030E+03  0.00000000000E+00 0. -1.
         23    2    1    2    0    0 -0.68152051489E+02  0.12549794521E+03 -0.16742379597E+03  0.23834589669E+03  0.91562015260E+02 0.  0.
         23    2    1    2    0    0  0.65080206475E+02 -0.15731861836E+03 -0.65258057753E+03  0.68052903658E+03  0.90960312832E+02 0.  0.
        -11    1    4    4    0    0  0.38094694154E+02 -0.12056723924E+03 -0.58820924957E+03  0.60164589767E+03  0.00000000000E+00 0. -1.
         11    1    4    4    0    0  0.26985512321E+02 -0.36751379115E+02 -0.64371327956E+02  0.78883138914E+02  0.00000000000E+00 0.  1.
        -11    1    3    3    0    0 -0.90389835803E+02  0.10168838593E+03 -0.14474449822E+03  0.19864999375E+03  0.00000000000E+00 0. -1.
         11    1    3    3    0    0  0.22237784314E+02  0.23809559279E+02 -0.22679297746E+02  0.39695902944E+02  0.00000000000E+00 0.  1.
         21    1    1    2  503  502 -0.21633656216E+02 -0.12219585466E+02  0.92247556228E+02  0.95535045823E+02  0.00000000000E+00 0. -1.
          2    1    1    2  501    0  0.24705501230E+02  0.44040258614E+02 -0.16171151478E+02  0.53022752757E+02  0.00000000000E+00 0. -1.
<scales pt_clust_5="13000.00000" pt_clust_6="13000.00000" pt_clust_7="13000.00000" pt_clust_8="13000.00000" pt_clust_9="24.84619" pt_clust_10="13000.00000"></scales>
<clustering>
<clus scale="   24.846">  1  9  2 -1</clus>
<clus scale="   90.960">  5  6 -1 -1</clus>
<clus scale="   44.866">  5 10 -1 -1</clus>
<clus scale="   91.562">  7  8 -1 -1</clus>
<clus scale="  169.955">  2  7  1 -1</clus>
<clus scale="   24.846">  1  5  2 -1</clus>
</clustering>
</event>
<event>
10    2  0.5692308E-006  0.1682364E+03  0.7546771E-02  0.1199407E+00
         21   -1    0    0  501  502  0.00000000000E+00  0.00000000000E+00  0.55916625792E+02  0.55916625792E+02  0.00000000000E+00 0. -1.
          1   -1    0    0  503    0 -0.00000000000E+00 -0.00000000000E+00 -0.47731699546E+03  0.47731699546E+03  0.00000000000E+00 0. -1.
         23    2    1    2    0    0  0.50788264524E+02 -0.31251600835E+01 -0.18782998153E+03  0.21541072629E+03  0.92371340794E+02 0.  0.
         23    2    1    2    0    0  0.23291564541E+01  0.27061779080E+02 -0.90847639137E+02  0.13608331781E+03  0.97609482086E+02 0.  0.
        -11    1    4    4    0    0 -0.41968401024E+02 -0.74893419178E+01 -0.54410918811E+02  0.69122970225E+02  0.00000000000E+00 0.  1.
         11    1    4    4    0    0  0.44297557478E+02  0.34551120998E+02 -0.36436720326E+02  0.66960347586E+02  0.00000000000E+00 0. -1.
        -13    1    3    3    0    0  0.13281700823E+02 -0.42002962611E+02 -0.46239443430E+02  0.63865002729E+02  0.00000000000E+00 0.  1.
         13    1    3    3    0    0  0.37506563701E+02  0.38877802527E+02 -0.14159053810E+03  0.15154572356E+03  0.00000000000E+00 0. -1.
         21    1    1    2  503  502  0.21832910593E+02 -0.26366610859E+02 -0.66606350365E+02  0.74888450792E+02  0.00000000000E+00 0. -1.
          1    1    1    2  501    0 -0.74950331571E+02  0.24299918620E+01 -0.76116398638E+02  0.10685112636E+03  0.00000000000E+00 0. -1.
<scales pt_clust_5="13000.00000" pt_clust_6="13000.00000" pt_clust_7="13000.00000" pt_clust_8="13000.00000" pt_clust_9="34.23266" pt_clust_10="13000.00000"></scales>
<clustering>
<clus scale="   34.233">  1  9  2 -1</clus>
<clus scale="   92.371">  7  8 -1 -1</clus>
<clus scale="   97.609">  5  6 -1 -1</clus>
<clus scale="   68.682">  5 10 -1 -1</clus>
<clus scale="  108.809">  2  7  1 -1</clus>
<clus scale="   34.233">  1  5  2 -1</clus>
</clustering>
</event>
<event>
10    2  0.5692308E-006  0.4129981E+03  0.7546771E-02  0.1072896E+00
         21   -1    0    0  503  502  0.00000000000E+00  0.00000000000E+00  0.26541545034E+03  0.26541545034E+03  0.00000000000E+00 0.  1.
         -4   -1    0    0    0  501 -0.00000000000E+00 -0.00000000000E+00 -0.52423207757E+03  0.52423207757E+03  0.00000000000E+00 0.  1.
         23    2    1    2    0    0 -0.92993173916E+02 -0.76243495986E+02 -0.14972350680E+03  0.21562110652E+03  0.98053720036E+02 0.  0.
         23    2    1    2    0    0  0.22903075886E+03 -0.52861123336E+02  0.85818059823E+02  0.26660731092E+03  0.92007238729E+02 0.  0.
        -11    1    3    3    0    0 -0.17482674608E+02 -0.76492996733E+02 -0.89577982245E+02  0.11908416084E+03  0.00000000000E+00 0.  1.
         11    1    3    3    0    0 -0.75510499308E+02  0.24950074720E+00 -0.60145524552E+02  0.96536945673E+02  0.00000000000E+00 0. -1.
        -13    1    4    4    0    0  0.53386539913E+02 -0.19221256655E+02  0.65439218960E+02  0.86613340366E+02  0.00000000000E+00 0. -1.
         13    1    4    4    0    0  0.17564421895E+03 -0.33639866681E+02  0.20378840863E+02  0.17999397055E+03  0.00000000000E+00 0.  1.
         21    1    1    2  503  501 -0.10300920996E+03  0.69507370989E+02 -0.28349324370E+02  0.12745923329E+03  0.00000000000E+00 0. -1.
         -4    1    1    2    0  502 -0.33028374984E+02  0.59597248332E+02 -0.16656185588E+03  0.17995987719E+03  0.00000000000E+00 0.  1.
<scales pt_clust_5="13000.00000" pt_clust_6="13000.00000" pt_clust_7="13000.00000" pt_clust_8="13000.00000" pt_clust_9="124.26654" pt_clust_10="13000.00000"></scales>
<clustering>
<clus scale="   92.007">  7  8 -1 -1</clus>
<clus scale="   68.137">  7 10 -1 -1</clus>
<clus scale="   98.054">  5  6 -1 -1</clus>
<clus scale="  124.267">  1  9  2 -1</clus>
<clus scale="  160.442">  2  5  1 -1</clus>
<clus scale="  124.267">  1  5  2 -1</clus>
</clustering>
</event>
<event>
10    2  0.5692308E-006  0.2713658E+03  0.7546771E-02  0.1134914E+00
         21   -1    0    0  501  502  0.00000000000E+00  0.00000000000E+00  0.10507900847E+03  0.10507900847E+03  0.00000000000E+00 0.  1.
         -1   -1    0    0    0  501 -0.00000000000E+00 -0.00000000000E+00 -0.55568268454E+03  0.55568268454E+03  0.00000000000E+00 0.  1.
         23    2    1    2    0    0  0.76809852285E+02  0.70188680677E+01 -0.33269574368E+02  0.12289218838E+03  0.89702884392E+02 0.  0.
         23    2    1    2    0    0  0.64046910928E+02  0.67750967647E+02 -0.22359149972E+03  0.25941422155E+03  0.92792128860E+02 0.  0.
        -11    1    3    3    0    0  0.92587092818E+02  0.21100052249E+02 -0.17614210296E+02  0.96580755670E+02  0.00000000000E+00 0.  1.
         11    1    3    3    0    0 -0.15777240533E+02 -0.14081184182E+02 -0.15655364072E+02  0.26311432706E+02  0.00000000000E+00 0. -1.
        -13    1    4    4    0    0  0.16613129080E+02 -0.17140419580E+02 -0.12375884686E+02  0.26887777204E+02  0.00000000000E+00 0. -1.
         13    1    4    4    0    0  0.47433781847E+02  0.84891387227E+02 -0.21121561503E+03  0.23252644434E+03  0.00000000000E+00 0.  1.
         21    1    1    2  503  502 -0.11632439998E+02 -0.24791148579E+02  0.12413059723E+02  0.30066572133E+02  0.00000000000E+00 0.  1.
         -1    1    1    2    0  503 -0.12922432321E+03 -0.49978687136E+02 -0.20615566171E+03  0.24838871096E+03  0.00000000000E+00 0.  1.
<scales pt_clust_5="13000.00000" pt_clust_6="13000.00000" pt_clust_7="13000.00000" pt_clust_8="13000.00000" pt_clust_9="27.38457" pt_clust_10="13000.00000"></scales>
<clustering>
<clus scale="   27.385">  1  9  2 -1</clus>
<clus scale="   89.703">  5  6 -1 -1</clus>
<clus scale="   92.792">  7  8 -1 -1</clus>
<clus scale="  114.319">  2  5  1 -1</clus>
<clus scale="  112.677">  7 10 -1 -1</clus>
<clus scale="   27.385">  1  5  2 -1</clus>
</clustering>
</event>
<event>
10    2  0.5692308E-006  0.1591129E+03  0.7546771E-02  0.1204154E+00
          1   -1    0    0  502    0 -0.00000000000E+00  0.00000000000E+00  0.63060284970E+03  0.63060284970E+03  0.00000000000E+00 0. -1.
         21   -1    0    0  503  502  0.00000000000E+00 -0.00000000000E+00 -0.10875241425E+03  0.10875241425E+03  0.00000000000E+00 0. -1.
         23    2    1    2    0    0 -0.45174966099E+02 -0.59650487050E+02  0.52099061740E+03  0.53407741417E+03  0.90600787794E+02 0.  0.
         23    2    1    2    0    0  0.68956280611E+01 -0.91737226602E+01  0.23920319859E+02  0.92719856307E+02  0.88843025487E+02 0.  0.
        -11    1    3    3    0    0  0.12492457892E+02  0.16467678344E+02  0.65508874433E+02  0.68692492776E+02  0.00000000000E+00 0.  1.
         11    1    3    3    0    0 -0.57667423991E+02 -0.76118165394E+02  0.45548174296E+03  0.46538492140E+03  0.00000000000E+00 0. -1.
        -13    1    4    4    0    0  0.39875574860E+02 -0.27023355261E+02  0.26774753217E+02  0.55110893749E+02  0.00000000000E+00 0.  1.
         13    1    4    4    0    0 -0.32979946799E+02  0.17849632601E+02 -0.28544333581E+01  0.37608962558E+02  0.00000000000E+00 0. -1.
         21    1    1    2  503  501  0.28891221153E+02  0.72446389545E+01 -0.38213244297E+02  0.48450381763E+02  0.00000000000E+00 0. -1.
          1    1    1    2  501    0  0.93881168846E+01  0.61579570756E+02  0.15152742494E+02  0.64107611703E+02  0.00000000000E+00 0. -1.
<scales pt_clust_5="13000.00000" pt_clust_6="13000.00000" pt_clust_7="13000.00000" pt_clust_8="13000.00000" pt_clust_9="29.78569" pt_clust_10="13000.00000"></scales>
<clustering>
<clus scale="   29.786">  2  9  1 -1</clus>
<clus scale="   88.843">  7  8 -1 -1</clus>
<clus scale="   67.388">  7 10 -1 -1</clus>
<clus scale="   90.601">  5  6 -1 -1</clus>
<clus scale="  116.055">  1  5  2 -1</clus>
<clus scale="   29.786">  2  5  1 -1</clus>
</clustering>
</event>
<event>
10    2  0.5692308E-006  0.1667580E+03  0.7546771E-02  0.1194638E+00
          1   -1    0    0  502    0 -0.00000000000E+00  0.00000000000E+00  0.42618682127E+03  0.42618682127E+03  0.00000000000E+00 0. -1.
         21   -1    0    0  503  502  0.00000000000E+00 -0.00000000000E+00 -0.18097549648E+03  0.18097549648E+03  0.00000000000E+00 0. -1.
         23    2    1    2    0    0  0.27787756809E+02 -0.72969031612E+02  0.11601075603E+03  0.16706885944E+03  0.91415913692E+02 0.  0.
         23    2    1    2    0    0 -0.35509801571E+02  0.70454893294E+02  0.23855696610E+03  0.26725993713E+03  0.91069258945E+02 0.  0.
        -13    1    4    4    0    0  0.10111420432E+02  0.19020788888E+02  0.28478976328E+01  0.21728823115E+02  0.00000000000E+00 0.  1.
         13    1    4    4    0    0 -0.45621222003E+02  0.51434104407E+02  0.23570906847E+03  0.24553111402E+03  0.00000000000E+00 0. -1.
        -13    1    3    3    0    0  0.42820857581E+02 -0.15176628765E+02  0.92192344798E+02  0.10277832624E+03  0.00000000000E+00 0. -1.
         13    1    3    3    0    0 -0.15033100772E+02 -0.57792402847E+02  0.23818411234E+02  0.64290533202E+02  0.00000000000E+00 0.  1.
         21    1    1    2  503  501 -0.22861940335E+02 -0.18419213815E+02 -0.12801598169E+03  0.13133935938E+03  0.00000000000E+00 0. -1.
          1    1    1    2  501    0  0.30583985098E+02  0.20933352133E+02  0.18659584352E+02  0.41494161808E+02  0.00000000000E+00 0. -1.
<scales pt_clust_5="13000.00000" pt_clust_6="13000.00000" pt_clust_7="13000.00000" pt_clust_8="13000.00000" pt_clust_9="29.35874" pt_clust_10="13000.00000"></scales>
<clustering>
<clus scale="   29.359">  2  9  1 -1</clus>
<clus scale="   91.069">  5  6 -1 -1</clus>
<clus scale="   30.552">  5 10 -1 -1</clus>
<clus scale="   91.416">  7  8 -1 -1</clus>
<clus scale="  123.986">  1  7  2 -1</clus>
<clus scale="   29.359">  2  5  1 -1</clus>
</clustering>
</event>
<event>
10    2  0.5692308E-006  0.2784932E+03  0.7546771E-02  0.1106352E+00
         21   -1    0    0  501  502  0.00000000000E+00  0.00000000000E+00  0.25963930802E+03  0.25963930802E+03  0.00000000000E+00 0. -1.
          1   -1    0    0  503    0 -0.00000000000E+00 -0.00000000000E+00 -0.13658994444E+04  0.13658994444E+04  0.00000000000E+00 0. -1.
         23    2    1    2    0    0 -0.17530423649E+03  0.67457623024E+02 -0.47231079851E+03  0.51644259844E+03  0.91396722344E+02 0.  0.
         23    2    1    2    0    0  0.91026693358E+01 -0.13010558403E+02 -0.34294913009E+03  0.35476973927E+03  0.89416602791E+02 0.  0.
        -11    1    3    3    0    0 -0.14902226058E+03  0.35582614884E+02 -0.43342525530E+03  0.45970774255E+03  0.00000000000E+00 0. -1.
         11    1    3    3    0    0 -0.26281975904E+02  0.31875008141E+02 -0.38885543214E+02  0.56734855887E+02  0.00000000000E+00 0.  1.
        -13    1    4    4    0    0 -0.39194646101E+02 -0.16196751505E+02 -0.15852632304E+03  0.16410103637E+03  0.00000000000E+00 0. -1.
         13    1    4    4    0    0  0.48297315436E+02  0.31861931024E+01 -0.18442280706E+03  0.19066870290E+03  0.00000000000E+00 0.  1.
         21    1    1    2  503  502 -0.37289792905E+01  0.31995347539E+02  0.21302563247E+03  0.21544727346E+03  0.00000000000E+00 0. -1.
          1    1    1    2  501    0  0.16993054644E+03 -0.86442412161E+02 -0.50402584023E+03  0.53887914123E+03  0.00000000000E+00 0. -1.
<scales pt_clust_5="13000.00000" pt_clust_6="13000.00000" pt_clust_7="13000.00000" pt_clust_8="13000.00000" pt_clust_9="32.21192" pt_clust_10="13000.00000"></scales>
<clustering>
<clus scale="   32.212">  1  9  2 -1</clus>
<clus scale="   89.417">  7  8 -1 -1</clus>
<clus scale="   91.397">  5  6 -1 -1</clus>
<clus scale="  184.098">  7 10 -1 -1</clus>
<clus scale="  215.903">  2  5  1 -1</clus>
<clus scale="   32.212">  1  5  2 -1</clus>
</clustering>
</event>
<event>
10    2  0.5692308E-006  0.2304910E+03  0.7546771E-02  0.1156586E+00
          1   -1    0    0  502    0 -0.00000000000E+00  0.00000000000E+00  0.30619951697E+03  0.30619951697E+03  0.00000000000E+00 0. -1.
         21   -1    0    0  503  502  0.00000000000E+00 -0.00000000000E+00 -0.13491800074E+03  0.13491800074E+03  0.00000000000E+00 0. -1.
         23    2    1    2    0    0 -0.32302276322E+02  0.54009507240E+02  0.14458971162E+03  0.18326163761E+03  0.93371190347E+02 0.  0.
         23    2    1    2    0    0  0.97317286497E+01  0.83762268699E+01  0.95755998959E+02  0.13307078954E+03  0.91508228994E+02 0.  0.
        -13    1    4    4    0    0  0.36694886736E+02 -0.23663775224E+02  0.73898219647E+02  0.85833768631E+02  0.00000000000E+00 0.  1.
         13    1    4    4    0    0 -0.26963158086E+02  0.32040002094E+02  0.21857779312E+02  0.47237020911E+02  0.00000000000E+00 0. -1.
        -13    1    3    3    0    0 -0.61451690594E+02  0.44326979733E+02  0.72358321437E+02  0.10477078834E+03  0.00000000000E+00 0.  1.
         13    1    3    3    0    0  0.29149414272E+02  0.96825275068E+01  0.72231390181E+02  0.78490849268E+02  0.00000000000E+00 0. -1.
         21    1    1    2  503  501 -0.84169993533E+01 -0.25068918596E+02  0.12992981555E+02  0.29463776529E+02  0.00000000000E+00 0. -1.
          1    1    1    2  501    0  0.30987547026E+02 -0.37316815514E+02 -0.82057175903E+02  0.95321314027E+02  0.00000000000E+00 0. -1.
<scales pt_clust_5="13000.00000" pt_clust_6="13000.00000" pt_clust_7="13000.00000" pt_clust_8="13000.00000" pt_clust_9="26.44423" pt_clust_10="13000.00000"></scales>
<clustering>
<clus scale="   26.444">  2  9  1 -1</clus>
<clus scale="   91.508">  5  6 -1 -1</clus>
<clus scale="   60.334">  5 10 -1 -1</clus>
<clus scale="   93.371">  7  8 -1 -1</clus>
<clus scale="  111.196">  1  7  2 -1</clus>
<clus scale="   26.444">  2  5  1 -1</clus>
</clustering>
</event>
<event>
10    2  0.5692308E-006  0.1428394E+03  0.7546771E-02  0.1226392E+00
         21   -1    0    0  503  502  0.00000000000E+00  0.00000000000E+00  0.52219817370E+02  0.52219817370E+02  0.00000000000E+00 0.  1.
          1   -1    0    0  502    0 -0.00000000000E+00 -0.00000000000E+00 -0.84788431588E+03  0.84788431588E+03  0.00000000000E+00 0. -1.
         23    2    1    2    0    0  0.31757319788E+02  0.16164075718E+02 -0.27240703654E+03  0.29059565624E+03  0.94712391840E+02 0.  0.
         23    2    1    2    0    0 -0.26506295774E+02 -0.42197789840E+01 -0.33811824682E+03  0.35143753551E+03  0.92000012421E+02 0.  0.
        -11    1    4    4    0    0 -0.36100644576E+02  0.37384834222E+02 -0.15798868099E+03  0.16631688335E+03  0.00000000000E+00 0.  1.
         11    1    4    4    0    0  0.95943488025E+01 -0.41604613206E+02 -0.18012956583E+03  0.18512065216E+03  0.00000000000E+00 0. -1.
        -13    1    3    3    0    0  0.17332940280E+02 -0.39742064066E+02 -0.11048489902E+03  0.11868772214E+03  0.00000000000E+00 0. -1.
         13    1    3    3    0    0  0.14424379508E+02  0.55906139784E+02 -0.16192213751E+03  0.17190793410E+03  0.00000000000E+00 0.  1.
         21    1    1    2  503  501 -0.53093291738E+01 -0.66217853339E+02 -0.13590154280E+01  0.66444262356E+02  0.00000000000E+00 0.  1.
          1    1    1    2  501    0  0.58305159873E-01  0.54273556605E+02 -0.18378019972E+03  0.19162667913E+03  0.00000000000E+00 0. -1.
<scales pt_clust_5="13000.00000" pt_clust_6="13000.00000" pt_clust_7="13000.00000" pt_clust_8="13000.00000" pt_clust_9="66.43036" pt_clust_10="13000.00000"></scales>
<clustering>
<clus scale="   66.430">  1  9  2 -1</clus>
<clus scale="   92.000">  5  6 -1 -1</clus>
<clus scale="   41.083">  5 10 -1 -1</clus>
<clus scale="   94.712">  7  8 -1 -1</clus>
<clus scale="  100.188">  2  7  1 -1</clus>
<clus scale="   66.430">  1  5  2 -1</clus>
</clustering>
</event>
<event>
10    2  0.5692308E-006  0.3093381E+03  0.7546771E-02  0.1093199E+00
          1   -1    0    0  502    0 -0.00000000000E+00  0.00000000000E+00  0.84694157781E+03  0.84694157781E+03  0.00000000000E+00 0. -1.
         21   -1    0    0  503  502  0.00000000000E+00 -0.00000000000E+00 -0.26409210240E+03  0.26409210240E+03  0.00000000000E+00 0. -1.
         23    2    1    2    0    0  0.13644993848E+03 -0.16444193121E+03  0.50343690372E+03  0.55442220676E+03  0.90969955905E+02 0.  0.
         23    2    1    2    0    0  0.38256553021E+02  0.37277571468E+01  0.11302602356E+03  0.15081477307E+03  0.92156137885E+02 0.  0.
        -13    1    4    4    0    0 -0.17137193211E+02 -0.26862841419E+02  0.17851046321E+02  0.36523355473E+02  0.00000000000E+00 0.  1.
         13    1    4    4    0    0  0.55393746232E+02  0.30590598566E+02  0.95174977241E+02  0.11429141759E+03  0.00000000000E+00 0. -1.
        -13    1    3    3    0    0  0.57817154045E+02 -0.21348204707E+02  0.20716159592E+03  0.21613536492E+03  0.00000000000E+00 0.  1.
         13    1    3    3    0    0  0.78632784433E+02 -0.14309372651E+03  0.29627530780E+03  0.33828684184E+03  0.00000000000E+00 0. -1.
         21    1    1    2  503  501 -0.11033134880E+03 -0.23620574379E+02 -0.14287251111E+03  0.18205354293E+03  0.00000000000E+00 0. -1.
          1    1    1    2  501    0 -0.64375142699E+02  0.18433474845E+03  0.10925905923E+03  0.22374315745E+03  0.00000000000E+00 0. -1.
<scales pt_clust_5="13000.00000" pt_clust_6="13000.00000" pt_clust_7="13000.00000" pt_clust_8="13000.00000" pt_clust_9="112.83146" pt_clust_10="13000.00000"></scales>
<clustering>
<clus scale="   90.970">  7  8 -1 -1</clus>
<clus scale="   92.156">  5  6 -1 -1</clus>
<clus scale="  112.831">  2  9  1 -1</clus>
<clus scale="  212.740">  5 10 -1 -1</clus>
<clus scale="  221.658">  1  7  2 -1</clus>
<clus scale="  112.831">  2  5  1 -1</clus>
</clustering>
</event>
<event>
10    2  0.5692308E-006  0.1746678E+03  0.7546771E-02  0.1195522E+00
          1   -1    0    0  503    0 -0.00000000000E+00  0.00000000000E+00  0.37346418079E+03  0.37346418079E+03  0.00000000000E+00 0. -1.
         21   -1    0    0  501  502  0.00000000000E+00 -0.00000000000E+00 -0.71340135232E+02  0.71340135232E+02  0.00000000000E+00 0. -1.
         23    2    1    2    0    0  0.61294014263E+02 -0.21497662408E+02  0.10879749549E+03  0.15626810738E+03  0.91453379848E+02 0.  0.
         23    2    1    2    0    0  0.33603325858E+02  0.98135285928E+01  0.12791634668E+03  0.16105681600E+03  0.91384995376E+02 0.  0.
        -11    1    4    4    0    0 -0.17224627408E+02  0.28406891281E+02  0.87246279539E+02  0.93357123751E+02  0.00000000000E+00 0.  1.
         11    1    4    4    0    0  0.50827953267E+02 -0.18593362688E+02  0.40670067140E+02  0.67699692249E+02  0.00000000000E+00 0. -1.
        -11    1    3    3    0    0  0.13529246314E+02  0.32721743348E+02  0.16538177082E+02  0.39080228950E+02  0.00000000000E+00 0.  1.
         11    1    3    3    0    0  0.47764767949E+02 -0.54219405756E+02  0.92259318407E+02  0.11718787843E+03  0.00000000000E+00 0. -1.
         21    1    1    2  503  502 -0.23494698582E+02  0.16871834735E+02 -0.22007008826E+01  0.29008666862E+02  0.00000000000E+00 0. -1.
          1    1    1    2  501    0 -0.71402641540E+02 -0.51877009198E+01  0.67610904274E+02  0.98470725784E+02  0.00000000000E+00 0. -1.
<scales pt_clust_5="13000.00000" pt_clust_6="13000.00000" pt_clust_7="13000.00000" pt_clust_8="13000.00000" pt_clust_9="28.92507" pt_clust_10="13000.00000"></scales>
<clustering>
<clus scale="   28.925">  2  9  1 -1</clus>
<clus scale="   91.385">  5  6 -1 -1</clus>
<clus scale="   77.909">  5 10 -1 -1</clus>
<clus scale="   91.453">  7  8 -1 -1</clus>
<clus scale="  105.826">  1  7  2 -1</clus>
<clus scale="   28.925">  2  5  1 -1</clus>
</clustering>
</event>
<event>
10    2  0.5692308E-006  0.3934852E+03  0.7546771E-02  0.1083258E+00
          3   -1    0    0  502    0 -0.00000000000E+00  0.00000000000E+00  0.54689599558E+03  0.54689599558E+03  0.00000000000E+00 0. -1.
         21   -1    0    0  503  502  0.00000000000E+00 -0.00000000000E+00 -0.17048511868E+03  0.17048511868E+03  0.00000000000E+00 0. -1.
         23    2    1    2    0    0 -0.65247959951E+02 -0.76278824468E+02 -0.16384794799E+02  0.13656889036E+03  0.91141894726E+02 0.  0.
         23    2    1    2    0    0 -0.12132886370E+03  0.77434230637E+02  0.31788680987E+03  0.36047304118E+03  0.90399315735E+02 0.  0.
        -13    1    4    4    0    0 -0.64404756770E+02 -0.10142277013E+02  0.11158933667E+03  0.12924015837E+03  0.00000000000E+00 0. -1.
         13    1    4    4    0    0 -0.56924106932E+02  0.87576507650E+02  0.20629747320E+03  0.23123288280E+03  0.00000000000E+00 0.  1.
        -13    1    3    3    0    0 -0.45592622713E+02  0.10341150068E+02 -0.64284168665E+01  0.47190583531E+02  0.00000000000E+00 0. -1.
         13    1    3    3    0    0 -0.19655337239E+02 -0.86619974536E+02 -0.99563779330E+01  0.89378306832E+02  0.00000000000E+00 0.  1.
         21    1    1    2  503  501  0.15275461272E+02 -0.27684794886E+02  0.23933088185E+02  0.39655772531E+02  0.00000000000E+00 0. -1.
          3    1    1    2  501    0  0.17130136238E+03  0.26529388717E+02  0.50975773642E+02  0.18068341019E+03  0.00000000000E+00 0. -1.
<scales pt_clust_5="13000.00000" pt_clust_6="13000.00000" pt_clust_7="13000.00000" pt_clust_8="13000.00000" pt_clust_9="31.61943" pt_clust_10="13000.00000"></scales>
<clustering>
<clus scale="   31.619">  2  9  1 -1</clus>
<clus scale="   90.399">  5  6 -1 -1</clus>
<clus scale="   91.142">  7  8 -1 -1</clus>
<clus scale="  140.187">  1  7  2 -1</clus>
<clus scale="  161.088">  5 10 -1 -1</clus>
<clus scale="   31.619">  2  5  1 -1</clus>
</clustering>
</event>
<event>
10    2  0.5692308E-006  0.1305804E+03  0.7546771E-02  0.1239350E+00
         21   -1    0    0  503  502  0.00000000000E+00  0.00000000000E+00  0.54177201567E+02  0.54177201567E+02  0.00000000000E+00 0. -1.
          2   -1    0    0  502    0 -0.00000000000E+00 -0.00000000000E+00 -0.70478258439E+03  0.70478258439E+03  0.00000000000E+00 0. -1.
         23    2    1    2    0    0  0.51007567873E+02 -0.21208789912E+02 -0.23405805742E+03  0.25413913927E+03  0.82170208209E+02 0.  0.
         23    2    1    2    0    0 -0.28969029258E+02  0.40186041644E+02 -0.31682657976E+03  0.33340822218E+03  0.91256990820E+02 0.  0.
        -13    1    4    4    0    0 -0.41900990876E+02  0.63405342669E+02 -0.21013583309E+03  0.22345692843E+03  0.00000000000E+00 0.  1.
         13    1    4    4    0    0  0.12931961618E+02 -0.23219301025E+02 -0.10669074667E+03  0.10995129375E+03  0.00000000000E+00 0. -1.
        -13    1    3    3    0    0  0.67360818351E+02 -0.35305516336E+02 -0.19810221357E+03  0.21219907246E+03  0.00000000000E+00 0. -1.
         13    1    3    3    0    0 -0.16353250478E+02  0.14096726424E+02 -0.35955843848E+02  0.41940066808E+02  0.00000000000E+00 0.  1.
         21    1    1    2  503  501 -0.33786186220E+02 -0.52556938770E+02  0.31547022969E+01  0.62559494394E+02  0.00000000000E+00 0. -1.
          2    1    1    2  501    0  0.11747647605E+02  0.33579687038E+02 -0.10287544795E+03  0.10885293012E+03  0.00000000000E+00 0. -1.
<scales pt_clust_5="13000.00000" pt_clust_6="13000.00000" pt_clust_7="13000.00000" pt_clust_8="13000.00000" pt_clust_9="62.47990" pt_clust_10="13000.00000"></scales>
<clustering>
<clus scale="   62.480">  1  9  2 -1</clus>
<clus scale="   82.170">  7  8 -1 -1</clus>
<clus scale="   91.257">  5  6 -1 -1</clus>
<clus scale="   27.134">  5 10 -1 -1</clus>
<clus scale="  100.479">  2  7  1 -1</clus>
<clus scale="   62.480">  1  5  2 -1</clus>
</clustering>
</event>
<event>
10    2  0.5692308E-006  0.4700976E+03  0.7546771E-02  0.1070286E+00
          1   -1    0    0  502    0 -0.00000000000E+00  0.00000000000E+00  0.65878094170E+03  0.65878094170E+03  0.00000000000E+00 0. -1.
         21   -1    0    0  503  502  0.00000000000E+00 -0.00000000000E+00 -0.28631253357E+03  0.28631253357E+03  0.00000000000E+00 0. -1.
         23    2    1    2    0    0  0.60515648750E+02  0.44501393849E+02  0.38725847774E+03  0.40487837274E+03  0.91185801182E+02 0.  0.
         23    2    1    2    0    0 -0.61791408224E+02  0.21562833453E+03  0.74372631346E+02  0.25200750489E+03  0.87537063272E+02 0.  0.
        -11    1    4    4    0    0 -0.52773830872E+01  0.12998303407E+03  0.91267131371E+01  0.13040988003E+03  0.00000000000E+00 0.  1.
         11    1    4    4    0    0 -0.56514025137E+02  0.85645300464E+02  0.65245918209E+02  0.12159762486E+03  0.00000000000E+00 0. -1.
        -13    1    3    3    0    0  0.76934396020E+02  0.57450020353E+02  0.33780033844E+03  0.35118154105E+03  0.00000000000E+00 0. -1.
         13    1    3    3    0    0 -0.16418747270E+02 -0.12948626505E+02  0.49458139299E+02  0.53696831686E+02  0.00000000000E+00 0.  1.
         21    1    1    2  503  501 -0.27355340459E+02 -0.52355975824E+02 -0.44013847378E+02  0.73666013990E+02  0.00000000000E+00 0. -1.
          1    1    1    2  501    0  0.28631099932E+02 -0.20777375256E+03 -0.45148853572E+02  0.21454158365E+03  0.00000000000E+00 0. -1.
<scales pt_clust_5="13000.00000" pt_clust_6="13000.00000" pt_clust_7="13000.00000" pt_clust_8="13000.00000" pt_clust_9="59.07168" pt_clust_10="13000.00000"></scales>
<clustering>
<clus scale="   59.072">  2  9  1 -1</clus>
<clus scale="   87.537">  5  6 -1 -1</clus>
<clus scale="   91.186">  7  8 -1 -1</clus>
<clus scale="  116.850">  1  7  2 -1</clus>
<clus scale="  222.494">  5 10 -1 -1</clus>
<clus scale="   59.072">  2  5  1 -1</clus>
</clustering>
</event>
<event>
10    2  0.5692308E-006  0.1473105E+03  0.7546771E-02  0.1224554E+00
          2   -1    0    0  503    0 -0.00000000000E+00  0.00000000000E+00  0.39104135654E+03  0.39104135654E+03  0.00000000000E+00 0. -1.
         21   -1    0    0  501  502  0.00000000000E+00 -0.00000000000E+00 -0.80676435282E+02  0.80676435282E+02  0.00000000000E+00 0.  1.
         23    2    1    2    0    0 -0.55165170943E+01  0.66912720447E+01  0.92058605754E+02  0.12981678930E+03  0.91117543911E+02 0.  0.
         23    2    1    2    0    0  0.25372435264E+02  0.14522330185E+02  0.23104435955E+03  0.25004760429E+03  0.91036529968E+02 0.  0.
        -13    1    4    4    0    0  0.23584762997E+02 -0.20425751233E+02  0.22201035174E+02  0.38292797258E+02  0.00000000000E+00 0.  1.
         13    1    4    4    0    0  0.17876722670E+01  0.34948081417E+02  0.20884332437E+03  0.21175480704E+03  0.00000000000E+00 0. -1.
        -13    1    3    3    0    0 -0.17185009641E+01 -0.35435689901E+02  0.89889890397E+01  0.36598405543E+02  0.00000000000E+00 0.  1.
         13    1    3    3    0    0 -0.37980161303E+01  0.42126961946E+02  0.83069616714E+02  0.93218383757E+02  0.00000000000E+00 0. -1.
         21    1    1    2  503  502 -0.40154067381E+02 -0.43958741900E+02 -0.14632324707E+02  0.61309257400E+02  0.00000000000E+00 0.  1.
          2    1    1    2  501    0  0.20298149211E+02  0.22745139670E+02  0.18942806672E+01  0.30544140834E+02  0.00000000000E+00 0. -1.
<scales pt_clust_5="13000.00000" pt_clust_6="13000.00000" pt_clust_7="13000.00000" pt_clust_8="13000.00000" pt_clust_9="59.53755" pt_clust_10="13000.00000"></scales>
<clustering>
<clus scale="   59.538">  2  9  1 -1</clus>
<clus scale="   91.037">  5  6 -1 -1</clus>
<clus scale="   10.518">  5 10 -1 -1</clus>
<clus scale="   91.118">  7  8 -1 -1</clus>
<clus scale="   94.901">  1  7  2 -1</clus>
<clus scale="   59.538">  2  5  1 -1</clus>
</clustering>
</event>
<event>
10    2  0.5692308E-006  0.9152818E+03  0.7546771E-02  0.1006311E+00
         -1   -1    0    0    0  501 -0.00000000000E+00  0.00000000000E+00  0.91632367617E+03  0.91632367617E+03  0.00000000000E+00 0.  1.
         21   -1    0    0  501  502  0.00000000000E+00 -0.00000000000E+00 -0.47582211799E+03  0.47582211799E+03  0.00000000000E+00 0. -1.
         23    2    1    2    0    0 -0.40365724433E+02 -0.31406569982E+02  0.17607250553E+03  0.20381168845E+03  0.89005127929E+02 0.  0.
         23    2    1    2    0    0  0.11472373129E+03 -0.30493909853E+03 -0.12244417592E+03  0.35996824239E+03  0.91843186884E+02 0.  0.
        -11    1    4    4    0    0  0.85053671644E+02 -0.14965892178E+03 -0.10321966009E+03  0.20071426994E+03  0.00000000000E+00 0. -1.
         11    1    4    4    0    0  0.29670059647E+02 -0.15528017675E+03 -0.19224515829E+02  0.15925397245E+03  0.00000000000E+00 0.  1.
        -13    1    3    3    0    0 -0.32561166218E+01 -0.49603525339E+02  0.47486568032E+02  0.68746535657E+02  0.00000000000E+00 0.  1.
         13    1    3    3    0    0 -0.37109607811E+02  0.18196955357E+02  0.12858593750E+03  0.13506515279E+03  0.00000000000E+00 0. -1.
         21    1    1    2  503  502 -0.13758328401E+03 -0.52517132195E+02 -0.11747563765E+03  0.18838188516E+03  0.00000000000E+00 0. -1.
         -1    1    1    2    0  503  0.63225277153E+02  0.38886280071E+03  0.50434886622E+03  0.63998397816E+03  0.00000000000E+00 0.  1.
<scales pt_clust_5="13000.00000" pt_clust_6="13000.00000" pt_clust_7="13000.00000" pt_clust_8="13000.00000" pt_clust_9="149.65483" pt_clust_10="13000.00000"></scales>
<clustering>
<clus scale="   89.005">  7  8 -1 -1</clus>
<clus scale="   91.843">  5  6 -1 -1</clus>
<clus scale="  102.653">  1  7  2 -1</clus>
<clus scale="  149.655">  2  9  1 -1</clus>
<clus scale="  352.302">  5 10 -1 -1</clus>
<clus scale="  149.655">  2  5  1 -1</clus>
</clustering>
</event>
<event>
10    2  0.5692308E-006  0.3027060E+03  0.7546771E-02  0.1124343E+00
         21   -1    0    0  501  502  0.00000000000E+00  0.00000000000E+00  0.67483983331E+03  0.67483983331E+03  0.00000000000E+00 0.  1.
         -1   -1    0    0    0  501 -0.00000000000E+00 -0.00000000000E+00 -0.91324833499E+02  0.91324833499E+02  0.00000000000E+00 0.  1.
         23    2    1    2    0    0  0.54809607593E+02 -0.16489789909E+02  0.71045546730E+02  0.12850432085E+03  0.90497980706E+02 0.  0.
         23    2    1    2    0    0  0.35511295356E+02  0.75042170982E+02  0.13074425488E+02  0.12417939478E+03  0.91417733309E+02 0.  0.
        -11    1    3    3    0    0  0.79291188233E+02 -0.21325278118E+02  0.55405538708E+02  0.99053691187E+02  0.00000000000E+00 0.  1.
         11    1    3    3    0    0 -0.24481580639E+02  0.48354882090E+01  0.15640008022E+02  0.29450629666E+02  0.00000000000E+00 0. -1.
        -13    1    4    4    0    0 -0.11664929380E+02  0.17265032921E+02 -0.31140668675E+02  0.37468562618E+02  0.00000000000E+00 0. -1.
         13    1    4    4    0    0  0.47176224735E+02  0.57777138062E+02  0.44215094163E+02  0.86710832165E+02  0.00000000000E+00 0.  1.
         21    1    1    2  503  502 -0.10856250945E+02 -0.23164880216E+02  0.20235463906E+03  0.20396536424E+03  0.00000000000E+00 0.  1.
         -1    1    1    2    0  503 -0.79464652004E+02 -0.35387500857E+02  0.29704038853E+03  0.30951558693E+03  0.00000000000E+00 0.  1.
<scales pt_clust_5="13000.00000" pt_clust_6="13000.00000" pt_clust_7="13000.00000" pt_clust_8="13000.00000" pt_clust_9="25.58261" pt_clust_10="13000.00000"></scales>
<clustering>
<clus scale="   25.583">  1  9  2 -1</clus>
<clus scale="   90.498">  5  6 -1 -1</clus>
<clus scale="   91.418">  7  8 -1 -1</clus>
<clus scale="  100.005">  7 10 -1 -1</clus>
<clus scale="  106.794">  2  5  1 -1</clus>
<clus scale="   25.583">  1  5  2 -1</clus>
</clustering>
</event>
<event>
10    2  0.5692308E-006  0.2775276E+03  0.7546771E-02  0.1117641E+00
          1   -1    0    0  503    0 -0.00000000000E+00  0.00000000000E+00  0.71506987485E+03  0.71506987485E+03  0.00000000000E+00 0. -1.
         21   -1    0    0  501  502  0.00000000000E+00 -0.00000000000E+00 -0.14265633340E+03  0.14265633340E+03  0.00000000000E+00 0. -1.
         23    2    1    2    0    0 -0.12286944933E+03  0.72367254472E+02  0.41910169517E+03  0.45197957351E+03  0.91133873378E+02 0.  0.
         23    2    1    2    0    0 -0.28986443016E+01  0.54954160786E+02  0.15604373618E+03  0.18912284667E+03  0.91593895019E+02 0.  0.
        -11    1    3    3    0    0 -0.52321583203E+02 -0.13738547271E+01  0.64933496083E+02  0.83401405619E+02  0.00000000000E+00 0.  1.
         11    1    3    3    0    0 -0.70547866128E+02  0.73741109200E+02  0.35416819909E+03  0.36857816789E+03  0.00000000000E+00 0. -1.
        -13    1    4    4    0    0  0.44155688703E+02  0.31552711414E+02  0.76988705754E+02  0.94194263393E+02  0.00000000000E+00 0.  1.
         13    1    4    4    0    0 -0.47054333005E+02  0.23401449372E+02  0.79055030430E+02  0.94928583280E+02  0.00000000000E+00 0. -1.
         21    1    1    2  503  502  0.68508069523E+01 -0.56780659098E+02 -0.44191402973E+02  0.72276254056E+02  0.00000000000E+00 0. -1.
          1    1    1    2  501    0  0.11891728668E+03 -0.70540756161E+02  0.41459513080E+02  0.14434753401E+03  0.00000000000E+00 0. -1.
<scales pt_clust_5="13000.00000" pt_clust_6="13000.00000" pt_clust_7="13000.00000" pt_clust_8="13000.00000" pt_clust_9="57.19245" pt_clust_10="13000.00000"></scales>
<clustering>
<clus scale="   57.192">  2  9  1 -1</clus>
<clus scale="   91.134">  5  6 -1 -1</clus>
<clus scale="   91.594">  7  8 -1 -1</clus>
<clus scale="  161.883">  7 10 -1 -1</clus>
<clus scale="  163.815">  1  5  2 -1</clus>
<clus scale="   57.192">  2  5  1 -1</clus>
</clustering>
</event>
<event>
10    2  0.5692308E-006  0.2459131E+03  0.7546771E-02  0.1142692E+00
          2   -1    0    0  502    0 -0.00000000000E+00  0.00000000000E+00  0.12773758266E+04  0.12773758266E+04  0.00000000000E+00 0. -1.
         21   -1    0    0  503  502  0.00000000000E+00 -0.00000000000E+00 -0.54095542359E+02  0.54095542359E+02  0.00000000000E+00 0. -1.
         23    2    1    2    0    0 -0.82837238899E+02 -0.32849878569E+02  0.74675202907E+03  0.75775760542E+03  0.92827113340E+02 0.  0.
         23    2    1    2    0    0  0.96499955138E+02 -0.74585294906E+02  0.38324681790E+03  0.41237582328E+03  0.91107017491E+02 0.  0.
        -13    1    4    4    0    0  0.61817064498E+02 -0.89161717589E+02  0.22603126583E+03  0.25072154770E+03  0.00000000000E+00 0. -1.
         13    1    4    4    0    0  0.34682890640E+02  0.14576422682E+02  0.15721555206E+03  0.16165427558E+03  0.00000000000E+00 0.  1.
        -13    1    3    3    0    0  0.33395253134E+01  0.24564426726E+02  0.12378939164E+03  0.12624728501E+03  0.00000000000E+00 0.  1.
         13    1    3    3    0    0 -0.86176764212E+02 -0.57414305295E+02  0.62296263743E+03  0.63151032040E+03  0.00000000000E+00 0. -1.
         21    1    1    2  503  501  0.32025461744E+01  0.27519423655E+02 -0.10185815004E+02  0.29518228395E+02  0.00000000000E+00 0. -1.
          2    1    1    2  501    0 -0.16865262413E+02  0.79915749821E+02  0.10346725229E+03  0.13181971189E+03  0.00000000000E+00 0. -1.
<scales pt_clust_5="13000.00000" pt_clust_6="13000.00000" pt_clust_7="13000.00000" pt_clust_8="13000.00000" pt_clust_9="27.70514" pt_clust_10="13000.00000"></scales>
<clustering>
<clus scale="   27.705">  2  9  1 -1</clus>
<clus scale="   91.107">  5  6 -1 -1</clus>
<clus scale="   92.621">  5 10 -1 -1</clus>
<clus scale="   92.827">  7  8 -1 -1</clus>
<clus scale="  127.287">  1  7  2 -1</clus>
<clus scale="   27.705">  2  5  1 -1</clus>
</clustering>
</event>
<event>
10    2  0.5692308E-006  0.4523099E+03  0.7546771E-02  0.1076340E+00
         21   -1    0    0  501  502  0.00000000000E+00  0.00000000000E+00  0.31856480176E+03  0.31856480176E+03  0.00000000000E+00 0. -1.
          1   -1    0    0  503    0 -0.00000000000E+00 -0.00000000000E+00 -0.55879961089E+03  0.55879961089E+03  0.00000000000E+00 0. -1.
         23    2    1    2    0    0  0.55937256197E+02 -0.34652738047E+02 -0.18978360017E+03  0.21996738156E+03  0.89655145821E+02 0.  0.
         23    2    1    2    0    0 -0.15070734706E+03  0.30471729895E+02 -0.75999545084E+01  0.18046243079E+03  0.94168459891E+02 0.  0.
        -11    1    3    3    0    0  0.44183376472E+02 -0.61239196923E+02 -0.16614317926E+03  0.18249922194E+03  0.00000000000E+00 0. -1.
         11    1    3    3    0    0  0.11753879725E+02  0.26586458876E+02 -0.23640420912E+02  0.37468159616E+02  0.00000000000E+00 0.  1.
        -13    1    4    4    0    0 -0.10578173926E+03 -0.10075200587E+02  0.28473485518E+02  0.11000920601E+03  0.00000000000E+00 0. -1.
         13    1    4    4    0    0 -0.44925607791E+02  0.40546930482E+02 -0.36073440026E+02  0.70453224782E+02  0.00000000000E+00 0.  1.
         21    1    1    2  503  502 -0.89806005653E+02  0.17134729388E+03  0.67039254579E+02  0.20474197280E+03  0.00000000000E+00 0. -1.
          1    1    1    2  501    0  0.18457609651E+03 -0.16716628573E+03 -0.10989050904E+03  0.27219262750E+03  0.00000000000E+00 0. -1.
<scales pt_clust_5="13000.00000" pt_clust_6="13000.00000" pt_clust_7="13000.00000" pt_clust_8="13000.00000" pt_clust_9="182.54909" pt_clust_10="13000.00000"></scales>
<clustering>
<clus scale="   89.655">  5  6 -1 -1</clus>
<clus scale="   94.168">  7  8 -1 -1</clus>
<clus scale="  111.211">  2  5  1 -1</clus>
<clus scale="  182.549">  1  9  2 -1</clus>
<clus scale="  192.387">  7 10 -1 -1</clus>
<clus scale="  182.549">  1  5  2 -1</clus>
</clustering>
</event>
<event>
10    2  0.5692308E-006  0.4753727E+03  0.7546771E-02  0.1044833E+00
          2   -1    0    0  502    0 -0.00000000000E+00  0.00000000000E+00  0.35122949641E+03  0.35122949641E+03  0.00000000000E+00 0. -1.
         21   -1    0    0  503  502  0.00000000000E+00 -0.00000000000E+00 -0.45160872045E+03  0.45160872045E+03  0.00000000000E+00 0. -1.
         23    2    1    2    0    0  0.20408487341E+03 -0.75217936033E+00  0.64515440333E+02  0.23251648881E+03  0.90832120963E+02 0.  0.
         23    2    1    2    0    0 -0.59641389011E+02 -0.76335306148E+01 -0.25081819306E+03  0.27361825064E+03  0.91333537315E+02 0.  0.
        -11    1    4    4    0    0 -0.41901542781E+02  0.39020553439E+02 -0.16077841586E+03  0.17066939352E+03  0.00000000000E+00 0. -1.
         11    1    4    4    0    0 -0.17739846230E+02 -0.46654084054E+02 -0.90039777199E+02  0.10294885712E+03  0.00000000000E+00 0.  1.
        -13    1    3    3    0    0  0.77036611264E+02  0.14926071906E+02  0.68906003126E+02  0.10442923137E+03  0.00000000000E+00 0.  1.
         13    1    3    3    0    0  0.12704826214E+03 -0.15678251267E+02 -0.43905627933E+01  0.12808725744E+03  0.00000000000E+00 0. -1.
         21    1    1    2  503  501  0.39538708480E+02 -0.19947654730E+02 -0.49563876130E+02  0.66466504455E+02  0.00000000000E+00 0.  1.
          2    1    1    2  501    0 -0.18398219288E+03  0.28333364705E+02  0.13548740483E+03  0.23023697296E+03  0.00000000000E+00 0. -1.
<scales pt_clust_5="13000.00000" pt_clust_6="13000.00000" pt_clust_7="13000.00000" pt_clust_8="13000.00000" pt_clust_9="44.28565" pt_clust_10="13000.00000"></scales>
<clustering>
<clus scale="   44.286">  2  9  1 -1</clus>
<clus scale="   90.832">  7  8 -1 -1</clus>
<clus scale="   91.334">  5  6 -1 -1</clus>
<clus scale="  181.090">  5 10 -1 -1</clus>
<clus scale="  231.175">  1  7  2 -1</clus>
<clus scale="   44.286">  2  5  1 -1</clus>
</clustering>
</event>
<event>
10    2  0.5692308E-006  0.5948406E+03  0.7546771E-02  0.1031518E+00
         21   -1    0    0  503  502  0.00000000000E+00  0.00000000000E+00  0.17086738946E+03  0.17086738946E+03  0.00000000000E+00 0.  1.
          1   -1    0    0  502    0 -0.00000000000E+00 -0.00000000000E+00 -0.16971980634E+04  0.16971980634E+04  0.00000000000E+00 0. -1.
         23    2    1    2    0    0  0.15558834066E+03  0.19710850676E+02 -0.33691772658E+03  0.38258465173E+03  0.90891209001E+02 0.  0.
         23    2    1    2    0    0 -0.82739618808E+02  0.23854164822E+03 -0.87519120229E+03  0.91562324876E+03  0.93050151313E+02 0.  0.
        -11    1    3    3    0    0  0.11788795426E+03  0.50137567137E+02 -0.27949206834E+03  0.30745269825E+03  0.00000000000E+00 0.  1.
         11    1    3    3    0    0  0.37700386400E+02 -0.30426716461E+02 -0.57425658240E+02  0.75131953479E+02  0.00000000000E+00 0. -1.
        -13    1    4    4    0    0  0.17832604305E+02  0.73477472302E+02 -0.23113261710E+03  0.24318558222E+03  0.00000000000E+00 0.  1.
         13    1    4    4    0    0 -0.10057222311E+03  0.16506417592E+03 -0.64405858519E+03  0.67243766654E+03  0.00000000000E+00 0. -1.
         21    1    1    2  503  501 -0.35654101140E+02  0.19837501885E+02  0.77759070590E+02  0.87813520987E+02  0.00000000000E+00 0.  1.
          1    1    1    2  501    0 -0.37194620708E+02 -0.27809000078E+03 -0.39198081569E+03  0.48204403140E+03  0.00000000000E+00 0. -1.
<scales pt_clust_5="13000.00000" pt_clust_6="13000.00000" pt_clust_7="13000.00000" pt_clust_8="13000.00000" pt_clust_9="40.80124" pt_clust_10="13000.00000"></scales>
<clustering>
<clus scale="   40.801">  1  9  2 -1</clus>
<clus scale="   90.891">  5  6 -1 -1</clus>
<clus scale="   93.050">  7  8 -1 -1</clus>
<clus scale="  174.057">  2  5  1 -1</clus>
<clus scale="  260.488">  7 10 -1 -1</clus>
<clus scale="   40.801">  1  5  2 -1</clus>
</clustering>
</event>
<event>
10    2  0.5692308E-006  0.2582227E+03  0.7546771E-02  0.1150867E+00
          1   -1    0    0  503    0 -0.00000000000E+00  0.00000000000E+00  0.30920758867E+03  0.30920758867E+03  0.00000000000E+00 0. -1.
         21   -1    0    0  501  502  0.00000000000E+00 -0.00000000000E+00 -0.17935837235E+03  0.17935837235E+03  0.00000000000E+00 0. -1.
         23    2    1    2    0    0 -0.97969532745E+01  0.10560912708E+02  0.10203700462E+02  0.91893467428E+02  0.90181931017E+02 0.  0.
         23    2    1    2    0    0 -0.43725042780E+02 -0.28757293184E+02  0.23787951975E+03  0.25993181565E+03  0.90769056365E+02 0.  0.
        -11    1    3    3    0    0  0.37653879756E+02 -0.10509470341E+02  0.81544247753E+01  0.39934424635E+02  0.00000000000E+00 0.  1.
         11    1    3    3    0    0 -0.47450833030E+02  0.21070383049E+02  0.20492756866E+01  0.51959042793E+02  0.00000000000E+00 0. -1.
        -13    1    4    4    0    0 -0.51284435591E+02  0.14664012486E+02  0.17638596079E+03  0.18427461508E+03  0.00000000000E+00 0. -1.
         13    1    4    4    0    0  0.75593928110E+01 -0.43421305670E+02  0.61493558956E+02  0.75657200575E+02  0.00000000000E+00 0.  1.
         21    1    1    2  503  502  0.27418732035E+02 -0.86226357071E+01 -0.70139969038E+02  0.75800738582E+02  0.00000000000E+00 0. -1.
          1    1    1    2  501    0  0.26103264019E+02  0.26819016183E+02 -0.48094034852E+02  0.60939939365E+02  0.00000000000E+00 0. -1.
<scales pt_clust_5="13000.00000" pt_clust_6="13000.00000" pt_clust_7="13000.00000" pt_clust_8="13000.00000" pt_clust_9="28.74259" pt_clust_10="13000.00000"></scales>
<clustering>
<clus scale="   28.743">  2  9  1 -1</clus>
<clus scale="   90.182">  5  6 -1 -1</clus>
<clus scale="   90.476">  1  5  2 -1</clus>
<clus scale="   90.769">  7  8 -1 -1</clus>
<clus scale="   46.177">  7 10 -1 -1</clus>
<clus scale="   28.743">  2  5  1 -1</clus>
</clustering>
</event>
<event>
10    2  0.5692308E-006  0.5480952E+03  0.7546771E-02  0.1059637E+00
          1   -1    0    0  503    0 -0.00000000000E+00  0.00000000000E+00  0.10085456652E+04  0.10085456652E+04  0.00000000000E+00 0. -1.
         21   -1    0    0  501  502  0.00000000000E+00 -0.00000000000E+00 -0.15284082990E+03  0.15284082990E+03  0.00000000000E+00 0. -1.
         23    2    1    2    0    0 -0.11245982974E+02 -0.30500287955E+02  0.30861000639E+03  0.32378675103E+03  0.92417446420E+02 0.  0.
         23    2    1    2    0    0  0.11809160472E+03 -0.20706034316E+03  0.36371761285E+03  0.44423406045E+03  0.90740210212E+02 0.  0.
        -11    1    4    4    0    0  0.47776062671E+02 -0.53450966411E+02  0.48361416713E+02  0.86477653768E+02  0.00000000000E+00 0.  1.
         11    1    4    4    0    0  0.70315542051E+02 -0.15360937675E+03  0.31535619614E+03  0.35775640668E+03  0.00000000000E+00 0. -1.
        -13    1    3    3    0    0 -0.50978208604E+02 -0.63750932559E+01  0.16964925959E+03  0.17725769615E+03  0.00000000000E+00 0.  1.
         13    1    3    3    0    0  0.39732225630E+02 -0.24125194700E+02  0.13896074680E+03  0.14652905488E+03  0.00000000000E+00 0. -1.
         21    1    1    2  503  502 -0.46926874593E+02 -0.35560480080E+02 -0.18767579135E+00  0.58878812189E+02  0.00000000000E+00 0. -1.
          1    1    1    2  501    0 -0.59918747155E+02  0.27312111120E+03  0.18356489185E+03  0.33448687143E+03  0.00000000000E+00 0. -1.
<scales pt_clust_5="13000.00000" pt_clust_6="13000.00000" pt_clust_7="13000.00000" pt_clust_8="13000.00000" pt_clust_9="58.87851" pt_clust_10="13000.00000"></scales>
<clustering>
<clus scale="   58.879">  2  9  1 -1</clus>
<clus scale="   90.740">  5  6 -1 -1</clus>
<clus scale="   92.417">  7  8 -1 -1</clus>
<clus scale="   99.042">  1  7  2 -1</clus>
<clus scale="  256.891">  5 10 -1 -1</clus>
<clus scale="   58.879">  2  5  1 -1</clus>
</clustering>
</event>
<event>
10    2  0.5692308E-006  0.4232378E+03  0.7546771E-02  0.1081083E+00
         21   -1    0    0  501  502  0.00000000000E+00  0.00000000000E+00  0.57612890569E+02  0.57612890569E+02  0.00000000000E+00 0. -1.
          2   -1    0    0  503    0 -0.00000000000E+00 -0.00000000000E+00 -0.16680775145E+04  0.16680775145E+04  0.00000000000E+00 0. -1.
         23    2    1    2    0    0  0.82107475596E+02  0.39099360424E+02 -0.39994418863E+03  0.42011890893E+03  0.90962333335E+02 0.  0.
         23    2    1    2    0    0 -0.19077841196E+03 -0.55259064331E+02 -0.39844946406E+03  0.45444508795E+03  0.91150402613E+02 0.  0.
        -13    1    3    3    0    0  0.83830807421E+02  0.26706456253E+01 -0.33786527390E+03  0.34812020902E+03  0.00000000000E+00 0. -1.
         13    1    3    3    0    0 -0.17233318251E+01  0.36428714799E+02 -0.62078914737E+02  0.71998699915E+02  0.00000000000E+00 0.  1.
        -13    1    4    4    0    0 -0.10358685506E+03 -0.30510652881E+02 -0.11913242754E+03  0.16079077016E+03  0.00000000000E+00 0.  1.
         13    1    4    4    0    0 -0.87191556906E+02 -0.24748411450E+02 -0.27931703652E+03  0.29365431779E+03  0.00000000000E+00 0. -1.
         21    1    1    2  503  502 -0.70660579407E+02 -0.12457240847E+02 -0.19025291267E+03  0.20333290710E+03  0.00000000000E+00 0. -1.
          2    1    1    2  501    0  0.17933151577E+03  0.28616944755E+02 -0.62181805858E+03  0.64779350109E+03  0.00000000000E+00 0. -1.
<scales pt_clust_5="13000.00000" pt_clust_6="13000.00000" pt_clust_7="13000.00000" pt_clust_8="13000.00000" pt_clust_9="71.75030" pt_clust_10="13000.00000"></scales>
<clustering>
<clus scale="   71.750">  1  9  2 -1</clus>
<clus scale="   90.962">  5  6 -1 -1</clus>
<clus scale="   91.150">  7  8 -1 -1</clus>
<clus scale="  119.420">  2  5  1 -1</clus>
<clus scale="  197.937">  7 10 -1 -1</clus>
<clus scale="   71.750">  1  5  2 -1</clus>
</clustering>
</event>
<event>
10    2  0.5692308E-006  0.4844989E+03  0.7546771E-02  0.1051748E+00
          2   -1    0    0  503    0 -0.00000000000E+00  0.00000000000E+00  0.63085068239E+03  0.63085068239E+03  0.00000000000E+00 0. -1.
         21   -1    0    0  501  502  0.00000000000E+00 -0.00000000000E+00 -0.37839200276E+03  0.37839200276E+03  0.00000000000E+00 0. -1.
         23    2    1    2    0    0  0.15086516316E+03 -0.32792281432E+02  0.33926208143E+03  0.38346315730E+03  0.90053328273E+02 0.  0.
         23    2    1    2    0    0  0.11737078895E+03 -0.24257450169E+02  0.12860015603E+03  0.19700780728E+03  0.88936775347E+02 0.  0.
        -11    1    4    4    0    0  0.73158867688E+02  0.30057623778E+02  0.64295108992E+02  0.10192910138E+03  0.00000000000E+00 0.  1.
         11    1    4    4    0    0  0.44211921261E+02 -0.54315073947E+02  0.64305047040E+02  0.95078705892E+02  0.00000000000E+00 0. -1.
        -13    1    3    3    0    0  0.40040086813E+02 -0.52114360622E+02  0.13940810370E+03  0.15412246595E+03  0.00000000000E+00 0.  1.
         13    1    3    3    0    0  0.11082507635E+03  0.19322079190E+02  0.19985397774E+03  0.22934069135E+03  0.00000000000E+00 0. -1.
         21    1    1    2  503  502  0.10234048294E+02  0.23682554823E+02 -0.13438928835E+03  0.13684326791E+03  0.00000000000E+00 0.  1.
          2    1    1    2  501    0 -0.27847000041E+03  0.33367176778E+02 -0.81014269482E+02  0.29192845266E+03  0.00000000000E+00 0. -1.
<scales pt_clust_5="13000.00000" pt_clust_6="13000.00000" pt_clust_7="13000.00000" pt_clust_8="13000.00000" pt_clust_9="25.79921" pt_clust_10="13000.00000"></scales>
<clustering>
<clus scale="   25.799">  2  9  1 -1</clus>
<clus scale="   88.937">  5  6 -1 -1</clus>
<clus scale="   90.053">  7  8 -1 -1</clus>
<clus scale="  179.138">  1  7  2 -1</clus>
<clus scale="  216.056">  5 10 -1 -1</clus>
<clus scale="   25.799">  2  5  1 -1</clus>
</clustering>
</event>
<event>
10    2  0.5692308E-006  0.1763264E+03  0.7546771E-02  0.1200697E+00
         21   -1    0    0  501  502  0.00000000000E+00  0.00000000000E+00  0.28688606640E+03  0.28688606640E+03  0.00000000000E+00 0.  1.
          2   -1    0    0  503    0 -0.00000000000E+00 -0.00000000000E+00 -0.25930300825E+03  0.25930300825E+03  0.00000000000E+00 0. -1.
         23    2    1    2    0    0  0.58719498763E+00  0.47894009475E+01 -0.14840077950E+03  0.17448641488E+03  0.91648428574E+02 0.  0.
         23    2    1    2    0    0 -0.26149405851E+02  0.16001214420E+02 -0.68890836793E+02  0.11511961626E+03  0.86987058610E+02 0.  0.
        -11    1    3    3    0    0  0.28016945545E+02 -0.17774265549E+02 -0.14953571970E+02  0.36393448149E+02  0.00000000000E+00 0.  1.
         11    1    3    3    0    0 -0.27429750558E+02  0.22563666497E+02 -0.13344720753E+03  0.13809296673E+03  0.00000000000E+00 0. -1.
        -13    1    4    4    0    0 -0.26400052847E+02  0.48524937836E+02 -0.59665759370E+02  0.81311962365E+02  0.00000000000E+00 0. -1.
         13    1    4    4    0    0  0.25064699631E+00 -0.32523723416E+02 -0.92250774223E+01  0.33807653900E+02  0.00000000000E+00 0.  1.
         21    1    1    2  503  502  0.47451835814E+02 -0.25820561703E+02  0.17988984933E+03  0.18782634539E+03  0.00000000000E+00 0.  1.
          2    1    1    2  501    0 -0.21889624951E+02  0.50299463359E+01  0.64984825115E+02  0.68756698117E+02  0.00000000000E+00 0. -1.
<scales pt_clust_5="13000.00000" pt_clust_6="13000.00000" pt_clust_7="13000.00000" pt_clust_8="13000.00000" pt_clust_9="54.02202" pt_clust_10="13000.00000"></scales>
<clustering>
<clus scale="   54.022">  1  9  2 -1</clus>
<clus scale="   86.987">  7  8 -1 -1</clus>
<clus scale="   14.729">  7 10 -1 -1</clus>
<clus scale="   91.648">  5  6 -1 -1</clus>
<clus scale="   91.898">  2  5  1 -1</clus>
<clus scale="   54.022">  1  5  2 -1</clus>
</clustering>
</event>
<event>
10    2  0.5692308E-006  0.1597846E+03  0.7546771E-02  0.1201754E+00
         -2   -1    0    0    0  501 -0.00000000000E+00  0.00000000000E+00  0.69895487105E+03  0.69895487105E+03  0.00000000000E+00 0.  1.
         21   -1    0    0  503  502  0.00000000000E+00 -0.00000000000E+00 -0.66871725848E+02  0.66871725848E+02  0.00000000000E+00 0. -1.
         23    2    1    2    0    0  0.31117676587E+02  0.70701868743E+02  0.49357700946E+03  0.50775461919E+03  0.90716178299E+02 0.  0.
         23    2    1    2    0    0 -0.45733473178E+01 -0.26259998477E+02  0.47127539113E+02  0.10507806250E+03  0.90054934627E+02 0.  0.
        -13    1    4    4    0    0  0.41084694382E+02 -0.80409072760E+01  0.88871138374E+01  0.42797068762E+02  0.00000000000E+00 0.  1.
         13    1    4    4    0    0 -0.45658041700E+02 -0.18219091201E+02  0.38240425275E+02  0.62280993740E+02  0.00000000000E+00 0. -1.
        -13    1    3    3    0    0  0.61153917333E+02  0.31080462488E+02  0.25607156557E+03  0.26510081751E+03  0.00000000000E+00 0.  1.
         13    1    3    3    0    0 -0.30036240746E+02  0.39621406255E+02  0.23750544389E+03  0.24265380168E+03  0.00000000000E+00 0. -1.
         21    1    1    2  503  501 -0.31917247073E+02  0.31964227636E+02  0.24935928268E+02  0.51596734661E+02  0.00000000000E+00 0. -1.
         -2    1    1    2    0  502  0.53729178034E+01 -0.76406097903E+02  0.66442668361E+02  0.10139718054E+03  0.00000000000E+00 0.  1.
<scales pt_clust_5="13000.00000" pt_clust_6="13000.00000" pt_clust_7="13000.00000" pt_clust_8="13000.00000" pt_clust_9="45.17104" pt_clust_10="13000.00000"></scales>
<clustering>
<clus scale="   45.171">  2  9  1 -1</clus>
<clus scale="   90.055">  5  6 -1 -1</clus>
<clus scale="   66.165">  5 10 -1 -1</clus>
<clus scale="   90.716">  7  8 -1 -1</clus>
<clus scale="  120.697">  1  7  2 -1</clus>
<clus scale="   45.171">  2  5  1 -1</clus>
</clustering>
</event>
<event>
10    2  0.5692308E-006  0.2834333E+03  0.7546771E-02  0.1129939E+00
          3   -1    0    0  503    0 -0.00000000000E+00  0.00000000000E+00  0.31017408984E+03  0.31017408984E+03  0.00000000000E+00 0. -1.
         21   -1    0    0  501  502  0.00000000000E+00 -0.00000000000E+00 -0.72300279866E+03  0.72300279866E+03  0.00000000000E+00 0. -1.
         23    2    1    2    0    0 -0.90707779373E+01  0.71119640052E+02  0.24062464498E+03  0.26676850792E+03  0.90138420391E+02 0.  0.
         23    2    1    2    0    0 -0.10008844644E+03  0.56168492865E+01 -0.22017070148E+03  0.26013250684E+03  0.95627073667E+02 0.  0.
        -11    1    3    3    0    0 -0.42435024131E+02  0.69565560301E+02  0.16185976145E+03  0.18121446087E+03  0.00000000000E+00 0. -1.
         11    1    3    3    0    0  0.33364246194E+02  0.15540797518E+01  0.78764883529E+02  0.85554047042E+02  0.00000000000E+00 0.  1.
        -13    1    4    4    0    0 -0.59479678896E+02 -0.44320546931E+02 -0.11822711002E+03  0.13957002767E+03  0.00000000000E+00 0. -1.
         13    1    4    4    0    0 -0.40608767549E+02  0.49937396218E+02 -0.10194359146E+03  0.12056247916E+03  0.00000000000E+00 0.  1.
         21    1    1    2  503  502 -0.27235820254E+02 -0.11123750881E+03 -0.25201344010E+03  0.27681464423E+03  0.00000000000E+00 0. -1.
          3    1    1    2  501    0  0.13639504464E+03  0.34501019470E+02 -0.18126921223E+03  0.22946122951E+03  0.00000000000E+00 0. -1.
<scales pt_clust_5="13000.00000" pt_clust_6="13000.00000" pt_clust_7="13000.00000" pt_clust_8="13000.00000" pt_clust_9="114.52324" pt_clust_10="13000.00000"></scales>
<clustering>
<clus scale="   90.138">  5  6 -1 -1</clus>
<clus scale="   95.627">  7  8 -1 -1</clus>
<clus scale="  114.523">  2  9  1 -1</clus>
<clus scale="  113.309">  1  5  2 -1</clus>
<clus scale="  120.762">  7 10 -1 -1</clus>
<clus scale="  114.523">  2  5  1 -1</clus>
</clustering>
</event>
<event>
10    2  0.5692308E-006  0.3694186E+03  0.7546771E-02  0.1097648E+00
         21   -1    0    0  501  502  0.00000000000E+00  0.00000000000E+00  0.11987760353E+03  0.11987760353E+03  0.00000000000E+00 0. -1.
          1   -1    0    0  503    0 -0.00000000000E+00 -0.00000000000E+00 -0.68333207826E+03  0.68333207826E+03  0.00000000000E+00 0. -1.
         23    2    1    2    0    0 -0.34154465652E+02 -0.76840513260E+02 -0.20599805211E+02  0.12506682013E+03  0.90257218662E+02 0.  0.
         23    2    1    2    0    0 -0.12091018286E+03 -0.10908582468E+02 -0.36064133831E+03  0.39271028313E+03  0.97061434602E+02 0.  0.
        -13    1    3    3    0    0  0.20927435717E+02 -0.55399643388E+02 -0.27984221235E+02  0.65499577795E+02  0.00000000000E+00 0. -1.
         13    1    3    3    0    0 -0.55081901369E+02 -0.21440869872E+02  0.73844160239E+01  0.59567242334E+02  0.00000000000E+00 0.  1.
        -13    1    4    4    0    0 -0.70396135143E+02 -0.53967890047E+02 -0.21926489399E+03  0.23652746719E+03  0.00000000000E+00 0.  1.
         13    1    4    4    0    0 -0.50514047715E+02  0.43059307580E+02 -0.14137644432E+03  0.15618281594E+03  0.00000000000E+00 0. -1.
         21    1    1    2  503  502 -0.13749104272E+02  0.36101896742E+02 -0.57558328379E+02  0.69320602871E+02  0.00000000000E+00 0. -1.
          1    1    1    2  501    0  0.16881375278E+03  0.51647198986E+02 -0.12465500283E+03  0.21611197565E+03  0.00000000000E+00 0. -1.
<scales pt_clust_5="13000.00000" pt_clust_6="13000.00000" pt_clust_7="13000.00000" pt_clust_8="13000.00000" pt_clust_9="38.63142" pt_clust_10="13000.00000"></scales>
<clustering>
<clus scale="   38.631">  1  9  2 -1</clus>
<clus scale="   90.257">  5  6 -1 -1</clus>
<clus scale="   97.061">  7  8 -1 -1</clus>
<clus scale="  115.840">  2  5  1 -1</clus>
<clus scale="  157.123">  7 10 -1 -1</clus>
<clus scale="   38.631">  1  5  2 -1</clus>
</clustering>
</event>
<event>
10    2  0.5692308E-006  0.4588272E+03  0.7546771E-02  0.1069377E+00
         21   -1    0    0  501  502  0.00000000000E+00  0.00000000000E+00  0.49290650523E+03  0.49290650523E+03  0.00000000000E+00 0. -1.
          2   -1    0    0  503    0 -0.00000000000E+00 -0.00000000000E+00 -0.54805955143E+03  0.54805955143E+03  0.00000000000E+00 0. -1.
         23    2    1    2    0    0  0.84214312791E+02  0.31041387277E+02 -0.19541581239E+03  0.23334912661E+03  0.90602742538E+02 0.  0.
         23    2    1    2    0    0 -0.26230539170E+01 -0.27877488699E+02 -0.29981517699E+03  0.31558950708E+03  0.94464606280E+02 0.  0.
        -11    1    3    3    0    0 -0.57470676854E+01  0.32348799960E+02 -0.27486737800E+02  0.42836834625E+02  0.00000000000E+00 0.  1.
         11    1    3    3    0    0  0.89961380476E+02 -0.13074126831E+01 -0.16792907459E+03  0.19051229199E+03  0.00000000000E+00 0. -1.
        -13    1    4    4    0    0  0.29054355579E+02 -0.46129999317E+02 -0.11597934394E+03  0.12815358222E+03  0.00000000000E+00 0. -1.
         13    1    4    4    0    0 -0.31677409496E+02  0.18252510618E+02 -0.18383583305E+03  0.18743592486E+03  0.00000000000E+00 0.  1.
         21    1    1    2  503  502  0.33029810074E+02 -0.42356476437E+02  0.30865167177E+03  0.31329043065E+03  0.00000000000E+00 0. -1.
          2    1    1    2  501    0 -0.11462106895E+03  0.39192577858E+02  0.13142627141E+03  0.17873699232E+03  0.00000000000E+00 0. -1.
<scales pt_clust_5="13000.00000" pt_clust_6="13000.00000" pt_clust_7="13000.00000" pt_clust_8="13000.00000" pt_clust_9="53.71256" pt_clust_10="13000.00000"></scales>
<clustering>
<clus scale="   53.713">  1  9  2 -1</clus>
<clus scale="   90.603">  5  6 -1 -1</clus>
<clus scale="   94.465">  7  8 -1 -1</clus>
<clus scale="   86.522">  7 10 -1 -1</clus>
<clus scale="  128.847">  2  5  1 -1</clus>
<clus scale="   53.713">  1  5  2 -1</clus>
</clustering>
</event>
<event>
10    2  0.5692308E-006  0.5361627E+03  0.7546771E-02  0.1047282E+00
         21   -1    0    0  503  502  0.00000000000E+00  0.00000000000E+00  0.13131369537E+04  0.13131369537E+04  0.00000000000E+00 0. -1.
          1   -1    0    0  502    0 -0.00000000000E+00 -0.00000000000E+00 -0.19960920878E+03  0.19960920878E+03  0.00000000000E+00 0. -1.
         23    2    1    2    0    0  0.11736371769E+03 -0.10754268134E+02  0.80330233410E+02  0.17030309395E+03  0.93060737673E+02 0.  0.
         23    2    1    2    0    0 -0.21930154795E+02  0.23659035591E+03  0.30571700256E+03  0.39797967420E+03  0.92027209108E+02 0.  0.
        -13    1    3    3    0    0  0.71403298846E+02  0.33029087562E+02  0.16701617160E+02  0.80425715583E+02  0.00000000000E+00 0. -1.
         13    1    3    3    0    0  0.45960418844E+02 -0.43783355696E+02  0.63628616250E+02  0.89877378368E+02  0.00000000000E+00 0.  1.
        -13    1    4    4    0    0  0.19449722082E+02  0.16411922200E+03  0.15983476896E+03  0.22991425377E+03  0.00000000000E+00 0.  1.
         13    1    4    4    0    0 -0.41379876878E+02  0.72471133913E+02  0.14588223361E+03  0.16806542043E+03  0.00000000000E+00 0. -1.
         21    1    1    2  503  501 -0.22464296756E+03 -0.63427262761E+02  0.69656501518E+03  0.73463616907E+03  0.00000000000E+00 0. -1.
          1    1    1    2  501    0  0.12920940467E+03 -0.16240882502E+03  0.30915493749E+02  0.20982722524E+03  0.00000000000E+00 0. -1.
<scales pt_clust_5="13000.00000" pt_clust_6="13000.00000" pt_clust_7="13000.00000" pt_clust_8="13000.00000" pt_clust_9="219.94177" pt_clust_10="13000.00000"></scales>
<clustering>
<clus scale="   92.027">  7  8 -1 -1</clus>
<clus scale="   93.061">  5  6 -1 -1</clus>
<clus scale="  150.167">  2  5  1 -1</clus>
<clus scale="  219.942">  1  9  2 -1</clus>
<clus scale="  224.877">  7 10 -1 -1</clus>
<clus scale="  219.942">  1  5  2 -1</clus>
</clustering>
</event>
<event>
10    2  0.5692308E-006  0.2625255E+03  0.7546771E-02  0.1137989E+00
         21   -1    0    0  503  502  0.00000000000E+00  0.00000000000E+00  0.11819188277E+03  0.11819188277E+03  0.00000000000E+00 0. -1.
         -1   -1    0    0    0  501 -0.00000000000E+00 -0.00000000000E+00 -0.54593898903E+03  0.54593898903E+03  0.00000000000E+00 0.  1.
         23    2    1    2    0    0 -0.12291473352E+02  0.51383865650E+02 -0.74043354436E+02  0.12862248245E+03  0.90939225246E+02 0.  0.
         23    2    1    2    0    0 -0.29384934322E+02 -0.57726515558E+02 -0.35668781054E+03  0.37389475797E+03  0.91516506105E+02 0.  0.
        -11    1    3    3    0    0  0.20095468142E+02 -0.18716160012E+02 -0.14116643906E+02  0.30877210376E+02  0.00000000000E+00 0.  1.
         11    1    3    3    0    0 -0.32386941494E+02  0.70100025662E+02 -0.59926710530E+02  0.97745272071E+02  0.00000000000E+00 0. -1.
        -11    1    4    4    0    0 -0.49591465120E+02 -0.68273103967E+01 -0.10506057609E+03  0.11637718947E+03  0.00000000000E+00 0.  1.
         11    1    4    4    0    0  0.20206530798E+02 -0.50899205161E+02 -0.25162723445E+03  0.25751756851E+03  0.00000000000E+00 0. -1.
         21    1    1    2  503  501 -0.42253558510E+02  0.44377399082E+02  0.26115231166E+02  0.66608723564E+02  0.00000000000E+00 0. -1.
         -1    1    1    2    0  502  0.83929966184E+02 -0.38034749174E+02 -0.23131172453E+02  0.95004907807E+02  0.00000000000E+00 0.  1.
<scales pt_clust_5="13000.00000" pt_clust_6="13000.00000" pt_clust_7="13000.00000" pt_clust_8="13000.00000" pt_clust_9="61.27574" pt_clust_10="13000.00000"></scales>
<clustering>
<clus scale="   61.276">  1  9  2 -1</clus>
<clus scale="   90.939">  5  6 -1 -1</clus>
<clus scale="   91.517">  7  8 -1 -1</clus>
<clus scale="   64.756">  7 10 -1 -1</clus>
<clus scale="  117.177">  2  5  1 -1</clus>
<clus scale="   61.276">  1  5  2 -1</clus>
</clustering>
</event>
<event>
10    2  0.5692308E-006  0.9415214E+03  0.7546771E-02  0.1001540E+00
         21   -1    0    0  501  502  0.00000000000E+00  0.00000000000E+00  0.28694395709E+03  0.28694395709E+03  0.00000000000E+00 0.  1.
          2   -1    0    0  503    0 -0.00000000000E+00 -0.00000000000E+00 -0.17259018362E+04  0.17259018362E+04  0.00000000000E+00 0.  1.
         23    2    1    2    0    0 -0.23296794169E+01  0.51708919444E+02 -0.94167527970E+02  0.14149034241E+03  0.92047563338E+02 0.  0.
         23    2    1    2    0    0 -0.17559160240E+03  0.37328213755E+03 -0.83539937393E+03  0.93631205852E+03  0.92823444928E+02 0.  0.
        -11    1    4    4    0    0 -0.33399242472E+02  0.33928520696E+02 -0.50231717075E+02  0.69208954006E+02  0.00000000000E+00 0. -1.
         11    1    4    4    0    0 -0.14219235992E+03  0.33935361686E+03 -0.78516765685E+03  0.86710310452E+03  0.00000000000E+00 0.  1.
        -13    1    3    3    0    0 -0.46008542611E+02  0.17047940969E+02 -0.35571227314E+02  0.60603056830E+02  0.00000000000E+00 0.  1.
         13    1    3    3    0    0  0.43678863194E+02  0.34660978475E+02 -0.58596300656E+02  0.80887285585E+02  0.00000000000E+00 0. -1.
         21    1    1    2  503  502  0.12287608755E+02  0.52113621148E+02  0.11803286610E+03  0.12960930645E+03  0.00000000000E+00 0.  1.
          2    1    1    2  501    0  0.16563367306E+03 -0.47710467815E+03 -0.62742384330E+03  0.80543408588E+03  0.00000000000E+00 0.  1.
<scales pt_clust_5="13000.00000" pt_clust_6="13000.00000" pt_clust_7="13000.00000" pt_clust_8="13000.00000" pt_clust_9="53.54265" pt_clust_10="13000.00000"></scales>
<clustering>
<clus scale="   53.543">  1  9  2 -1</clus>
<clus scale="   92.048">  7  8 -1 -1</clus>
<clus scale="   92.823">  5  6 -1 -1</clus>
<clus scale="  109.480">  2  7  1 -1</clus>
<clus scale="  457.985">  5 10 -1 -1</clus>
<clus scale="   53.543">  1  5  2 -1</clus>
</clustering>
</event>
<event>
10    2  0.5692308E-006  0.1648673E+03  0.7546771E-02  0.1211849E+00
         -1   -1    0    0    0  501 -0.00000000000E+00  0.00000000000E+00  0.65321660880E+03  0.65321660880E+03  0.00000000000E+00 0.  1.
         21   -1    0    0  503  502  0.00000000000E+00 -0.00000000000E+00 -0.37582732943E+02  0.37582732943E+02  0.00000000000E+00 0. -1.
         23    2    1    2    0    0  0.68007890511E+01 -0.19611063602E+02  0.21168709837E+03  0.22954695272E+03  0.86310667589E+02 0.  0.
         23    2    1    2    0    0  0.12366204329E+02 -0.79123467986E+01  0.39597546881E+03  0.40750664075E+03  0.95129186457E+02 0.  0.
        -11    1    4    4    0    0 -0.16657403118E+02  0.38176450586E+02  0.18244156938E+03  0.18713587763E+03  0.00000000000E+00 0.  1.
         11    1    4    4    0    0  0.29023607447E+02 -0.46088797385E+02  0.21353389943E+03  0.22037076313E+03  0.00000000000E+00 0. -1.
        -13    1    3    3    0    0  0.69649471135E+00  0.34160499410E+02  0.93886036418E+02  0.99910022816E+02  0.00000000000E+00 0.  1.
         13    1    3    3    0    0  0.61042943398E+01 -0.53771563012E+02  0.11780106195E+03  0.12963692990E+03  0.00000000000E+00 0. -1.
         21    1    1    2  503  501 -0.25505462781E+02  0.93273636704E+00  0.10337157688E+01  0.25543437456E+02  0.00000000000E+00 0.  1.
         -1    1    1    2    0  502  0.63384694001E+01  0.26590674034E+02  0.69375929069E+01  0.28202310814E+02  0.00000000000E+00 0.  1.
<scales pt_clust_5="13000.00000" pt_clust_6="13000.00000" pt_clust_7="13000.00000" pt_clust_8="13000.00000" pt_clust_9="25.52251" pt_clust_10="13000.00000"></scales>
<clustering>
<clus scale="   25.523">  2  9  1 -1</clus>
<clus scale="   86.311">  7  8 -1 -1</clus>
<clus scale="   88.466">  1  7  2 -1</clus>
<clus scale="   95.129">  5  6 -1 -1</clus>
<clus scale="   26.224">  5 10 -1 -1</clus>
<clus scale="   25.523">  2  5  1 -1</clus>
</clustering>
</event>
<event>
10    2  0.5692308E-006  0.1837764E+03  0.7546771E-02  0.1185897E+00
         21   -1    0    0  501  502  0.00000000000E+00  0.00000000000E+00  0.21269276572E+03  0.21269276572E+03  0.00000000000E+00 0.  1.
         -2   -1    0    0    0  501 -0.00000000000E+00 -0.00000000000E+00 -0.28045137812E+03  0.28045137812E+03  0.00000000000E+00 0.  1.
         23    2    1    2    0    0 -0.32124205836E+02  0.65158588232E+02 -0.38825221359E+02  0.12186361664E+03  0.89809448419E+02 0.  0.
         23    2    1    2    0    0  0.21060369161E+02 -0.67551789847E+00 -0.14767996650E+03  0.17591400548E+03  0.93232876952E+02 0.  0.
        -11    1    3    3    0    0 -0.16709191152E+02 -0.21566179796E+02 -0.65903903893E+01  0.28066535686E+02  0.00000000000E+00 0. -1.
         11    1    3    3    0    0 -0.15415014684E+02  0.86724768028E+02 -0.32234830969E+02  0.93797080951E+02  0.00000000000E+00 0.  1.
        -13    1    4    4    0    0  0.55001809967E+02 -0.14334063384E+02 -0.10729787197E+03  0.12142280594E+03  0.00000000000E+00 0. -1.
         13    1    4    4    0    0 -0.33941440806E+02  0.13658545486E+02 -0.40382094532E+02  0.54491199543E+02  0.00000000000E+00 0.  1.
         21    1    1    2  503  502  0.23881813236E+02 -0.14986424326E+01  0.12818715209E+03  0.13040142980E+03  0.00000000000E+00 0.  1.
         -2    1    1    2    0  503 -0.12817976561E+02 -0.62984427901E+02 -0.94405766306E+01  0.64965091921E+02  0.00000000000E+00 0.  1.
<scales pt_clust_5="13000.00000" pt_clust_6="13000.00000" pt_clust_7="13000.00000" pt_clust_8="13000.00000" pt_clust_9="23.92879" pt_clust_10="13000.00000"></scales>
<clustering>
<clus scale="   23.929">  1  9  2 -1</clus>
<clus scale="   89.809">  5  6 -1 -1</clus>
<clus scale="   93.233">  7  8 -1 -1</clus>
<clus scale="   63.670">  7 10 -1 -1</clus>
<clus scale="  112.357">  2  5  1 -1</clus>
<clus scale="   23.929">  1  5  2 -1</clus>
</clustering>
</event>
<event>
10    2  0.5692308E-006  0.3804575E+03  0.7546771E-02  0.1087515E+00
          2   -1    0    0  502    0 -0.00000000000E+00  0.00000000000E+00  0.15525364215E+04  0.15525364215E+04  0.00000000000E+00 0. -1.
         21   -1    0    0  503  502  0.00000000000E+00 -0.00000000000E+00 -0.71947491072E+02  0.71947491072E+02  0.00000000000E+00 0. -1.
         23    2    1    2    0    0  0.10447549744E+03  0.35703411005E+02  0.67132657407E+03  0.68660355239E+03  0.92494356490E+02 0.  0.
         23    2    1    2    0    0 -0.13972925324E+03 -0.13841252807E+03  0.31789958085E+03  0.38369536585E+03  0.86485248052E+02 0.  0.
        -11    1    3    3    0    0  0.50597424808E+02  0.60887263632E+02  0.47201639290E+03  0.47860927012E+03  0.00000000000E+00 0. -1.
         11    1    3    3    0    0  0.53878072632E+02 -0.25183852627E+02  0.19931018116E+03  0.20799428228E+03  0.00000000000E+00 0.  1.
        -13    1    4    4    0    0 -0.79644692891E+02 -0.76304476906E+02  0.98451140718E+02  0.14784545110E+03  0.00000000000E+00 0. -1.
         13    1    4    4    0    0 -0.60084560353E+02 -0.62108051166E+02  0.21944844013E+03  0.23584991475E+03  0.00000000000E+00 0.  1.
         21    1    1    2  503  501 -0.54429657101E+02  0.10937803594E+02  0.10507350679E+02  0.56503340944E+02  0.00000000000E+00 0.  1.
          2    1    1    2  501    0  0.89683412905E+02  0.91771313472E+02  0.48085542482E+03  0.49768165338E+03  0.00000000000E+00 0. -1.
<scales pt_clust_5="13000.00000" pt_clust_6="13000.00000" pt_clust_7="13000.00000" pt_clust_8="13000.00000" pt_clust_9="55.51777" pt_clust_10="13000.00000"></scales>
<clustering>
<clus scale="   55.518">  2  9  1 -1</clus>
<clus scale="   86.485">  7  8 -1 -1</clus>
<clus scale="   92.494">  5  6 -1 -1</clus>
<clus scale="  123.382">  7 10 -1 -1</clus>
<clus scale="  138.446">  1  5  2 -1</clus>
<clus scale="   55.518">  2  5  1 -1</clus>
</clustering>
</event>
<event>
10    2  0.5692308E-006  0.1406073E+03  0.7546771E-02  0.1230636E+00
          1   -1    0    0  503    0 -0.00000000000E+00  0.00000000000E+00  0.47078265261E+03  0.47078265261E+03  0.00000000000E+00 0. -1.
         21   -1    0    0  501  502  0.00000000000E+00 -0.00000000000E+00 -0.45799498380E+02  0.45799498380E+02  0.00000000000E+00 0.  1.
         23    2    1    2    0    0  0.47947955550E+01 -0.12139019379E+00  0.14239244358E+03  0.17110534956E+03  0.94754566433E+02 0.  0.
         23    2    1    2    0    0  0.15618728523E+02  0.13227833534E+02  0.21260065505E+03  0.23358986779E+03  0.94584710948E+02 0.  0.
        -11    1    4    4    0    0  0.35962174517E+02  0.24166843665E+02  0.20461232170E+03  0.20914950758E+03  0.00000000000E+00 0. -1.
         11    1    4    4    0    0 -0.20343445994E+02 -0.10939010131E+02  0.79883333510E+01  0.24440360211E+02  0.00000000000E+00 0.  1.
        -13    1    3    3    0    0  0.45837819366E+02  0.12289402486E+02  0.10058728747E+03  0.11122022072E+03  0.00000000000E+00 0. -1.
         13    1    3    3    0    0 -0.41043023811E+02 -0.12410792680E+02  0.41805156117E+02  0.59885128842E+02  0.00000000000E+00 0.  1.
         21    1    1    2  503  502 -0.37363530877E+02 -0.34770783170E+02  0.66987726030E+02  0.84216365633E+02  0.00000000000E+00 0.  1.
          1    1    1    2  501    0  0.16950006798E+02  0.21664339829E+02  0.30023295653E+01  0.27670568002E+02  0.00000000000E+00 0. -1.
<scales pt_clust_5="13000.00000" pt_clust_6="13000.00000" pt_clust_7="13000.00000" pt_clust_8="13000.00000" pt_clust_9="51.03960" pt_clust_10="13000.00000"></scales>
<clustering>
<clus scale="   51.040">  2  9  1 -1</clus>
<clus scale="   94.585">  5  6 -1 -1</clus>
<clus scale="   11.109">  5 10 -1 -1</clus>
<clus scale="   94.755">  7  8 -1 -1</clus>
<clus scale="   96.201">  1  7  2 -1</clus>
<clus scale="   51.040">  2  5  1 -1</clus>
</clustering>
</event>
<event>
10    2  0.5692308E-006  0.1221740E+03  0.7546771E-02  0.1251076E+00
         21   -1    0    0  501  502  0.00000000000E+00  0.00000000000E+00  0.37591236735E+03  0.37591236735E+03  0.00000000000E+00 0.  1.
         -3   -1    0    0    0  501 -0.00000000000E+00 -0.00000000000E+00 -0.11144424178E+03  0.11144424178E+03  0.00000000000E+00 0.  1.
         23    2    1    2    0    0 -0.44303390511E+01  0.32583537396E+02 -0.70775388991E+02  0.12053018131E+03  0.91853438181E+02 0.  0.
         23    2    1    2    0    0  0.12099333504E+02  0.78596227537E+01  0.18801623682E+03  0.20799197900E+03  0.87763263835E+02 0.  0.
        -13    1    3    3    0    0 -0.41962085506E+02 -0.33533743003E+01 -0.16013681690E+02  0.45038869219E+02  0.00000000000E+00 0. -1.
         13    1    3    3    0    0  0.37531746455E+02  0.35936911696E+02 -0.54761707301E+02  0.75491312088E+02  0.00000000000E+00 0.  1.
        -13    1    4    4    0    0  0.17764418373E+02  0.46052061429E+02  0.12046180458E+03  0.13018223106E+03  0.00000000000E+00 0.  1.
         13    1    4    4    0    0 -0.56650848691E+01 -0.38192438675E+02  0.67554432239E+02  0.77809747935E+02  0.00000000000E+00 0. -1.
         21    1    1    2  503  502  0.16304238837E+02 -0.22038097219E+02  0.90463221180E+02  0.94525659581E+02  0.00000000000E+00 0.  1.
         -3    1    1    2    0  503 -0.23973233290E+02 -0.18405062930E+02  0.56764056572E+02  0.64308789246E+02  0.00000000000E+00 0.  1.
<scales pt_clust_5="13000.00000" pt_clust_6="13000.00000" pt_clust_7="13000.00000" pt_clust_8="13000.00000" pt_clust_9="27.41361" pt_clust_10="13000.00000"></scales>
<clustering>
<clus scale="   27.414">  1  9  2 -1</clus>
<clus scale="   87.763">  7  8 -1 -1</clus>
<clus scale="   30.888">  7 10 -1 -1</clus>
<clus scale="   91.853">  5  6 -1 -1</clus>
<clus scale="   96.878">  2  5  1 -1</clus>
<clus scale="   27.414">  1  5  2 -1</clus>
</clustering>
</event>
<event>
10    2  0.5692308E-006  0.7125606E+03  0.7546771E-02  0.1009619E+00
          2   -1    0    0  503    0 -0.00000000000E+00  0.00000000000E+00  0.25125327280E+04  0.25125327280E+04  0.00000000000E+00 0. -1.
         21   -1    0    0  501  502  0.00000000000E+00 -0.00000000000E+00 -0.10342808046E+03  0.10342808046E+03  0.00000000000E+00 0. -1.
         23    2    1    2    0    0  0.16432448051E+03  0.37647327708E+02  0.61228251391E+03  0.64132376658E+03  0.89366887398E+02 0.  0.
         23    2    1    2    0    0 -0.29007712570E+03  0.25587082120E+03  0.71485113673E+03  0.81779720911E+03  0.90363220164E+02 0.  0.
        -11    1    3    3    0    0  0.14610478195E+03  0.62971405069E+02  0.49342572454E+03  0.51844088458E+03  0.00000000000E+00 0. -1.
         11    1    3    3    0    0  0.18219698560E+02 -0.25324077361E+02  0.11885678936E+03  0.12288288199E+03  0.00000000000E+00 0.  1.
        -13    1    4    4    0    0 -0.34134851647E+02  0.30028407176E+02  0.36105974071E+02  0.58056306273E+02  0.00000000000E+00 0.  1.
         13    1    4    4    0    0 -0.25594227405E+03  0.22584241402E+03  0.67874516266E+03  0.75974090284E+03  0.00000000000E+00 0. -1.
         21    1    1    2  503  502  0.41836127521E+02 -0.21793079689E+02  0.10575182185E+02  0.48342883307E+02  0.00000000000E+00 0.  1.
          2    1    1    2  501    0  0.83916517670E+02 -0.27172506921E+03  0.10713958147E+04  0.11084969495E+04  0.00000000000E+00 0. -1.
<scales pt_clust_5="13000.00000" pt_clust_6="13000.00000" pt_clust_7="13000.00000" pt_clust_8="13000.00000" pt_clust_9="47.17202" pt_clust_10="13000.00000"></scales>
<clustering>
<clus scale="   47.172">  2  9  1 -1</clus>
<clus scale="   89.367">  5  6 -1 -1</clus>
<clus scale="   90.363">  7  8 -1 -1</clus>
<clus scale="  196.346">  1  5  2 -1</clus>
<clus scale="  324.781">  7 10 -1 -1</clus>
<clus scale="   47.172">  2  5  1 -1</clus>
</clustering>
</event>
<event>
10    2  0.5692308E-006  0.4987735E+03  0.7546771E-02  0.1067486E+00
          2   -1    0    0  503    0 -0.00000000000E+00  0.00000000000E+00  0.19483036647E+03  0.19483036647E+03  0.00000000000E+00 0. -1.
         21   -1    0    0  501  502  0.00000000000E+00 -0.00000000000E+00 -0.14973907244E+04  0.14973907244E+04  0.00000000000E+00 0. -1.
         23    2    1    2    0    0 -0.19082114983E+02  0.51860584891E+02  0.32797812879E+02  0.11063721753E+03  0.90062478283E+02 0.  0.
         23    2    1    2    0    0  0.41435388949E+02  0.70123380535E+02  0.24075666052E+02  0.12468339984E+03  0.91280515696E+02 0.  0.
        -11    1    4    4    0    0  0.15258554391E+02 -0.17886853459E+02  0.22950947787E+02  0.32855882473E+02  0.00000000000E+00 0.  1.
         11    1    4    4    0    0  0.26176834559E+02  0.88010233994E+02  0.11247182651E+01  0.91827517370E+02  0.00000000000E+00 0. -1.
        -13    1    3    3    0    0  0.73206773569E+01 -0.23260533614E+02 -0.34834162196E+00  0.24387826530E+02  0.00000000000E+00 0.  1.
         13    1    3    3    0    0 -0.26402792340E+02  0.75121118505E+02  0.33146154501E+02  0.86249390995E+02  0.00000000000E+00 0. -1.
         21    1    1    2  503  502  0.22972361809E+03 -0.83656668029E+02 -0.88671972853E+03  0.91980609684E+03  0.00000000000E+00 0. -1.
          2    1    1    2  501    0 -0.25207689206E+03 -0.38327297397E+02 -0.47271410830E+03  0.53709437664E+03  0.00000000000E+00 0. -1.
<scales pt_clust_5="13000.00000" pt_clust_6="13000.00000" pt_clust_7="13000.00000" pt_clust_8="13000.00000" pt_clust_9="239.75502" pt_clust_10="13000.00000"></scales>
<clustering>
<clus scale="   90.062">  7  8 -1 -1</clus>
<clus scale="   91.281">  5  6 -1 -1</clus>
<clus scale="  105.664">  1  7  2 -1</clus>
<clus scale="  239.755">  2  9  1 -1</clus>
<clus scale="  110.587">  5 10 -1 -1</clus>
<clus scale="  239.755">  2  5  1 -1</clus>
</clustering>
</event>
<event>
10    2  0.5692308E-006  0.3405873E+03  0.7546771E-02  0.1115720E+00
          3   -1    0    0  503    0 -0.00000000000E+00  0.00000000000E+00  0.65357469941E+03  0.65357469941E+03  0.00000000000E+00 0. -1.
         21   -1    0    0  501  502  0.00000000000E+00 -0.00000000000E+00 -0.12993830925E+03  0.12993830925E+03  0.00000000000E+00 0. -1.
         23    2    1    2    0    0  0.98619918967E+01 -0.19055705278E+01  0.21862761995E+03  0.23779459761E+03  0.92991098317E+02 0.  0.
         23    2    1    2    0    0  0.12024370554E+03  0.13013029560E+03  0.14620514033E+03  0.25192520949E+03  0.10343077667E+03 0.  0.
        -13    1    4    4    0    0  0.84412484500E+02  0.14385254435E+03  0.11894083180E+03  0.20485590918E+03  0.00000000000E+00 0. -1.
         13    1    4    4    0    0  0.35831221042E+02 -0.13722248755E+02  0.27264308534E+02  0.47069300314E+02  0.00000000000E+00 0.  1.
        -13    1    3    3    0    0  0.11969598287E+02  0.39349602322E+02  0.16529347901E+03  0.17033378023E+03  0.00000000000E+00 0. -1.
         13    1    3    3    0    0 -0.21076063901E+01 -0.41255172849E+02  0.53334140937E+02  0.67460817376E+02  0.00000000000E+00 0.  1.
         21    1    1    2  503  502 -0.78929397585E+02 -0.96305417392E+00 -0.62516024041E+01  0.79182446345E+02  0.00000000000E+00 0. -1.
          3    1    1    2  501    0 -0.51176299853E+02 -0.12726167090E+03  0.16505523229E+03  0.21461075521E+03  0.00000000000E+00 0. -1.
<scales pt_clust_5="13000.00000" pt_clust_6="13000.00000" pt_clust_7="13000.00000" pt_clust_8="13000.00000" pt_clust_9="78.93527" pt_clust_10="13000.00000"></scales>
<clustering>
<clus scale="   78.935">  2  9  1 -1</clus>
<clus scale="   92.991">  7  8 -1 -1</clus>
<clus scale="   93.020">  1  7  2 -1</clus>
<clus scale="  103.431">  5  6 -1 -1</clus>
<clus scale="  147.890">  5 10 -1 -1</clus>
<clus scale="   78.935">  2  5  1 -1</clus>
</clustering>
</event>
<event>
10    2  0.5692308E-006  0.3163806E+03  0.7546771E-02  0.1082166E+00
         21   -1    0    0  501  502  0.00000000000E+00  0.00000000000E+00  0.13973047879E+03  0.13973047879E+03  0.00000000000E+00 0.  1.
          2   -1    0    0  503    0 -0.00000000000E+00 -0.00000000000E+00 -0.78819813847E+03  0.78819813847E+03  0.00000000000E+00 0. -1.
         23    2    1    2    0    0 -0.23877248274E+03  0.14758185420E+03 -0.22886482756E+03  0.37408144596E+03  0.93622202026E+02 0.  0.
         23    2    1    2    0    0  0.54030963247E+02 -0.35806237732E+01 -0.14590916998E+03  0.18056807591E+03  0.91559698006E+02 0.  0.
        -11    1    4    4    0    0  0.78118479378E+02  0.64727554800E+01 -0.93437075528E+02  0.12196261914E+03  0.00000000000E+00 0. -1.
         11    1    4    4    0    0 -0.24087516131E+02 -0.10053379253E+02 -0.52472094449E+02  0.58605456774E+02  0.00000000000E+00 0.  1.
        -13    1    3    3    0    0 -0.20800411723E+03  0.16030202220E+03 -0.20287341513E+03  0.33184344753E+03  0.00000000000E+00 0.  1.
         13    1    3    3    0    0 -0.30768365513E+02 -0.12720168006E+02 -0.25991412439E+02  0.42237998426E+02  0.00000000000E+00 0. -1.
         21    1    1    2  503  502  0.15170214454E+02 -0.39127453252E+02 -0.10804061624E+02  0.43333829189E+02  0.00000000000E+00 0. -1.
          2    1    1    2  501    0  0.16957130504E+03 -0.10487377717E+03 -0.26288960051E+03  0.32994526620E+03  0.00000000000E+00 0. -1.
<scales pt_clust_5="13000.00000" pt_clust_6="13000.00000" pt_clust_7="13000.00000" pt_clust_8="13000.00000" pt_clust_9="41.96538" pt_clust_10="13000.00000"></scales>
<clustering>
<clus scale="   41.965">  1  9  2 -1</clus>
<clus scale="   91.560">  5  6 -1 -1</clus>
<clus scale="   93.622">  7  8 -1 -1</clus>
<clus scale="  208.587">  5 10 -1 -1</clus>
<clus scale="  277.696">  2  7  1 -1</clus>
<clus scale="   41.965">  1  5  2 -1</clus>
</clustering>
</event>
<event>
10    2  0.5902654E-006  0.4539382E+03  0.7546771E-02  0.1074338E+00
          1   -1    0    0  503    0 -0.00000000000E+00  0.00000000000E+00  0.67464973227E+03  0.67464973227E+03  0.00000000000E+00 0. -1.
         21   -1    0    0  501  502  0.00000000000E+00 -0.00000000000E+00 -0.13293917288E+04  0.13293917288E+04  0.00000000000E+00 0.  1.
         23    2    1    2    0    0 -0.66600944653E+02 -0.18063769846E+02  0.52717032441E+02  0.12757221623E+03  0.93453727779E+02 0.  0.
         23    2    1    2    0    0  0.62828941364E+02  0.16619235712E+03  0.48732572363E+03  0.52674356712E+03  0.91679055114E+02 0.  0.
        -11    1    4    4    0    0  0.50030584690E+02  0.79688689864E+02  0.14073489943E+03  0.16929163776E+03  0.00000000000E+00 0. -1.
         11    1    4    4    0    0  0.12798356675E+02  0.86503667260E+02  0.34659082420E+03  0.35745192936E+03  0.00000000000E+00 0.  1.
        -13    1    3    3    0    0 -0.63363335764E+02  0.22611919516E+02  0.54717049158E+02  0.86718894665E+02  0.00000000000E+00 0. -1.
         13    1    3    3    0    0 -0.32376088886E+01 -0.40675689361E+02 -0.20000167171E+01  0.40853321569E+02  0.00000000000E+00 0.  1.
         21    1    1    2  503  502  0.31708742551E+02 -0.28083464767E+03 -0.11799242859E+04  0.12132991651E+04  0.00000000000E+00 0.  1.
          1    1    1    2  501    0 -0.27936739262E+02  0.13270606039E+03 -0.14860466709E+02  0.13642651259E+03  0.00000000000E+00 0. -1.
<scales pt_clust_5="13000.00000" pt_clust_6="13000.00000" pt_clust_7="13000.00000" pt_clust_8="13000.00000" pt_clust_9="282.92491" pt_clust_10="13000.00000"></scales>
<clustering>
<clus scale="   91.679">  5  6 -1 -1</clus>
<clus scale="   93.454">  7  8 -1 -1</clus>
<clus scale="  116.170">  1  7  2 -1</clus>
<clus scale="  135.393">  5 10 -1 -1</clus>
<clus scale="  282.925">  2  9  1 -1</clus>
<clus scale="  282.925">  2  5  1 -1</clus>
</clustering>
</event>
<event>
10    2  0.5692308E-006  0.4971031E+03  0.7546771E-02  0.1062247E+00
          1   -1    0    0  503    0 -0.00000000000E+00  0.00000000000E+00  0.39603465096E+03  0.39603465096E+03  0.00000000000E+00 0. -1.
         21   -1    0    0  501  502  0.00000000000E+00 -0.00000000000E+00 -0.29804608092E+03  0.29804608092E+03  0.00000000000E+00 0.  1.
         23    2    1    2    0    0 -0.17648225788E+02  0.82918348089E+02  0.10532180097E+03  0.16216753724E+03  0.89547283894E+02 0.  0.
         23    2    1    2    0    0 -0.20737005707E+03 -0.52628675610E+02 -0.47885986199E+02  0.23823639526E+03  0.93227647653E+02 0.  0.
        -13    1    3    3    0    0 -0.53919555783E+02  0.57995567343E+02  0.64328103121E+02  0.10202406176E+03  0.00000000000E+00 0. -1.
         13    1    3    3    0    0  0.36271329994E+02  0.24922780746E+02  0.40993697849E+02  0.60143475482E+02  0.00000000000E+00 0.  1.
        -13    1    4    4    0    0 -0.85626968776E+02 -0.25040202633E+02  0.26321356804E+02  0.93015070573E+02  0.00000000000E+00 0. -1.
         13    1    4    4    0    0 -0.12174308829E+03 -0.27588472976E+02 -0.74207343003E+02  0.14522132469E+03  0.00000000000E+00 0.  1.
         21    1    1    2  503  502 -0.26239084504E+02 -0.45021065058E+01 -0.20765057113E+02  0.33763088062E+02  0.00000000000E+00 0.  1.
          1    1    1    2  501    0  0.25125736736E+03 -0.25787565974E+02  0.61317812375E+02  0.25991371131E+03  0.00000000000E+00 0. -1.
<scales pt_clust_5="13000.00000" pt_clust_6="13000.00000" pt_clust_7="13000.00000" pt_clust_8="13000.00000" pt_clust_9="26.62252" pt_clust_10="13000.00000"></scales>
<clustering>
<clus scale="   26.623">  2  9  1 -1</clus>
<clus scale="   89.547">  5  6 -1 -1</clus>
<clus scale="   93.228">  7  8 -1 -1</clus>
<clus scale="  123.419">  1  5  2 -1</clus>
<clus scale="  230.713">  7 10 -1 -1</clus>
<clus scale="   26.623">  2  5  1 -1</clus>
</clustering>
</event>
<event>
10    2  0.5692308E-006  0.2305574E+03  0.7546771E-02  0.1160455E+00
          1   -1    0    0  503    0 -0.00000000000E+00  0.00000000000E+00  0.72535483773E+02  0.72535483773E+02  0.00000000000E+00 0. -1.
         21   -1    0    0  501  502  0.00000000000E+00 -0.00000000000E+00 -0.75222279408E+03  0.75222279408E+03  0.00000000000E+00 0. -1.
         23    2    1    2    0    0 -0.56248506091E+02 -0.12898929949E+01 -0.63976757955E+02  0.12334954557E+03  0.89199364194E+02 0.  0.
         23    2    1    2    0    0  0.63988843287E+01  0.17263679841E+02 -0.15987197413E+02  0.93932689565E+02  0.90712619439E+02 0.  0.
        -11    1    3    3    0    0  0.57540189025E+01 -0.29824070803E+02 -0.41626342861E+02  0.51529955878E+02  0.00000000000E+00 0.  1.
         11    1    3    3    0    0 -0.62002524994E+02  0.28534177808E+02 -0.22350415094E+02  0.71819589693E+02  0.00000000000E+00 0. -1.
        -11    1    4    4    0    0 -0.30873586054E+02 -0.22380696319E+02 -0.74364070319E+01  0.38850663226E+02  0.00000000000E+00 0. -1.
         11    1    4    4    0    0  0.37272470382E+02  0.39644376160E+02 -0.85507903816E+01  0.55082026340E+02  0.00000000000E+00 0.  1.
         21    1    1    2  503  502  0.35565243445E+02  0.30571054095E+02 -0.34119275841E+03  0.34440089182E+03  0.00000000000E+00 0. -1.
          1    1    1    2  501    0  0.14284378318E+02 -0.46544840941E+02 -0.25853059652E+03  0.26307515090E+03  0.00000000000E+00 0. -1.
<scales pt_clust_5="13000.00000" pt_clust_6="13000.00000" pt_clust_7="13000.00000" pt_clust_8="13000.00000" pt_clust_9="46.89857" pt_clust_10="13000.00000"></scales>
<clustering>
<clus scale="   46.899">  2  9  1 -1</clus>
<clus scale="   89.199">  5  6 -1 -1</clus>
<clus scale="   90.713">  7  8 -1 -1</clus>
<clus scale="   45.797">  7 10 -1 -1</clus>
<clus scale="  101.508">  1  5  2 -1</clus>
<clus scale="   46.899">  2  5  1 -1</clus>
</clustering>
</event>
<event>
10    2  0.5692308E-006  0.1777290E+03  0.7546771E-02  0.1178933E+00
         21   -1    0    0  503  502  0.00000000000E+00  0.00000000000E+00  0.49312457093E+02  0.49312457093E+02  0.00000000000E+00 0.  1.
          1   -1    0    0  502    0 -0.00000000000E+00 -0.00000000000E+00 -0.84725439737E+03  0.84725439737E+03  0.00000000000E+00 0. -1.
         23    2    1    2    0    0  0.56830959670E+02  0.96053359697E+02 -0.58154343221E+03  0.59948965410E+03  0.93483024852E+02 0.  0.
         23    2    1    2    0    0 -0.99246455160E+01 -0.61103809882E+02 -0.11096453541E+03  0.15507021346E+03  0.88890206510E+02 0.  0.
        -11    1    4    4    0    0 -0.27584007780E+02 -0.72202621298E+01  0.20927484856E+01  0.28590020403E+02  0.00000000000E+00 0.  1.
         11    1    4    4    0    0  0.17659362264E+02 -0.53883547752E+02 -0.11305728390E+03  0.12648019306E+03  0.00000000000E+00 0. -1.
        -11    1    3    3    0    0  0.79368400815E+02  0.48986921699E+02 -0.36049279370E+03  0.37236288195E+03  0.00000000000E+00 0.  1.
         11    1    3    3    0    0 -0.22537441145E+02  0.47066437998E+02 -0.22105063852E+03  0.22712677215E+03  0.00000000000E+00 0. -1.
         21    1    1    2  503  501  0.18087957562E+02 -0.14190871530E+02 -0.10953659959E+02  0.25466403555E+02  0.00000000000E+00 0. -1.
          1    1    1    2  501    0 -0.64994271716E+02 -0.20758678286E+02 -0.94480312689E+02  0.11654058334E+03  0.00000000000E+00 0. -1.
<scales pt_clust_5="13000.00000" pt_clust_6="13000.00000" pt_clust_7="13000.00000" pt_clust_8="13000.00000" pt_clust_9="22.99032" pt_clust_10="13000.00000"></scales>
<clustering>
<clus scale="   22.990">  1  9  2 -1</clus>
<clus scale="   88.890">  5  6 -1 -1</clus>
<clus scale="   65.034">  5 10 -1 -1</clus>
<clus scale="   93.483">  7  8 -1 -1</clus>
<clus scale="  145.176">  2  7  1 -1</clus>
<clus scale="   22.990">  1  5  2 -1</clus>
</clustering>
</event>
<event>
10    2  0.5692308E-006  0.3343820E+03  0.7546771E-02  0.1079730E+00
         -3   -1    0    0    0  501 -0.00000000000E+00  0.00000000000E+00  0.39293240608E+03  0.39293240608E+03  0.00000000000E+00 0.  1.
         21   -1    0    0  503  502  0.00000000000E+00 -0.00000000000E+00 -0.47790053287E+03  0.47790053287E+03  0.00000000000E+00 0. -1.
         23    2    1    2    0    0 -0.21977570710E+03  0.85258477212E+02  0.23903578910E+03  0.34714549408E+03  0.88326192145E+02 0.  0.
         23    2    1    2    0    0  0.97617928212E+02 -0.10998593185E+03 -0.16177205781E+03  0.23692169554E+03  0.91299101946E+02 0.  0.
        -11    1    3    3    0    0 -0.85810871959E+02 -0.16718984344E+01  0.48675675298E+02  0.98669257403E+02  0.00000000000E+00 0. -1.
         11    1    3    3    0    0 -0.13396483514E+03  0.86930375646E+02  0.19036011380E+03  0.24847623668E+03  0.00000000000E+00 0.  1.
        -13    1    4    4    0    0 -0.21063482081E+01 -0.26022925977E+02  0.35888484807E+01  0.26353542695E+02  0.00000000000E+00 0.  1.
         13    1    4    4    0    0  0.99724276420E+02 -0.83963005868E+02 -0.16536090630E+03  0.21056815285E+03  0.00000000000E+00 0. -1.
         21    1    1    2  503  501 -0.86185429460E+01 -0.34334788321E+02 -0.13645741088E+03  0.14097440177E+03  0.00000000000E+00 0. -1.
         -3    1    1    2    0  502  0.13077632184E+03  0.59062242955E+02 -0.25774447206E+02  0.14579134756E+03  0.00000000000E+00 0.  1.
<scales pt_clust_5="13000.00000" pt_clust_6="13000.00000" pt_clust_7="13000.00000" pt_clust_8="13000.00000" pt_clust_9="35.39996" pt_clust_10="13000.00000"></scales>
<clustering>
<clus scale="   35.400">  2  9  1 -1</clus>
<clus scale="   88.326">  5  6 -1 -1</clus>
<clus scale="   91.299">  7  8 -1 -1</clus>
<clus scale="  138.113">  7 10 -1 -1</clus>
<clus scale="  251.146">  1  5  2 -1</clus>
<clus scale="   35.400">  2  5  1 -1</clus>
</clustering>
</event>
<event>
10    2  0.5692308E-006  0.2514557E+03  0.7546771E-02  0.1147967E+00
          1   -1    0    0  502    0 -0.00000000000E+00  0.00000000000E+00  0.25418789188E+03  0.25418789188E+03  0.00000000000E+00 0. -1.
         21   -1    0    0  503  502  0.00000000000E+00 -0.00000000000E+00 -0.26099256744E+03  0.26099256744E+03  0.00000000000E+00 0. -1.
         23    2    1    2    0    0 -0.23661788673E+02 -0.50255354598E+02  0.38230342325E+02  0.11485990119E+03  0.92982562437E+02 0.  0.
         23    2    1    2    0    0 -0.10024806271E+03  0.19960943863E+02  0.10716444703E+03  0.17628178495E+03  0.95618699209E+02 0.  0.
        -11    1    3    3    0    0  0.29231944164E+02  0.43368104780E+01  0.22729643865E+02  0.37282049233E+02  0.00000000000E+00 0.  1.
         11    1    3    3    0    0 -0.52893732837E+02 -0.54592165076E+02  0.15500698460E+02  0.77577851954E+02  0.00000000000E+00 0. -1.
        -11    1    4    4    0    0 -0.79637403101E+02 -0.27710973618E+02  0.46037530033E+02  0.96070121282E+02  0.00000000000E+00 0.  1.
         11    1    4    4    0    0 -0.20610659612E+02  0.47671917481E+02  0.61126916999E+02  0.80211663664E+02  0.00000000000E+00 0. -1.
         21    1    1    2  503  501  0.41426788024E+02  0.97371562316E+01 -0.12912453193E+03  0.13595637434E+03  0.00000000000E+00 0. -1.
          1    1    1    2  501    0  0.82483063363E+02  0.20557254503E+02 -0.23074932986E+02  0.88082398847E+02  0.00000000000E+00 0. -1.
<scales pt_clust_5="13000.00000" pt_clust_6="13000.00000" pt_clust_7="13000.00000" pt_clust_8="13000.00000" pt_clust_9="42.55574" pt_clust_10="13000.00000"></scales>
<clustering>
<clus scale="   42.556">  2  9  1 -1</clus>
<clus scale="   92.983">  5  6 -1 -1</clus>
<clus scale="   95.619">  7  8 -1 -1</clus>
<clus scale="  103.418">  7 10 -1 -1</clus>
<clus scale="  104.956">  1  5  2 -1</clus>
<clus scale="   42.556">  2  5  1 -1</clus>
</clustering>
</event>
<event>
10    2  0.5692308E-006  0.2690040E+03  0.7546771E-02  0.1136902E+00
         21   -1    0    0  503  502  0.00000000000E+00  0.00000000000E+00  0.54318110711E+03  0.54318110711E+03  0.00000000000E+00 0. -1.
         -1   -1    0    0    0  501 -0.00000000000E+00 -0.00000000000E+00 -0.93496040818E+02  0.93496040818E+02  0.00000000000E+00 0.  1.
         23    2    1    2    0    0  0.61091770604E+02 -0.29637658274E+01  0.75065260009E+02  0.13248896885E+03  0.90429780849E+02 0.  0.
         23    2    1    2    0    0 -0.11314856978E+03  0.84615004468E+02  0.15422288347E+03  0.22834506454E+03  0.91621356085E+02 0.  0.
        -11    1    3    3    0    0  0.75486436533E+02 -0.19001231236E+02  0.31669478490E+02  0.84036924960E+02  0.00000000000E+00 0.  1.
         11    1    3    3    0    0 -0.14394665929E+02  0.16037465409E+02  0.43395781519E+02  0.48452043895E+02  0.00000000000E+00 0. -1.
        -11    1    4    4    0    0 -0.74408167710E+02  0.29208610797E+01  0.93061676044E+02  0.11918717380E+03  0.00000000000E+00 0. -1.
         11    1    4    4    0    0 -0.38740402069E+02  0.81694143388E+02  0.61161207422E+02  0.10915789073E+03  0.00000000000E+00 0.  1.
         21    1    1    2  503  501  0.17806790971E+02  0.16142407088E+02  0.14678408511E+03  0.14873878698E+03  0.00000000000E+00 0. -1.
         -1    1    1    2    0  502  0.34250008204E+02 -0.97793645728E+02  0.73612837705E+02  0.12710432755E+03  0.00000000000E+00 0.  1.
<scales pt_clust_5="13000.00000" pt_clust_6="13000.00000" pt_clust_7="13000.00000" pt_clust_8="13000.00000" pt_clust_9="24.03454" pt_clust_10="13000.00000"></scales>
<clustering>
<clus scale="   24.035">  1  9  2 -1</clus>
<clus scale="   90.430">  5  6 -1 -1</clus>
<clus scale="   91.621">  7  8 -1 -1</clus>
<clus scale="  101.401">  7 10 -1 -1</clus>
<clus scale="  111.822">  2  5  1 -1</clus>
<clus scale="   24.035">  1  5  2 -1</clus>
</clustering>
</event>
<event>
10    2  0.5692308E-006  0.6034640E+03  0.7546771E-02  0.1015298E+00
          2   -1    0    0  502    0 -0.00000000000E+00  0.00000000000E+00  0.29265765638E+04  0.29265765638E+04  0.00000000000E+00 0.  1.
         21   -1    0    0  503  502  0.00000000000E+00 -0.00000000000E+00 -0.48767884406E+03  0.48767884406E+03  0.00000000000E+00 0.  1.
         23    2    1    2    0    0  0.90226284846E+02 -0.25198473626E+03  0.12615822209E+04  0.12929483210E+04  0.92133440041E+02 0.  0.
         23    2    1    2    0    0 -0.35038362408E+03  0.63671255562E+01  0.10383549889E+04  0.10993237938E+04  0.86732326411E+02 0.  0.
        -11    1    4    4    0    0 -0.30272167010E+03  0.35379597512E+02  0.85727804490E+03  0.90984491631E+03  0.00000000000E+00 0.  1.
         11    1    4    4    0    0 -0.47661953979E+02 -0.29012471955E+02  0.18107694398E+03  0.18947887752E+03  0.00000000000E+00 0. -1.
        -13    1    3    3    0    0  0.68338603389E+02 -0.25081147383E+03  0.11910617783E+04  0.12190999630E+04  0.00000000000E+00 0.  1.
         13    1    3    3    0    0  0.21887681457E+02 -0.11732624376E+01  0.70520442618E+02  0.73848357946E+02  0.00000000000E+00 0. -1.
         21    1    1    2  503  501  0.84575710320E+02  0.94088205171E+02 -0.40838262054E+03  0.42753012279E+03  0.00000000000E+00 0.  1.
          2    1    1    2  501    0  0.17558162891E+03  0.15152940554E+03  0.54734313049E+03  0.59445317027E+03  0.00000000000E+00 0.  1.
<scales pt_clust_5="13000.00000" pt_clust_6="13000.00000" pt_clust_7="13000.00000" pt_clust_8="13000.00000" pt_clust_9="126.51340" pt_clust_10="13000.00000"></scales>
<clustering>
<clus scale="   86.732">  5  6 -1 -1</clus>
<clus scale="   92.133">  7  8 -1 -1</clus>
<clus scale="  126.513">  2  9  1 -1</clus>
<clus scale="  271.482">  1  7  2 -1</clus>
<clus scale="  266.433">  5 10 -1 -1</clus>
<clus scale="  126.513">  2  5  1 -1</clus>
</clustering>
</event>
<event>
10    2  0.5692308E-006  0.1764542E+03  0.7546771E-02  0.1199543E+00
          1   -1    0    0  503    0 -0.00000000000E+00  0.00000000000E+00  0.74120661097E+03  0.74120661097E+03  0.00000000000E+00 0. -1.
         21   -1    0    0  501  502  0.00000000000E+00 -0.00000000000E+00 -0.10589535280E+03  0.10589535280E+03  0.00000000000E+00 0. -1.
         23    2    1    2    0    0 -0.39669307250E+02 -0.39139152723E+01  0.25473365302E+03  0.27315743985E+03  0.90204103529E+02 0.  0.
         23    2    1    2    0    0  0.88927513053E+01  0.28833409394E+02  0.45784215133E+03  0.46794302026E+03  0.91873762047E+02 0.  0.
        -11    1    3    3    0    0 -0.28065997615E+02  0.35555538835E+02  0.19777006755E+03  0.20289134083E+03  0.00000000000E+00 0. -1.
         11    1    3    3    0    0 -0.11603309635E+02 -0.39469454108E+02  0.56963585467E+02  0.70266099019E+02  0.00000000000E+00 0.  1.
        -13    1    4    4    0    0  0.50158281065E+02  0.93693233215E+01  0.23416162284E+03  0.23965663561E+03  0.00000000000E+00 0.  1.
         13    1    4    4    0    0 -0.41265529760E+02  0.19464086073E+02  0.22368052848E+03  0.22828638465E+03  0.00000000000E+00 0. -1.
         21    1    1    2  503  502  0.37963366014E+02 -0.53384297226E+01 -0.75979735816E+02  0.85103679390E+02  0.00000000000E+00 0. -1.
          1    1    1    2  501    0 -0.71868100697E+01 -0.19581064399E+02 -0.12848103585E+01  0.20897824280E+02  0.00000000000E+00 0. -1.
<scales pt_clust_5="13000.00000" pt_clust_6="13000.00000" pt_clust_7="13000.00000" pt_clust_8="13000.00000" pt_clust_9="38.33688" pt_clust_10="13000.00000"></scales>
<clustering>
<clus scale="   38.337">  2  9  1 -1</clus>
<clus scale="   90.204">  5  6 -1 -1</clus>
<clus scale="   91.874">  7  8 -1 -1</clus>
<clus scale="   23.855">  7 10 -1 -1</clus>
<clus scale="   94.025">  1  5  2 -1</clus>
<clus scale="   38.337">  2  5  1 -1</clus>
</clustering>
</event>
<event>
10    2  0.5692308E-006  0.2679323E+03  0.7546771E-02  0.1114913E+00
         21   -1    0    0  503  502  0.00000000000E+00  0.00000000000E+00  0.47038475147E+03  0.47038475147E+03  0.00000000000E+00 0.  1.
         -1   -1    0    0    0  501 -0.00000000000E+00 -0.00000000000E+00 -0.23553249222E+03  0.23553249222E+03  0.00000000000E+00 0.  1.
         23    2    1    2    0    0  0.20442062104E+03  0.20828954602E+02  0.14875084488E+03  0.26925113760E+03  0.90264752755E+02 0.  0.
         23    2    1    2    0    0 -0.58243133224E+02  0.74333335519E+02 -0.88329519984E+02  0.15941217170E+03  0.93233197141E+02 0.  0.
        -11    1    4    4    0    0 -0.29779737144E+02  0.44649832947E+02 -0.10267574004E+03  0.11585658341E+03  0.00000000000E+00 0.  1.
         11    1    4    4    0    0 -0.28463396080E+02  0.29683502573E+02  0.14346220059E+02  0.43555588291E+02  0.00000000000E+00 0. -1.
        -13    1    3    3    0    0  0.14247695434E+02  0.18676183541E+02 -0.57901041605E+01  0.24193428096E+02  0.00000000000E+00 0. -1.
         13    1    3    3    0    0  0.19017292561E+03  0.21527710601E+01  0.15454094904E+03  0.24505770950E+03  0.00000000000E+00 0.  1.
         21    1    1    2  503  501 -0.62054535663E+02 -0.11340756936E+03  0.10981593079E+03  0.16962187606E+03  0.00000000000E+00 0.  1.
         -1    1    1    2    0  502 -0.84122952157E+02  0.18245279239E+02  0.64615003570E+02  0.10763205833E+03  0.00000000000E+00 0.  1.
<scales pt_clust_5="13000.00000" pt_clust_6="13000.00000" pt_clust_7="13000.00000" pt_clust_8="13000.00000" pt_clust_9="129.27506" pt_clust_10="13000.00000"></scales>
<clustering>
<clus scale="   90.265">  7  8 -1 -1</clus>
<clus scale="   93.233">  5  6 -1 -1</clus>
<clus scale="   86.079">  5 10 -1 -1</clus>
<clus scale="  129.275">  1  9  2 -1</clus>
<clus scale="  194.998">  2  7  1 -1</clus>
<clus scale="  129.275">  1  5  2 -1</clus>
</clustering>
</event>
<event>
10    2  0.5692308E-006  0.2214372E+03  0.7546771E-02  0.1142274E+00
          1   -1    0    0  502    0 -0.00000000000E+00  0.00000000000E+00  0.89122430686E+03  0.89122430686E+03  0.00000000000E+00 0. -1.
         21   -1    0    0  503  502  0.00000000000E+00 -0.00000000000E+00 -0.18594473468E+03  0.18594473468E+03  0.00000000000E+00 0.  1.
         23    2    1    2    0    0 -0.16805143018E+03  0.20290922131E+01  0.17073243846E+03  0.25619037083E+03  0.90766404363E+02 0.  0.
         23    2    1    2    0    0  0.79940594716E+02  0.30770569139E+02  0.52454655216E+03  0.54065633706E+03  0.99110356743E+02 0.  0.
        -13    1    3    3    0    0 -0.11366516935E+02 -0.28158137916E+02  0.37946320754E+02  0.48600428978E+02  0.00000000000E+00 0. -1.
         13    1    3    3    0    0 -0.15668491324E+03  0.30187230129E+02  0.13278611771E+03  0.20758994185E+03  0.00000000000E+00 0.  1.
        -13    1    4    4    0    0  0.28853268503E+02  0.60371820758E+02  0.35155682845E+03  0.35786795256E+03  0.00000000000E+00 0. -1.
         13    1    4    4    0    0  0.51087326213E+02 -0.29601251619E+02  0.17298972371E+03  0.18278838450E+03  0.00000000000E+00 0.  1.
         21    1    1    2  503  501  0.24204012985E+02  0.29053305194E+01 -0.12467548557E+03  0.12703641956E+03  0.00000000000E+00 0.  1.
          1    1    1    2  501    0  0.63906822474E+02 -0.35704991871E+02  0.13467606714E+03  0.15328591411E+03  0.00000000000E+00 0. -1.
<scales pt_clust_5="13000.00000" pt_clust_6="13000.00000" pt_clust_7="13000.00000" pt_clust_8="13000.00000" pt_clust_9="24.37776" pt_clust_10="13000.00000"></scales>
<clustering>
<clus scale="   24.378">  2  9  1 -1</clus>
<clus scale="   90.766">  5  6 -1 -1</clus>
<clus scale="   99.110">  7  8 -1 -1</clus>
<clus scale="   76.290">  7 10 -1 -1</clus>
<clus scale="  176.091">  1  5  2 -1</clus>
<clus scale="   24.378">  2  5  1 -1</clus>
</clustering>
</event>
<event>
10    2  0.5692308E-006  0.5783950E+03  0.7546771E-02  0.1052312E+00
         21   -1    0    0  501  502  0.00000000000E+00  0.00000000000E+00  0.20579613506E+03  0.20579613506E+03  0.00000000000E+00 0. -1.
          1   -1    0    0  503    0 -0.00000000000E+00 -0.00000000000E+00 -0.86778382969E+03  0.86778382969E+03  0.00000000000E+00 0. -1.
         23    2    1    2    0    0  0.30909799415E+02  0.41399995019E+02 -0.26398668445E+03  0.28339486526E+03  0.89186909346E+02 0.  0.
         23    2    1    2    0    0 -0.23301366191E+03  0.10301451326E+03 -0.33864002557E+03  0.43349177938E+03  0.91272664535E+02 0.  0.
        -11    1    3    3    0    0  0.46614321312E+02  0.57204236532E+02 -0.23793595332E+03  0.24911591180E+03  0.00000000000E+00 0.  1.
         11    1    3    3    0    0 -0.15704521897E+02 -0.15804241513E+02 -0.26050731136E+02  0.34278953463E+02  0.00000000000E+00 0. -1.
        -13    1    4    4    0    0  0.17428034389E+01  0.20060268705E+02 -0.14742398825E+02  0.24955762210E+02  0.00000000000E+00 0.  1.
         13    1    4    4    0    0 -0.23475646535E+03  0.82954244556E+02 -0.32389762675E+03  0.40853601717E+03  0.00000000000E+00 0. -1.
         21    1    1    2  503  502 -0.14166961517E+02  0.31253265503E+02  0.47226238298E+02  0.58376253623E+02  0.00000000000E+00 0. -1.
          1    1    1    2  501    0  0.21627082402E+03 -0.17566777378E+03 -0.10658722290E+03  0.29831706648E+03  0.00000000000E+00 0. -1.
<scales pt_clust_5="13000.00000" pt_clust_6="13000.00000" pt_clust_7="13000.00000" pt_clust_8="13000.00000" pt_clust_9="34.31427" pt_clust_10="13000.00000"></scales>
<clustering>
<clus scale="   34.314">  1  9  2 -1</clus>
<clus scale="   89.187">  5  6 -1 -1</clus>
<clus scale="   91.273">  7  8 -1 -1</clus>
<clus scale="  103.620">  2  5  1 -1</clus>
<clus scale="  259.423">  7 10 -1 -1</clus>
<clus scale="   34.314">  1  5  2 -1</clus>
</clustering>
</event>
<event>
10    2  0.5692308E-006  0.3857277E+03  0.7546771E-02  0.1100063E+00
         21   -1    0    0  503  502  0.00000000000E+00  0.00000000000E+00  0.30900719430E+03  0.30900719430E+03  0.00000000000E+00 0. -1.
          1   -1    0    0  502    0 -0.00000000000E+00 -0.00000000000E+00 -0.42245522958E+03  0.42245522958E+03  0.00000000000E+00 0. -1.
         23    2    1    2    0    0 -0.29876730201E+02  0.43463837805E+02  0.36100339920E+02  0.10941944692E+03  0.88812480077E+02 0.  0.
         23    2    1    2    0    0  0.26488957777E+02  0.11404532504E+03 -0.32839680799E+03  0.35920242909E+03  0.86451839290E+02 0.  0.
        -13    1    3    3    0    0  0.25828457861E+02  0.38507169969E+02  0.23958914798E+02  0.52191387918E+02  0.00000000000E+00 0.  1.
         13    1    3    3    0    0 -0.55705188062E+02  0.49566678366E+01  0.12141425123E+02  0.57228059001E+02  0.00000000000E+00 0. -1.
        -13    1    4    4    0    0  0.54210737854E+02  0.56867650155E+02 -0.21930195817E+03  0.23295081582E+03  0.00000000000E+00 0. -1.
         13    1    4    4    0    0 -0.27721780077E+02  0.57177674887E+02 -0.10909484982E+03  0.12625161327E+03  0.00000000000E+00 0.  1.
         21    1    1    2  503  501  0.85082569434E+01 -0.46291012099E+02  0.13536547705E+03  0.14331455130E+03  0.00000000000E+00 0. -1.
          1    1    1    2  501    0 -0.51204845199E+01 -0.11121815075E+03  0.43482955746E+02  0.11952599658E+03  0.00000000000E+00 0. -1.
<scales pt_clust_5="13000.00000" pt_clust_6="13000.00000" pt_clust_7="13000.00000" pt_clust_8="13000.00000" pt_clust_9="47.06642" pt_clust_10="13000.00000"></scales>
<clustering>
<clus scale="   47.066">  1  9  2 -1</clus>
<clus scale="   86.452">  7  8 -1 -1</clus>
<clus scale="   88.812">  5  6 -1 -1</clus>
<clus scale="   95.567">  2  5  1 -1</clus>
<clus scale="  130.023">  7 10 -1 -1</clus>
<clus scale="   47.066">  1  5  2 -1</clus>
</clustering>
</event>
<event>
10    2  0.5692308E-006  0.7034801E+03  0.7546771E-02  0.9928284E-01
         21   -1    0    0  501  502  0.00000000000E+00  0.00000000000E+00  0.47573407636E+03  0.47573407636E+03  0.00000000000E+00 0. -1.
          1   -1    0    0  503    0 -0.00000000000E+00 -0.00000000000E+00 -0.73774705953E+03  0.73774705953E+03  0.00000000000E+00 0. -1.
         23    2    1    2    0    0 -0.29083364527E+03 -0.14107379522E+03 -0.22023270538E+03  0.40197866448E+03  0.92727435294E+02 0.  0.
         23    2    1    2    0    0  0.43280414151E+01  0.25293562922E+03 -0.25194121029E+03  0.36849650368E+03  0.91214775714E+02 0.  0.
        -11    1    4    4    0    0  0.27015662767E+02  0.21256009448E+03 -0.23775114601E+03  0.32005819350E+03  0.00000000000E+00 0. -1.
         11    1    4    4    0    0 -0.22687621352E+02  0.40375534746E+02 -0.14190064282E+02  0.48438310178E+02  0.00000000000E+00 0.  1.
        -11    1    3    3    0    0 -0.60085451594E+02 -0.14571941484E+02 -0.50181725186E+01  0.62030516903E+02  0.00000000000E+00 0.  1.
         11    1    3    3    0    0 -0.23074819368E+03 -0.12650185374E+03 -0.21521453286E+03  0.33994814757E+03  0.00000000000E+00 0. -1.
         21    1    1    2  503  502 -0.34643497368E+02 -0.29665997111E+02  0.68976696002E+02  0.82692368970E+02  0.00000000000E+00 0. -1.
          1    1    1    2  501    0  0.32114910122E+03 -0.82195836889E+02  0.14118423650E+03  0.36031359876E+03  0.00000000000E+00 0. -1.
<scales pt_clust_5="13000.00000" pt_clust_6="13000.00000" pt_clust_7="13000.00000" pt_clust_8="13000.00000" pt_clust_9="45.60968" pt_clust_10="13000.00000"></scales>
<clustering>
<clus scale="   45.610">  1  9  2 -1</clus>
<clus scale="   91.215">  5  6 -1 -1</clus>
<clus scale="   92.727">  7  8 -1 -1</clus>
<clus scale="  315.937">  5 10 -1 -1</clus>
<clus scale="  345.938">  2  7  1 -1</clus>
<clus scale="   45.610">  1  5  2 -1</clus>
</clustering>
</event>
<event>
10    2  0.5692308E-006  0.1875826E+03  0.7546771E-02  0.1184695E+00
         -1   -1    0    0    0  501 -0.00000000000E+00  0.00000000000E+00  0.56589313365E+03  0.56589313365E+03  0.00000000000E+00 0.  1.
         21   -1    0    0  503  502  0.00000000000E+00 -0.00000000000E+00 -0.12298758572E+03  0.12298758572E+03  0.00000000000E+00 0.  1.
         23    2    1    2    0    0  0.15362664798E+02 -0.62873145914E+02  0.28604531724E+03  0.30693695062E+03  0.90550119821E+02 0.  0.
         23    2    1    2    0    0  0.23719751930E+02 -0.29063193223E+02  0.67607430391E+02  0.12012957783E+03  0.91940497023E+02 0.  0.
        -13    1    4    4    0    0 -0.17929422300E+02  0.24670527742E+02  0.28266049619E+02  0.41582071667E+02  0.00000000000E+00 0. -1.
         13    1    4    4    0    0  0.41649174229E+02 -0.53733720966E+02  0.39341380772E+02  0.78547506159E+02  0.00000000000E+00 0.  1.
        -13    1    3    3    0    0  0.14786673986E+02 -0.83567780537E+02  0.18149109770E+03  0.20035278439E+03  0.00000000000E+00 0.  1.
         13    1    3    3    0    0  0.57599081170E+00  0.20694634623E+02  0.10455421954E+03  0.10658416623E+03  0.00000000000E+00 0. -1.
         21    1    1    2  503  501 -0.83665430043E+02  0.14786064130E+02 -0.48443030938E+02  0.97802142733E+02  0.00000000000E+00 0.  1.
         -1    1    1    2    0  502  0.44583013315E+02  0.77150275008E+02  0.13769583124E+03  0.16401204819E+03  0.00000000000E+00 0.  1.
<scales pt_clust_5="13000.00000" pt_clust_6="13000.00000" pt_clust_7="13000.00000" pt_clust_8="13000.00000" pt_clust_9="84.96194" pt_clust_10="13000.00000"></scales>
<clustering>
<clus scale="   84.962">  2  9  1 -1</clus>
<clus scale="   90.550">  7  8 -1 -1</clus>
<clus scale="   91.940">  5  6 -1 -1</clus>
<clus scale="   84.119">  5 10 -1 -1</clus>
<clus scale="  108.523">  1  7  2 -1</clus>
<clus scale="   84.962">  2  5  1 -1</clus>
</clustering>
</event>
<event>
10    2  0.5692308E-006  0.4422904E+03  0.7546771E-02  0.1079135E+00
         21   -1    0    0  501  502  0.00000000000E+00  0.00000000000E+00  0.64359057344E+03  0.64359057344E+03  0.00000000000E+00 0. -1.
          3   -1    0    0  503    0 -0.00000000000E+00 -0.00000000000E+00 -0.26591184999E+03  0.26591184999E+03  0.00000000000E+00 0. -1.
         23    2    1    2    0    0 -0.85712624985E+01  0.63440364768E+02 -0.11073694768E+03  0.15800213036E+03  0.92756968439E+02 0.  0.
         23    2    1    2    0    0  0.20225576481E+03 -0.63796457716E+02  0.87545701898E+02  0.24657726548E+03  0.90325608284E+02 0.  0.
        -11    1    4    4    0    0  0.11162246415E+03 -0.81444990632E+02  0.52615732016E+02  0.14785559258E+03  0.00000000000E+00 0. -1.
         11    1    4    4    0    0  0.90633300667E+02  0.17648532916E+02  0.34929969882E+02  0.98721672898E+02  0.00000000000E+00 0.  1.
        -11    1    3    3    0    0  0.18777455703E+02 -0.12005166198E+02 -0.57582966313E+02  0.61745565570E+02  0.00000000000E+00 0.  1.
         11    1    3    3    0    0 -0.27348718201E+02  0.75445530966E+02 -0.53153981365E+02  0.96256564789E+02  0.00000000000E+00 0. -1.
         21    1    1    2  503  502 -0.10512768323E+02 -0.77954581016E+02  0.22792104076E+03  0.24111291094E+03  0.00000000000E+00 0. -1.
          3    1    1    2  501    0 -0.18317173399E+03  0.78310673965E+02  0.17294892847E+03  0.26381011666E+03  0.00000000000E+00 0. -1.
<scales pt_clust_5="13000.00000" pt_clust_6="13000.00000" pt_clust_7="13000.00000" pt_clust_8="13000.00000" pt_clust_9="78.66025" pt_clust_10="13000.00000"></scales>
<clustering>
<clus scale="   78.660">  1  9  2 -1</clus>
<clus scale="   90.326">  5  6 -1 -1</clus>
<clus scale="   92.757">  7  8 -1 -1</clus>
<clus scale="  110.280">  2  7  1 -1</clus>
<clus scale="  200.471">  5 10 -1 -1</clus>
<clus scale="   78.660">  1  5  2 -1</clus>
</clustering>
</event>
<event>
10    2  0.5692308E-006  0.8491055E+03  0.7546771E-02  0.9701860E-01
         21   -1    0    0  501  502  0.00000000000E+00  0.00000000000E+00  0.19755037903E+03  0.19755037903E+03  0.00000000000E+00 0. -1.
          2   -1    0    0  503    0 -0.00000000000E+00 -0.00000000000E+00 -0.22675647677E+04  0.22675647677E+04  0.00000000000E+00 0. -1.
         23    2    1    2    0    0 -0.19493360374E+03  0.36071958724E+03 -0.78845725503E+03  0.89319852195E+03  0.89560181539E+02 0.  0.
         23    2    1    2    0    0  0.36697795478E+03 -0.16540830996E+03 -0.11921538919E+04  0.12614502072E+04  0.89403552000E+02 0.  0.
        -11    1    4    4    0    0  0.36498346683E+02  0.15645070674E+01 -0.59580750764E+02  0.69888789191E+02  0.00000000000E+00 0.  1.
         11    1    4    4    0    0  0.33047960809E+03 -0.16697281703E+03 -0.11325731411E+04  0.11915614180E+04  0.00000000000E+00 0. -1.
        -11    1    3    3    0    0 -0.11901923054E+03  0.29876690143E+03 -0.61257888763E+03  0.69186713479E+03  0.00000000000E+00 0.  1.
         11    1    3    3    0    0 -0.75914373201E+02  0.61952685811E+02 -0.17587836740E+03  0.20133138716E+03  0.00000000000E+00 0. -1.
         21    1    1    2  503  502  0.20185560605E+02 -0.15840993862E+02  0.12355838363E+02  0.28479127184E+02  0.00000000000E+00 0.  1.
          2    1    1    2  501    0 -0.19222991164E+03 -0.17947028341E+03 -0.10175908018E+03  0.28198729042E+03  0.00000000000E+00 0. -1.
<scales pt_clust_5="13000.00000" pt_clust_6="13000.00000" pt_clust_7="13000.00000" pt_clust_8="13000.00000" pt_clust_9="25.65919" pt_clust_10="13000.00000"></scales>
<clustering>
<clus scale="   25.659">  1  9  2 -1</clus>
<clus scale="   89.404">  5  6 -1 -1</clus>
<clus scale="   89.560">  7  8 -1 -1</clus>
<clus scale="  261.299">  5 10 -1 -1</clus>
<clus scale="  412.905">  2  7  1 -1</clus>
<clus scale="   25.659">  1  5  2 -1</clus>
</clustering>
</event>
<event>
10    2  0.5692308E-006  0.1655239E+03  0.7546771E-02  0.1202328E+00
         -1   -1    0    0    0  501 -0.00000000000E+00  0.00000000000E+00  0.71120617921E+03  0.71120617921E+03  0.00000000000E+00 0.  1.
         21   -1    0    0  503  502  0.00000000000E+00 -0.00000000000E+00 -0.15132312237E+03  0.15132312237E+03  0.00000000000E+00 0. -1.
         23    2    1    2    0    0  0.36965618630E+02 -0.46595526393E+02  0.59929605412E+03  0.60901480869E+03  0.90585190173E+02 0.  0.
         23    2    1    2    0    0 -0.28868280531E+02  0.53574545145E+02  0.61391427749E+02  0.12405392596E+03  0.88976736492E+02 0.  0.
        -11    1    3    3    0    0  0.10465996351E+02 -0.71318406236E+02  0.39065852429E+03  0.39725298583E+03  0.00000000000E+00 0. -1.
         11    1    3    3    0    0  0.26499622279E+02  0.24722879843E+02  0.20863752983E+03  0.21176182287E+03  0.00000000000E+00 0.  1.
        -13    1    4    4    0    0  0.17430076326E+02  0.10718268538E+02 -0.14711284928E+02  0.25201403640E+02  0.00000000000E+00 0. -1.
         13    1    4    4    0    0 -0.46298356857E+02  0.42856276607E+02  0.76102712678E+02  0.98852522321E+02  0.00000000000E+00 0.  1.
         21    1    1    2  503  501 -0.40067579498E+02  0.60978972528E+01 -0.78496397769E+02  0.88341834600E+02  0.00000000000E+00 0. -1.
         -1    1    1    2    0  502  0.31970241399E+02 -0.13076916005E+02 -0.22308027268E+02  0.41118732324E+02  0.00000000000E+00 0.  1.
<scales pt_clust_5="13000.00000" pt_clust_6="13000.00000" pt_clust_7="13000.00000" pt_clust_8="13000.00000" pt_clust_9="40.52894" pt_clust_10="13000.00000"></scales>
<clustering>
<clus scale="   40.529">  2  9  1 -1</clus>
<clus scale="   88.977">  7  8 -1 -1</clus>
<clus scale="   16.745">  7 10 -1 -1</clus>
<clus scale="   90.585">  5  6 -1 -1</clus>
<clus scale="  107.234">  1  5  2 -1</clus>
<clus scale="   40.529">  2  5  1 -1</clus>
</clustering>
</event>
<event>
10    2  0.5692308E-006  0.7154412E+03  0.7546771E-02  0.1025486E+00
          2   -1    0    0  502    0 -0.00000000000E+00  0.00000000000E+00  0.12513520795E+04  0.12513520795E+04  0.00000000000E+00 0. -1.
         21   -1    0    0  503  502  0.00000000000E+00 -0.00000000000E+00 -0.41199196581E+03  0.41199196581E+03  0.00000000000E+00 0. -1.
         23    2    1    2    0    0 -0.54200727455E+02  0.70000908197E+02  0.18301629735E+03  0.22320452175E+03  0.92127343557E+02 0.  0.
         23    2    1    2    0    0 -0.58881455216E+02 -0.28653077722E+03  0.73793082783E+03  0.79907383101E+03  0.91706971767E+02 0.  0.
        -11    1    4    4    0    0 -0.63905917955E+02 -0.25217770120E+03  0.70399718835E+03  0.75052621576E+03  0.00000000000E+00 0. -1.
         11    1    4    4    0    0  0.50244627389E+01 -0.34353076025E+02  0.33933639485E+02  0.48547615254E+02  0.00000000000E+00 0.  1.
        -13    1    3    3    0    0  0.17630784783E+02  0.17932769936E+02  0.70164661898E+01  0.26108611749E+02  0.00000000000E+00 0. -1.
         13    1    3    3    0    0 -0.71831512239E+02  0.52068138261E+02  0.17599983116E+03  0.19709591001E+03  0.00000000000E+00 0.  1.
         21    1    1    2  503  501  0.28549379490E+02 -0.86972432208E+02 -0.26233364769E+03  0.27784566533E+03  0.00000000000E+00 0. -1.
          2    1    1    2  501    0  0.84532803182E+02  0.30350230124E+03  0.18074663619E+03  0.36322002721E+03  0.00000000000E+00 0. -1.
<scales pt_clust_5="13000.00000" pt_clust_6="13000.00000" pt_clust_7="13000.00000" pt_clust_8="13000.00000" pt_clust_9="91.53836" pt_clust_10="13000.00000"></scales>
<clustering>
<clus scale="   91.538">  2  9  1 -1</clus>
<clus scale="   91.707">  5  6 -1 -1</clus>
<clus scale="   92.127">  7  8 -1 -1</clus>
<clus scale="  119.712">  1  7  2 -1</clus>
<clus scale="  275.194">  5 10 -1 -1</clus>
<clus scale="   91.538">  2  5  1 -1</clus>
</clustering>
</event>
<event>
10    2  0.5692308E-006  0.3299813E+03  0.7546771E-02  0.1091433E+00
          1   -1    0    0  503    0 -0.00000000000E+00  0.00000000000E+00  0.77894959907E+03  0.77894959907E+03  0.00000000000E+00 0. -1.
         21   -1    0    0  501  502  0.00000000000E+00 -0.00000000000E+00 -0.21184768014E+03  0.21184768014E+03  0.00000000000E+00 0. -1.
         23    2    1    2    0    0 -0.16114402149E+03 -0.47802605142E+02  0.59821980526E+03  0.62816245669E+03  0.92025278451E+02 0.  0.
         23    2    1    2    0    0 -0.40903492414E+02 -0.15114158275E+02  0.41470800651E+02  0.10956221353E+03  0.91556091299E+02 0.  0.
        -13    1    4    4    0    0  0.20582008165E+02 -0.95541255952E+00  0.41649461026E+02  0.46467294703E+02  0.00000000000E+00 0. -1.
         13    1    4    4    0    0 -0.61485500580E+02 -0.14158745715E+02 -0.17866037491E+00  0.63094918823E+02  0.00000000000E+00 0.  1.
        -13    1    3    3    0    0 -0.96002509465E+02 -0.61866631976E+02  0.46976827875E+03  0.48345237376E+03  0.00000000000E+00 0. -1.
         13    1    3    3    0    0 -0.65141512022E+02  0.14064026834E+02  0.12845152651E+03  0.14471008293E+03  0.00000000000E+00 0.  1.
         21    1    1    2  503  502 -0.39553581267E+01  0.31697169238E+02  0.13914505088E+01  0.31973294014E+02  0.00000000000E+00 0.  1.
          1    1    1    2  501    0  0.20600287203E+03  0.31219594179E+02 -0.73980137487E+02  0.22109931499E+03  0.00000000000E+00 0. -1.
<scales pt_clust_5="13000.00000" pt_clust_6="13000.00000" pt_clust_7="13000.00000" pt_clust_8="13000.00000" pt_clust_9="31.94300" pt_clust_10="13000.00000"></scales>
<clustering>
<clus scale="   31.943">  2  9  1 -1</clus>
<clus scale="   91.556">  5  6 -1 -1</clus>
<clus scale="   92.025">  7  8 -1 -1</clus>
<clus scale="  191.294">  1  7  2 -1</clus>
<clus scale="  127.307">  5 10 -1 -1</clus>
<clus scale="   31.943">  2  5  1 -1</clus>
</clustering>
</event>
<event>
10    2  0.5692308E-006  0.2606809E+03  0.7546771E-02  0.1130382E+00
          1   -1    0    0  502    0 -0.00000000000E+00  0.00000000000E+00  0.43260555561E+03  0.43260555561E+03  0.00000000000E+00 0. -1.
         21   -1    0    0  503  502  0.00000000000E+00 -0.00000000000E+00 -0.18045180975E+03  0.18045180975E+03  0.00000000000E+00 0. -1.
         23    2    1    2    0    0  0.31416035303E+02  0.77413418944E+02  0.15039416817E+03  0.20616898516E+03  0.11361091460E+03 0.  0.
         23    2    1    2    0    0 -0.48511380714E+01 -0.94412059210E+02  0.22120979245E+03  0.25751084386E+03  0.91874327018E+02 0.  0.
        -11    1    4    4    0    0 -0.36238619990E+02 -0.38731019975E+02  0.43310477319E+02  0.68477200094E+02  0.00000000000E+00 0. -1.
         11    1    4    4    0    0  0.31387481919E+02 -0.55681039234E+02  0.17789931513E+03  0.18903364377E+03  0.00000000000E+00 0.  1.
        -11    1    3    3    0    0 -0.32762647374E+02  0.89078869187E+01  0.68196075959E+01  0.34630168352E+02  0.00000000000E+00 0.  1.
         11    1    3    3    0    0  0.64178682677E+02  0.68505532025E+02  0.14357456057E+03  0.17153881681E+03  0.00000000000E+00 0. -1.
         21    1    1    2  503  501  0.24498822240E+02  0.84861743222E+01 -0.80558192349E+02  0.84627594792E+02  0.00000000000E+00 0. -1.
          1    1    1    2  501    0 -0.51063719472E+02  0.85124659437E+01 -0.38892022416E+02  0.64749941547E+02  0.00000000000E+00 0. -1.
<scales pt_clust_5="13000.00000" pt_clust_6="13000.00000" pt_clust_7="13000.00000" pt_clust_8="13000.00000" pt_clust_9="25.92696" pt_clust_10="13000.00000"></scales>
<clustering>
<clus scale="   25.927">  2  9  1 -1</clus>
<clus scale="   91.874">  5  6 -1 -1</clus>
<clus scale="   40.250">  5 10 -1 -1</clus>
<clus scale="  113.611">  7  8 -1 -1</clus>
<clus scale="  144.066">  1  7  2 -1</clus>
<clus scale="   25.927">  2  5  1 -1</clus>
</clustering>
</event>
<event>
10    2  0.5692308E-006  0.4890380E+03  0.7546771E-02  0.1017787E+00
          1   -1    0    0  503    0 -0.00000000000E+00  0.00000000000E+00  0.28161865642E+04  0.28161865642E+04  0.00000000000E+00 0. -1.
         21   -1    0    0  501  502  0.00000000000E+00 -0.00000000000E+00 -0.22942263746E+03  0.22942263746E+03  0.00000000000E+00 0. -1.
         23    2    1    2    0    0 -0.42351472630E+03 -0.19243278944E+03  0.24853840383E+04  0.25302036580E+04  0.91660411726E+02 0.  0.
         23    2    1    2    0    0  0.20287171660E+03  0.54700078152E+02  0.69170382615E+02  0.23903752934E+03  0.90583478928E+02 0.  0.
        -11    1    3    3    0    0 -0.26156736703E+02  0.79006551862E+01  0.99975689925E+02  0.10364233596E+03  0.00000000000E+00 0.  1.
         11    1    3    3    0    0 -0.39735798960E+03 -0.20033344463E+03  0.23854083484E+04  0.24265613220E+04  0.00000000000E+00 0. -1.
        -11    1    4    4    0    0  0.16574979931E+03  0.23413325869E+02  0.85306008724E+02  0.18787840462E+03  0.00000000000E+00 0.  1.
         11    1    4    4    0    0  0.37121917292E+02  0.31286752282E+02 -0.16135626108E+02  0.51159124716E+02  0.00000000000E+00 0. -1.
         21    1    1    2  503  502  0.51844598834E+01  0.20473993275E+02  0.22523999740E+02  0.30877072225E+02  0.00000000000E+00 0. -1.
          1    1    1    2  501    0  0.21545854982E+03  0.11725871801E+03  0.96855060852E+01  0.24549094213E+03  0.00000000000E+00 0. -1.
<scales pt_clust_5="13000.00000" pt_clust_6="13000.00000" pt_clust_7="13000.00000" pt_clust_8="13000.00000" pt_clust_9="21.12020" pt_clust_10="13000.00000"></scales>
<clustering>
<clus scale="   21.120">  2  9  1 -1</clus>
<clus scale="   90.583">  7  8 -1 -1</clus>
<clus scale="   91.660">  5  6 -1 -1</clus>
<clus scale="  252.937">  7 10 -1 -1</clus>
<clus scale="  472.843">  1  5  2 -1</clus>
<clus scale="   21.120">  2  5  1 -1</clus>
</clustering>
</event>
<event>
10    2  0.5692308E-006  0.1936112E+03  0.7546771E-02  0.1187484E+00
          1   -1    0    0  503    0 -0.00000000000E+00  0.00000000000E+00  0.35210362258E+03  0.35210362258E+03  0.00000000000E+00 0. -1.
         21   -1    0    0  501  502  0.00000000000E+00 -0.00000000000E+00 -0.49447864866E+03  0.49447864866E+03  0.00000000000E+00 0.  1.
         23    2    1    2    0    0  0.41551031398E+02  0.25980667875E+02  0.36847827349E+02  0.11056908650E+03  0.92012375230E+02 0.  0.
         23    2    1    2    0    0  0.31301139624E+02  0.28140393458E+02  0.25712020136E+03  0.27736656333E+03  0.95130276049E+02 0.  0.
        -11    1    3    3    0    0  0.31210888402E+02  0.85874743801E+01  0.66911292123E+02  0.74330244750E+02  0.00000000000E+00 0. -1.
         11    1    3    3    0    0  0.10340142996E+02  0.17393193495E+02 -0.30063464774E+02  0.36238841749E+02  0.00000000000E+00 0.  1.
        -13    1    4    4    0    0 -0.11167124614E+02  0.53354665857E+02  0.12807061189E+03  0.13918874477E+03  0.00000000000E+00 0.  1.
         13    1    4    4    0    0  0.42468264238E+02 -0.25214272399E+02  0.12904958946E+03  0.13817781856E+03  0.00000000000E+00 0. -1.
         21    1    1    2  503  502 -0.78251176436E+02 -0.28020881056E+02 -0.41825977012E+03  0.42643833281E+03  0.00000000000E+00 0.  1.
          1    1    1    2  501    0  0.53990054135E+01 -0.26100180276E+02 -0.18083284669E+02  0.32208288596E+02  0.00000000000E+00 0. -1.
<scales pt_clust_5="13000.00000" pt_clust_6="13000.00000" pt_clust_7="13000.00000" pt_clust_8="13000.00000" pt_clust_9="83.11688" pt_clust_10="13000.00000"></scales>
<clustering>
<clus scale="   83.117">  2  9  1 -1</clus>
<clus scale="   92.012">  5  6 -1 -1</clus>
<clus scale="   92.762">  1  5  2 -1</clus>
<clus scale="   95.130">  7  8 -1 -1</clus>
<clus scale="   40.977">  7 10 -1 -1</clus>
<clus scale="   83.117">  2  5  1 -1</clus>
</clustering>
</event>
<event>
10    2  0.5692308E-006  0.3459533E+03  0.7546771E-02  0.1074605E+00
         21   -1    0    0  503  502  0.00000000000E+00  0.00000000000E+00  0.57009315525E+03  0.57009315525E+03  0.00000000000E+00 0. -1.
          1   -1    0    0  502    0 -0.00000000000E+00 -0.00000000000E+00 -0.11365091079E+04  0.11365091079E+04  0.00000000000E+00 0. -1.
         23    2    1    2    0    0  0.11735082783E+03  0.19043461669E+03 -0.52544402742E+03  0.57823943501E+03  0.90735099190E+02 0.  0.
         23    2    1    2    0    0  0.91688786538E+00 -0.30619884476E+02 -0.20134271240E+03  0.22879804425E+03  0.10426523488E+03 0.  0.
        -11    1    3    3    0    0  0.11971529906E+03  0.11658438665E+03 -0.37933016864E+03  0.41450578872E+03  0.00000000000E+00 0. -1.
         11    1    3    3    0    0 -0.23644712345E+01  0.73850230037E+02 -0.14611385878E+03  0.16373364629E+03  0.00000000000E+00 0.  1.
        -11    1    4    4    0    0 -0.15906309752E+02  0.18639421176E+02 -0.41524478028E+01  0.24853199682E+02  0.00000000000E+00 0. -1.
         11    1    4    4    0    0  0.16823197618E+02 -0.49259305652E+02 -0.19719026460E+03  0.20394484456E+03  0.00000000000E+00 0.  1.
         21    1    1    2  503  501  0.37384045459E+02  0.58357947833E+02  0.47855668980E+03  0.48354908984E+03  0.00000000000E+00 0. -1.
          1    1    1    2  501    0 -0.15565176115E+03 -0.21817268005E+03 -0.31818590265E+03  0.41601569407E+03  0.00000000000E+00 0. -1.
<scales pt_clust_5="13000.00000" pt_clust_6="13000.00000" pt_clust_7="13000.00000" pt_clust_8="13000.00000" pt_clust_9="69.30524" pt_clust_10="13000.00000"></scales>
<clustering>
<clus scale="   69.305">  1  9  2 -1</clus>
<clus scale="   90.735">  5  6 -1 -1</clus>
<clus scale="  104.265">  7  8 -1 -1</clus>
<clus scale="  229.987">  7 10 -1 -1</clus>
<clus scale="  260.542">  2  5  1 -1</clus>
<clus scale="   69.305">  1  5  2 -1</clus>
</clustering>
</event>
<event>
10    2  0.5692308E-006  0.2850447E+03  0.7546771E-02  0.1137942E+00
          2   -1    0    0  502    0 -0.00000000000E+00  0.00000000000E+00  0.17788289562E+03  0.17788289562E+03  0.00000000000E+00 0. -1.
         21   -1    0    0  503  502  0.00000000000E+00 -0.00000000000E+00 -0.54059817534E+03  0.54059817534E+03  0.00000000000E+00 0. -1.
         23    2    1    2    0    0  0.23972012104E+02 -0.12716987729E+01 -0.88657369787E+02  0.12566696295E+03  0.85765854375E+02 0.  0.
         23    2    1    2    0    0 -0.92015955526E+02 -0.27404142146E+02  0.10834350024E+03  0.18148543009E+03  0.10945649460E+03 0.  0.
        -11    1    3    3    0    0 -0.27362107675E+02  0.12032702399E+02 -0.55746048113E+02  0.63254191511E+02  0.00000000000E+00 0. -1.
         11    1    3    3    0    0  0.51334119779E+02 -0.13304401172E+02 -0.32911321674E+02  0.62412771436E+02  0.00000000000E+00 0.  1.
        -13    1    4    4    0    0 -0.11147996569E+03 -0.35795986213E+01  0.99516704581E+02  0.14947966674E+03  0.00000000000E+00 0. -1.
         13    1    4    4    0    0  0.19464010167E+02 -0.23824543525E+02  0.88267956618E+01  0.32005763350E+02  0.00000000000E+00 0.  1.
         21    1    1    2  503  501  0.20131208200E+01  0.48854734685E+02 -0.29938626567E+03  0.30335288663E+03  0.00000000000E+00 0. -1.
          2    1    1    2  501    0  0.66030822602E+02 -0.20178893766E+02 -0.83015144512E+02  0.10797579129E+03  0.00000000000E+00 0. -1.
<scales pt_clust_5="13000.00000" pt_clust_6="13000.00000" pt_clust_7="13000.00000" pt_clust_8="13000.00000" pt_clust_9="48.89619" pt_clust_10="13000.00000"></scales>
<clustering>
<clus scale="   48.896">  2  9  1 -1</clus>
<clus scale="   85.766">  5  6 -1 -1</clus>
<clus scale="   91.648">  1  5  2 -1</clus>
<clus scale="  109.456">  7  8 -1 -1</clus>
<clus scale="   69.006">  7 10 -1 -1</clus>
<clus scale="   48.896">  2  5  1 -1</clus>
</clustering>
</event>
<event>
10    2  0.5692308E-006  0.2355978E+03  0.7546771E-02  0.1151989E+00
          1   -1    0    0  502    0 -0.00000000000E+00  0.00000000000E+00  0.36750919154E+03  0.36750919154E+03  0.00000000000E+00 0. -1.
         21   -1    0    0  503  502  0.00000000000E+00 -0.00000000000E+00 -0.32065231437E+03  0.32065231437E+03  0.00000000000E+00 0. -1.
         23    2    1    2    0    0  0.33989362405E+02  0.55699419049E+02  0.11627573178E+03  0.16137082040E+03  0.90899911092E+02 0.  0.
         23    2    1    2    0    0  0.98238453039E+01  0.41760494578E+02  0.98584008631E+02  0.14516946811E+03  0.97544455867E+02 0.  0.
        -11    1    4    4    0    0  0.47745277458E+02  0.13898246786E+01  0.27715254644E+02  0.55223894034E+02  0.00000000000E+00 0.  1.
         11    1    4    4    0    0 -0.37921432155E+02  0.40370669899E+02  0.70868753986E+02  0.89945574079E+02  0.00000000000E+00 0. -1.
        -13    1    3    3    0    0 -0.15551095762E+02 -0.17420922159E+02  0.28569039584E+02  0.36898714490E+02  0.00000000000E+00 0. -1.
         13    1    3    3    0    0  0.49540458168E+02  0.73120341208E+02  0.87706692201E+02  0.12447210591E+03  0.00000000000E+00 0.  1.
         21    1    1    2  503  501  0.66457463661E+02 -0.16633430233E+02 -0.22372689499E+03  0.23398074497E+03  0.00000000000E+00 0. -1.
          1    1    1    2  501    0 -0.11027067137E+03 -0.80826483394E+02  0.55724031750E+02  0.14764047242E+03  0.00000000000E+00 0. -1.
<scales pt_clust_5="13000.00000" pt_clust_6="13000.00000" pt_clust_7="13000.00000" pt_clust_8="13000.00000" pt_clust_9="68.50741" pt_clust_10="13000.00000"></scales>
<clustering>
<clus scale="   68.507">  2  9  1 -1</clus>
<clus scale="   90.900">  7  8 -1 -1</clus>
<clus scale="   97.544">  5  6 -1 -1</clus>
<clus scale="  116.009">  1  7  2 -1</clus>
<clus scale="   90.411">  5 10 -1 -1</clus>
<clus scale="   68.507">  2  5  1 -1</clus>
</clustering>
</event>
<event>
10    2  0.5692308E-006  0.3836701E+03  0.7546771E-02  0.1094793E+00
          2   -1    0    0  502    0 -0.00000000000E+00  0.00000000000E+00  0.38589016248E+03  0.38589016248E+03  0.00000000000E+00 0. -1.
         21   -1    0    0  503  502  0.00000000000E+00 -0.00000000000E+00 -0.57012981584E+03  0.57012981584E+03  0.00000000000E+00 0. -1.
         23    2    1    2    0    0  0.58201301589E+02  0.18976122650E+02  0.12595965665E+03  0.16772303259E+03  0.92291363745E+02 0.  0.
         23    2    1    2    0    0  0.12501590212E+03 -0.27204068217E+02 -0.16500420035E+02  0.15780361424E+03  0.90888281404E+02 0.  0.
        -11    1    3    3    0    0  0.10963150746E+02  0.51123643644E+02  0.73164084872E+02  0.89926641930E+02  0.00000000000E+00 0. -1.
         11    1    3    3    0    0  0.47238150843E+02 -0.32147520993E+02  0.52795571775E+02  0.77796390662E+02  0.00000000000E+00 0.  1.
        -13    1    4    4    0    0  0.39268217335E+02 -0.52543786691E+02 -0.19203751221E+02  0.68349297535E+02  0.00000000000E+00 0. -1.
         13    1    4    4    0    0  0.85747684784E+02  0.25339718475E+02  0.27033311867E+01  0.89454316708E+02  0.00000000000E+00 0.  1.
         21    1    1    2  503  501  0.26929940564E+02 -0.62411895031E+02 -0.38483361532E+03  0.39079070846E+03  0.00000000000E+00 0. -1.
          2    1    1    2  501    0 -0.21014714427E+03  0.70639840598E+02  0.91134725342E+02  0.23970262303E+03  0.00000000000E+00 0. -1.
<scales pt_clust_5="13000.00000" pt_clust_6="13000.00000" pt_clust_7="13000.00000" pt_clust_8="13000.00000" pt_clust_9="67.97401" pt_clust_10="13000.00000"></scales>
<clustering>
<clus scale="   67.974">  2  9  1 -1</clus>
<clus scale="   90.888">  7  8 -1 -1</clus>
<clus scale="   92.291">  5  6 -1 -1</clus>
<clus scale="  111.416">  1  5  2 -1</clus>
<clus scale="  170.283">  7 10 -1 -1</clus>
<clus scale="   67.974">  2  5  1 -1</clus>
</clustering>
</event>
<event>
10    2  0.5692308E-006  0.2802402E+03  0.7546771E-02  0.1100745E+00
         21   -1    0    0  501  502  0.00000000000E+00  0.00000000000E+00  0.11075379449E+04  0.11075379449E+04  0.00000000000E+00 0. -1.
          3   -1    0    0  503    0 -0.00000000000E+00 -0.00000000000E+00 -0.25481524685E+03  0.25481524685E+03  0.00000000000E+00 0. -1.
         23    2    1    2    0    0  0.27933516107E+02  0.28446764211E+03 -0.11252508419E+02  0.30002960595E+03  0.90493230516E+02 0.  0.
         23    2    1    2    0    0  0.71687487960E+02  0.31282261556E+02 -0.26570812975E+01  0.11138541557E+03  0.79258910559E+02 0.  0.
        -13    1    3    3    0    0  0.39533246853E+02  0.19290031287E+03 -0.44588559340E+02  0.20189489329E+03  0.00000000000E+00 0. -1.
         13    1    3    3    0    0 -0.11599730746E+02  0.91567329240E+02  0.33336050921E+02  0.98134712658E+02  0.00000000000E+00 0.  1.
        -13    1    4    4    0    0  0.48787512209E+02  0.56075455688E+02 -0.14283761506E+02  0.75688201993E+02  0.00000000000E+00 0. -1.
         13    1    4    4    0    0  0.22899975751E+02 -0.24793194132E+02  0.11626680208E+02  0.35697213579E+02  0.00000000000E+00 0.  1.
         21    1    1    2  503  502 -0.96403494905E+02 -0.28835444946E+03  0.87142349717E+03  0.92294140321E+03  0.00000000000E+00 0. -1.
          3    1    1    2  501    0 -0.32175091625E+01 -0.27395454206E+02 -0.47912093881E+01  0.27996767024E+02  0.00000000000E+00 0. -1.
<scales pt_clust_5="13000.00000" pt_clust_6="13000.00000" pt_clust_7="13000.00000" pt_clust_8="13000.00000" pt_clust_9="232.25869" pt_clust_10="13000.00000"></scales>
<clustering>
<clus scale="   79.259">  7  8 -1 -1</clus>
<clus scale="   27.584">  7 10 -1 -1</clus>
<clus scale="   90.493">  5  6 -1 -1</clus>
<clus scale="  299.819">  2  5  1 -1</clus>
<clus scale="  232.259">  1  9  2 -1</clus>
<clus scale="  232.259">  1  5  2 -1</clus>
</clustering>
</event>
<event>
10    2  0.6634145E-006  0.1821673E+03  0.7546771E-02  0.1190829E+00
         -4   -1    0    0    0  501 -0.00000000000E+00  0.00000000000E+00  0.54770502157E+03  0.54770502157E+03  0.00000000000E+00 0.  1.
         21   -1    0    0  501  502  0.00000000000E+00 -0.00000000000E+00 -0.30059905899E+03  0.30059905899E+03  0.00000000000E+00 0.  1.
         23    2    1    2    0    0 -0.57473647778E+00  0.33700231665E+02  0.12403281205E+03  0.16465637635E+03  0.10291524606E+03 0.  0.
         23    2    1    2    0    0 -0.17115485566E+02 -0.35791699278E+02  0.25274589485E+03  0.27172994634E+03  0.91557035720E+02 0.  0.
        -11    1    4    4    0    0  0.23702484225E+02 -0.27786026253E+02  0.36919849331E+02  0.51932131557E+02  0.00000000000E+00 0.  1.
         11    1    4    4    0    0 -0.40817969791E+02 -0.80056730254E+01  0.21582604552E+03  0.21979781478E+03  0.00000000000E+00 0. -1.
        -11    1    3    3    0    0 -0.11767135751E+02 -0.32181942112E+02  0.16454154160E+02  0.38011604425E+02  0.00000000000E+00 0. -1.
         11    1    3    3    0    0  0.11192399273E+02  0.65882173777E+02  0.10757865789E+03  0.12664477193E+03  0.00000000000E+00 0.  1.
         21    1    1    2  503  502  0.19986653491E+02 -0.81595954999E+02 -0.25090074899E+03  0.26459129243E+03  0.00000000000E+00 0.  1.
         -4    1    1    2    0  503 -0.22964314468E+01  0.83687422612E+02  0.12122800467E+03  0.14732646544E+03  0.00000000000E+00 0.  1.
<scales pt_clust_5="13000.00000" pt_clust_6="13000.00000" pt_clust_7="13000.00000" pt_clust_8="13000.00000" pt_clust_9="84.00813" pt_clust_10="13000.00000"></scales>
<clustering>
<clus scale="   84.008">  2  9  1 -1</clus>
<clus scale="   91.557">  5  6 -1 -1</clus>
<clus scale="   58.962">  5 10 -1 -1</clus>
<clus scale="  102.915">  7  8 -1 -1</clus>
<clus scale="  103.419">  1  7  2 -1</clus>
<clus scale="   84.008">  2  5  1 -1</clus>
</clustering>
</event>
<event>
10    2  0.5692308E-006  0.2323106E+03  0.7546771E-02  0.1155958E+00
          1   -1    0    0  503    0 -0.00000000000E+00  0.00000000000E+00  0.26726436490E+03  0.26726436490E+03  0.00000000000E+00 0. -1.
         21   -1    0    0  501  502  0.00000000000E+00 -0.00000000000E+00 -0.42865108337E+03  0.42865108337E+03  0.00000000000E+00 0. -1.
         23    2    1    2    0    0  0.72133689426E+02  0.24734619454E+01  0.33405803632E+01  0.11658896486E+03  0.91501038714E+02 0.  0.
         23    2    1    2    0    0 -0.80069592040E+01 -0.45289874153E+02  0.55587263209E+01  0.10168479562E+03  0.90518584420E+02 0.  0.
        -11    1    3    3    0    0  0.13330596180E+02  0.43018964081E+02 -0.77897774893E+00  0.45043788378E+02  0.00000000000E+00 0.  1.
         11    1    3    3    0    0  0.58803093246E+02 -0.40545502136E+02  0.41195581121E+01  0.71545176482E+02  0.00000000000E+00 0. -1.
        -13    1    4    4    0    0 -0.26857616767E+02  0.19389213681E+02 -0.49734433586E+01  0.33496392707E+02  0.00000000000E+00 0.  1.
         13    1    4    4    0    0  0.18850657563E+02 -0.64679087834E+02  0.10532169680E+02  0.68188402912E+02  0.00000000000E+00 0. -1.
         21    1    1    2  503  502 -0.35903959339E+02 -0.61972973480E+02 -0.30004955372E+03  0.30847929984E+03  0.00000000000E+00 0. -1.
          1    1    1    2  501    0 -0.28222770883E+02  0.10478938569E+03  0.12976352857E+03  0.16916238795E+03  0.00000000000E+00 0. -1.
<scales pt_clust_5="13000.00000" pt_clust_6="13000.00000" pt_clust_7="13000.00000" pt_clust_8="13000.00000" pt_clust_9="71.62223" pt_clust_10="13000.00000"></scales>
<clustering>
<clus scale="   71.622">  2  9  1 -1</clus>
<clus scale="   90.519">  7  8 -1 -1</clus>
<clus scale="   91.501">  5  6 -1 -1</clus>
<clus scale="  100.846">  7 10 -1 -1</clus>
<clus scale="  110.215">  1  5  2 -1</clus>
<clus scale="   71.622">  2  5  1 -1</clus>
</clustering>
</event>
<event>
10    2  0.5692308E-006  0.4132965E+03  0.7546771E-02  0.1075987E+00
          2   -1    0    0  502    0 -0.00000000000E+00  0.00000000000E+00  0.96996307706E+03  0.96996307706E+03  0.00000000000E+00 0. -1.
         21   -1    0    0  503  502  0.00000000000E+00 -0.00000000000E+00 -0.17484443764E+03  0.17484443764E+03  0.00000000000E+00 0.  1.
         23    2    1    2    0    0 -0.32034626196E+02 -0.11260789739E+03  0.40629754107E+03  0.43261553415E+03  0.91497282362E+02 0.  0.
         23    2    1    2    0    0  0.17802416701E+03  0.19208556975E+03  0.31679700723E+03  0.42072573376E+03  0.89779335679E+02 0.  0.
        -11    1    3    3    0    0 -0.20366465776E+02 -0.29798401780E+02  0.29401266226E+02  0.46552896071E+02  0.00000000000E+00 0.  1.
         11    1    3    3    0    0 -0.11668160420E+02 -0.82809495605E+02  0.37689627484E+03  0.38606263808E+03  0.00000000000E+00 0. -1.
        -13    1    4    4    0    0  0.24304418836E+02  0.58031144280E+02  0.32446093664E+02  0.70788893730E+02  0.00000000000E+00 0.  1.
         13    1    4    4    0    0  0.15371974817E+03  0.13405442547E+03  0.28435091357E+03  0.34993684003E+03  0.00000000000E+00 0. -1.
         21    1    1    2  503  501 -0.70636680446E+02  0.37426361365E+02 -0.59803462370E+02  0.99833497689E+02  0.00000000000E+00 0.  1.
          2    1    1    2  501    0 -0.75352860369E+02 -0.11690403373E+03  0.13182755349E+03  0.19163274910E+03  0.00000000000E+00 0. -1.
<scales pt_clust_5="13000.00000" pt_clust_6="13000.00000" pt_clust_7="13000.00000" pt_clust_8="13000.00000" pt_clust_9="79.93918" pt_clust_10="13000.00000"></scales>
<clustering>
<clus scale="   79.939">  2  9  1 -1</clus>
<clus scale="   89.779">  7  8 -1 -1</clus>
<clus scale="   91.497">  5  6 -1 -1</clus>
<clus scale="  143.435">  7 10 -1 -1</clus>
<clus scale="  147.175">  1  5  2 -1</clus>
<clus scale="   79.939">  2  5  1 -1</clus>
</clustering>
</event>
<event>
10    2  0.5692308E-006  0.1948706E+03  0.7546771E-02  0.1156632E+00
          1   -1    0    0  502    0 -0.00000000000E+00  0.00000000000E+00  0.51031339136E+03  0.51031339136E+03  0.00000000000E+00 0. -1.
         21   -1    0    0  503  502  0.00000000000E+00 -0.00000000000E+00 -0.23451564376E+03  0.23451564376E+03  0.00000000000E+00 0.  1.
         23    2    1    2    0    0  0.11199565047E+03  0.85146693531E+02  0.18004304209E+03  0.24571940846E+03  0.90385538377E+02 0.  0.
         23    2    1    2    0    0 -0.11875624475E+03 -0.73590944938E+02  0.20105501594E+03  0.26161898023E+03  0.92210078294E+02 0.  0.
        -11    1    3    3    0    0  0.45447665842E+02  0.20703460088E+00  0.10462889541E+03  0.11407339281E+03  0.00000000000E+00 0. -1.
         11    1    3    3    0    0  0.66547984627E+02  0.84939658930E+02  0.75414146685E+02  0.13164601565E+03  0.00000000000E+00 0.  1.
        -11    1    4    4    0    0  0.14880331837E+02 -0.14821700360E+02  0.19600494046E+02  0.28727799150E+02  0.00000000000E+00 0.  1.
         11    1    4    4    0    0 -0.13363657658E+03 -0.58769244578E+02  0.18145452189E+03  0.23289118108E+03  0.00000000000E+00 0. -1.
         21    1    1    2  503  501  0.32005143844E+02  0.27731744614E+02 -0.16003396118E+03  0.16554228349E+03  0.00000000000E+00 0.  1.
          1    1    1    2  501    0 -0.25244549567E+02 -0.39287493206E+02  0.54733650751E+02  0.71948362940E+02  0.00000000000E+00 0. -1.
<scales pt_clust_5="13000.00000" pt_clust_6="13000.00000" pt_clust_7="13000.00000" pt_clust_8="13000.00000" pt_clust_9="42.34830" pt_clust_10="13000.00000"></scales>
<clustering>
<clus scale="   42.348">  2  9  1 -1</clus>
<clus scale="   90.386">  5  6 -1 -1</clus>
<clus scale="   92.210">  7  8 -1 -1</clus>
<clus scale="   41.848">  7 10 -1 -1</clus>
<clus scale="  183.800">  1  5  2 -1</clus>
<clus scale="   42.348">  2  5  1 -1</clus>
</clustering>
</event>
<event>
10    2  0.5692308E-006  0.1443778E+03  0.7546771E-02  0.1224728E+00
         21   -1    0    0  501  502  0.00000000000E+00  0.00000000000E+00  0.73296834539E+03  0.73296834539E+03  0.00000000000E+00 0.  1.
          3   -1    0    0  503    0 -0.00000000000E+00 -0.00000000000E+00 -0.52095840188E+02  0.52095840188E+02  0.00000000000E+00 0. -1.
         23    2    1    2    0    0 -0.43342893722E+02 -0.67111744813E+02  0.35092787784E+03  0.37144671381E+03  0.91867801887E+02 0.  0.
         23    2    1    2    0    0 -0.14023898371E+02 -0.18041437691E+02  0.12020989127E+03  0.14890001871E+03  0.84844766560E+02 0.  0.
        -11    1    4    4    0    0  0.23756115822E+02 -0.23386081351E+02  0.14202886882E+02  0.36235118817E+02  0.00000000000E+00 0. -1.
         11    1    4    4    0    0 -0.37780014192E+02  0.53446436601E+01  0.10600700438E+03  0.11266489989E+03  0.00000000000E+00 0.  1.
        -13    1    3    3    0    0 -0.68968990478E+02 -0.40745581027E+02  0.18681021215E+03  0.20326086535E+03  0.00000000000E+00 0.  1.
         13    1    3    3    0    0  0.25626096756E+02 -0.26366163786E+02  0.16411766570E+03  0.16818584846E+03  0.00000000000E+00 0. -1.
         21    1    1    2  503  502  0.61607075836E+02  0.51623164681E+02  0.36604298056E+02  0.88319066803E+02  0.00000000000E+00 0. -1.
          3    1    1    2  501    0 -0.42402837431E+01  0.33530017823E+02  0.17313043804E+03  0.17639838627E+03  0.00000000000E+00 0. -1.
<scales pt_clust_5="13000.00000" pt_clust_6="13000.00000" pt_clust_7="13000.00000" pt_clust_8="13000.00000" pt_clust_9="80.37655" pt_clust_10="13000.00000"></scales>
<clustering>
<clus scale="   80.377">  1  9  2 -1</clus>
<clus scale="   84.845">  5  6 -1 -1</clus>
<clus scale="   48.449">  5 10 -1 -1</clus>
<clus scale="   91.868">  7  8 -1 -1</clus>
<clus scale="  100.437">  2  7  1 -1</clus>
<clus scale="   80.377">  1  5  2 -1</clus>
</clustering>
</event>
<event>
10    2  0.5692308E-006  0.2893990E+03  0.7546771E-02  0.1115264E+00
         -4   -1    0    0    0  501 -0.00000000000E+00  0.00000000000E+00  0.21854131827E+03  0.21854131827E+03  0.00000000000E+00 0.  1.
         21   -1    0    0  503  502  0.00000000000E+00 -0.00000000000E+00 -0.35109856572E+03  0.35109856572E+03  0.00000000000E+00 0. -1.
         23    2    1    2    0    0 -0.12439905691E+03 -0.87496795113E+01  0.32431983446E+02  0.15755992366E+03  0.90673114772E+02 0.  0.
         23    2    1    2    0    0 -0.52847706677E+02  0.11714824364E+02 -0.49418847836E+02  0.11696072585E+03  0.91145332630E+02 0.  0.
        -11    1    3    3    0    0 -0.12737158605E+03  0.14682512858E+02  0.16979737370E+02  0.12933448340E+03  0.00000000000E+00 0. -1.
         11    1    3    3    0    0  0.29725291426E+01 -0.23432192369E+02  0.15452246077E+02  0.28225440254E+02  0.00000000000E+00 0.  1.
        -13    1    4    4    0    0 -0.70615844116E+02  0.21378101370E+02 -0.59104348875E+02  0.94535415133E+02  0.00000000000E+00 0. -1.
         13    1    4    4    0    0  0.17768137440E+02 -0.96632770067E+01  0.96855010389E+01  0.22425310721E+02  0.00000000000E+00 0.  1.
         21    1    1    2  503  501  0.38175104425E+01  0.61532982264E+02  0.21014210640E+02  0.65134310015E+02  0.00000000000E+00 0.  1.
         -4    1    1    2    0  502  0.17342925314E+03 -0.64498127117E+02 -0.13658459370E+03  0.22998492447E+03  0.00000000000E+00 0.  1.
<scales pt_clust_5="13000.00000" pt_clust_6="13000.00000" pt_clust_7="13000.00000" pt_clust_8="13000.00000" pt_clust_9="61.65132" pt_clust_10="13000.00000"></scales>
<clustering>
<clus scale="   61.651">  2  9  1 -1</clus>
<clus scale="   90.673">  5  6 -1 -1</clus>
<clus scale="   91.145">  7  8 -1 -1</clus>
<clus scale="  153.380">  1  5  2 -1</clus>
<clus scale="  114.930">  7 10 -1 -1</clus>
<clus scale="   61.651">  2  5  1 -1</clus>
</clustering>
</event>
<event>
10    2  0.5692308E-006  0.2379864E+03  0.7546771E-02  0.1139030E+00
         -3   -1    0    0    0  501 -0.00000000000E+00  0.00000000000E+00  0.13009725488E+03  0.13009725488E+03  0.00000000000E+00 0.  1.
         21   -1    0    0  501  502  0.00000000000E+00 -0.00000000000E+00 -0.50710621123E+03  0.50710621123E+03  0.00000000000E+00 0.  1.
         23    2    1    2    0    0  0.80798642112E+02 -0.86126450153E+02 -0.64152672370E+02  0.15852333025E+03  0.84070773031E+02 0.  0.
         23    2    1    2    0    0 -0.16053771260E+03  0.94097168123E+02 -0.86389960921E+02  0.22476000704E+03  0.91799788671E+02 0.  0.
        -11    1    4    4    0    0 -0.96814414093E+02  0.45468679432E+02 -0.68127699697E-01  0.10695997488E+03  0.00000000000E+00 0. -1.
         11    1    4    4    0    0 -0.63723298504E+02  0.48628488691E+02 -0.86321833222E+02  0.11780003215E+03  0.00000000000E+00 0.  1.
        -11    1    3    3    0    0  0.26461536840E+02  0.87321167899E+01  0.61685710496E+01  0.28539692787E+02  0.00000000000E+00 0. -1.
         11    1    3    3    0    0  0.54337105271E+02 -0.94858566943E+02 -0.70321243420E+02  0.12998363746E+03  0.00000000000E+00 0.  1.
         21    1    1    2  503  502  0.39706413593E+02  0.99796999552E+00 -0.20260281542E+03  0.20645942953E+03  0.00000000000E+00 0.  1.
         -3    1    1    2    0  503  0.40032656893E+02 -0.89686879655E+01 -0.23863507641E+02  0.47460699306E+02  0.00000000000E+00 0.  1.
<scales pt_clust_5="13000.00000" pt_clust_6="13000.00000" pt_clust_7="13000.00000" pt_clust_8="13000.00000" pt_clust_9="39.71895" pt_clust_10="13000.00000"></scales>
<clustering>
<clus scale="   39.719">  2  9  1 -1</clus>
<clus scale="   84.071">  7  8 -1 -1</clus>
<clus scale="   91.800">  5  6 -1 -1</clus>
<clus scale="   45.580">  5 10 -1 -1</clus>
<clus scale="  153.380">  1  7  2 -1</clus>
<clus scale="   39.719">  2  5  1 -1</clus>
</clustering>
</event>
<event>
10    2  0.5692308E-006  0.1973396E+03  0.7546771E-02  0.1169605E+00
         21   -1    0    0  501  502  0.00000000000E+00  0.00000000000E+00  0.28605991239E+02  0.28605991239E+02  0.00000000000E+00 0. -1.
          1   -1    0    0  503    0 -0.00000000000E+00 -0.00000000000E+00 -0.12337162252E+04  0.12337162252E+04  0.00000000000E+00 0. -1.
         23    2    1    2    0    0 -0.28440444929E+02 -0.74441186999E+02 -0.36901059421E+03  0.38801222420E+03  0.89634358708E+02 0.  0.
         23    2    1    2    0    0 -0.16548777767E+02  0.56904886278E+02 -0.27188814715E+03  0.29365960718E+03  0.93812430953E+02 0.  0.
        -11    1    3    3    0    0 -0.39065622908E+02  0.38761724620E+01 -0.15435047217E+03  0.15926460958E+03  0.00000000000E+00 0.  1.
         11    1    3    3    0    0  0.10625177979E+02 -0.78317359461E+02 -0.21466012204E+03  0.22874761462E+03  0.00000000000E+00 0. -1.
        -13    1    4    4    0    0 -0.51314156622E+02  0.45555503970E+02 -0.21791757151E+03  0.22846556542E+03  0.00000000000E+00 0.  1.
         13    1    4    4    0    0  0.34765378855E+02  0.11349382308E+02 -0.53970575641E+02  0.65194041758E+02  0.00000000000E+00 0. -1.
         21    1    1    2  503  502 -0.15565195657E+02 -0.36713609683E+02 -0.77112348372E+02  0.86812894913E+02  0.00000000000E+00 0. -1.
          1    1    1    2  501    0  0.60554418352E+02  0.54249910404E+02 -0.48709914419E+03  0.49383749011E+03  0.00000000000E+00 0. -1.
<scales pt_clust_5="13000.00000" pt_clust_6="13000.00000" pt_clust_7="13000.00000" pt_clust_8="13000.00000" pt_clust_9="39.87687" pt_clust_10="13000.00000"></scales>
<clustering>
<clus scale="   39.877">  1  9  2 -1</clus>
<clus scale="   89.634">  5  6 -1 -1</clus>
<clus scale="   93.812">  7  8 -1 -1</clus>
<clus scale="   76.221">  7 10 -1 -1</clus>
<clus scale="  131.069">  2  5  1 -1</clus>
<clus scale="   39.877">  1  5  2 -1</clus>
</clustering>
</event>
<event>
10    2  0.5692308E-006  0.1514115E+03  0.7546771E-02  0.1199450E+00
         -1   -1    0    0    0  501 -0.00000000000E+00  0.00000000000E+00  0.16924329899E+03  0.16924329899E+03  0.00000000000E+00 0.  1.
         21   -1    0    0  501  502  0.00000000000E+00 -0.00000000000E+00 -0.18651427989E+03  0.18651427989E+03  0.00000000000E+00 0.  1.
         23    2    1    2    0    0 -0.11603357635E+03  0.64480968714E+02 -0.43588794915E+02  0.16707523081E+03  0.91610935702E+02 0.  0.
         23    2    1    2    0    0  0.55245626840E+02 -0.20028574194E+02  0.53179128064E+02  0.10119196098E+03  0.62917169647E+02 0.  0.
        -11    1    3    3    0    0 -0.78279815654E+02  0.74630068573E+02  0.49272099002E+00  0.10815553360E+03  0.00000000000E+00 0. -1.
         11    1    3    3    0    0 -0.37753760694E+02 -0.10149099858E+02 -0.44081515906E+02  0.58919697208E+02  0.00000000000E+00 0.  1.
        -13    1    4    4    0    0  0.17745477942E+02  0.11856059964E+02 -0.78915176220E+01  0.22753992960E+02  0.00000000000E+00 0. -1.
         13    1    4    4    0    0  0.37500148897E+02 -0.31884634157E+02  0.61070645686E+02  0.78437968021E+02  0.00000000000E+00 0.  1.
         21    1    1    2  503  502  0.20598474063E+02 -0.91832131310E+01 -0.25444819052E+02  0.34000990481E+02  0.00000000000E+00 0.  1.
         -1    1    1    2    0  503  0.40189475446E+02 -0.35269181389E+02 -0.14164949988E+01  0.53489396618E+02  0.00000000000E+00 0.  1.
<scales pt_clust_5="13000.00000" pt_clust_6="13000.00000" pt_clust_7="13000.00000" pt_clust_8="13000.00000" pt_clust_9="22.55279" pt_clust_10="13000.00000"></scales>
<clustering>
<clus scale="   22.553">  2  9  1 -1</clus>
<clus scale="   62.917">  7  8 -1 -1</clus>
<clus scale="   57.254">  7 10 -1 -1</clus>
<clus scale="   91.611">  5  6 -1 -1</clus>
<clus scale="  149.120">  1  5  2 -1</clus>
<clus scale="   22.553">  2  5  1 -1</clus>
</clustering>
</event>
<event>
10    2  0.5692308E-006  0.4841786E+03  0.7546771E-02  0.1024071E+00
          1   -1    0    0  503    0 -0.00000000000E+00  0.00000000000E+00  0.18085450665E+04  0.18085450665E+04  0.00000000000E+00 0. -1.
         21   -1    0    0  501  502  0.00000000000E+00 -0.00000000000E+00 -0.16081745460E+03  0.16081745460E+03  0.00000000000E+00 0. -1.
         23    2    1    2    0    0 -0.94214088673E+02  0.37393137787E+03  0.10778825493E+04  0.11484652132E+04  0.91872662038E+02 0.  0.
         23    2    1    2    0    0  0.52610734035E+02 -0.20166961274E+02  0.16317620144E+03  0.19562234115E+03  0.92016476671E+02 0.  0.
        -11    1    3    3    0    0 -0.69783293768E+02  0.31656135372E+03  0.98172849038E+03  0.10338624800E+04  0.00000000000E+00 0. -1.
         11    1    3    3    0    0 -0.24430794905E+02  0.57370024149E+02  0.96154058891E+02  0.11460273318E+03  0.00000000000E+00 0.  1.
        -11    1    4    4    0    0  0.37775220218E+02 -0.45684770312E+02  0.46701814465E+02  0.75466051807E+02  0.00000000000E+00 0. -1.
         11    1    4    4    0    0  0.14835513817E+02  0.25517809038E+02  0.11647438697E+03  0.12015628934E+03  0.00000000000E+00 0.  1.
         21    1    1    2  503  502  0.45195735167E+02  0.35758604138E+02 -0.58187479384E+01  0.57924002579E+02  0.00000000000E+00 0. -1.
          1    1    1    2  501    0 -0.35923805295E+01 -0.38952302073E+03  0.41248760915E+03  0.56735096420E+03  0.00000000000E+00 0. -1.
<scales pt_clust_5="13000.00000" pt_clust_6="13000.00000" pt_clust_7="13000.00000" pt_clust_8="13000.00000" pt_clust_9="57.63100" pt_clust_10="13000.00000"></scales>
<clustering>
<clus scale="   57.631">  2  9  1 -1</clus>
<clus scale="   91.873">  5  6 -1 -1</clus>
<clus scale="   92.016">  7  8 -1 -1</clus>
<clus scale="  368.803">  7 10 -1 -1</clus>
<clus scale="  402.962">  1  5  2 -1</clus>
<clus scale="   57.631">  2  5  1 -1</clus>
</clustering>
</event>
<event>
10    2  0.5692308E-006  0.3510583E+03  0.7546771E-02  0.1080708E+00
         21   -1    0    0  501  502  0.00000000000E+00  0.00000000000E+00  0.39447110844E+03  0.39447110844E+03  0.00000000000E+00 0. -1.
          2   -1    0    0  503    0 -0.00000000000E+00 -0.00000000000E+00 -0.44129265221E+03  0.44129265221E+03  0.00000000000E+00 0. -1.
         23    2    1    2    0    0  0.12652827581E+03  0.13819033767E+03 -0.19554640226E+03  0.28502686018E+03  0.88859110851E+02 0.  0.
         23    2    1    2    0    0 -0.18694792079E+03 -0.81465759944E+01  0.34542149391E+02  0.21053410416E+03  0.90086387116E+02 0.  0.
        -13    1    3    3    0    0  0.48800940619E+02 -0.12734166978E-01 -0.45032100928E+02  0.66403479437E+02  0.00000000000E+00 0.  1.
         13    1    3    3    0    0  0.77727335194E+02  0.13820307184E+03 -0.15051430134E+03  0.21862338074E+03  0.00000000000E+00 0. -1.
        -13    1    4    4    0    0 -0.16815884895E+03 -0.36888808986E+02  0.20266549801E+02  0.17334623085E+03  0.00000000000E+00 0.  1.
         13    1    4    4    0    0 -0.18789071834E+02  0.28742232991E+02  0.14275599589E+02  0.37187873310E+02  0.00000000000E+00 0. -1.
         21    1    1    2  503  502  0.29623895158E+02  0.39269430804E+00  0.18586723035E+03  0.18821359326E+03  0.00000000000E+00 0. -1.
          2    1    1    2  501    0  0.30795749817E+02 -0.13043645598E+03 -0.71684521243E+02  0.15198920304E+03  0.00000000000E+00 0. -1.
<scales pt_clust_5="13000.00000" pt_clust_6="13000.00000" pt_clust_7="13000.00000" pt_clust_8="13000.00000" pt_clust_9="29.62650" pt_clust_10="13000.00000"></scales>
<clustering>
<clus scale="   29.626">  1  9  2 -1</clus>
<clus scale="   88.859">  5  6 -1 -1</clus>
<clus scale="   90.086">  7  8 -1 -1</clus>
<clus scale="  135.382">  7 10 -1 -1</clus>
<clus scale="  211.384">  2  5  1 -1</clus>
<clus scale="   29.626">  1  5  2 -1</clus>
</clustering>
</event>
<event>
10    2  0.5692308E-006  0.3213462E+03  0.7546771E-02  0.1121711E+00
         21   -1    0    0  501  502  0.00000000000E+00  0.00000000000E+00  0.46054772205E+03  0.46054772205E+03  0.00000000000E+00 0. -1.
          1   -1    0    0  503    0 -0.00000000000E+00 -0.00000000000E+00 -0.28859618784E+03  0.28859618784E+03  0.00000000000E+00 0. -1.
         23    2    1    2    0    0 -0.33718057918E+02  0.12943702026E+02 -0.12183811015E+03  0.15576237022E+03  0.90071882635E+02 0.  0.
         23    2    1    2    0    0  0.45375158568E+00  0.64737222746E+02 -0.98803747712E+02  0.14925016476E+03  0.91226735215E+02 0.  0.
        -13    1    3    3    0    0 -0.59492636787E+02 -0.96480021115E+01 -0.93737154613E+02  0.11144106932E+03  0.00000000000E+00 0. -1.
         13    1    3    3    0    0  0.25774578869E+02  0.22591704137E+02 -0.28100955534E+02  0.44321300902E+02  0.00000000000E+00 0.  1.
        -13    1    4    4    0    0  0.27375659695E+02  0.77328837532E+02 -0.69544294707E+02  0.10754340884E+03  0.00000000000E+00 0. -1.
         13    1    4    4    0    0 -0.26921908109E+02 -0.12591614785E+02 -0.29259453005E+02  0.41706755919E+02  0.00000000000E+00 0.  1.
         21    1    1    2  503  502  0.76310519730E+02  0.25047460966E+02  0.25360675496E+03  0.26602078281E+03  0.00000000000E+00 0. -1.
          1    1    1    2  501    0 -0.43046213397E+02 -0.10272838574E+03  0.13898663712E+03  0.17811059211E+03  0.00000000000E+00 0. -1.
<scales pt_clust_5="13000.00000" pt_clust_6="13000.00000" pt_clust_7="13000.00000" pt_clust_8="13000.00000" pt_clust_9="80.31607" pt_clust_10="13000.00000"></scales>
<clustering>
<clus scale="   80.316">  1  9  2 -1</clus>
<clus scale="   90.072">  5  6 -1 -1</clus>
<clus scale="   91.227">  7  8 -1 -1</clus>
<clus scale="   84.715">  7 10 -1 -1</clus>
<clus scale="   95.307">  2  5  1 -1</clus>
<clus scale="   80.316">  1  5  2 -1</clus>
</clustering>
</event>
<event>
10    2  0.5692308E-006  0.6455766E+03  0.7546771E-02  0.1012367E+00
          1   -1    0    0  503    0 -0.00000000000E+00  0.00000000000E+00  0.44699500630E+03  0.44699500630E+03  0.00000000000E+00 0. -1.
         21   -1    0    0  501  502  0.00000000000E+00 -0.00000000000E+00 -0.71700888725E+03  0.71700888725E+03  0.00000000000E+00 0. -1.
         23    2    1    2    0    0 -0.15102725248E+03 -0.12825894842E+03 -0.87083965150E+02  0.23476609524E+03  0.90950061262E+02 0.  0.
         23    2    1    2    0    0 -0.42264325141E+02  0.49195888228E+02  0.29005805546E+03  0.31020487013E+03  0.88808092627E+02 0.  0.
        -11    1    3    3    0    0 -0.82833605975E+02 -0.56009285768E+02 -0.91192797917E+02  0.13533134435E+03  0.00000000000E+00 0. -1.
         11    1    3    3    0    0 -0.68193646508E+02 -0.72249662652E+02  0.41088327673E+01  0.99434750887E+02  0.00000000000E+00 0.  1.
        -13    1    4    4    0    0 -0.90482498949E+01  0.70045576414E+02  0.17932624337E+03  0.19273337843E+03  0.00000000000E+00 0. -1.
         13    1    4    4    0    0 -0.33216075246E+02 -0.20849688186E+02  0.11073181209E+03  0.11747149170E+03  0.00000000000E+00 0.  1.
         21    1    1    2  503  502 -0.47431483679E+02 -0.62384222839E+02 -0.24913829421E+03  0.26117317348E+03  0.00000000000E+00 0. -1.
          1    1    1    2  501    0  0.24072306130E+03  0.14144728303E+03 -0.22384967705E+03  0.35785975470E+03  0.00000000000E+00 0. -1.
<scales pt_clust_5="13000.00000" pt_clust_6="13000.00000" pt_clust_7="13000.00000" pt_clust_8="13000.00000" pt_clust_9="78.36796" pt_clust_10="13000.00000"></scales>
<clustering>
<clus scale="   78.368">  2  9  1 -1</clus>
<clus scale="   88.808">  7  8 -1 -1</clus>
<clus scale="   90.950">  5  6 -1 -1</clus>
<clus scale="  234.298">  7 10 -1 -1</clus>
<clus scale="  242.580">  1  5  2 -1</clus>
<clus scale="   78.368">  2  5  1 -1</clus>
</clustering>
</event>
<event>
10    2  0.5692308E-006  0.1704646E+03  0.7546771E-02  0.1195801E+00
          1   -1    0    0  502    0 -0.00000000000E+00  0.00000000000E+00  0.32612429348E+03  0.32612429348E+03  0.00000000000E+00 0. -1.
         21   -1    0    0  503  502  0.00000000000E+00 -0.00000000000E+00 -0.31835977094E+03  0.31835977094E+03  0.00000000000E+00 0.  1.
         23    2    1    2    0    0  0.63240707500E+02  0.17648024607E+02  0.28242175217E+03  0.30432846214E+03  0.92427955232E+02 0.  0.
         23    2    1    2    0    0 -0.26598574555E+01  0.11488157997E+02 -0.17257433808E+03  0.19548692912E+03  0.91072414478E+02 0.  0.
        -11    1    4    4    0    0 -0.46670682804E+02  0.36287911639E+01 -0.96332220090E+02  0.10710376924E+03  0.00000000000E+00 0. -1.
         11    1    4    4    0    0  0.44010825349E+02  0.78593668332E+01 -0.76242117989E+02  0.88383159880E+02  0.00000000000E+00 0.  1.
        -13    1    3    3    0    0  0.77770302028E+02  0.39239037234E+02  0.20877429919E+03  0.22621810255E+03  0.00000000000E+00 0. -1.
         13    1    3    3    0    0 -0.14529594527E+02 -0.21591012626E+02  0.73647452985E+02  0.78110359585E+02  0.00000000000E+00 0.  1.
         21    1    1    2  503  501 -0.29008644654E+01 -0.20830257674E+02 -0.79394497515E+02  0.82132824651E+02  0.00000000000E+00 0.  1.
          1    1    1    2  501    0 -0.57679985579E+02 -0.83059249306E+01 -0.22688394041E+02  0.62535848515E+02  0.00000000000E+00 0. -1.
<scales pt_clust_5="13000.00000" pt_clust_6="13000.00000" pt_clust_7="13000.00000" pt_clust_8="13000.00000" pt_clust_9="21.03128" pt_clust_10="13000.00000"></scales>
<clustering>
<clus scale="   21.031">  2  9  1 -1</clus>
<clus scale="   91.072">  5  6 -1 -1</clus>
<clus scale="   59.433">  5 10 -1 -1</clus>
<clus scale="   92.428">  7  8 -1 -1</clus>
<clus scale="  113.154">  1  7  2 -1</clus>
<clus scale="   21.031">  2  5  1 -1</clus>
</clustering>
</event>
<event>
10    2  0.5692308E-006  0.2040944E+03  0.7546771E-02  0.1179393E+00
         -3   -1    0    0    0  501 -0.00000000000E+00  0.00000000000E+00  0.49730257842E+03  0.49730257842E+03  0.00000000000E+00 0.  1.
         21   -1    0    0  503  502  0.00000000000E+00 -0.00000000000E+00 -0.97008638555E+02  0.97008638555E+02  0.00000000000E+00 0.  1.
         23    2    1    2    0    0  0.20469933636E+02 -0.74260908929E+01  0.30751700496E+02  0.98874682774E+02  0.91413187240E+02 0.  0.
         23    2    1    2    0    0  0.75275324819E+02  0.36237680441E+02  0.35821836936E+03  0.38274628238E+03  0.10580535200E+03 0.  0.
        -13    1    4    4    0    0 -0.23255049674E+02  0.20426599540E+01  0.28031785734E+02  0.36479457322E+02  0.00000000000E+00 0. -1.
         13    1    4    4    0    0  0.98530374493E+02  0.34195020487E+02  0.33018658363E+03  0.34626682505E+03  0.00000000000E+00 0.  1.
        -13    1    3    3    0    0 -0.99144902503E+01 -0.44646898449E+02  0.18127221102E+02  0.49195922625E+02  0.00000000000E+00 0. -1.
         13    1    3    3    0    0  0.30384423886E+02  0.37220807556E+02  0.12624479394E+02  0.49678760150E+02  0.00000000000E+00 0.  1.
         21    1    1    2  503  501 -0.48484085784E+02 -0.30218906045E+02 -0.14325428269E+02  0.58899123525E+02  0.00000000000E+00 0.  1.
         -3    1    1    2    0  502 -0.47261172671E+02  0.14073164964E+01  0.25649298276E+02  0.53791128302E+02  0.00000000000E+00 0.  1.
<scales pt_clust_5="13000.00000" pt_clust_6="13000.00000" pt_clust_7="13000.00000" pt_clust_8="13000.00000" pt_clust_9="57.13045" pt_clust_10="13000.00000"></scales>
<clustering>
<clus scale="   57.130">  2  9  1 -1</clus>
<clus scale="   91.413">  7  8 -1 -1</clus>
<clus scale="   94.881">  1  7  2 -1</clus>
<clus scale="  105.805">  5  6 -1 -1</clus>
<clus scale="   60.534">  5 10 -1 -1</clus>
<clus scale="   57.130">  2  5  1 -1</clus>
</clustering>
</event>
<event>
10    2  0.5692308E-006  0.3429054E+03  0.7546771E-02  0.1103194E+00
         21   -1    0    0  503  502  0.00000000000E+00  0.00000000000E+00  0.75719140040E+02  0.75719140040E+02  0.00000000000E+00 0. -1.
          2   -1    0    0  502    0 -0.00000000000E+00 -0.00000000000E+00 -0.95376903062E+03  0.95376903062E+03  0.00000000000E+00 0. -1.
         23    2    1    2    0    0  0.67217126770E+01  0.83552822997E+02 -0.23926860623E+03  0.26929748397E+03  0.90804258123E+02 0.  0.
         23    2    1    2    0    0  0.92328930521E+02 -0.90076492995E+01 -0.49424572227E+03  0.51046976791E+03  0.87719899742E+02 0.  0.
        -13    1    4    4    0    0  0.55442472664E+02  0.30473445985E+02 -0.36407344200E+03  0.36952938970E+03  0.00000000000E+00 0.  1.
         13    1    4    4    0    0  0.36886457857E+02 -0.39481095285E+02 -0.13017228027E+03  0.14094037821E+03  0.00000000000E+00 0. -1.
        -13    1    3    3    0    0 -0.38523317860E+02  0.62732431400E+02 -0.13601180547E+03  0.15465644246E+03  0.00000000000E+00 0. -1.
         13    1    3    3    0    0  0.45245030537E+02  0.20820391597E+02 -0.10325680076E+03  0.11464104151E+03  0.00000000000E+00 0.  1.
         21    1    1    2  503  501  0.38208222853E+02  0.56676884561E+01 -0.64804616695E+01  0.39166150812E+02  0.00000000000E+00 0. -1.
          2    1    1    2  501    0 -0.13725886605E+03 -0.80212862154E+02 -0.13805510041E+03  0.21055476797E+03  0.00000000000E+00 0. -1.
<scales pt_clust_5="13000.00000" pt_clust_6="13000.00000" pt_clust_7="13000.00000" pt_clust_8="13000.00000" pt_clust_9="38.62630" pt_clust_10="13000.00000"></scales>
<clustering>
<clus scale="   38.626">  1  9  2 -1</clus>
<clus scale="   87.720">  5  6 -1 -1</clus>
<clus scale="   90.804">  7  8 -1 -1</clus>
<clus scale="  125.445">  2  7  1 -1</clus>
<clus scale="  125.073">  5 10 -1 -1</clus>
<clus scale="   38.626">  1  5  2 -1</clus>
</clustering>
</event>
<event>
10    2  0.5692308E-006  0.1860950E+03  0.7546771E-02  0.1187591E+00
         21   -1    0    0  501  502  0.00000000000E+00  0.00000000000E+00  0.16782115079E+03  0.16782115079E+03  0.00000000000E+00 0. -1.
          2   -1    0    0  503    0 -0.00000000000E+00 -0.00000000000E+00 -0.28863235095E+03  0.28863235095E+03  0.00000000000E+00 0.  1.
         23    2    1    2    0    0 -0.10291774955E+02 -0.54669915626E+02 -0.66720609320E+02  0.12585803816E+03  0.91070773335E+02 0.  0.
         23    2    1    2    0    0  0.14574000852E+02  0.75300442695E+02 -0.15543578099E+03  0.19588598834E+03  0.91260507580E+02 0.  0.
        -11    1    3    3    0    0 -0.33853474989E+02 -0.69566935199E+02 -0.57853735771E+02  0.96605750266E+02  0.00000000000E+00 0. -1.
         11    1    3    3    0    0  0.23561700034E+02  0.14897019573E+02 -0.88668735492E+01  0.29252287897E+02  0.00000000000E+00 0.  1.
        -13    1    4    4    0    0  0.30993016396E+02 -0.53403911489E+01 -0.72603897839E+02  0.79122770581E+02  0.00000000000E+00 0.  1.
         13    1    4    4    0    0 -0.16419015544E+02  0.80640833843E+02 -0.82831883151E+02  0.11676321776E+03  0.00000000000E+00 0. -1.
         21    1    1    2  503  502 -0.14692770820E+02  0.16699104312E+02  0.92261796073E+02  0.94905092665E+02  0.00000000000E+00 0. -1.
          2    1    1    2  501    0  0.10410544923E+02 -0.37329631381E+02  0.90833940798E+01  0.39804382580E+02  0.00000000000E+00 0.  1.
<scales pt_clust_5="13000.00000" pt_clust_6="13000.00000" pt_clust_7="13000.00000" pt_clust_8="13000.00000" pt_clust_9="22.24270" pt_clust_10="13000.00000"></scales>
<clustering>
<clus scale="   22.243">  1  9  2 -1</clus>
<clus scale="   91.071">  5  6 -1 -1</clus>
<clus scale="   91.261">  7  8 -1 -1</clus>
<clus scale="   32.315">  7 10 -1 -1</clus>
<clus scale="  104.213">  2  5  1 -1</clus>
<clus scale="   22.243">  1  5  2 -1</clus>
</clustering>
</event>
<event>
10    2  0.5692308E-006  0.2817871E+03  0.7546771E-02  0.1126102E+00
          2   -1    0    0  503    0 -0.00000000000E+00  0.00000000000E+00  0.12780000840E+04  0.12780000840E+04  0.00000000000E+00 0. -1.
         21   -1    0    0  501  502  0.00000000000E+00 -0.00000000000E+00 -0.67940234300E+02  0.67940234300E+02  0.00000000000E+00 0. -1.
         23    2    1    2    0    0 -0.54585617120E+02 -0.62903788078E+02  0.57020872419E+03  0.58324005348E+03  0.89969409761E+02 0.  0.
         23    2    1    2    0    0 -0.49745614437E+01 -0.23445684443E+00  0.33401409824E+03  0.34607440726E+03  0.90428293724E+02 0.  0.
        -11    1    4    4    0    0 -0.11946995183E+00  0.44971073502E+02  0.15687940132E+03  0.16319791139E+03  0.00000000000E+00 0.  1.
         11    1    4    4    0    0 -0.48550914918E+01 -0.45205530346E+02  0.17713469692E+03  0.18287649587E+03  0.00000000000E+00 0. -1.
        -13    1    3    3    0    0 -0.72366858499E+02 -0.18763080843E+02  0.32988090189E+03  0.33824610100E+03  0.00000000000E+00 0.  1.
         13    1    3    3    0    0  0.17781241379E+02 -0.44140707234E+02  0.24032782230E+03  0.24499395248E+03  0.00000000000E+00 0. -1.
         21    1    1    2  503  502  0.37033419394E+02 -0.93685619748E+02  0.20612768131E+03  0.22942774571E+03  0.00000000000E+00 0.  1.
          2    1    1    2  501    0  0.22526759170E+02  0.15682386467E+03  0.99709345968E+02  0.18719811185E+03  0.00000000000E+00 0. -1.
<scales pt_clust_5="13000.00000" pt_clust_6="13000.00000" pt_clust_7="13000.00000" pt_clust_8="13000.00000" pt_clust_9="100.73961" pt_clust_10="13000.00000"></scales>
<clustering>
<clus scale="   89.969">  7  8 -1 -1</clus>
<clus scale="   90.428">  5  6 -1 -1</clus>
<clus scale="  100.740">  2  9  1 -1</clus>
<clus scale="   98.445">  5 10 -1 -1</clus>
<clus scale="  126.741">  1  7  2 -1</clus>
<clus scale="  100.740">  2  5  1 -1</clus>
</clustering>
</event>
<event>
10    2  0.5692308E-006  0.1885576E+03  0.7546771E-02  0.1185622E+00
          1   -1    0    0  502    0 -0.00000000000E+00  0.00000000000E+00  0.43041714157E+03  0.43041714157E+03  0.00000000000E+00 0. -1.
         21   -1    0    0  503  502  0.00000000000E+00 -0.00000000000E+00 -0.12506352931E+03  0.12506352931E+03  0.00000000000E+00 0.  1.
         23    2    1    2    0    0 -0.46330052246E+02  0.12040190271E+02  0.84933823368E+02  0.13478906763E+03  0.93074693007E+02 0.  0.
         23    2    1    2    0    0 -0.80510904090E+01  0.60950601366E+02  0.20573594012E+03  0.23415684747E+03  0.93393555959E+02 0.  0.
        -11    1    4    4    0    0  0.39414836324E+02  0.29067460576E+02  0.59024575656E+02  0.76696460924E+02  0.00000000000E+00 0.  1.
         11    1    4    4    0    0 -0.47465926733E+02  0.31883140790E+02  0.14671136446E+03  0.15746038654E+03  0.00000000000E+00 0. -1.
        -13    1    3    3    0    0 -0.46322712388E+02 -0.14549125231E+02  0.94733447808E+02  0.10645138262E+03  0.00000000000E+00 0. -1.
         13    1    3    3    0    0 -0.73398578942E-02  0.26589315501E+02 -0.97996244402E+01  0.28337685012E+02  0.00000000000E+00 0.  1.
         21    1    1    2  503  501 -0.38454812326E+00 -0.10703401008E+03 -0.26183876143E+02  0.11019084609E+03  0.00000000000E+00 0.  1.
          1    1    1    2  501    0  0.54765690778E+02  0.34043218447E+02  0.40867724913E+02  0.76343909699E+02  0.00000000000E+00 0. -1.
<scales pt_clust_5="13000.00000" pt_clust_6="13000.00000" pt_clust_7="13000.00000" pt_clust_8="13000.00000" pt_clust_9="105.65373" pt_clust_10="13000.00000"></scales>
<clustering>
<clus scale="   93.075">  7  8 -1 -1</clus>
<clus scale="   93.394">  5  6 -1 -1</clus>
<clus scale="   64.484">  5 10 -1 -1</clus>
<clus scale="  104.663">  1  7  2 -1</clus>
<clus scale="  105.654">  2  9  1 -1</clus>
<clus scale="  105.654">  2  5  1 -1</clus>
</clustering>
</event>
<event>
10    2  0.5692308E-006  0.3262917E+03  0.7546771E-02  0.1093927E+00
         21   -1    0    0  503  502  0.00000000000E+00  0.00000000000E+00  0.15875694751E+03  0.15875694751E+03  0.00000000000E+00 0. -1.
          2   -1    0    0  502    0 -0.00000000000E+00 -0.00000000000E+00 -0.55419010493E+03  0.55419010493E+03  0.00000000000E+00 0. -1.
         23    2    1    2    0    0  0.16458825854E+03 -0.39854624975E+02 -0.54205747829E+02  0.20091691679E+03  0.93550298638E+02 0.  0.
         23    2    1    2    0    0 -0.10827077058E+03  0.86253228507E+02 -0.37269650608E+03  0.40809183435E+03  0.92054768636E+02 0.  0.
        -13    1    4    4    0    0 -0.76111056405E+02  0.34101514084E+01 -0.14795970064E+03  0.16642294028E+03  0.00000000000E+00 0. -1.
         13    1    4    4    0    0 -0.32159714176E+02  0.82843077098E+02 -0.22473680545E+03  0.24166889407E+03  0.00000000000E+00 0.  1.
        -13    1    3    3    0    0  0.65682368486E+02 -0.45222039887E+01 -0.68396375298E+02  0.94935177952E+02  0.00000000000E+00 0.  1.
         13    1    3    3    0    0  0.98905890051E+02 -0.35332420986E+02  0.14190627469E+02  0.10598173884E+03  0.00000000000E+00 0. -1.
         21    1    1    2  503  501 -0.14338137110E+02  0.15230180348E+02  0.19150223310E+02  0.28359683039E+02  0.00000000000E+00 0. -1.
          2    1    1    2  501    0 -0.41979350846E+02 -0.61628783880E+02  0.12318873185E+02  0.75578618249E+02  0.00000000000E+00 0. -1.
<scales pt_clust_5="13000.00000" pt_clust_6="13000.00000" pt_clust_7="13000.00000" pt_clust_8="13000.00000" pt_clust_9="20.91747" pt_clust_10="13000.00000"></scales>
<clustering>
<clus scale="   20.917">  1  9  2 -1</clus>
<clus scale="   92.055">  5  6 -1 -1</clus>
<clus scale="   73.400">  5 10 -1 -1</clus>
<clus scale="   93.550">  7  8 -1 -1</clus>
<clus scale="  185.295">  2  7  1 -1</clus>
<clus scale="   20.917">  1  5  2 -1</clus>
</clustering>
</event>
<event>
10    2  0.5692308E-006  0.3166182E+03  0.7546771E-02  0.1080323E+00
         21   -1    0    0  503  502  0.00000000000E+00  0.00000000000E+00  0.36995580890E+03  0.36995580890E+03  0.00000000000E+00 0.  1.
         -3   -1    0    0    0  501 -0.00000000000E+00 -0.00000000000E+00 -0.11679204463E+04  0.11679204463E+04  0.00000000000E+00 0.  1.
         23    2    1    2    0    0  0.21703062946E+03 -0.17402169184E+03 -0.95129577620E+03  0.99644619865E+03  0.10274010726E+03 0.  0.
         23    2    1    2    0    0 -0.18133819585E+03  0.14529351456E+03 -0.60217217871E+02  0.25649526371E+03  0.90387832843E+02 0.  0.
        -13    1    3    3    0    0  0.11587595420E+03 -0.79720946526E+02 -0.31010037808E+03  0.34050684364E+03  0.00000000000E+00 0. -1.
         13    1    3    3    0    0  0.10115467527E+03 -0.94300745313E+02 -0.64119539811E+03  0.65593935502E+03  0.00000000000E+00 0.  1.
        -13    1    4    4    0    0 -0.15533764484E+03  0.15418728662E+03 -0.40278369658E+02  0.22254404131E+03  0.00000000000E+00 0.  1.
         13    1    4    4    0    0 -0.26000551013E+02 -0.88937720540E+01 -0.19938848213E+02  0.33951222399E+02  0.00000000000E+00 0. -1.
         21    1    1    2  503  501 -0.12096010552E+00  0.56565973870E+02  0.23000674961E+03  0.23686035738E+03  0.00000000000E+00 0.  1.
         -3    1    1    2    0  502 -0.35571473504E+02 -0.27837796594E+02 -0.16458392945E+02  0.48074435460E+02  0.00000000000E+00 0.  1.
<scales pt_clust_5="13000.00000" pt_clust_6="13000.00000" pt_clust_7="13000.00000" pt_clust_8="13000.00000" pt_clust_9="56.56610" pt_clust_10="13000.00000"></scales>
<clustering>
<clus scale="   56.566">  1  9  2 -1</clus>
<clus scale="   90.388">  7  8 -1 -1</clus>
<clus scale="   41.467">  7 10 -1 -1</clus>
<clus scale="  102.740">  5  6 -1 -1</clus>
<clus scale="  291.144">  2  5  1 -1</clus>
<clus scale="   56.566">  1  5  2 -1</clus>
</clustering>
</event>
<event>
10    2  0.5692308E-006  0.4597981E+03  0.7546771E-02  0.1045917E+00
         21   -1    0    0  501  502  0.00000000000E+00  0.00000000000E+00  0.21915878923E+03  0.21915878923E+03  0.00000000000E+00 0. -1.
          3   -1    0    0  503    0 -0.00000000000E+00 -0.00000000000E+00 -0.73248599655E+03  0.73248599655E+03  0.00000000000E+00 0. -1.
         23    2    1    2    0    0 -0.42545999628E+02 -0.22094003565E+03 -0.26911807497E+03  0.36137082391E+03  0.86831288492E+02 0.  0.
         23    2    1    2    0    0  0.12392174110E+02  0.37416022754E+02 -0.31309774625E+03  0.32828576732E+03  0.90486582325E+02 0.  0.
        -11    1    3    3    0    0 -0.30177725379E+02 -0.80532313560E+02 -0.46188639786E+02  0.97619358130E+02  0.00000000000E+00 0.  1.
         11    1    3    3    0    0 -0.12368274249E+02 -0.14040772209E+03 -0.22292943518E+03  0.26375146578E+03  0.00000000000E+00 0. -1.
        -11    1    4    4    0    0 -0.17217515865E+02 -0.22403317470E+02 -0.13876185672E+03  0.14160933714E+03  0.00000000000E+00 0.  1.
         11    1    4    4    0    0  0.29609689975E+02  0.59819340224E+02 -0.17433588953E+03  0.18667643018E+03  0.00000000000E+00 0. -1.
         21    1    1    2  503  502  0.11475936349E+02 -0.29588636412E+02  0.31689097663E+02  0.44848449589E+02  0.00000000000E+00 0. -1.
          3    1    1    2  501    0  0.18677889169E+02  0.21311264931E+03  0.37199516231E+02  0.21713974497E+03  0.00000000000E+00 0. -1.
<scales pt_clust_5="13000.00000" pt_clust_6="13000.00000" pt_clust_7="13000.00000" pt_clust_8="13000.00000" pt_clust_9="31.73617" pt_clust_10="13000.00000"></scales>
<clustering>
<clus scale="   31.736">  1  9  2 -1</clus>
<clus scale="   86.831">  5  6 -1 -1</clus>
<clus scale="   90.487">  7  8 -1 -1</clus>
<clus scale="  194.162">  7 10 -1 -1</clus>
<clus scale="  247.618">  2  5  1 -1</clus>
<clus scale="   31.736">  1  5  2 -1</clus>
</clustering>
</event>
<event>
10    2  0.5692308E-006  0.2425267E+03  0.7546771E-02  0.1131965E+00
          2   -1    0    0  503    0 -0.00000000000E+00  0.00000000000E+00  0.49673278044E+03  0.49673278044E+03  0.00000000000E+00 0. -1.
         21   -1    0    0  501  502  0.00000000000E+00 -0.00000000000E+00 -0.15879507797E+03  0.15879507797E+03  0.00000000000E+00 0.  1.
         23    2    1    2    0    0  0.11769233533E+03 -0.81252798163E+02  0.31100885521E+03  0.35374499446E+03  0.89193666145E+02 0.  0.
         23    2    1    2    0    0 -0.82649365879E+02 -0.24431473103E+02  0.57836385878E+02  0.13720096966E+03  0.89728724414E+02 0.  0.
        -11    1    3    3    0    0  0.11610873809E+03 -0.45190207418E+02  0.27877469542E+03  0.30535016737E+03  0.00000000000E+00 0.  1.
         11    1    3    3    0    0  0.15835972421E+01 -0.36062590745E+02  0.32234159792E+02  0.48394827089E+02  0.00000000000E+00 0. -1.
        -13    1    4    4    0    0 -0.86084400593E+02  0.76812465480E+01  0.59394175126E+02  0.10486750504E+03  0.00000000000E+00 0. -1.
         13    1    4    4    0    0  0.34350347144E+01 -0.32112719650E+02 -0.15577892479E+01  0.32333464618E+02  0.00000000000E+00 0.  1.
         21    1    1    2  503  502  0.28483814771E+02 -0.11239531427E+01 -0.28466216847E+02  0.40285437519E+02  0.00000000000E+00 0.  1.
          2    1    1    2  501    0 -0.63526784225E+02  0.10680822441E+03 -0.24413217781E+01  0.12429645678E+03  0.00000000000E+00 0. -1.
<scales pt_clust_5="13000.00000" pt_clust_6="13000.00000" pt_clust_7="13000.00000" pt_clust_8="13000.00000" pt_clust_9="28.50598" pt_clust_10="13000.00000"></scales>
<clustering>
<clus scale="   28.506">  2  9  1 -1</clus>
<clus scale="   89.194">  5  6 -1 -1</clus>
<clus scale="   89.729">  7  8 -1 -1</clus>
<clus scale="  117.000">  7 10 -1 -1</clus>
<clus scale="  172.092">  1  5  2 -1</clus>
<clus scale="   28.506">  2  5  1 -1</clus>
</clustering>
</event>
<event>
10    2  0.5692308E-006  0.2128543E+03  0.7546771E-02  0.1146806E+00
         21   -1    0    0  501  502  0.00000000000E+00  0.00000000000E+00  0.93404359778E+03  0.93404359778E+03  0.00000000000E+00 0.  1.
          4   -1    0    0  503    0 -0.00000000000E+00 -0.00000000000E+00 -0.85429858539E+02  0.85429858539E+02  0.00000000000E+00 0. -1.
         23    2    1    2    0    0 -0.69533305672E+02 -0.10265275037E+03  0.17484793259E+03  0.23384161747E+03  0.93475316397E+02 0.  0.
         23    2    1    2    0    0  0.81813015789E+02  0.10317264133E+03  0.20462631223E+03  0.25976864491E+03  0.90938758241E+02 0.  0.
        -13    1    4    4    0    0 -0.48326306775E+01  0.59989756372E+02  0.54851165865E+02  0.81429574391E+02  0.00000000000E+00 0. -1.
         13    1    4    4    0    0  0.86645646466E+02  0.43182884956E+02  0.14977514637E+03  0.17833907052E+03  0.00000000000E+00 0.  1.
        -13    1    3    3    0    0 -0.91327476678E+02 -0.70705873889E+02  0.11828624145E+03  0.16532290680E+03  0.00000000000E+00 0. -1.
         13    1    3    3    0    0  0.21794171006E+02 -0.31946876481E+02  0.56561691143E+02  0.68518710669E+02  0.00000000000E+00 0.  1.
         21    1    1    2  503  502 -0.21689625780E+02 -0.61315299244E+02  0.45891403792E+03  0.46349983817E+03  0.00000000000E+00 0.  1.
          4    1    1    2  501    0  0.94099156630E+01  0.60795408286E+02  0.10225456505E+02  0.62363355764E+02  0.00000000000E+00 0. -1.
<scales pt_clust_5="13000.00000" pt_clust_6="13000.00000" pt_clust_7="13000.00000" pt_clust_8="13000.00000" pt_clust_9="65.03849" pt_clust_10="13000.00000"></scales>
<clustering>
<clus scale="   65.038">  1  9  2 -1</clus>
<clus scale="   90.939">  5  6 -1 -1</clus>
<clus scale="   56.621">  5 10 -1 -1</clus>
<clus scale="   93.475">  7  8 -1 -1</clus>
<clus scale="  177.888">  2  7  1 -1</clus>
<clus scale="   65.038">  1  5  2 -1</clus>
</clustering>
</event>
<event>
10    2  0.5692308E-006  0.3659170E+03  0.7546771E-02  0.1071429E+00
          2   -1    0    0  503    0 -0.00000000000E+00  0.00000000000E+00  0.10063536279E+04  0.10063536279E+04  0.00000000000E+00 0. -1.
         21   -1    0    0  501  502  0.00000000000E+00 -0.00000000000E+00 -0.11466486080E+03  0.11466486080E+03  0.00000000000E+00 0. -1.
         23    2    1    2    0    0 -0.12845656868E+03  0.18325658318E+03  0.54342223413E+03  0.59481078720E+03  0.91695598058E+02 0.  0.
         23    2    1    2    0    0  0.12413655743E+02  0.49620304923E+02  0.12022825577E+03  0.15989003493E+03  0.92161359994E+02 0.  0.
        -11    1    3    3    0    0 -0.11949416226E+03  0.16411419183E+03  0.53470780906E+03  0.57194821780E+03  0.00000000000E+00 0. -1.
         11    1    3    3    0    0 -0.89624064233E+01  0.19142391342E+02  0.87144250744E+01  0.22862569400E+02  0.00000000000E+00 0.  1.
        -11    1    4    4    0    0 -0.11523520978E+02  0.71561294800E+02  0.76014614233E+02  0.10503348050E+03  0.00000000000E+00 0. -1.
         11    1    4    4    0    0  0.23937176721E+02 -0.21940989877E+02  0.44213641535E+02  0.54856554430E+02  0.00000000000E+00 0.  1.
         21    1    1    2  503  502  0.21151697969E+02  0.53946978320E+01 -0.18352224456E+01  0.21905824183E+02  0.00000000000E+00 0.  1.
          2    1    1    2  501    0  0.94891214968E+02 -0.23827158593E+03  0.22987349967E+03  0.34441184241E+03  0.00000000000E+00 0. -1.
<scales pt_clust_5="13000.00000" pt_clust_6="13000.00000" pt_clust_7="13000.00000" pt_clust_8="13000.00000" pt_clust_9="21.82881" pt_clust_10="13000.00000"></scales>
<clustering>
<clus scale="   21.829">  2  9  1 -1</clus>
<clus scale="   91.696">  5  6 -1 -1</clus>
<clus scale="   92.161">  7  8 -1 -1</clus>
<clus scale="  240.120">  1  5  2 -1</clus>
<clus scale="  115.063">  7 10 -1 -1</clus>
<clus scale="   21.829">  2  5  1 -1</clus>
</clustering>
</event>
<event>
10    2  0.5692308E-006  0.6425002E+03  0.7546771E-02  0.1029593E+00
         21   -1    0    0  503  502  0.00000000000E+00  0.00000000000E+00  0.21044691049E+03  0.21044691049E+03  0.00000000000E+00 0. -1.
          1   -1    0    0  502    0 -0.00000000000E+00 -0.00000000000E+00 -0.12097807234E+04  0.12097807234E+04  0.00000000000E+00 0. -1.
         23    2    1    2    0    0 -0.10732185837E+03 -0.25363732191E+02 -0.14327494438E+03  0.20365840446E+03  0.93742924136E+02 0.  0.
         23    2    1    2    0    0  0.31254106855E+03  0.17873896623E+03 -0.74506137630E+03  0.83258347844E+03  0.91919837575E+02 0.  0.
        -13    1    3    3    0    0 -0.12192803041E+03 -0.82066838861E+01 -0.12062041796E+03  0.17170637580E+03  0.00000000000E+00 0.  1.
         13    1    3    3    0    0  0.14606172044E+02 -0.17157048305E+02 -0.22654526414E+02  0.31952028658E+02  0.00000000000E+00 0. -1.
        -13    1    4    4    0    0  0.20400405869E+03  0.11601938974E+03 -0.57714481677E+03  0.62303635069E+03  0.00000000000E+00 0. -1.
         13    1    4    4    0    0  0.10853700985E+03  0.62719576493E+02 -0.16791655953E+03  0.20954712775E+03  0.00000000000E+00 0.  1.
         21    1    1    2  503  501  0.80989302140E+01 -0.56890451218E+02  0.68179993103E+02  0.89166291668E+02  0.00000000000E+00 0. -1.
          1    1    1    2  501    0 -0.21331814039E+03 -0.96484782825E+02 -0.17917748529E+03  0.29481945928E+03  0.00000000000E+00 0. -1.
<scales pt_clust_5="13000.00000" pt_clust_6="13000.00000" pt_clust_7="13000.00000" pt_clust_8="13000.00000" pt_clust_9="57.46404" pt_clust_10="13000.00000"></scales>
<clustering>
<clus scale="   57.464">  1  9  2 -1</clus>
<clus scale="   91.920">  7  8 -1 -1</clus>
<clus scale="   93.743">  5  6 -1 -1</clus>
<clus scale="  146.237">  2  5  1 -1</clus>
<clus scale="  270.706">  7 10 -1 -1</clus>
<clus scale="   57.464">  1  5  2 -1</clus>
</clustering>
</event>
<event>
10    2  0.5692308E-006  0.2599310E+03  0.7546771E-02  0.1127376E+00
          2   -1    0    0  503    0 -0.00000000000E+00  0.00000000000E+00  0.66486325096E+03  0.66486325096E+03  0.00000000000E+00 0. -1.
         21   -1    0    0  501  502  0.00000000000E+00 -0.00000000000E+00 -0.17747383283E+03  0.17747383283E+03  0.00000000000E+00 0.  1.
         23    2    1    2    0    0  0.78057174084E+02 -0.79834847875E+02  0.24490207656E+03  0.28413999684E+03  0.91060339023E+02 0.  0.
         23    2    1    2    0    0 -0.78053260945E+02  0.10179449639E+03  0.35495789243E+03  0.38861392665E+03  0.92581032328E+02 0.  0.
        -13    1    4    4    0    0 -0.51877073765E+02  0.50118547993E+01  0.17518319809E+03  0.18277172200E+03  0.00000000000E+00 0.  1.
         13    1    4    4    0    0 -0.26176187180E+02  0.96782641586E+02  0.17977469435E+03  0.20584220465E+03  0.00000000000E+00 0. -1.
        -13    1    3    3    0    0  0.45668326093E+02 -0.80596715973E+02  0.10275414802E+03  0.13834681626E+03  0.00000000000E+00 0.  1.
         13    1    3    3    0    0  0.32388847991E+02  0.76186809864E+00  0.14214792854E+03  0.14579318059E+03  0.00000000000E+00 0. -1.
         21    1    1    2  503  502  0.52572143031E+02 -0.26326267612E+02 -0.98984550173E+02  0.11512968237E+03  0.00000000000E+00 0.  1.
          2    1    1    2  501    0 -0.52576056170E+02  0.43666191012E+01 -0.13486000681E+02  0.54453477934E+02  0.00000000000E+00 0. -1.
<scales pt_clust_5="13000.00000" pt_clust_6="13000.00000" pt_clust_7="13000.00000" pt_clust_8="13000.00000" pt_clust_9="58.79543" pt_clust_10="13000.00000"></scales>
<clustering>
<clus scale="   58.795">  2  9  1 -1</clus>
<clus scale="   91.060">  7  8 -1 -1</clus>
<clus scale="   92.581">  5  6 -1 -1</clus>
<clus scale="   28.462">  5 10 -1 -1</clus>
<clus scale="  156.476">  1  7  2 -1</clus>
<clus scale="   58.795">  2  5  1 -1</clus>
</clustering>
</event>
<event>
10    2  0.5692308E-006  0.5978446E+03  0.7546771E-02  0.1033499E+00
          1   -1    0    0  503    0 -0.00000000000E+00  0.00000000000E+00  0.18193045127E+04  0.18193045127E+04  0.00000000000E+00 0. -1.
         21   -1    0    0  501  502  0.00000000000E+00 -0.00000000000E+00 -0.43266533810E+03  0.43266533810E+03  0.00000000000E+00 0. -1.
         23    2    1    2    0    0  0.12033495908E+03  0.72343164945E+02  0.36370382480E+03  0.40072114875E+03  0.92644109346E+02 0.  0.
         23    2    1    2    0    0  0.11185326949E+03  0.19911822243E+03  0.64633817814E+03  0.69156828784E+03  0.91402602940E+02 0.  0.
        -13    1    3    3    0    0  0.85689875243E+02  0.51722104748E+01  0.24875626670E+03  0.26315240204E+03  0.00000000000E+00 0.  1.
         13    1    3    3    0    0  0.34645083833E+02  0.67170954470E+02  0.11494755810E+03  0.13756874671E+03  0.00000000000E+00 0. -1.
        -13    1    4    4    0    0  0.10330304841E+02  0.99238099666E+02  0.20836551604E+03  0.23102186887E+03  0.00000000000E+00 0.  1.
         13    1    4    4    0    0  0.10152296465E+03  0.99880122762E+02  0.43797266211E+03  0.46054641897E+03  0.00000000000E+00 0. -1.
         21    1    1    2  503  502 -0.59624779869E+02  0.27978893323E+02 -0.34943481446E+03  0.35558771408E+03  0.00000000000E+00 0. -1.
          1    1    1    2  501    0 -0.17256344870E+03 -0.29944028070E+03  0.72603198613E+03  0.80409270014E+03  0.00000000000E+00 0. -1.
<scales pt_clust_5="13000.00000" pt_clust_6="13000.00000" pt_clust_7="13000.00000" pt_clust_8="13000.00000" pt_clust_9="65.86299" pt_clust_10="13000.00000"></scales>
<clustering>
<clus scale="   65.863">  2  9  1 -1</clus>
<clus scale="   91.403">  7  8 -1 -1</clus>
<clus scale="   92.644">  5  6 -1 -1</clus>
<clus scale="  161.708">  1  5  2 -1</clus>
<clus scale="  282.748">  7 10 -1 -1</clus>
<clus scale="   65.863">  2  5  1 -1</clus>
</clustering>
</event>
<event>
10    2  0.5692308E-006  0.6704423E+03  0.7546771E-02  0.1012632E+00
         21   -1    0    0  501  502  0.00000000000E+00  0.00000000000E+00  0.48298643822E+03  0.48298643822E+03  0.00000000000E+00 0. -1.
          2   -1    0    0  503    0 -0.00000000000E+00 -0.00000000000E+00 -0.54975412045E+03  0.54975412045E+03  0.00000000000E+00 0. -1.
         23    2    1    2    0    0 -0.71266820228E+02  0.18427695420E+03 -0.43155316862E+02  0.22060211739E+03  0.88124669139E+02 0.  0.
         23    2    1    2    0    0 -0.10188008683E+03 -0.10294974403E+03 -0.30371737538E+03  0.34880960550E+03  0.91900461841E+02 0.  0.
        -11    1    4    4    0    0 -0.55595434614E+02 -0.11098057454E+03 -0.23101950779E+03  0.26225474877E+03  0.00000000000E+00 0. -1.
         11    1    4    4    0    0 -0.46284652218E+02  0.80308305039E+01 -0.72697867593E+02  0.86554856721E+02  0.00000000000E+00 0.  1.
        -13    1    3    3    0    0 -0.50813057470E+02  0.17399452436E+03 -0.61346038116E+02  0.19136195470E+03  0.00000000000E+00 0. -1.
         13    1    3    3    0    0 -0.20453762757E+02  0.10282429843E+02  0.18190721254E+02  0.29240162690E+02  0.00000000000E+00 0.  1.
         21    1    1    2  503  502 -0.90702296960E+02 -0.49445776434E+02  0.78216511752E+02  0.12957474365E+03  0.00000000000E+00 0. -1.
          2    1    1    2  501    0  0.26384920402E+03 -0.31881433731E+02  0.20188849827E+03  0.33375409213E+03  0.00000000000E+00 0. -1.
<scales pt_clust_5="13000.00000" pt_clust_6="13000.00000" pt_clust_7="13000.00000" pt_clust_8="13000.00000" pt_clust_9="103.30436" pt_clust_10="13000.00000"></scales>
<clustering>
<clus scale="   88.125">  7  8 -1 -1</clus>
<clus scale="   91.900">  5  6 -1 -1</clus>
<clus scale="  103.304">  1  9  2 -1</clus>
<clus scale="  210.647">  5 10 -1 -1</clus>
<clus scale="  214.821">  2  7  1 -1</clus>
<clus scale="  103.304">  1  5  2 -1</clus>
</clustering>
</event>
<event>
10    2  0.5692308E-006  0.2672163E+03  0.7546771E-02  0.1145834E+00
         21   -1    0    0  503  502  0.00000000000E+00  0.00000000000E+00  0.37726746299E+03  0.37726746299E+03  0.00000000000E+00 0.  1.
          1   -1    0    0  502    0 -0.00000000000E+00 -0.00000000000E+00 -0.53012501793E+03  0.53012501793E+03  0.00000000000E+00 0. -1.
         23    2    1    2    0    0  0.20212951263E+01  0.95278268389E+01 -0.27140550002E+03  0.28658065584E+03  0.91502249923E+02 0.  0.
         23    2    1    2    0    0 -0.57433463420E+00  0.27972634127E+02 -0.15652263240E+03  0.17964005806E+03  0.83596757616E+02 0.  0.
        -11    1    4    4    0    0  0.17546510475E+02  0.53236186883E+02 -0.87160812530E+02  0.10362904450E+03  0.00000000000E+00 0. -1.
         11    1    4    4    0    0 -0.18120845110E+02 -0.25263552756E+02 -0.69361819872E+02  0.76011013552E+02  0.00000000000E+00 0.  1.
        -13    1    3    3    0    0 -0.38995903913E+02 -0.84951595864E+01 -0.73184428315E+02  0.83359515391E+02  0.00000000000E+00 0.  1.
         13    1    3    3    0    0  0.41017199039E+02  0.18022986425E+02 -0.19822107170E+03  0.20322114045E+03  0.00000000000E+00 0. -1.
         21    1    1    2  503  501 -0.96761213584E+02  0.58761140200E+02  0.28367817529E+03  0.30543233488E+03  0.00000000000E+00 0.  1.
          1    1    1    2  501    0  0.95314253092E+02 -0.96261601166E+02 -0.86075978126E+01  0.13573943215E+03  0.00000000000E+00 0. -1.
<scales pt_clust_5="13000.00000" pt_clust_6="13000.00000" pt_clust_7="13000.00000" pt_clust_8="13000.00000" pt_clust_9="113.34610" pt_clust_10="13000.00000"></scales>
<clustering>
<clus scale="   83.597">  5  6 -1 -1</clus>
<clus scale="   91.502">  7  8 -1 -1</clus>
<clus scale="   92.019">  2  7  1 -1</clus>
<clus scale="  113.346">  1  9  2 -1</clus>
<clus scale="   51.889">  5 10 -1 -1</clus>
<clus scale="  113.346">  1  5  2 -1</clus>
</clustering>
</event>
<event>
10    2  0.5692308E-006  0.1968941E+03  0.7546771E-02  0.1162815E+00
         21   -1    0    0  501  502  0.00000000000E+00  0.00000000000E+00  0.32303653120E+03  0.32303653120E+03  0.00000000000E+00 0.  1.
          3   -1    0    0  503    0 -0.00000000000E+00 -0.00000000000E+00 -0.24505221662E+03  0.24505221662E+03  0.00000000000E+00 0. -1.
         23    2    1    2    0    0 -0.11197557838E+03 -0.71140696168E+02 -0.63612177931E+02  0.17178557614E+03  0.88680585160E+02 0.  0.
         23    2    1    2    0    0  0.20626554184E+02  0.14358219423E+03 -0.55546913618E+01  0.17267551858E+03  0.93512987767E+02 0.  0.
        -11    1    3    3    0    0 -0.43365849435E+02 -0.33421360905E+02 -0.74799238877E+02  0.92695794934E+02  0.00000000000E+00 0.  1.
         11    1    3    3    0    0 -0.68609728949E+02 -0.37719335263E+02  0.11187060946E+02  0.79089781210E+02  0.00000000000E+00 0. -1.
        -11    1    4    4    0    0  0.32669780666E+02  0.49677926127E+01 -0.57322219355E+01  0.33538811853E+02  0.00000000000E+00 0. -1.
         11    1    4    4    0    0 -0.12043226482E+02  0.13861440162E+03  0.17753057361E+00  0.13913670672E+03  0.00000000000E+00 0.  1.
         21    1    1    2  503  502  0.70991022324E+02 -0.58449072118E+02  0.16785685731E+03  0.19139473302E+03  0.00000000000E+00 0.  1.
          3    1    1    2  501    0  0.20358001877E+02 -0.13992425946E+02 -0.20705673439E+02  0.32232920079E+02  0.00000000000E+00 0. -1.
<scales pt_clust_5="13000.00000" pt_clust_6="13000.00000" pt_clust_7="13000.00000" pt_clust_8="13000.00000" pt_clust_9="91.95662" pt_clust_10="13000.00000"></scales>
<clustering>
<clus scale="   88.681">  5  6 -1 -1</clus>
<clus scale="   91.957">  1  9  2 -1</clus>
<clus scale="   93.513">  7  8 -1 -1</clus>
<clus scale="   28.387">  7 10 -1 -1</clus>
<clus scale="  154.295">  2  5  1 -1</clus>
<clus scale="   91.957">  1  5  2 -1</clus>
</clustering>
</event>
<event>
10    2  0.5692308E-006  0.2661073E+03  0.7546771E-02  0.1128667E+00
         -2   -1    0    0    0  501 -0.00000000000E+00  0.00000000000E+00  0.10203445913E+04  0.10203445913E+04  0.00000000000E+00 0.  1.
         21   -1    0    0  501  502  0.00000000000E+00 -0.00000000000E+00 -0.17879579556E+03  0.17879579556E+03  0.00000000000E+00 0.  1.
         23    2    1    2    0    0 -0.14950650308E+02  0.90106040492E+02 -0.46004527758E+02  0.13756380033E+03  0.92004141803E+02 0.  0.
         23    2    1    2    0    0  0.13811059538E+02 -0.16439808074E+03  0.69886303526E+03  0.72378752835E+03  0.90781990644E+02 0.  0.
        -11    1    4    4    0    0 -0.24633134318E+02 -0.94096696367E+01  0.14439726254E+03  0.14678522616E+03  0.00000000000E+00 0. -1.
         11    1    4    4    0    0  0.38444193855E+02 -0.15498841110E+03  0.55446577271E+03  0.57700230219E+03  0.00000000000E+00 0.  1.
        -11    1    3    3    0    0  0.35021997735E+02  0.12699805206E+02 -0.17182893633E+02  0.41025324024E+02  0.00000000000E+00 0.  1.
         11    1    3    3    0    0 -0.49972648043E+02  0.77406235287E+02 -0.28821634125E+02  0.96538476305E+02  0.00000000000E+00 0. -1.
         21    1    1    2  503  502  0.54072479905E+02  0.15417295030E+02 -0.56754557531E+02  0.79891212719E+02  0.00000000000E+00 0.  1.
         -2    1    1    2    0  503 -0.52932889135E+02  0.58874745216E+02  0.24544484579E+03  0.25789784547E+03  0.00000000000E+00 0.  1.
<scales pt_clust_5="13000.00000" pt_clust_6="13000.00000" pt_clust_7="13000.00000" pt_clust_8="13000.00000" pt_clust_9="56.22745" pt_clust_10="13000.00000"></scales>
<clustering>
<clus scale="   56.227">  2  9  1 -1</clus>
<clus scale="   90.782">  5  6 -1 -1</clus>
<clus scale="   77.832">  5 10 -1 -1</clus>
<clus scale="   92.004">  7  8 -1 -1</clus>
<clus scale="  141.261">  1  7  2 -1</clus>
<clus scale="   56.227">  2  5  1 -1</clus>
</clustering>
</event>
<event>
10    2  0.5692308E-006  0.3002207E+03  0.7546771E-02  0.1103392E+00
          1   -1    0    0  503    0 -0.00000000000E+00  0.00000000000E+00  0.10307075419E+03  0.10307075419E+03  0.00000000000E+00 0. -1.
         21   -1    0    0  501  502  0.00000000000E+00 -0.00000000000E+00 -0.91101239755E+03  0.91101239755E+03  0.00000000000E+00 0. -1.
         23    2    1    2    0    0 -0.49333741542E+02 -0.19010850958E+03 -0.36308134528E+03  0.42229881153E+03  0.89068285380E+02 0.  0.
         23    2    1    2    0    0  0.63210239901E+02 -0.31776462680E+02 -0.15380887310E+03  0.19202291886E+03  0.90611003281E+02 0.  0.
        -13    1    3    3    0    0 -0.38894760038E+02 -0.16143269963E+03 -0.21797918384E+03  0.27402234116E+03  0.00000000000E+00 0. -1.
         13    1    3    3    0    0 -0.10438981504E+02 -0.28675809956E+02 -0.14510216144E+03  0.14827647037E+03  0.00000000000E+00 0.  1.
        -13    1    4    4    0    0  0.61018649914E+02 -0.76104884819E+01 -0.34985631789E+02  0.70747364643E+02  0.00000000000E+00 0.  1.
         13    1    4    4    0    0  0.21915899861E+01 -0.24165974198E+02 -0.11882324131E+03  0.12127555422E+03  0.00000000000E+00 0. -1.
         21    1    1    2  503  502  0.39625291746E+02  0.65799671015E+02 -0.15156119980E+02  0.78290921725E+02  0.00000000000E+00 0.  1.
          1    1    1    2  501    0 -0.53501790104E+02  0.15608530125E+03 -0.27589530500E+03  0.32147049963E+03  0.00000000000E+00 0. -1.
<scales pt_clust_5="13000.00000" pt_clust_6="13000.00000" pt_clust_7="13000.00000" pt_clust_8="13000.00000" pt_clust_9="76.80994" pt_clust_10="13000.00000"></scales>
<clustering>
<clus scale="   76.810">  2  9  1 -1</clus>
<clus scale="   89.068">  5  6 -1 -1</clus>
<clus scale="   90.611">  7  8 -1 -1</clus>
<clus scale="  183.202">  7 10 -1 -1</clus>
<clus scale="  185.964">  1  5  2 -1</clus>
<clus scale="   76.810">  2  5  1 -1</clus>
</clustering>
</event>
<event>
10    2  0.5692308E-006  0.1881694E+03  0.7546771E-02  0.1175165E+00
          1   -1    0    0  503    0 -0.00000000000E+00  0.00000000000E+00  0.68542546041E+03  0.68542546041E+03  0.00000000000E+00 0. -1.
         21   -1    0    0  501  502  0.00000000000E+00 -0.00000000000E+00 -0.16161637795E+03  0.16161637795E+03  0.00000000000E+00 0.  1.
         23    2    1    2    0    0  0.13014145668E+03  0.68749611849E+02  0.18555498916E+03  0.25386964694E+03  0.91410260680E+02 0.  0.
         23    2    1    2    0    0 -0.42777827168E+02 -0.23614560881E+02  0.30576414132E+03  0.32353553247E+03  0.93786676419E+02 0.  0.
        -11    1    3    3    0    0  0.75054584433E+02  0.13576339318E+01  0.13147482183E+03  0.15139571522E+03  0.00000000000E+00 0. -1.
         11    1    3    3    0    0  0.55086872250E+02  0.67391977918E+02  0.54080167333E+02  0.10247393171E+03  0.00000000000E+00 0.  1.
        -11    1    4    4    0    0  0.26095713027E+02 -0.22177688883E+02  0.70249173916E+02  0.78152303603E+02  0.00000000000E+00 0.  1.
         11    1    4    4    0    0 -0.68873540195E+02 -0.14368719973E+01  0.23551496740E+03  0.24538322887E+03  0.00000000000E+00 0. -1.
         21    1    1    2  503  502 -0.52086443643E+02 -0.10609765650E+03 -0.75832415828E+02  0.14042886319E+03  0.00000000000E+00 0.  1.
          1    1    1    2  501    0 -0.35277185872E+02  0.60962605531E+02  0.10832236781E+03  0.12920779576E+03  0.00000000000E+00 0. -1.
<scales pt_clust_5="13000.00000" pt_clust_6="13000.00000" pt_clust_7="13000.00000" pt_clust_8="13000.00000" pt_clust_9="118.19353" pt_clust_10="13000.00000"></scales>
<clustering>
<clus scale="   91.410">  5  6 -1 -1</clus>
<clus scale="   93.787">  7  8 -1 -1</clus>
<clus scale="   70.434">  7 10 -1 -1</clus>
<clus scale="  118.194">  2  9  1 -1</clus>
<clus scale="  133.200">  1  5  2 -1</clus>
<clus scale="  118.194">  2  5  1 -1</clus>
</clustering>
</event>
<event>
10    2  0.5692308E-006  0.5825991E+03  0.7546771E-02  0.1041858E+00
          1   -1    0    0  503    0 -0.00000000000E+00  0.00000000000E+00  0.49634063092E+03  0.49634063092E+03  0.00000000000E+00 0. -1.
         21   -1    0    0  501  502  0.00000000000E+00 -0.00000000000E+00 -0.30856797755E+03  0.30856797755E+03  0.00000000000E+00 0.  1.
         23    2    1    2    0    0 -0.97415204597E+02  0.36281175840E+02  0.46757875051E+02  0.14879803515E+03  0.95647846696E+02 0.  0.
         23    2    1    2    0    0  0.19644507084E+03  0.20949964552E+03  0.14226817673E+03  0.33292398901E+03  0.90096509434E+02 0.  0.
        -11    1    3    3    0    0 -0.55301413165E+02  0.54927274627E+02 -0.67055986755E+01  0.78231814817E+02  0.00000000000E+00 0. -1.
         11    1    3    3    0    0 -0.42113791432E+02 -0.18646098788E+02  0.53463473726E+02  0.70566220330E+02  0.00000000000E+00 0.  1.
        -11    1    4    4    0    0  0.18582459833E+03  0.14677858835E+03  0.10353408960E+03  0.25844543534E+03  0.00000000000E+00 0.  1.
         11    1    4    4    0    0  0.10620472516E+02  0.62721057175E+02  0.38734087134E+02  0.74478553663E+02  0.00000000000E+00 0. -1.
         21    1    1    2  503  502  0.30479062828E+02 -0.81317614901E+01 -0.38737017596E+02  0.49956534588E+02  0.00000000000E+00 0.  1.
          1    1    1    2  501    0 -0.12950892907E+03 -0.23764905987E+03  0.37483619188E+02  0.27323004973E+03  0.00000000000E+00 0. -1.
<scales pt_clust_5="13000.00000" pt_clust_6="13000.00000" pt_clust_7="13000.00000" pt_clust_8="13000.00000" pt_clust_9="31.54519" pt_clust_10="13000.00000"></scales>
<clustering>
<clus scale="   31.545">  2  9  1 -1</clus>
<clus scale="   90.097">  7  8 -1 -1</clus>
<clus scale="   95.648">  5  6 -1 -1</clus>
<clus scale="  136.862">  1  5  2 -1</clus>
<clus scale="  273.469">  7 10 -1 -1</clus>
<clus scale="   31.545">  2  5  1 -1</clus>
</clustering>
</event>
<event>
10    2  0.5692308E-006  0.4164712E+03  0.7546771E-02  0.1069050E+00
          3   -1    0    0  502    0 -0.00000000000E+00  0.00000000000E+00  0.65548951673E+03  0.65548951673E+03  0.00000000000E+00 0. -1.
         21   -1    0    0  503  502  0.00000000000E+00 -0.00000000000E+00 -0.44607987478E+03  0.44607987478E+03  0.00000000000E+00 0. -1.
         23    2    1    2    0    0 -0.14274708130E+03 -0.91957313074E+00  0.23559471082E+03  0.29040894083E+03  0.91950586266E+02 0.  0.
         23    2    1    2    0    0  0.45975475495E+02 -0.29750793722E+02  0.34860174796E+03  0.36512398236E+03  0.93773608953E+02 0.  0.
        -11    1    3    3    0    0 -0.86537660536E+02  0.38650872455E+02  0.96518487336E+02  0.13527185602E+03  0.00000000000E+00 0. -1.
         11    1    3    3    0    0 -0.56209420763E+02 -0.39570445586E+02  0.13907622348E+03  0.15513708482E+03  0.00000000000E+00 0.  1.
        -13    1    4    4    0    0  0.51643049233E+02  0.13619604577E+02  0.26943935296E+03  0.27468174873E+03  0.00000000000E+00 0.  1.
         13    1    4    4    0    0 -0.56675737376E+01 -0.43370398299E+02  0.79162395003E+02  0.90442233627E+02  0.00000000000E+00 0. -1.
         21    1    1    2  503  501 -0.24588380429E+02  0.30037719559E+02 -0.30207670992E+03  0.30456065360E+03  0.00000000000E+00 0. -1.
          3    1    1    2  501    0  0.12135998623E+03  0.63264729372E+00 -0.72710106913E+02  0.14147581471E+03  0.00000000000E+00 0. -1.
<scales pt_clust_5="13000.00000" pt_clust_6="13000.00000" pt_clust_7="13000.00000" pt_clust_8="13000.00000" pt_clust_9="38.81821" pt_clust_10="13000.00000"></scales>
<clustering>
<clus scale="   38.818">  2  9  1 -1</clus>
<clus scale="   91.951">  5  6 -1 -1</clus>
<clus scale="   93.774">  7  8 -1 -1</clus>
<clus scale="  105.490">  7 10 -1 -1</clus>
<clus scale="  173.854">  1  5  2 -1</clus>
<clus scale="   38.818">  2  5  1 -1</clus>
</clustering>
</event>
<event>
10    2  0.5692308E-006  0.4005404E+03  0.7546771E-02  0.1072350E+00
         21   -1    0    0  503  502  0.00000000000E+00  0.00000000000E+00  0.30997360623E+03  0.30997360623E+03  0.00000000000E+00 0. -1.
          2   -1    0    0  502    0 -0.00000000000E+00 -0.00000000000E+00 -0.42312494360E+03  0.42312494360E+03  0.00000000000E+00 0. -1.
         23    2    1    2    0    0  0.14572788596E+03 -0.55557736819E+02  0.52981418079E+02  0.18920119237E+03  0.93095551254E+02 0.  0.
         23    2    1    2    0    0 -0.21526649804E+02  0.19466595197E+02 -0.26021358093E+03  0.27730110200E+03  0.91337005013E+02 0.  0.
        -13    1    3    3    0    0  0.94693686937E+01 -0.41852200625E+02  0.16208329782E+01  0.42940688631E+02  0.00000000000E+00 0.  1.
         13    1    3    3    0    0  0.13625851727E+03 -0.13705536195E+02  0.51360585100E+02  0.14626050373E+03  0.00000000000E+00 0. -1.
        -13    1    4    4    0    0 -0.30221131864E+02  0.53024613862E+02 -0.17302849967E+03  0.18347694184E+03  0.00000000000E+00 0.  1.
         13    1    4    4    0    0  0.86944820602E+01 -0.33558018665E+02 -0.87185081261E+02  0.93824160159E+02  0.00000000000E+00 0. -1.
         21    1    1    2  503  501  0.13124239564E+02  0.96097963451E+02  0.18447723680E+02  0.98728834454E+02  0.00000000000E+00 0. -1.
          2    1    1    2  501    0 -0.13732547572E+03 -0.60006821829E+02  0.75633101810E+02  0.16786742101E+03  0.00000000000E+00 0. -1.
<scales pt_clust_5="13000.00000" pt_clust_6="13000.00000" pt_clust_7="13000.00000" pt_clust_8="13000.00000" pt_clust_9="96.99002" pt_clust_10="13000.00000"></scales>
<clustering>
<clus scale="   91.337">  7  8 -1 -1</clus>
<clus scale="   93.096">  5  6 -1 -1</clus>
<clus scale="   96.990">  1  9  2 -1</clus>
<clus scale="  131.660">  7 10 -1 -1</clus>
<clus scale="  178.527">  2  5  1 -1</clus>
<clus scale="   96.990">  1  5  2 -1</clus>
</clustering>
</event>
<event>
10    2  0.5692308E-006  0.2196198E+03  0.7546771E-02  0.1171565E+00
          3   -1    0    0  503    0 -0.00000000000E+00  0.00000000000E+00  0.54500553867E+02  0.54500553867E+02  0.00000000000E+00 0. -1.
         21   -1    0    0  501  502  0.00000000000E+00 -0.00000000000E+00 -0.95594759753E+03  0.95594759753E+03  0.00000000000E+00 0. -1.
         23    2    1    2    0    0  0.28801327875E+01  0.17324078051E+02 -0.25421546510E+02  0.93869670722E+02  0.88638824503E+02 0.  0.
         23    2    1    2    0    0 -0.55993556874E+02  0.51967642561E+02 -0.30397671201E+03  0.32649995945E+03  0.91457464380E+02 0.  0.
        -11    1    3    3    0    0 -0.26945869813E+02 -0.25875021454E+02 -0.15497228195E+02  0.40444538778E+02  0.00000000000E+00 0.  1.
         11    1    3    3    0    0  0.29826002601E+02  0.43199099505E+02 -0.99243183150E+01  0.53425131944E+02  0.00000000000E+00 0. -1.
        -13    1    4    4    0    0  0.23453498412E+02  0.68718099206E+01 -0.10096756083E+03  0.10388328402E+03  0.00000000000E+00 0.  1.
         13    1    4    4    0    0 -0.79447055286E+02  0.45095832640E+02 -0.20300915119E+03  0.22261667543E+03  0.00000000000E+00 0. -1.
         21    1    1    2  503  502  0.21235236519E+02  0.29529749163E+02 -0.22178450108E+03  0.22474720526E+03  0.00000000000E+00 0.  1.
          3    1    1    2  501    0  0.31878187568E+02 -0.98821469775E+02 -0.35026428406E+03  0.36533131596E+03  0.00000000000E+00 0. -1.
<scales pt_clust_5="13000.00000" pt_clust_6="13000.00000" pt_clust_7="13000.00000" pt_clust_8="13000.00000" pt_clust_9="36.37226" pt_clust_10="13000.00000"></scales>
<clustering>
<clus scale="   36.372">  2  9  1 -1</clus>
<clus scale="   88.639">  5  6 -1 -1</clus>
<clus scale="   90.925">  1  5  2 -1</clus>
<clus scale="   91.457">  7  8 -1 -1</clus>
<clus scale="   88.906">  7 10 -1 -1</clus>
<clus scale="   36.372">  2  5  1 -1</clus>
</clustering>
</event>
<event>
10    2  0.5692308E-006  0.5716856E+03  0.7546771E-02  0.1012210E+00
         21   -1    0    0  501  502  0.00000000000E+00  0.00000000000E+00  0.11170277202E+03  0.11170277202E+03  0.00000000000E+00 0. -1.
          2   -1    0    0  503    0 -0.00000000000E+00 -0.00000000000E+00 -0.24436053112E+04  0.24436053112E+04  0.00000000000E+00 0. -1.
         23    2    1    2    0    0 -0.28426418483E+03 -0.19316810965E+03 -0.14478526493E+04  0.14908463249E+04  0.90694127859E+02 0.  0.
         23    2    1    2    0    0  0.22463997229E+03  0.25338768707E+03 -0.83013467171E+03  0.90128839638E+03  0.92351303080E+02 0.  0.
        -11    1    4    4    0    0  0.23114004655E+03  0.22756444403E+03 -0.76812188799E+03  0.83380005524E+03  0.00000000000E+00 0.  1.
         11    1    4    4    0    0 -0.65000742623E+01  0.25823243035E+02 -0.62012783719E+02  0.67488341147E+02  0.00000000000E+00 0. -1.
        -11    1    3    3    0    0 -0.19327600674E+03 -0.11769874401E+03 -0.76241014932E+03  0.79528475712E+03  0.00000000000E+00 0. -1.
         11    1    3    3    0    0 -0.90988178094E+02 -0.75469365640E+02 -0.68544250002E+03  0.69556156775E+03  0.00000000000E+00 0.  1.
         21    1    1    2  503  502  0.68922847805E+01  0.30741679926E+02 -0.48574680840E+02  0.57896926455E+02  0.00000000000E+00 0. -1.
          2    1    1    2  501    0  0.52731927764E+02 -0.90961257342E+02 -0.53405373428E+01  0.10527643555E+03  0.00000000000E+00 0. -1.
<scales pt_clust_5="13000.00000" pt_clust_6="13000.00000" pt_clust_7="13000.00000" pt_clust_8="13000.00000" pt_clust_9="31.50483" pt_clust_10="13000.00000"></scales>
<clustering>
<clus scale="   31.505">  1  9  2 -1</clus>
<clus scale="   90.694">  7  8 -1 -1</clus>
<clus scale="   92.351">  5  6 -1 -1</clus>
<clus scale="   94.866">  5 10 -1 -1</clus>
<clus scale="  351.018">  2  7  1 -1</clus>
<clus scale="   31.505">  1  5  2 -1</clus>
</clustering>
</event>
<event>
10    2  0.5692308E-006  0.3431989E+03  0.7546771E-02  0.1101232E+00
          3   -1    0    0  502    0 -0.00000000000E+00  0.00000000000E+00  0.22442399350E+03  0.22442399350E+03  0.00000000000E+00 0. -1.
         21   -1    0    0  503  502  0.00000000000E+00 -0.00000000000E+00 -0.85665067312E+03  0.85665067312E+03  0.00000000000E+00 0. -1.
         23    2    1    2    0    0  0.15025354026E+02  0.93624421655E+02  0.14706115229E+03  0.19733009087E+03  0.91218905138E+02 0.  0.
         23    2    1    2    0    0 -0.49365580827E+01  0.39036981642E+02 -0.16730889322E+02  0.10093245240E+03  0.91428560907E+02 0.  0.
        -11    1    4    4    0    0 -0.34297078108E+02  0.54948131050E+02 -0.18879630969E+02  0.67468712291E+02  0.00000000000E+00 0.  1.
         11    1    4    4    0    0  0.29360520026E+02 -0.15911149409E+02  0.21487416468E+01  0.33463740113E+02  0.00000000000E+00 0. -1.
        -11    1    3    3    0    0 -0.15991319596E+02 -0.12047715982E+02  0.34267715100E+02  0.39688109819E+02  0.00000000000E+00 0.  1.
         11    1    3    3    0    0  0.31016673622E+02  0.10567213764E+03  0.11279343719E+03  0.15764198105E+03  0.00000000000E+00 0. -1.
         21    1    1    2  503  501  0.35570091707E+02 -0.41495714139E+01 -0.24429795122E+03  0.24690876724E+03  0.00000000000E+00 0. -1.
          3    1    1    2  501    0 -0.45658887650E+02 -0.12851183188E+03 -0.51825899137E+03  0.53590335611E+03  0.00000000000E+00 0. -1.
<scales pt_clust_5="13000.00000" pt_clust_6="13000.00000" pt_clust_7="13000.00000" pt_clust_8="13000.00000" pt_clust_9="35.81132" pt_clust_10="13000.00000"></scales>
<clustering>
<clus scale="   35.811">  2  9  1 -1</clus>
<clus scale="   91.219">  7  8 -1 -1</clus>
<clus scale="   91.429">  5  6 -1 -1</clus>
<clus scale="  131.630">  1  7  2 -1</clus>
<clus scale="  115.378">  5 10 -1 -1</clus>
<clus scale="   35.811">  2  5  1 -1</clus>
</clustering>
</event>
<event>
10    2  0.5692308E-006  0.6076814E+03  0.7546771E-02  0.1014806E+00
          1   -1    0    0  503    0 -0.00000000000E+00  0.00000000000E+00  0.69993383627E+03  0.69993383627E+03  0.00000000000E+00 0. -1.
         21   -1    0    0  501  502  0.00000000000E+00 -0.00000000000E+00 -0.39881801562E+03  0.39881801562E+03  0.00000000000E+00 0. -1.
         23    2    1    2    0    0  0.15429958270E+03  0.18989120083E+03  0.46621557368E+02  0.26541869764E+03  0.91686891486E+02 0.  0.
         23    2    1    2    0    0 -0.25128530877E+02 -0.51749115573E+02  0.31552518979E+03  0.34040333360E+03  0.11405643386E+03 0.  0.
        -11    1    4    4    0    0 -0.63052499973E+02 -0.62010404748E+02  0.22119382865E+03  0.23821758517E+03  0.00000000000E+00 0.  1.
         11    1    4    4    0    0  0.37923969096E+02  0.10261289175E+02  0.94331361141E+02  0.10218574843E+03  0.00000000000E+00 0. -1.
        -13    1    3    3    0    0  0.12526306445E+03  0.83170019493E+02  0.20249520984E+02  0.15171727178E+03  0.00000000000E+00 0.  1.
         13    1    3    3    0    0  0.29036518251E+02  0.10672118134E+03  0.26372036384E+02  0.11370142585E+03  0.00000000000E+00 0. -1.
         21    1    1    2  503  502 -0.10460199716E+03  0.10700973178E+03  0.11617256601E+03  0.18944319887E+03  0.00000000000E+00 0. -1.
          1    1    1    2  501    0 -0.24569054663E+02 -0.24515181703E+03 -0.17720349252E+03  0.30348662178E+03  0.00000000000E+00 0. -1.
<scales pt_clust_5="13000.00000" pt_clust_6="13000.00000" pt_clust_7="13000.00000" pt_clust_8="13000.00000" pt_clust_9="149.64185" pt_clust_10="13000.00000"></scales>
<clustering>
<clus scale="   91.687">  7  8 -1 -1</clus>
<clus scale="  114.056">  5  6 -1 -1</clus>
<clus scale="  149.642">  2  9  1 -1</clus>
<clus scale="  197.883">  5 10 -1 -1</clus>
<clus scale="  269.892">  1  7  2 -1</clus>
<clus scale="  149.642">  2  5  1 -1</clus>
</clustering>
</event>
<event>
10    2  0.5692308E-006  0.1754404E+03  0.7546771E-02  0.1200161E+00
          3   -1    0    0  503    0 -0.00000000000E+00  0.00000000000E+00  0.21305077071E+03  0.21305077071E+03  0.00000000000E+00 0. -1.
         21   -1    0    0  501  502  0.00000000000E+00 -0.00000000000E+00 -0.26472240314E+03  0.26472240314E+03  0.00000000000E+00 0. -1.
         23    2    1    2    0    0  0.63380307523E+01 -0.19996562014E+02  0.66923861327E+02  0.11375137491E+03  0.89557461735E+02 0.  0.
         23    2    1    2    0    0  0.21785373586E+02  0.25816502496E+01  0.82569744802E+02  0.12398775487E+03  0.89855067640E+02 0.  0.
        -11    1    3    3    0    0  0.27116544688E+01 -0.49994245083E+02  0.66868221439E+02  0.83535241962E+02  0.00000000000E+00 0.  1.
         11    1    3    3    0    0  0.36263762836E+01  0.29997683068E+02  0.55639888441E-01  0.30216132946E+02  0.00000000000E+00 0. -1.
        -13    1    4    4    0    0 -0.29019081776E+02  0.18544501983E+02  0.14018399779E+02  0.37182269878E+02  0.00000000000E+00 0.  1.
         13    1    4    4    0    0  0.50804455362E+02 -0.15962851734E+02  0.68551345023E+02  0.86805484991E+02  0.00000000000E+00 0. -1.
         21    1    1    2  503  502 -0.14008727243E+02 -0.38339248697E+02 -0.16957037626E+03  0.17441403307E+03  0.00000000000E+00 0. -1.
          3    1    1    2  501    0 -0.14114677096E+02  0.55754160462E+02 -0.31594862306E+02  0.65620010991E+02  0.00000000000E+00 0. -1.
<scales pt_clust_5="13000.00000" pt_clust_6="13000.00000" pt_clust_7="13000.00000" pt_clust_8="13000.00000" pt_clust_9="40.81841" pt_clust_10="13000.00000"></scales>
<clustering>
<clus scale="   40.818">  2  9  1 -1</clus>
<clus scale="   89.557">  5  6 -1 -1</clus>
<clus scale="   89.855">  7  8 -1 -1</clus>
<clus scale="   41.616">  7 10 -1 -1</clus>
<clus scale="   94.388">  1  5  2 -1</clus>
<clus scale="   40.818">  2  5  1 -1</clus>
</clustering>
</event>
<event>
10    2  0.5692308E-006  0.2626303E+03  0.7546771E-02  0.1127368E+00
         -3   -1    0    0    0  501 -0.00000000000E+00  0.00000000000E+00  0.15042879672E+04  0.15042879672E+04  0.00000000000E+00 0.  1.
         21   -1    0    0  503  502  0.00000000000E+00 -0.00000000000E+00 -0.97495682529E+02  0.97495682529E+02  0.00000000000E+00 0.  1.
         23    2    1    2    0    0  0.75197503741E+01 -0.10684691716E+03  0.43341741643E+03  0.45636940137E+03  0.94602131536E+02 0.  0.
         23    2    1    2    0    0 -0.78964718264E+01  0.16966323666E+03  0.86207282210E+03  0.88317545639E+03  0.89338502556E+02 0.  0.
        -13    1    3    3    0    0 -0.37638001219E+02 -0.19976674867E+02  0.17257630365E+03  0.17775901455E+03  0.00000000000E+00 0.  1.
         13    1    3    3    0    0  0.45157751593E+02 -0.86870242295E+02  0.26084111278E+03  0.27861038681E+03  0.00000000000E+00 0. -1.
        -13    1    4    4    0    0  0.18814574068E+02  0.16217811698E+03  0.70368968268E+03  0.72238140849E+03  0.00000000000E+00 0.  1.
         13    1    4    4    0    0 -0.26711045895E+02  0.74851196784E+01  0.15838313941E+03  0.16079404790E+03  0.00000000000E+00 0. -1.
         21    1    1    2  503  501 -0.62487596700E+02 -0.27449832610E+02 -0.50622529270E+02  0.84975487768E+02  0.00000000000E+00 0.  1.
         -3    1    1    2    0  502  0.62864318152E+02 -0.35366486885E+02  0.16192457543E+03  0.17726330421E+03  0.00000000000E+00 0.  1.
<scales pt_clust_5="13000.00000" pt_clust_6="13000.00000" pt_clust_7="13000.00000" pt_clust_8="13000.00000" pt_clust_9="68.25096" pt_clust_10="13000.00000"></scales>
<clustering>
<clus scale="   68.251">  2  9  1 -1</clus>
<clus scale="   89.339">  7  8 -1 -1</clus>
<clus scale="   63.134">  7 10 -1 -1</clus>
<clus scale="   94.602">  5  6 -1 -1</clus>
<clus scale="  151.729">  1  5  2 -1</clus>
<clus scale="   68.251">  2  5  1 -1</clus>
</clustering>
</event>
<event>
10    2  0.5692308E-006  0.1291860E+03  0.7546771E-02  0.1240890E+00
          1   -1    0    0  502    0 -0.00000000000E+00  0.00000000000E+00  0.37813141201E+03  0.37813141201E+03  0.00000000000E+00 0. -1.
         21   -1    0    0  503  502  0.00000000000E+00 -0.00000000000E+00 -0.70022716496E+02  0.70022716496E+02  0.00000000000E+00 0. -1.
         23    2    1    2    0    0  0.10963896198E+02 -0.16529638127E+02  0.45386958435E+02  0.10675638802E+03  0.94570156132E+02 0.  0.
         23    2    1    2    0    0 -0.11871840292E+02 -0.21105098500E+01  0.19089264197E+03  0.21226046574E+03  0.92027766004E+02 0.  0.
        -11    1    4    4    0    0  0.21493065983E+02 -0.16101359693E+02  0.11428683191E+02  0.29185963558E+02  0.00000000000E+00 0.  1.
         11    1    4    4    0    0 -0.33364906274E+02  0.13990849843E+02  0.17946395878E+03  0.18307450218E+03  0.00000000000E+00 0. -1.
        -13    1    3    3    0    0 -0.40515525615E+02 -0.13747716911E+02  0.91809115504E+01  0.43758389744E+02  0.00000000000E+00 0. -1.
         13    1    3    3    0    0  0.51479421813E+02 -0.27819212161E+01  0.36206046885E+02  0.62997998277E+02  0.00000000000E+00 0.  1.
         21    1    1    2  503  501  0.11200097820E+02 -0.17965372176E+02 -0.20385863925E+02  0.29390138424E+02  0.00000000000E+00 0. -1.
          1    1    1    2  501    0 -0.10292153727E+02  0.36605520153E+02  0.92214959038E+02  0.99747136322E+02  0.00000000000E+00 0. -1.
<scales pt_clust_5="13000.00000" pt_clust_6="13000.00000" pt_clust_7="13000.00000" pt_clust_8="13000.00000" pt_clust_9="21.17066" pt_clust_10="13000.00000"></scales>
<clustering>
<clus scale="   21.171">  2  9  1 -1</clus>
<clus scale="   92.028">  5  6 -1 -1</clus>
<clus scale="   36.332">  5 10 -1 -1</clus>
<clus scale="   94.570">  7  8 -1 -1</clus>
<clus scale="  100.573">  1  7  2 -1</clus>
<clus scale="   21.171">  2  5  1 -1</clus>
</clustering>
</event>
<event>
10    2  0.5692308E-006  0.1683274E+03  0.7546771E-02  0.1192227E+00
         21   -1    0    0  501  502  0.00000000000E+00  0.00000000000E+00  0.23404163771E+02  0.23404163771E+02  0.00000000000E+00 0. -1.
          1   -1    0    0  503    0 -0.00000000000E+00 -0.00000000000E+00 -0.12389647604E+04  0.12389647604E+04  0.00000000000E+00 0. -1.
         23    2    1    2    0    0 -0.90258703605E+02  0.20596870748E+01 -0.57543265422E+03  0.58944500809E+03  0.90398020600E+02 0.  0.
         23    2    1    2    0    0  0.10325268629E+03 -0.54343756294E+01 -0.47790258263E+03  0.49760528640E+03  0.92355253812E+02 0.  0.
        -13    1    4    4    0    0  0.70375993577E+02 -0.47439369107E+02 -0.27421240808E+03  0.28704654493E+03  0.00000000000E+00 0. -1.
         13    1    4    4    0    0  0.32876692714E+02  0.42004993478E+02 -0.20369017455E+03  0.21055874147E+03  0.00000000000E+00 0.  1.
        -13    1    3    3    0    0 -0.97718659135E+02 -0.22378687889E+02 -0.49507601931E+03  0.50512375405E+03  0.00000000000E+00 0. -1.
         13    1    3    3    0    0  0.74599555308E+01  0.24438374964E+02 -0.80356634913E+02  0.84321254035E+02  0.00000000000E+00 0.  1.
         21    1    1    2  503  502  0.46741261653E+01  0.27321629833E+02 -0.34934189890E+02  0.44595028147E+02  0.00000000000E+00 0. -1.
          1    1    1    2  501    0 -0.17668108852E+02 -0.23946941278E+02 -0.12729116991E+03  0.13072360156E+03  0.00000000000E+00 0. -1.
<scales pt_clust_5="13000.00000" pt_clust_6="13000.00000" pt_clust_7="13000.00000" pt_clust_8="13000.00000" pt_clust_9="27.71857" pt_clust_10="13000.00000"></scales>
<clustering>
<clus scale="   27.719">  1  9  2 -1</clus>
<clus scale="   90.398">  7  8 -1 -1</clus>
<clus scale="   92.355">  5  6 -1 -1</clus>
<clus scale="   27.496">  5 10 -1 -1</clus>
<clus scale="  127.107">  2  7  1 -1</clus>
<clus scale="   27.719">  1  5  2 -1</clus>
</clustering>
</event>
<event>
10    2  0.5692308E-006  0.5942535E+03  0.7546771E-02  0.1042427E+00
         21   -1    0    0  503  502  0.00000000000E+00  0.00000000000E+00  0.22503317334E+03  0.22503317334E+03  0.00000000000E+00 0.  1.
         -3   -1    0    0    0  501 -0.00000000000E+00 -0.00000000000E+00 -0.70216921648E+03  0.70216921648E+03  0.00000000000E+00 0.  1.
         23    2    1    2    0    0 -0.54827278374E+02 -0.71661840376E+02 -0.13550867979E+03  0.18840958742E+03  0.94837337128E+02 0.  0.
         23    2    1    2    0    0 -0.53326364823E+02 -0.11207043433E+02 -0.50653141585E+03  0.51759119005E+03  0.91418082249E+02 0.  0.
        -13    1    3    3    0    0 -0.31298299234E+02 -0.52953219178E+02 -0.13795465612E+02  0.63039208654E+02  0.00000000000E+00 0.  1.
         13    1    3    3    0    0 -0.23528979139E+02 -0.18708621198E+02 -0.12171321418E+03  0.12537037876E+03  0.00000000000E+00 0. -1.
        -13    1    4    4    0    0 -0.77621512367E+02 -0.54900158076E+01 -0.43307289396E+03  0.44000837598E+03  0.00000000000E+00 0.  1.
         13    1    4    4    0    0  0.24295147544E+02 -0.57170276250E+01 -0.73458521897E+02  0.77582814066E+02  0.00000000000E+00 0. -1.
         21    1    1    2  503  501  0.32632524532E+02  0.29764422778E+02  0.17998409879E+02  0.47694289793E+02  0.00000000000E+00 0. -1.
         -3    1    1    2    0  502  0.75521118665E+02  0.53104461030E+02  0.14690564262E+03  0.17350732255E+03  0.00000000000E+00 0.  1.
<scales pt_clust_5="13000.00000" pt_clust_6="13000.00000" pt_clust_7="13000.00000" pt_clust_8="13000.00000" pt_clust_9="44.16789" pt_clust_10="13000.00000"></scales>
<clustering>
<clus scale="   44.168">  1  9  2 -1</clus>
<clus scale="   91.418">  7  8 -1 -1</clus>
<clus scale="   94.837">  5  6 -1 -1</clus>
<clus scale="  126.858">  2  5  1 -1</clus>
<clus scale="  123.088">  7 10 -1 -1</clus>
<clus scale="   44.168">  1  5  2 -1</clus>
</clustering>
</event>
<event>
10    2  0.5692308E-006  0.2938410E+03  0.7546771E-02  0.1111122E+00
         -1   -1    0    0    0  501 -0.00000000000E+00  0.00000000000E+00  0.68688388345E+03  0.68688388345E+03  0.00000000000E+00 0.  1.
         21   -1    0    0  501  502  0.00000000000E+00 -0.00000000000E+00 -0.14737389952E+03  0.14737389952E+03  0.00000000000E+00 0.  1.
         23    2    1    2    0    0 -0.61256355854E+02  0.13287848607E+03  0.42800848348E+03  0.46120108911E+03  0.90034157265E+02 0.  0.
         23    2    1    2    0    0 -0.30675522059E+02  0.46094510047E+02  0.12725701832E+03  0.16629382469E+03  0.91616570063E+02 0.  0.
        -11    1    4    4    0    0 -0.61586000307E+02  0.18466424857E+02  0.89635828859E+02  0.11031058923E+03  0.00000000000E+00 0.  1.
         11    1    4    4    0    0  0.30910478248E+02  0.27628085190E+02  0.37621189457E+02  0.55983235464E+02  0.00000000000E+00 0. -1.
        -13    1    3    3    0    0 -0.84825301422E+02  0.97572122301E+02  0.32741487644E+03  0.35201726112E+03  0.00000000000E+00 0.  1.
         13    1    3    3    0    0  0.23568945568E+02  0.35306363771E+02  0.10059360704E+03  0.10918382799E+03  0.00000000000E+00 0. -1.
         21    1    1    2  503  502  0.15706170280E+02 -0.66154750719E+02 -0.18898364474E+02  0.70571120207E+02  0.00000000000E+00 0.  1.
         -1    1    1    2    0  503  0.76225707634E+02 -0.11281824540E+03  0.31428466078E+01  0.13619174896E+03  0.00000000000E+00 0.  1.
<scales pt_clust_5="13000.00000" pt_clust_6="13000.00000" pt_clust_7="13000.00000" pt_clust_8="13000.00000" pt_clust_9="67.99364" pt_clust_10="13000.00000"></scales>
<clustering>
<clus scale="   67.994">  2  9  1 -1</clus>
<clus scale="   90.034">  7  8 -1 -1</clus>
<clus scale="   91.617">  5  6 -1 -1</clus>
<clus scale="  162.733">  1  7  2 -1</clus>
<clus scale="  114.248">  5 10 -1 -1</clus>
<clus scale="   67.994">  2  5  1 -1</clus>
</clustering>
</event>
<event>
10    2  0.5692308E-006  0.3694850E+03  0.7546771E-02  0.1090718E+00
          1   -1    0    0  503    0 -0.00000000000E+00  0.00000000000E+00  0.38326894409E+03  0.38326894409E+03  0.00000000000E+00 0. -1.
         21   -1    0    0  501  502  0.00000000000E+00 -0.00000000000E+00 -0.22328564477E+03  0.22328564477E+03  0.00000000000E+00 0.  1.
         23    2    1    2    0    0  0.49799729803E+02 -0.96427095826E+02  0.15979001584E+03  0.21287989318E+03  0.89480734582E+02 0.  0.
         23    2    1    2    0    0  0.12369203815E+03  0.97139130386E+02  0.82302251933E+01  0.18063488105E+03  0.88461814878E+02 0.  0.
        -11    1    3    3    0    0  0.68930532747E+02 -0.78422300810E+02  0.15387015436E+03  0.18595026220E+03  0.00000000000E+00 0. -1.
         11    1    3    3    0    0 -0.19130802944E+02 -0.18004795016E+02  0.59198614758E+01  0.26929630980E+02  0.00000000000E+00 0.  1.
        -13    1    4    4    0    0  0.60449598147E+02  0.45605230724E+02  0.48227786227E+02  0.89777003457E+02  0.00000000000E+00 0. -1.
         13    1    4    4    0    0  0.63242440004E+02  0.51533899663E+02 -0.39997561034E+02  0.90857877593E+02  0.00000000000E+00 0.  1.
         21    1    1    2  503  502  0.96709157039E+01  0.25864177719E+02 -0.41114791982E+01  0.27917495604E+02  0.00000000000E+00 0. -1.
          1    1    1    2  501    0 -0.18316268366E+03 -0.26576212279E+02 -0.39254625103E+01  0.18512231902E+03  0.00000000000E+00 0. -1.
<scales pt_clust_5="13000.00000" pt_clust_6="13000.00000" pt_clust_7="13000.00000" pt_clust_8="13000.00000" pt_clust_9="27.61308" pt_clust_10="13000.00000"></scales>
<clustering>
<clus scale="   27.613">  2  9  1 -1</clus>
<clus scale="   88.462">  7  8 -1 -1</clus>
<clus scale="   89.481">  5  6 -1 -1</clus>
<clus scale="  138.860">  1  5  2 -1</clus>
<clus scale="  165.736">  7 10 -1 -1</clus>
<clus scale="   27.613">  2  5  1 -1</clus>
</clustering>
</event>
<event>
10    2  0.5692308E-006  0.2256067E+03  0.7546771E-02  0.1145508E+00
         21   -1    0    0  503  502  0.00000000000E+00  0.00000000000E+00  0.15873660922E+03  0.15873660922E+03  0.00000000000E+00 0. -1.
          1   -1    0    0  502    0 -0.00000000000E+00 -0.00000000000E+00 -0.38263385983E+03  0.38263385983E+03  0.00000000000E+00 0. -1.
         23    2    1    2    0    0  0.11662552059E+03  0.34925493359E+02 -0.92343740086E+02  0.17788745135E+03  0.91078410580E+02 0.  0.
         23    2    1    2    0    0  0.57318607282E+01  0.93521906424E+01 -0.77092461429E+02  0.12042690159E+03  0.91864429023E+02 0.  0.
        -13    1    3    3    0    0  0.43907869552E+02  0.35137551142E+02  0.49134616768E+01  0.56450780460E+02  0.00000000000E+00 0.  1.
         13    1    3    3    0    0  0.72717651038E+02 -0.21205778343E+00 -0.97257201763E+02  0.12143667089E+03  0.00000000000E+00 0. -1.
        -13    1    4    4    0    0 -0.75149280618E+01  0.41641445387E+02 -0.80620459486E+01  0.43075291091E+02  0.00000000000E+00 0. -1.
         13    1    4    4    0    0  0.13246788790E+02 -0.32289254744E+02 -0.69030415480E+02  0.77351610498E+02  0.00000000000E+00 0.  1.
         21    1    1    2  503  501  0.12950721652E+02 -0.29586690384E+02  0.58076362930E+02  0.66452670152E+02  0.00000000000E+00 0. -1.
          1    1    1    2  501    0 -0.13530810297E+03 -0.14690993617E+02 -0.11253741202E+03  0.17660344597E+03  0.00000000000E+00 0. -1.
<scales pt_clust_5="13000.00000" pt_clust_6="13000.00000" pt_clust_7="13000.00000" pt_clust_8="13000.00000" pt_clust_9="32.29696" pt_clust_10="13000.00000"></scales>
<clustering>
<clus scale="   32.297">  1  9  2 -1</clus>
<clus scale="   91.078">  5  6 -1 -1</clus>
<clus scale="   91.864">  7  8 -1 -1</clus>
<clus scale="  133.282">  7 10 -1 -1</clus>
<clus scale="  154.093">  2  5  1 -1</clus>
<clus scale="   32.297">  1  5  2 -1</clus>
</clustering>
</event>
<event>
10    2  0.5692308E-006  0.4620499E+03  0.7546771E-02  0.1057234E+00
          2   -1    0    0  503    0 -0.00000000000E+00  0.00000000000E+00  0.77726737780E+03  0.77726737780E+03  0.00000000000E+00 0. -1.
         21   -1    0    0  501  502  0.00000000000E+00 -0.00000000000E+00 -0.16254610716E+03  0.16254610716E+03  0.00000000000E+00 0. -1.
         23    2    1    2    0    0 -0.50264362400E+00 -0.16704952684E+03  0.16917847617E+03  0.25281534621E+03  0.85956066761E+02 0.  0.
         23    2    1    2    0    0  0.36186811999E+02  0.24702723713E+03  0.35422301373E+03  0.44291442225E+03  0.91472950840E+02 0.  0.
        -11    1    4    4    0    0  0.21688376075E+02  0.44015740312E+01  0.39304419986E+02  0.45106506639E+02  0.00000000000E+00 0.  1.
         11    1    4    4    0    0  0.14498435924E+02  0.24262566309E+03  0.31491859374E+03  0.39780791561E+03  0.00000000000E+00 0. -1.
        -13    1    3    3    0    0  0.22009960823E+02 -0.89098689102E+02  0.39655907128E+02  0.99978026312E+02  0.00000000000E+00 0.  1.
         13    1    3    3    0    0 -0.22512604447E+02 -0.77950837738E+02  0.12952256904E+03  0.15283731990E+03  0.00000000000E+00 0. -1.
         21    1    1    2  503  502  0.50404945468E+02  0.45845661654E+02  0.54483273604E+02  0.87240531422E+02  0.00000000000E+00 0. -1.
          2    1    1    2  501    0 -0.86089113842E+02 -0.12582337194E+03  0.36836507132E+02  0.15684318508E+03  0.00000000000E+00 0. -1.
<scales pt_clust_5="13000.00000" pt_clust_6="13000.00000" pt_clust_7="13000.00000" pt_clust_8="13000.00000" pt_clust_9="68.13577" pt_clust_10="13000.00000"></scales>
<clustering>
<clus scale="   68.136">  2  9  1 -1</clus>
<clus scale="   85.956">  7  8 -1 -1</clus>
<clus scale="   91.473">  5  6 -1 -1</clus>
<clus scale="  125.405">  5 10 -1 -1</clus>
<clus scale="  176.855">  1  7  2 -1</clus>
<clus scale="   68.136">  2  5  1 -1</clus>
</clustering>
</event>
<event>
10    2  0.5692308E-006  0.4733872E+03  0.7546771E-02  0.1062360E+00
         21   -1    0    0  503  502  0.00000000000E+00  0.00000000000E+00  0.78309919353E+03  0.78309919353E+03  0.00000000000E+00 0.  1.
         -2   -1    0    0    0  501 -0.00000000000E+00 -0.00000000000E+00 -0.43366706030E+03  0.43366706030E+03  0.00000000000E+00 0.  1.
         23    2    1    2    0    0  0.18193827726E+02 -0.10484082012E+03 -0.99991635779E+02  0.17405180432E+03  0.94726397752E+02 0.  0.
         23    2    1    2    0    0 -0.17872466122E+03 -0.71851410125E+02  0.21164970884E+03  0.30052253220E+03  0.91722753143E+02 0.  0.
        -11    1    3    3    0    0  0.50497825887E+02 -0.85054555755E+02 -0.48608233186E+02  0.11021373874E+03  0.00000000000E+00 0.  1.
         11    1    3    3    0    0 -0.32303998162E+02 -0.19786264362E+02 -0.51383402594E+02  0.63838065578E+02  0.00000000000E+00 0. -1.
        -13    1    4    4    0    0 -0.99707975069E+02 -0.83669532154E+02  0.10481961556E+03  0.16712098225E+03  0.00000000000E+00 0.  1.
         13    1    4    4    0    0 -0.79016686151E+02  0.11818122029E+02  0.10683009328E+03  0.13340154995E+03  0.00000000000E+00 0. -1.
         21    1    1    2  503  501  0.38259007831E+03  0.26219615869E+03  0.13557437398E+03  0.48322086516E+03  0.00000000000E+00 0.  1.
         -2    1    1    2    0  502 -0.22205924482E+03 -0.85503928445E+02  0.10219968620E+03  0.25897105214E+03  0.00000000000E+00 0.  1.
<scales pt_clust_5="13000.00000" pt_clust_6="13000.00000" pt_clust_7="13000.00000" pt_clust_8="13000.00000" pt_clust_9="441.53419" pt_clust_10="13000.00000"></scales>
<clustering>
<clus scale="   91.723">  7  8 -1 -1</clus>
<clus scale="   94.726">  5  6 -1 -1</clus>
<clus scale="  142.463">  2  5  1 -1</clus>
<clus scale="  244.978">  7 10 -1 -1</clus>
<clus scale="  441.534">  1  9  2 -1</clus>
<clus scale="  441.534">  1  5  2 -1</clus>
</clustering>
</event>
<event>
10    2  0.5692308E-006  0.1646643E+03  0.7546771E-02  0.1207685E+00
          3   -1    0    0  503    0 -0.00000000000E+00  0.00000000000E+00  0.16539024557E+03  0.16539024557E+03  0.00000000000E+00 0. -1.
         21   -1    0    0  501  502  0.00000000000E+00 -0.00000000000E+00 -0.21063563705E+03  0.21063563705E+03  0.00000000000E+00 0. -1.
         23    2    1    2    0    0  0.26999901378E+02 -0.25087831605E+02  0.68113747120E+02  0.11854962816E+03  0.89755990447E+02 0.  0.
         23    2    1    2    0    0 -0.44933920259E+02  0.35480718082E+02  0.23262305363E+02  0.10979484136E+03  0.90751494719E+02 0.  0.
        -11    1    3    3    0    0  0.33641107166E+02 -0.56006718334E+02  0.48003765583E+02  0.81073041759E+02  0.00000000000E+00 0. -1.
         11    1    3    3    0    0 -0.66412057873E+01  0.30918886729E+02  0.20109981537E+02  0.37476586401E+02  0.00000000000E+00 0.  1.
        -11    1    4    4    0    0 -0.38129676922E+02 -0.17037245639E+02  0.36213670938E+02  0.55277210168E+02  0.00000000000E+00 0. -1.
         11    1    4    4    0    0 -0.68042433370E+01  0.52517963722E+02 -0.12951365575E+02  0.54517631195E+02  0.00000000000E+00 0.  1.
         21    1    1    2  503  502  0.15465353318E+02  0.18573696865E+02 -0.85728731702E+02  0.89070616972E+02  0.00000000000E+00 0. -1.
          3    1    1    2  501    0  0.24686655626E+01 -0.28966583342E+02 -0.50892712264E+02  0.58610796120E+02  0.00000000000E+00 0. -1.
<scales pt_clust_5="13000.00000" pt_clust_6="13000.00000" pt_clust_7="13000.00000" pt_clust_8="13000.00000" pt_clust_9="24.16939" pt_clust_10="13000.00000"></scales>
<clustering>
<clus scale="   24.169">  2  9  1 -1</clus>
<clus scale="   89.756">  5  6 -1 -1</clus>
<clus scale="   90.751">  7  8 -1 -1</clus>
<clus scale="   22.723">  7 10 -1 -1</clus>
<clus scale="   97.052">  1  5  2 -1</clus>
<clus scale="   24.169">  2  5  1 -1</clus>
</clustering>
</event>
<event>
10    2  0.5692308E-006  0.1639542E+03  0.7546771E-02  0.1200570E+00
         21   -1    0    0  501  502  0.00000000000E+00  0.00000000000E+00  0.20051173054E+03  0.20051173054E+03  0.00000000000E+00 0. -1.
         -3   -1    0    0    0  501 -0.00000000000E+00 -0.00000000000E+00 -0.29266517297E+03  0.29266517297E+03  0.00000000000E+00 0.  1.
         23    2    1    2    0    0  0.17591619342E+02  0.79691506344E+02 -0.15027320607E+03  0.19420180143E+03  0.92044021873E+02 0.  0.
         23    2    1    2    0    0 -0.12626313505E+02 -0.56235673269E+02  0.77328291849E+01  0.85410327106E+02  0.62555995624E+02 0.  0.
        -11    1    4    4    0    0 -0.33668987571E+02 -0.18002908078E+02 -0.80201583393E+01  0.39013181915E+02  0.00000000000E+00 0.  1.
         11    1    4    4    0    0  0.21042674066E+02 -0.38232765191E+02  0.15752987524E+02  0.46397145192E+02  0.00000000000E+00 0. -1.
        -11    1    3    3    0    0  0.45858448693E+02  0.54898949045E+02 -0.13659566396E+03  0.15419230634E+03  0.00000000000E+00 0. -1.
         11    1    3    3    0    0 -0.28266829351E+02  0.24792557300E+02 -0.13677542107E+02  0.40009495087E+02  0.00000000000E+00 0.  1.
         21    1    1    2  503  502  0.36200261692E+02 -0.62483364486E+02  0.10980172285E+03  0.13141935978E+03  0.00000000000E+00 0. -1.
         -3    1    1    2    0  503 -0.41165567528E+02  0.39027531411E+02 -0.59414788392E+02  0.82145415195E+02  0.00000000000E+00 0.  1.
<scales pt_clust_5="13000.00000" pt_clust_6="13000.00000" pt_clust_7="13000.00000" pt_clust_8="13000.00000" pt_clust_9="72.21239" pt_clust_10="13000.00000"></scales>
<clustering>
<clus scale="   62.556">  5  6 -1 -1</clus>
<clus scale="   56.725">  5 10 -1 -1</clus>
<clus scale="   72.212">  1  9  2 -1</clus>
<clus scale="   92.044">  7  8 -1 -1</clus>
<clus scale="  114.625">  2  7  1 -1</clus>
<clus scale="   72.212">  1  5  2 -1</clus>
</clustering>
</event>
<event>
10    2  0.5692308E-006  0.2741991E+03  0.7546771E-02  0.1120447E+00
         21   -1    0    0  503  502  0.00000000000E+00  0.00000000000E+00  0.42699661176E+03  0.42699661176E+03  0.00000000000E+00 0.  1.
         -1   -1    0    0    0  501 -0.00000000000E+00 -0.00000000000E+00 -0.36561841789E+03  0.36561841789E+03  0.00000000000E+00 0.  1.
         23    2    1    2    0    0  0.77554461544E+02 -0.11371963412E+03 -0.16524106619E+03  0.23359956847E+03  0.91199225573E+02 0.  0.
         23    2    1    2    0    0 -0.76658764570E+01  0.15834696510E+03 -0.71321600351E+02  0.19651583084E+03  0.91647008007E+02 0.  0.
        -11    1    3    3    0    0  0.91555727257E+02 -0.72331969192E+02 -0.93153310580E+02  0.14930473614E+03  0.00000000000E+00 0.  1.
         11    1    3    3    0    0 -0.14001265713E+02 -0.41387664932E+02 -0.72087755607E+02  0.84294832336E+02  0.00000000000E+00 0. -1.
        -11    1    4    4    0    0 -0.60018085332E+01  0.53792766710E+02  0.19981723009E+02  0.57697077139E+02  0.00000000000E+00 0.  1.
         11    1    4    4    0    0 -0.16640679238E+01  0.10455419839E+03 -0.91303323360E+02  0.13881875370E+03  0.00000000000E+00 0. -1.
         21    1    1    2  503  501 -0.33262920285E+02  0.18322340518E+02  0.28622597150E+03  0.28873419747E+03  0.00000000000E+00 0.  1.
         -1    1    1    2    0  502 -0.36625664802E+02 -0.62949671490E+02  0.11714888902E+02  0.73765432859E+02  0.00000000000E+00 0.  1.
<scales pt_clust_5="13000.00000" pt_clust_6="13000.00000" pt_clust_7="13000.00000" pt_clust_8="13000.00000" pt_clust_9="37.97539" pt_clust_10="13000.00000"></scales>
<clustering>
<clus scale="   37.975">  1  9  2 -1</clus>
<clus scale="   91.199">  5  6 -1 -1</clus>
<clus scale="   91.647">  7  8 -1 -1</clus>
<clus scale="   74.022">  7 10 -1 -1</clus>
<clus scale="  158.322">  2  5  1 -1</clus>
<clus scale="   37.975">  1  5  2 -1</clus>
</clustering>
</event>
<event>
10    2  0.5692308E-006  0.2800785E+03  0.7546771E-02  0.1108215E+00
         21   -1    0    0  503  502  0.00000000000E+00  0.00000000000E+00  0.30109614575E+03  0.30109614575E+03  0.00000000000E+00 0. -1.
          2   -1    0    0  502    0 -0.00000000000E+00 -0.00000000000E+00 -0.55464837679E+03  0.55464837679E+03  0.00000000000E+00 0. -1.
         23    2    1    2    0    0 -0.14305556087E+03 -0.10899281976E+03 -0.41576771649E+03  0.46198497925E+03  0.90680751696E+02 0.  0.
         23    2    1    2    0    0  0.23342073486E+02  0.57200930318E+02 -0.44839454524E+02  0.11845456197E+03  0.90576529776E+02 0.  0.
        -11    1    3    3    0    0 -0.85600657189E+02 -0.11498045721E+03 -0.28464145458E+03  0.31869850284E+03  0.00000000000E+00 0. -1.
         11    1    3    3    0    0 -0.57454903682E+02  0.59876374520E+01 -0.13112626191E+03  0.14328647641E+03  0.00000000000E+00 0.  1.
        -11    1    4    4    0    0 -0.15990303674E+02  0.66903953337E+02 -0.23680440507E+02  0.72750203067E+02  0.00000000000E+00 0. -1.
         11    1    4    4    0    0  0.39332377160E+02 -0.97030230194E+01 -0.21159014018E+02  0.45704358905E+02  0.00000000000E+00 0.  1.
         21    1    1    2  503  501  0.84964704712E+01 -0.26354764886E+02  0.95588565073E+02  0.99518528000E+02  0.00000000000E+00 0. -1.
          2    1    1    2  501    0  0.11121701691E+03  0.78146654325E+02  0.11146637490E+03  0.17578645331E+03  0.00000000000E+00 0. -1.
<scales pt_clust_5="13000.00000" pt_clust_6="13000.00000" pt_clust_7="13000.00000" pt_clust_8="13000.00000" pt_clust_9="27.69050" pt_clust_10="13000.00000"></scales>
<clustering>
<clus scale="   27.690">  1  9  2 -1</clus>
<clus scale="   90.577">  7  8 -1 -1</clus>
<clus scale="   90.681">  5  6 -1 -1</clus>
<clus scale="  131.472">  7 10 -1 -1</clus>
<clus scale="  202.370">  2  5  1 -1</clus>
<clus scale="   27.690">  1  5  2 -1</clus>
</clustering>
</event>
<event>
10    2  0.5692308E-006  0.1859059E+03  0.7546771E-02  0.1176244E+00
         -3   -1    0    0    0  501 -0.00000000000E+00  0.00000000000E+00  0.63027318594E+03  0.63027318594E+03  0.00000000000E+00 0.  1.
         21   -1    0    0  503  502  0.00000000000E+00 -0.00000000000E+00 -0.90864723512E+02  0.90864723512E+02  0.00000000000E+00 0.  1.
         23    2    1    2    0    0 -0.93427041832E+02  0.33218295021E+02  0.16829350118E+03  0.21538105516E+03  0.90742653231E+02 0.  0.
         23    2    1    2    0    0  0.91656437782E+01 -0.14383581746E+02  0.24164330500E+03  0.25867443411E+03  0.90719785944E+02 0.  0.
        -11    1    3    3    0    0 -0.65810468049E+02  0.12357467328E+02  0.30992729490E+02  0.73785323641E+02  0.00000000000E+00 0.  1.
         11    1    3    3    0    0 -0.27616573783E+02  0.20860827693E+02  0.13730077169E+03  0.14159573152E+03  0.00000000000E+00 0. -1.
        -13    1    4    4    0    0  0.41952078496E+01  0.34416930481E+02  0.15755071623E+03  0.16132065292E+03  0.00000000000E+00 0. -1.
         13    1    4    4    0    0  0.49704359287E+01 -0.48800512228E+02  0.84092588772E+02  0.97353781197E+02  0.00000000000E+00 0.  1.
         21    1    1    2  503  501 -0.80291092997E+01 -0.25558247760E+02 -0.43399998150E+02  0.51002455471E+02  0.00000000000E+00 0.  1.
         -3    1    1    2    0  502  0.92290507354E+02  0.67235344850E+01  0.17287165440E+03  0.19607996470E+03  0.00000000000E+00 0.  1.
<scales pt_clust_5="13000.00000" pt_clust_6="13000.00000" pt_clust_7="13000.00000" pt_clust_8="13000.00000" pt_clust_9="26.78975" pt_clust_10="13000.00000"></scales>
<clustering>
<clus scale="   26.790">  2  9  1 -1</clus>
<clus scale="   90.720">  7  8 -1 -1</clus>
<clus scale="   90.157">  7 10 -1 -1</clus>
<clus scale="   90.743">  5  6 -1 -1</clus>
<clus scale="  134.790">  1  5  2 -1</clus>
<clus scale="   26.790">  2  5  1 -1</clus>
</clustering>
</event>
<event>
10    2  0.5692308E-006  0.3995139E+03  0.7546771E-02  0.1095970E+00
          3   -1    0    0  503    0 -0.00000000000E+00  0.00000000000E+00  0.61909590081E+03  0.61909590081E+03  0.00000000000E+00 0. -1.
         21   -1    0    0  501  502  0.00000000000E+00 -0.00000000000E+00 -0.32928629151E+03  0.32928629151E+03  0.00000000000E+00 0. -1.
         23    2    1    2    0    0 -0.17179546008E+02  0.35220773805E+02  0.75663147452E+02  0.12590593728E+03  0.92691711887E+02 0.  0.
         23    2    1    2    0    0  0.27409156663E+00 -0.14216818633E+03  0.39017983591E+03  0.42515571514E+03  0.91132921767E+02 0.  0.
        -13    1    3    3    0    0 -0.38852607859E+02 -0.13212062919E+02  0.11446938408E+02  0.42604179877E+02  0.00000000000E+00 0.  1.
         13    1    3    3    0    0  0.21673061851E+02  0.48432836724E+02  0.64216209044E+02  0.83301757407E+02  0.00000000000E+00 0. -1.
        -13    1    4    4    0    0 -0.55214481864E+00 -0.20020900423E+02  0.44090947337E+01  0.20508082163E+02  0.00000000000E+00 0.  1.
         13    1    4    4    0    0  0.82623638527E+00 -0.12214728591E+03  0.38577074118E+03  0.40464763298E+03  0.00000000000E+00 0. -1.
         21    1    1    2  503  502  0.48856140140E+02 -0.49600599330E+02 -0.22069866296E+03  0.23141962258E+03  0.00000000000E+00 0. -1.
          3    1    1    2  501    0 -0.31950685699E+02  0.15654801186E+03  0.44665288890E+02  0.16590091731E+03  0.00000000000E+00 0. -1.
<scales pt_clust_5="13000.00000" pt_clust_6="13000.00000" pt_clust_7="13000.00000" pt_clust_8="13000.00000" pt_clust_9="69.62142" pt_clust_10="13000.00000"></scales>
<clustering>
<clus scale="   69.621">  2  9  1 -1</clus>
<clus scale="   91.133">  7  8 -1 -1</clus>
<clus scale="   92.692">  5  6 -1 -1</clus>
<clus scale="   95.685">  1  5  2 -1</clus>
<clus scale="  130.910">  7 10 -1 -1</clus>
<clus scale="   69.621">  2  5  1 -1</clus>
</clustering>
</event>
<event>
10    2  0.5692308E-006  0.2388354E+03  0.7546771E-02  0.1135480E+00
         21   -1    0    0  503  502  0.00000000000E+00  0.00000000000E+00  0.87551425600E+02  0.87551425600E+02  0.00000000000E+00 0. -1.
          1   -1    0    0  502    0 -0.00000000000E+00 -0.00000000000E+00 -0.13579958950E+04  0.13579958950E+04  0.00000000000E+00 0. -1.
         23    2    1    2    0    0  0.11922042409E+03  0.69863936978E+01 -0.56295624191E+03  0.58280496246E+03  0.92084606481E+02 0.  0.
         23    2    1    2    0    0 -0.10566133626E+03  0.97101058452E+00 -0.61991473647E+03  0.63539493243E+03  0.90924027763E+02 0.  0.
        -11    1    4    4    0    0 -0.10743877698E+03 -0.27298649006E+02 -0.50761423983E+03  0.51957725462E+03  0.00000000000E+00 0. -1.
         11    1    4    4    0    0  0.17774407183E+01  0.28269659591E+02 -0.11230049663E+03  0.11581767781E+03  0.00000000000E+00 0.  1.
        -13    1    3    3    0    0  0.39387406985E+02  0.42345208935E+02 -0.15095863714E+03  0.16165702792E+03  0.00000000000E+00 0.  1.
         13    1    3    3    0    0  0.79833017105E+02 -0.35358815238E+02 -0.41199760476E+03  0.42114793454E+03  0.00000000000E+00 0. -1.
         21    1    1    2  503  501  0.55520857535E+02  0.52172572713E+02  0.26854653673E+02  0.80781900132E+02  0.00000000000E+00 0. -1.
          1    1    1    2  501    0 -0.69079945368E+02 -0.60129976996E+02 -0.11442814465E+03  0.14656552553E+03  0.00000000000E+00 0. -1.
<scales pt_clust_5="13000.00000" pt_clust_6="13000.00000" pt_clust_7="13000.00000" pt_clust_8="13000.00000" pt_clust_9="76.18755" pt_clust_10="13000.00000"></scales>
<clustering>
<clus scale="   76.188">  1  9  2 -1</clus>
<clus scale="   90.924">  5  6 -1 -1</clus>
<clus scale="   55.336">  5 10 -1 -1</clus>
<clus scale="   92.085">  7  8 -1 -1</clus>
<clus scale="  165.389">  2  7  1 -1</clus>
<clus scale="   76.188">  1  5  2 -1</clus>
</clustering>
</event>
<event>
10    2  0.5692308E-006  0.4180628E+03  0.7546771E-02  0.1061539E+00
          1   -1    0    0  503    0 -0.00000000000E+00  0.00000000000E+00  0.58590939451E+03  0.58590939451E+03  0.00000000000E+00 0. -1.
         21   -1    0    0  501  502  0.00000000000E+00 -0.00000000000E+00 -0.28977283109E+03  0.28977283109E+03  0.00000000000E+00 0. -1.
         23    2    1    2    0    0  0.17144673224E+03  0.68174210848E+02  0.12170017652E+03  0.23636187506E+03  0.83751405945E+02 0.  0.
         23    2    1    2    0    0 -0.20120981837E+03 -0.12470331544E+03  0.35319120270E+03  0.43500484203E+03  0.91917784129E+02 0.  0.
        -13    1    3    3    0    0  0.11357896546E+03  0.16522357142E+02  0.34920990202E+02  0.11996935124E+03  0.00000000000E+00 0. -1.
         13    1    3    3    0    0  0.57867766777E+02  0.51651853706E+02  0.86779186317E+02  0.11639252382E+03  0.00000000000E+00 0.  1.
        -13    1    4    4    0    0 -0.78996366544E+02 -0.10130396976E+03  0.19907073709E+03  0.23692209391E+03  0.00000000000E+00 0.  1.
         13    1    4    4    0    0 -0.12221345183E+03 -0.23399345679E+02  0.15412046560E+03  0.19808274812E+03  0.00000000000E+00 0. -1.
         21    1    1    2  503  502  0.30996472096E+02  0.87093922970E+00 -0.11758319078E+03  0.12160323421E+03  0.00000000000E+00 0. -1.
          1    1    1    2  501    0 -0.12333859667E+01  0.55658165361E+02 -0.61171625016E+02  0.82712274297E+02  0.00000000000E+00 0. -1.
<scales pt_clust_5="13000.00000" pt_clust_6="13000.00000" pt_clust_7="13000.00000" pt_clust_8="13000.00000" pt_clust_9="31.00871" pt_clust_10="13000.00000"></scales>
<clustering>
<clus scale="   31.009">  2  9  1 -1</clus>
<clus scale="   83.751">  5  6 -1 -1</clus>
<clus scale="   91.918">  7  8 -1 -1</clus>
<clus scale="   57.270">  7 10 -1 -1</clus>
<clus scale="  211.626">  1  5  2 -1</clus>
<clus scale="   31.009">  2  5  1 -1</clus>
</clustering>
</event>
<event>
10    2  0.5692308E-006  0.1643885E+03  0.7546771E-02  0.1206422E+00
         21   -1    0    0  503  502  0.00000000000E+00  0.00000000000E+00  0.11921223063E+03  0.11921223063E+03  0.00000000000E+00 0. -1.
          2   -1    0    0  502    0 -0.00000000000E+00 -0.00000000000E+00 -0.50647757383E+03  0.50647757383E+03  0.00000000000E+00 0. -1.
         23    2    1    2    0    0 -0.24302720373E+02  0.22587541807E+01 -0.28244620637E+03  0.29854827091E+03  0.93592127791E+02 0.  0.
         23    2    1    2    0    0  0.25643885589E+02 -0.11469768437E+02 -0.12553950806E+03  0.15861730738E+03  0.92790719689E+02 0.  0.
        -11    1    4    4    0    0 -0.39440938388E+01 -0.22761029182E+02 -0.12482033986E+03  0.12693989747E+03  0.00000000000E+00 0. -1.
         11    1    4    4    0    0  0.29587979428E+02  0.11291260745E+02 -0.71916819734E+00  0.31677409912E+02  0.00000000000E+00 0.  1.
        -13    1    3    3    0    0 -0.13257611689E+01  0.46662329348E+02 -0.14093524734E+03  0.14846506177E+03  0.00000000000E+00 0. -1.
         13    1    3    3    0    0 -0.22976959204E+02 -0.44403575167E+02 -0.14151095903E+03  0.15008320915E+03  0.00000000000E+00 0.  1.
         21    1    1    2  503  501 -0.78456123314E+02  0.21226826486E+02  0.36174022174E+02  0.88963483118E+02  0.00000000000E+00 0. -1.
          2    1    1    2  501    0  0.77114958098E+02 -0.12015812230E+02 -0.15453650947E+02  0.79560743043E+02  0.00000000000E+00 0. -1.
<scales pt_clust_5="13000.00000" pt_clust_6="13000.00000" pt_clust_7="13000.00000" pt_clust_8="13000.00000" pt_clust_9="81.27694" pt_clust_10="13000.00000"></scales>
<clustering>
<clus scale="   81.277">  1  9  2 -1</clus>
<clus scale="   92.791">  5  6 -1 -1</clus>
<clus scale="   32.718">  5 10 -1 -1</clus>
<clus scale="   93.592">  7  8 -1 -1</clus>
<clus scale="  100.221">  2  7  1 -1</clus>
<clus scale="   81.277">  1  5  2 -1</clus>
</clustering>
</event>
<event>
10    2  0.5692308E-006  0.1711632E+03  0.7546771E-02  0.1192337E+00
         21   -1    0    0  503  502  0.00000000000E+00  0.00000000000E+00  0.36133373010E+03  0.36133373010E+03  0.00000000000E+00 0. -1.
          1   -1    0    0  502    0 -0.00000000000E+00 -0.00000000000E+00 -0.11496974500E+03  0.11496974500E+03  0.00000000000E+00 0. -1.
         23    2    1    2    0    0  0.64042760951E+02  0.30457009842E+02  0.47059895329E+01  0.11373808532E+03  0.88798091402E+02 0.  0.
         23    2    1    2    0    0 -0.24489053558E+02 -0.54389262518E+01  0.26352299448E+02  0.96993449802E+02  0.89911011314E+02 0.  0.
        -13    1    4    4    0    0 -0.24554493089E+02  0.30871517705E+02  0.41853550838E+02  0.57512550404E+02  0.00000000000E+00 0.  1.
         13    1    4    4    0    0  0.65439531076E-01 -0.36310443956E+02 -0.15501251390E+02  0.39480899398E+02  0.00000000000E+00 0. -1.
        -13    1    3    3    0    0  0.43222692207E+02 -0.32942160370E+01 -0.36412720244E+02  0.56612182227E+02  0.00000000000E+00 0.  1.
         13    1    3    3    0    0  0.20820068744E+02  0.33751225879E+02  0.41118709777E+02  0.57125903096E+02  0.00000000000E+00 0. -1.
         21    1    1    2  503  501  0.22800627770E+02  0.38807961496E+02  0.14543763822E+03  0.15224333520E+03  0.00000000000E+00 0. -1.
          1    1    1    2  501    0 -0.62354335163E+02 -0.63826045086E+02  0.69868057907E+02  0.11332860478E+03  0.00000000000E+00 0. -1.
<scales pt_clust_5="13000.00000" pt_clust_6="13000.00000" pt_clust_7="13000.00000" pt_clust_8="13000.00000" pt_clust_9="45.01029" pt_clust_10="13000.00000"></scales>
<clustering>
<clus scale="   45.010">  1  9  2 -1</clus>
<clus scale="   88.798">  7  8 -1 -1</clus>
<clus scale="   89.911">  5  6 -1 -1</clus>
<clus scale="   70.549">  5 10 -1 -1</clus>
<clus scale="  120.600">  2  7  1 -1</clus>
<clus scale="   45.010">  1  5  2 -1</clus>
</clustering>
</event>
<event>
10    2  0.5692308E-006  0.2173309E+03  0.7546771E-02  0.1158124E+00
         21   -1    0    0  503  502  0.00000000000E+00  0.00000000000E+00  0.43245080866E+03  0.43245080866E+03  0.00000000000E+00 0. -1.
          2   -1    0    0  502    0 -0.00000000000E+00 -0.00000000000E+00 -0.20662534775E+03  0.20662534775E+03  0.00000000000E+00 0. -1.
         23    2    1    2    0    0  0.84336171566E+02  0.43428303808E+01 -0.73315443463E+02  0.14380155622E+03  0.90400682025E+02 0.  0.
         23    2    1    2    0    0 -0.22174023988E+02  0.43064034322E+01 -0.23903916611E+02  0.97072205404E+02  0.91331174208E+02 0.  0.
        -11    1    4    4    0    0  0.27935248643E+02 -0.22639248877E+02 -0.16967397935E+01  0.35997119779E+02  0.00000000000E+00 0.  1.
         11    1    4    4    0    0 -0.50109272630E+02  0.26945652309E+02 -0.22207176818E+02  0.61075085625E+02  0.00000000000E+00 0. -1.
        -11    1    3    3    0    0  0.11204909747E+02 -0.37637868633E+02 -0.26190867293E+02  0.47202973289E+02  0.00000000000E+00 0.  1.
         11    1    3    3    0    0  0.73131261819E+02  0.41980699014E+02 -0.47124576170E+02  0.96598582930E+02  0.00000000000E+00 0. -1.
         21    1    1    2  503  501  0.23500565258E+02  0.77926063006E+02  0.23280214282E+03  0.24662032675E+03  0.00000000000E+00 0. -1.
          2    1    1    2  501    0 -0.85662712836E+02 -0.86575296819E+02  0.90242678165E+02  0.15158206804E+03  0.00000000000E+00 0. -1.
<scales pt_clust_5="13000.00000" pt_clust_6="13000.00000" pt_clust_7="13000.00000" pt_clust_8="13000.00000" pt_clust_9="81.39255" pt_clust_10="13000.00000"></scales>
<clustering>
<clus scale="   81.393">  1  9  2 -1</clus>
<clus scale="   90.401">  7  8 -1 -1</clus>
<clus scale="   91.331">  5  6 -1 -1</clus>
<clus scale="   80.313">  5 10 -1 -1</clus>
<clus scale="  127.960">  2  7  1 -1</clus>
<clus scale="   81.393">  1  5  2 -1</clus>
</clustering>
</event>
<event>
10    2  0.5692308E-006  0.2600167E+03  0.7546771E-02  0.1135276E+00
         21   -1    0    0  503  502  0.00000000000E+00  0.00000000000E+00  0.98205758338E+02  0.98205758338E+02  0.00000000000E+00 0.  1.
          1   -1    0    0  502    0 -0.00000000000E+00 -0.00000000000E+00 -0.82934241802E+03  0.82934241802E+03  0.00000000000E+00 0.  1.
         23    2    1    2    0    0 -0.60003836530E+02 -0.72191033870E+02 -0.58828924703E+03  0.60229626824E+03  0.88682302612E+02 0.  0.
         23    2    1    2    0    0  0.71024593868E+02  0.10039606640E+03 -0.12669977331E+02  0.15417493359E+03  0.92116875443E+02 0.  0.
        -11    1    3    3    0    0  0.17845218932E+01 -0.66553864438E+02 -0.33127931438E+03  0.33790321917E+03  0.00000000000E+00 0. -1.
         11    1    3    3    0    0 -0.61788358423E+02 -0.56371694319E+01 -0.25700993265E+03  0.26439304907E+03  0.00000000000E+00 0.  1.
        -13    1    4    4    0    0  0.16063198694E+02  0.23707203611E+02  0.37604041829E+02  0.47266497831E+02  0.00000000000E+00 0. -1.
         13    1    4    4    0    0  0.54961395175E+02  0.76688862786E+02 -0.50274019160E+02  0.10690843576E+03  0.00000000000E+00 0.  1.
         21    1    1    2  503  501 -0.14995357428E+02  0.19678278935E+02  0.70135279143E+01  0.25715461887E+02  0.00000000000E+00 0.  1.
          1    1    1    2  501    0  0.39746000898E+01 -0.47883311461E+02 -0.13719096324E+03  0.14536151264E+03  0.00000000000E+00 0.  1.
<scales pt_clust_5="13000.00000" pt_clust_6="13000.00000" pt_clust_7="13000.00000" pt_clust_8="13000.00000" pt_clust_9="24.74056" pt_clust_10="13000.00000"></scales>
<clustering>
<clus scale="   24.741">  1  9  2 -1</clus>
<clus scale="   88.682">  5  6 -1 -1</clus>
<clus scale="   92.117">  7  8 -1 -1</clus>
<clus scale="   47.012">  7 10 -1 -1</clus>
<clus scale="  128.810">  2  5  1 -1</clus>
<clus scale="   24.741">  1  5  2 -1</clus>
</clustering>
</event>
<event>
10    2  0.5692308E-006  0.3227067E+03  0.7546771E-02  0.1117441E+00
         21   -1    0    0  503  502  0.00000000000E+00  0.00000000000E+00  0.18657464612E+03  0.18657464612E+03  0.00000000000E+00 0.  1.
         -1   -1    0    0    0  501 -0.00000000000E+00 -0.00000000000E+00 -0.36793524636E+03  0.36793524636E+03  0.00000000000E+00 0.  1.
         23    2    1    2    0    0 -0.37185298802E+02  0.28165116781E+02 -0.16209027098E+03  0.19235053197E+03  0.92463241088E+02 0.  0.
         23    2    1    2    0    0  0.58903159388E+02  0.30615156619E+02 -0.15044476725E+03  0.18812733847E+03  0.91385980787E+02 0.  0.
        -11    1    3    3    0    0  0.18696817261E+02  0.27688675109E+02 -0.11343712821E+03  0.11825487627E+03  0.00000000000E+00 0. -1.
         11    1    3    3    0    0 -0.55882116062E+02  0.47644167165E+00 -0.48653142771E+02  0.74095655701E+02  0.00000000000E+00 0.  1.
        -13    1    4    4    0    0 -0.19594693889E+02  0.27623825073E+02 -0.53960016313E+02  0.63708014416E+02  0.00000000000E+00 0.  1.
         13    1    4    4    0    0  0.78497853278E+02  0.29913315462E+01 -0.96484750937E+02  0.12441932405E+03  0.00000000000E+00 0. -1.
         21    1    1    2  503  501 -0.32896700410E+02  0.21597355422E+01  0.48372802774E+01  0.33320513741E+02  0.00000000000E+00 0.  1.
         -1    1    1    2    0  502  0.11178839823E+02 -0.60940008943E+02  0.12633715772E+03  0.14071150830E+03  0.00000000000E+00 0.  1.
<scales pt_clust_5="13000.00000" pt_clust_6="13000.00000" pt_clust_7="13000.00000" pt_clust_8="13000.00000" pt_clust_9="32.96752" pt_clust_10="13000.00000"></scales>
<clustering>
<clus scale="   32.968">  1  9  2 -1</clus>
<clus scale="   91.386">  7  8 -1 -1</clus>
<clus scale="   61.100">  7 10 -1 -1</clus>
<clus scale="   92.463">  5  6 -1 -1</clus>
<clus scale="  104.720">  2  5  1 -1</clus>
<clus scale="   32.968">  1  5  2 -1</clus>
</clustering>
</event>
<event>
10    2  0.5692308E-006  0.1891090E+03  0.7546771E-02  0.1190113E+00
         21   -1    0    0  503  502  0.00000000000E+00  0.00000000000E+00  0.95868089873E+02  0.95868089873E+02  0.00000000000E+00 0.  1.
          1   -1    0    0  502    0 -0.00000000000E+00 -0.00000000000E+00 -0.37873526911E+03  0.37873526911E+03  0.00000000000E+00 0. -1.
         23    2    1    2    0    0 -0.48133674964E+01  0.11734606741E+01 -0.15852525358E+03  0.18422606585E+03  0.93725353028E+02 0.  0.
         23    2    1    2    0    0  0.60277348857E+01 -0.49086440537E+02 -0.14960628191E+03  0.18258139423E+03  0.92239436785E+02 0.  0.
        -11    1    4    4    0    0  0.46378135844E+02 -0.10948393240E+02 -0.53971684374E+02  0.71998204930E+02  0.00000000000E+00 0. -1.
         11    1    4    4    0    0 -0.40350400959E+02 -0.38138047297E+02 -0.95634597541E+02  0.11058318930E+03  0.00000000000E+00 0.  1.
        -13    1    3    3    0    0  0.72418283540E+01  0.46363418709E+02 -0.84775309033E+02  0.96896149015E+02  0.00000000000E+00 0. -1.
         13    1    3    3    0    0 -0.12055195850E+02 -0.45189958034E+02 -0.73749944544E+02  0.87329916835E+02  0.00000000000E+00 0.  1.
         21    1    1    2  503  501  0.44679180120E+02  0.13593962871E+02  0.17917300851E+02  0.50020542105E+02  0.00000000000E+00 0.  1.
          1    1    1    2  501    0 -0.45893547509E+02  0.34319016992E+02  0.73470554012E+01  0.57775356800E+02  0.00000000000E+00 0. -1.
<scales pt_clust_5="13000.00000" pt_clust_6="13000.00000" pt_clust_7="13000.00000" pt_clust_8="13000.00000" pt_clust_9="46.70144" pt_clust_10="13000.00000"></scales>
<clustering>
<clus scale="   46.701">  1  9  2 -1</clus>
<clus scale="   92.239">  5  6 -1 -1</clus>
<clus scale="   47.129">  5 10 -1 -1</clus>
<clus scale="   93.725">  7  8 -1 -1</clus>
<clus scale="   93.917">  2  7  1 -1</clus>
<clus scale="   46.701">  1  5  2 -1</clus>
</clustering>
</event>
<event>
10    2  0.5692308E-006  0.3536017E+03  0.7546771E-02  0.1086453E+00
          1   -1    0    0  503    0 -0.00000000000E+00  0.00000000000E+00  0.10146454922E+04  0.10146454922E+04  0.00000000000E+00 0. -1.
         21   -1    0    0  501  502  0.00000000000E+00 -0.00000000000E+00 -0.51990824357E+03  0.51990824357E+03  0.00000000000E+00 0. -1.
         23    2    1    2    0    0 -0.14881274556E+03  0.65566619191E+01  0.39733513045E+03  0.43513190175E+03  0.96313773556E+02 0.  0.
         23    2    1    2    0    0  0.15396756513E+01  0.26856239572E+02  0.29017637822E+03  0.30483757031E+03  0.89442638573E+02 0.  0.
        -11    1    3    3    0    0 -0.96476249808E+02 -0.31398872262E+02  0.31193758539E+03  0.32802227537E+03  0.00000000000E+00 0. -1.
         11    1    3    3    0    0 -0.52336495754E+02  0.37955534181E+02  0.85397545057E+02  0.10710962639E+03  0.00000000000E+00 0.  1.
        -11    1    4    4    0    0 -0.27503774975E+02  0.48882412111E+02  0.15513123801E+03  0.16495953703E+03  0.00000000000E+00 0.  1.
         11    1    4    4    0    0  0.29043450627E+02 -0.22026172539E+02  0.13504514021E+03  0.13987803328E+03  0.00000000000E+00 0. -1.
         21    1    1    2  503  502  0.81190993454E+02 -0.24544679077E+03 -0.40949370519E+03  0.48427388853E+03  0.00000000000E+00 0. -1.
          1    1    1    2  501    0  0.66082076457E+02  0.21203388927E+03  0.21671944516E+03  0.31031037518E+03  0.00000000000E+00 0. -1.
<scales pt_clust_5="13000.00000" pt_clust_6="13000.00000" pt_clust_7="13000.00000" pt_clust_8="13000.00000" pt_clust_9="255.36595" pt_clust_10="13000.00000"></scales>
<clustering>
<clus scale="   89.443">  7  8 -1 -1</clus>
<clus scale="   96.314">  5  6 -1 -1</clus>
<clus scale="  177.383">  1  5  2 -1</clus>
<clus scale="  214.922">  7 10 -1 -1</clus>
<clus scale="  255.366">  2  9  1 -1</clus>
<clus scale="  255.366">  2  5  1 -1</clus>
</clustering>
</event>
<event>
10    2  0.5692308E-006  0.1682063E+03  0.7546771E-02  0.1204916E+00
          1   -1    0    0  503    0 -0.00000000000E+00  0.00000000000E+00  0.35972204311E+03  0.35972204311E+03  0.00000000000E+00 0. -1.
         21   -1    0    0  501  502  0.00000000000E+00 -0.00000000000E+00 -0.24788488794E+03  0.24788488794E+03  0.00000000000E+00 0.  1.
         23    2    1    2    0    0  0.23860916337E+02  0.34760756376E+01  0.30392023122E+03  0.31897930688E+03  0.93802264616E+02 0.  0.
         23    2    1    2    0    0  0.16464267860E+02 -0.18689291609E+02 -0.11077601514E+03  0.15537684892E+03  0.10606732726E+03 0.  0.
        -11    1    3    3    0    0  0.22109732576E+02 -0.40308862631E+02  0.95341889464E+02  0.10584762901E+03  0.00000000000E+00 0.  1.
         11    1    3    3    0    0  0.17511837613E+01  0.43784938268E+02  0.20857834175E+03  0.21313167787E+03  0.00000000000E+00 0. -1.
        -13    1    4    4    0    0  0.25015994040E+02 -0.60869328957E+02 -0.70285543495E+02  0.96285683203E+02  0.00000000000E+00 0.  1.
         13    1    4    4    0    0 -0.85517261798E+01  0.42180037348E+02 -0.40490471644E+02  0.59091165713E+02  0.00000000000E+00 0. -1.
         21    1    1    2  503  502 -0.18586795368E+02 -0.40362828902E+02 -0.45779612373E+02  0.63799685172E+02  0.00000000000E+00 0. -1.
          1    1    1    2  501    0 -0.21738388829E+02  0.55576044874E+02 -0.35527448536E+02  0.69451090072E+02  0.00000000000E+00 0. -1.
<scales pt_clust_5="13000.00000" pt_clust_6="13000.00000" pt_clust_7="13000.00000" pt_clust_8="13000.00000" pt_clust_9="44.43677" pt_clust_10="13000.00000"></scales>
<clustering>
<clus scale="   44.437">  2  9  1 -1</clus>
<clus scale="   93.802">  5  6 -1 -1</clus>
<clus scale="   96.632">  1  5  2 -1</clus>
<clus scale="  106.067">  7  8 -1 -1</clus>
<clus scale="   49.185">  7 10 -1 -1</clus>
<clus scale="   44.437">  2  5  1 -1</clus>
</clustering>
</event>
<event>
10    2  0.5692308E-006  0.1726983E+03  0.7546771E-02  0.1194600E+00
         21   -1    0    0  501  502  0.00000000000E+00  0.00000000000E+00  0.31585571473E+03  0.31585571473E+03  0.00000000000E+00 0.  1.
          3   -1    0    0  503    0 -0.00000000000E+00 -0.00000000000E+00 -0.82025791469E+02  0.82025791469E+02  0.00000000000E+00 0. -1.
         23    2    1    2    0    0  0.21512004810E+02  0.47918432548E+02  0.93309239969E+02  0.13962389753E+03  0.89606227294E+02 0.  0.
         23    2    1    2    0    0 -0.45885204379E+01 -0.19377824196E+02  0.12829836120E+02  0.92865572729E+02  0.89793403505E+02 0.  0.
        -11    1    3    3    0    0 -0.32494925208E+02  0.16642715406E+01  0.25132225610E+02  0.41113485965E+02  0.00000000000E+00 0.  1.
         11    1    3    3    0    0  0.54006930018E+02  0.46254161008E+02  0.68177014359E+02  0.98510411569E+02  0.00000000000E+00 0. -1.
        -13    1    4    4    0    0 -0.10748580509E+02 -0.51311226487E+02  0.25076899424E+02  0.58113895337E+02  0.00000000000E+00 0. -1.
         13    1    4    4    0    0  0.61600600715E+01  0.31933402291E+02 -0.12247063304E+02  0.34751677391E+02  0.00000000000E+00 0.  1.
         21    1    1    2  503  502  0.61171000396E+01  0.34516655775E+02  0.26447007280E+02  0.43911987348E+02  0.00000000000E+00 0.  1.
          3    1    1    2  501    0 -0.23040584412E+02 -0.63057264127E+02  0.10124383989E+03  0.12148004859E+03  0.00000000000E+00 0. -1.
<scales pt_clust_5="13000.00000" pt_clust_6="13000.00000" pt_clust_7="13000.00000" pt_clust_8="13000.00000" pt_clust_9="35.05451" pt_clust_10="13000.00000"></scales>
<clustering>
<clus scale="   35.055">  1  9  2 -1</clus>
<clus scale="   89.606">  5  6 -1 -1</clus>
<clus scale="   89.793">  7  8 -1 -1</clus>
<clus scale="   53.494">  7 10 -1 -1</clus>
<clus scale="  111.721">  2  5  1 -1</clus>
<clus scale="   35.055">  1  5  2 -1</clus>
</clustering>
</event>
<event>
10    2  0.5692308E-006  0.2707153E+03  0.7546771E-02  0.1141399E+00
          2   -1    0    0  502    0 -0.00000000000E+00  0.00000000000E+00  0.23804765126E+03  0.23804765126E+03  0.00000000000E+00 0. -1.
         21   -1    0    0  503  502  0.00000000000E+00 -0.00000000000E+00 -0.58586007414E+03  0.58586007414E+03  0.00000000000E+00 0. -1.
         23    2    1    2    0    0 -0.25465727813E+02  0.26545136972E+02  0.15158184265E+03  0.18135228286E+03  0.92511879711E+02 0.  0.
         23    2    1    2    0    0 -0.43557401987E+02  0.10861483372E+03 -0.35782161360E+02  0.15138016415E+03  0.89113195739E+02 0.  0.
        -11    1    3    3    0    0  0.15023813756E+02  0.18521322749E+02 -0.41324509523E+00  0.23852151845E+02  0.00000000000E+00 0.  1.
         11    1    3    3    0    0 -0.40489541568E+02  0.80238142237E+01  0.15199508775E+03  0.15750013102E+03  0.00000000000E+00 0. -1.
        -13    1    4    4    0    0 -0.17300529488E+02  0.10894973796E+03 -0.50448536926E+02  0.12130296204E+03  0.00000000000E+00 0. -1.
         13    1    4    4    0    0 -0.26256872500E+02 -0.33490424194E+00  0.14666375567E+02  0.30077202107E+02  0.00000000000E+00 0.  1.
         21    1    1    2  503  501  0.20194603702E+02 -0.67937218757E+02 -0.29241717949E+03  0.30088385562E+03  0.00000000000E+00 0. -1.
          2    1    1    2  501    0  0.48828526098E+02 -0.67222751937E+02 -0.17119492469E+03  0.19029142276E+03  0.00000000000E+00 0. -1.
<scales pt_clust_5="13000.00000" pt_clust_6="13000.00000" pt_clust_7="13000.00000" pt_clust_8="13000.00000" pt_clust_9="70.87516" pt_clust_10="13000.00000"></scales>
<clustering>
<clus scale="   70.875">  2  9  1 -1</clus>
<clus scale="   89.113">  7  8 -1 -1</clus>
<clus scale="   92.512">  5  6 -1 -1</clus>
<clus scale="   98.419">  1  5  2 -1</clus>
<clus scale="  114.441">  7 10 -1 -1</clus>
<clus scale="   70.875">  2  5  1 -1</clus>
</clustering>
</event>
<event>
10    2  0.5692308E-006  0.1321696E+03  0.7546771E-02  0.1235603E+00
         21   -1    0    0  503  502  0.00000000000E+00  0.00000000000E+00  0.20862691417E+03  0.20862691417E+03  0.00000000000E+00 0. -1.
          1   -1    0    0  502    0 -0.00000000000E+00 -0.00000000000E+00 -0.13484998441E+03  0.13484998441E+03  0.00000000000E+00 0. -1.
         23    2    1    2    0    0 -0.11422844711E+02  0.61449688614E+01 -0.61679453620E+02  0.12091681875E+03  0.10319050361E+03 0.  0.
         23    2    1    2    0    0 -0.43637383441E+01 -0.60156357326E+02  0.53645345197E+02  0.11983277582E+03  0.88567723019E+02 0.  0.
        -11    1    3    3    0    0 -0.52351119322E+02 -0.18540374949E+02 -0.39947438724E+02  0.68411863432E+02  0.00000000000E+00 0. -1.
         11    1    3    3    0    0  0.40928274611E+02  0.24685343811E+02 -0.21732014896E+02  0.52504955320E+02  0.00000000000E+00 0.  1.
        -13    1    4    4    0    0 -0.14196360986E+02  0.20345667902E+02  0.51458918789E+01  0.25336990170E+02  0.00000000000E+00 0.  1.
         13    1    4    4    0    0  0.98326226416E+01 -0.80502025229E+02  0.48499453318E+02  0.94495785653E+02  0.00000000000E+00 0. -1.
         21    1    1    2  503  501 -0.15802291187E+01  0.31312418085E+02  0.56184504123E+02  0.64340214127E+02  0.00000000000E+00 0. -1.
          1    1    1    2  501    0  0.17366812174E+02  0.22698970380E+02  0.25626534066E+02  0.38387089882E+02  0.00000000000E+00 0. -1.
<scales pt_clust_5="13000.00000" pt_clust_6="13000.00000" pt_clust_7="13000.00000" pt_clust_8="13000.00000" pt_clust_9="31.35227" pt_clust_10="13000.00000"></scales>
<clustering>
<clus scale="   31.352">  1  9  2 -1</clus>
<clus scale="   88.568">  7  8 -1 -1</clus>
<clus scale="   34.021">  7 10 -1 -1</clus>
<clus scale="  103.191">  5  6 -1 -1</clus>
<clus scale="  104.593">  2  5  1 -1</clus>
<clus scale="   31.352">  1  5  2 -1</clus>
</clustering>
</event>
<event>
10    2  0.5692308E-006  0.5725339E+03  0.7546771E-02  0.1031307E+00
          4   -1    0    0  502    0 -0.00000000000E+00  0.00000000000E+00  0.42475517981E+03  0.42475517981E+03  0.00000000000E+00 0. -1.
         21   -1    0    0  503  502  0.00000000000E+00 -0.00000000000E+00 -0.58061244232E+03  0.58061244232E+03  0.00000000000E+00 0. -1.
         23    2    1    2    0    0 -0.17398133446E+03  0.16834007789E+02  0.19184978930E+03  0.27511090608E+03  0.91251194143E+02 0.  0.
         23    2    1    2    0    0 -0.12458252745E+03 -0.18912480603E+03 -0.12228326355E+03  0.27339075836E+03  0.92197135577E+02 0.  0.
        -11    1    3    3    0    0 -0.16553839871E+03  0.38181799340E+02  0.18496701914E+03  0.25114459862E+03  0.00000000000E+00 0. -1.
         11    1    3    3    0    0 -0.84429357445E+01 -0.21347791550E+02  0.68827701639E+01  0.23966307458E+02  0.00000000000E+00 0.  1.
        -13    1    4    4    0    0 -0.22064714943E+02  0.12653587530E+01  0.47427799156E+01  0.22604131030E+02  0.00000000000E+00 0.  1.
         13    1    4    4    0    0 -0.10251781251E+03 -0.19039016479E+03 -0.12702604346E+03  0.25078662733E+03  0.00000000000E+00 0. -1.
         21    1    1    2  503  501  0.11715227523E+02  0.20416942736E+02 -0.10982839242E+03  0.11232263302E+03  0.00000000000E+00 0. -1.
          4    1    1    2  501    0  0.28684863438E+03  0.15187385551E+03 -0.11559539584E+03  0.34454332467E+03  0.00000000000E+00 0. -1.
<scales pt_clust_5="13000.00000" pt_clust_6="13000.00000" pt_clust_7="13000.00000" pt_clust_8="13000.00000" pt_clust_9="23.53929" pt_clust_10="13000.00000"></scales>
<clustering>
<clus scale="   23.539">  2  9  1 -1</clus>
<clus scale="   91.251">  5  6 -1 -1</clus>
<clus scale="   92.197">  7  8 -1 -1</clus>
<clus scale="  196.427">  1  5  2 -1</clus>
<clus scale="  252.442">  7 10 -1 -1</clus>
<clus scale="   23.539">  2  5  1 -1</clus>
</clustering>
</event>
<event>
10    2  0.5692308E-006  0.3092780E+03  0.7546771E-02  0.1115548E+00
         21   -1    0    0  501  502  0.00000000000E+00  0.00000000000E+00  0.10056589135E+03  0.10056589135E+03  0.00000000000E+00 0. -1.
          1   -1    0    0  503    0 -0.00000000000E+00 -0.00000000000E+00 -0.98459651505E+03  0.98459651505E+03  0.00000000000E+00 0. -1.
         23    2    1    2    0    0 -0.13254954792E+02  0.67661046968E+02 -0.39360231027E+03  0.41290424183E+03  0.10398761067E+03 0.  0.
         23    2    1    2    0    0  0.20038383940E+02  0.19902908675E+02 -0.32492284160E+03  0.33877591357E+03  0.91632985414E+02 0.  0.
        -13    1    4    4    0    0  0.47503019635E+02 -0.13433040965E+02 -0.21670817619E+03  0.22225979639E+03  0.00000000000E+00 0.  1.
         13    1    4    4    0    0 -0.27464635696E+02  0.33335949640E+02 -0.10821466541E+03  0.11651611718E+03  0.00000000000E+00 0. -1.
        -13    1    3    3    0    0  0.34564518646E+02  0.66049214245E+02 -0.27727596822E+03  0.28712221649E+03  0.00000000000E+00 0. -1.
         13    1    3    3    0    0 -0.47819473438E+02  0.16118327236E+01 -0.11632634205E+03  0.12578202534E+03  0.00000000000E+00 0.  1.
         21    1    1    2  503  502 -0.13560158553E+03 -0.10633143795E+02 -0.10444357863E+03  0.17149144253E+03  0.00000000000E+00 0. -1.
          1    1    1    2  501    0  0.12881815638E+03 -0.76930811849E+02 -0.61061893196E+02  0.16199080846E+03  0.00000000000E+00 0. -1.
<scales pt_clust_5="13000.00000" pt_clust_6="13000.00000" pt_clust_7="13000.00000" pt_clust_8="13000.00000" pt_clust_9="138.85332" pt_clust_10="13000.00000"></scales>
<clustering>
<clus scale="   91.633">  5  6 -1 -1</clus>
<clus scale="  103.988">  7  8 -1 -1</clus>
<clus scale="  124.768">  2  7  1 -1</clus>
<clus scale="  138.853">  1  9  2 -1</clus>
<clus scale="   64.368">  5 10 -1 -1</clus>
<clus scale="  138.853">  1  5  2 -1</clus>
</clustering>
</event>
<event>
10    2  0.5692308E-006  0.2846707E+03  0.7546771E-02  0.1114535E+00
         21   -1    0    0  501  502  0.00000000000E+00  0.00000000000E+00  0.12642101880E+03  0.12642101880E+03  0.00000000000E+00 0. -1.
         -3   -1    0    0    0  501 -0.00000000000E+00 -0.00000000000E+00 -0.62538219671E+03  0.62538219671E+03  0.00000000000E+00 0.  1.
         23    2    1    2    0    0  0.43966224680E+01  0.16603414909E+03 -0.63687510466E+02  0.20114710304E+03  0.93900953774E+02 0.  0.
         23    2    1    2    0    0 -0.86509302161E+02  0.48873759228E+01 -0.13103524277E+03  0.18212513533E+03  0.92149792552E+02 0.  0.
        -11    1    3    3    0    0 -0.34413275731E+02  0.13762026413E+03 -0.39206083354E+02  0.14717583911E+03  0.00000000000E+00 0. -1.
         11    1    3    3    0    0  0.38809898199E+02  0.28413884953E+02 -0.24481427112E+02  0.53971263926E+02  0.00000000000E+00 0.  1.
        -13    1    4    4    0    0 -0.40629161110E+02 -0.42618382152E+02 -0.76101832434E+02  0.96221328871E+02  0.00000000000E+00 0.  1.
         13    1    4    4    0    0 -0.45880141051E+02  0.47505758075E+02 -0.54933410335E+02  0.85903806458E+02  0.00000000000E+00 0. -1.
         21    1    1    2  503  502  0.80754083620E+01 -0.51345126132E+02 -0.29192960692E+02  0.59613447742E+02  0.00000000000E+00 0.  1.
         -3    1    1    2    0  503  0.74037271331E+02 -0.11957639888E+03 -0.27504546399E+03  0.30891752941E+03  0.00000000000E+00 0.  1.
<scales pt_clust_5="13000.00000" pt_clust_6="13000.00000" pt_clust_7="13000.00000" pt_clust_8="13000.00000" pt_clust_9="51.97628" pt_clust_10="13000.00000"></scales>
<clustering>
<clus scale="   51.976">  1  9  2 -1</clus>
<clus scale="   92.150">  7  8 -1 -1</clus>
<clus scale="   93.901">  5  6 -1 -1</clus>
<clus scale="  147.969">  7 10 -1 -1</clus>
<clus scale="  164.142">  2  5  1 -1</clus>
<clus scale="   51.976">  1  5  2 -1</clus>
</clustering>
</event>
<event>
10    2  0.5692308E-006  0.1515915E+03  0.7546771E-02  0.1213050E+00
         21   -1    0    0  501  502  0.00000000000E+00  0.00000000000E+00  0.26128917939E+03  0.26128917939E+03  0.00000000000E+00 0. -1.
         -3   -1    0    0    0  501 -0.00000000000E+00 -0.00000000000E+00 -0.12039220692E+03  0.12039220692E+03  0.00000000000E+00 0.  1.
         23    2    1    2    0    0  0.54437610533E+02  0.34610166042E+02 -0.33921743921E+02  0.11379684925E+03  0.87394056744E+02 0.  0.
         23    2    1    2    0    0 -0.61864819875E+02 -0.22824311409E+02  0.12093637433E+03  0.16445005475E+03  0.89833227371E+02 0.  0.
        -11    1    3    3    0    0  0.39913835083E+02  0.54804894491E+02  0.45856344478E+01  0.67953798529E+02  0.00000000000E+00 0. -1.
         11    1    3    3    0    0  0.14523775450E+02 -0.20194728449E+02 -0.38507378369E+02  0.45843050720E+02  0.00000000000E+00 0.  1.
        -13    1    4    4    0    0 -0.35162492026E+02  0.30711986939E+02  0.77658182154E+02  0.90611369279E+02  0.00000000000E+00 0.  1.
         13    1    4    4    0    0 -0.26702327849E+02 -0.53536298348E+02  0.43278192180E+02  0.73838685469E+02  0.00000000000E+00 0. -1.
         21    1    1    2  503  502  0.27974764428E+02 -0.12489468329E+02  0.70584014837E+02  0.76945938258E+02  0.00000000000E+00 0. -1.
         -3    1    1    2    0  503 -0.20547555086E+02  0.70361369578E+00 -0.16701672784E+02  0.26488544053E+02  0.00000000000E+00 0.  1.
<scales pt_clust_5="13000.00000" pt_clust_6="13000.00000" pt_clust_7="13000.00000" pt_clust_8="13000.00000" pt_clust_9="30.63616" pt_clust_10="13000.00000"></scales>
<clustering>
<clus scale="   30.636">  1  9  2 -1</clus>
<clus scale="   87.394">  5  6 -1 -1</clus>
<clus scale="   89.833">  7  8 -1 -1</clus>
<clus scale="   19.821">  7 10 -1 -1</clus>
<clus scale="  110.933">  2  5  1 -1</clus>
<clus scale="   30.636">  1  5  2 -1</clus>
</clustering>
</event>
<event>
10    2  0.5692308E-006  0.8791868E+03  0.7546771E-02  0.1001416E+00
          1   -1    0    0  503    0 -0.00000000000E+00  0.00000000000E+00  0.13813159166E+04  0.13813159166E+04  0.00000000000E+00 0. -1.
         21   -1    0    0  501  502  0.00000000000E+00 -0.00000000000E+00 -0.56839227647E+03  0.56839227647E+03  0.00000000000E+00 0.  1.
         23    2    1    2    0    0 -0.24630019054E+02  0.96735180044E+02  0.36808332858E+03  0.39205292454E+03  0.90861575843E+02 0.  0.
         23    2    1    2    0    0 -0.15822929504E+03  0.88664405202E+02  0.71599837508E+03  0.74927766178E+03  0.12595814687E+03 0.  0.
        -11    1    4    4    0    0 -0.17846921599E+03  0.83505936996E+02  0.67631041816E+03  0.70442904844E+03  0.00000000000E+00 0.  1.
         11    1    4    4    0    0  0.20239920947E+02  0.51584682066E+01  0.39687956918E+02  0.44848613340E+02  0.00000000000E+00 0. -1.
        -11    1    3    3    0    0 -0.50920495090E+02  0.86307563287E+02  0.22657854629E+03  0.24774932884E+03  0.00000000000E+00 0.  1.
         11    1    3    3    0    0  0.26290476036E+02  0.10427616756E+02  0.14150478229E+03  0.14430359570E+03  0.00000000000E+00 0. -1.
         21    1    1    2  503  502 -0.20198750495E+03 -0.97568482823E+01 -0.32413055255E+03  0.38204026403E+03  0.00000000000E+00 0.  1.
          1    1    1    2  501    0  0.38484681905E+03 -0.17564273696E+03  0.52972488993E+02  0.42633734269E+03  0.00000000000E+00 0. -1.
<scales pt_clust_5="13000.00000" pt_clust_6="13000.00000" pt_clust_7="13000.00000" pt_clust_8="13000.00000" pt_clust_9="202.81921" pt_clust_10="13000.00000"></scales>
<clustering>
<clus scale="   90.862">  7  8 -1 -1</clus>
<clus scale="  125.958">  5  6 -1 -1</clus>
<clus scale="  134.982">  1  7  2 -1</clus>
<clus scale="  202.819">  2  9  1 -1</clus>
<clus scale="  263.917">  5 10 -1 -1</clus>
<clus scale="  202.819">  2  5  1 -1</clus>
</clustering>
</event>
<event>
10    2  0.5692308E-006  0.1376987E+03  0.7546771E-02  0.1239894E+00
         21   -1    0    0  503  502  0.00000000000E+00  0.00000000000E+00  0.10569903292E+03  0.10569903292E+03  0.00000000000E+00 0.  1.
          1   -1    0    0  502    0 -0.00000000000E+00 -0.00000000000E+00 -0.47887417582E+03  0.47887417582E+03  0.00000000000E+00 0. -1.
         23    2    1    2    0    0 -0.12264682044E+02 -0.24750349423E+01 -0.13090708487E+03  0.15624918539E+03  0.84383617150E+02 0.  0.
         23    2    1    2    0    0 -0.46537334196E+02  0.30423112339E+02 -0.21381030745E+03  0.23877942236E+03  0.90606157236E+02 0.  0.
        -11    1    3    3    0    0  0.18923715108E+02  0.26719976575E+02 -0.22499701539E+02  0.39727832951E+02  0.00000000000E+00 0.  1.
         11    1    3    3    0    0 -0.31188397151E+02 -0.29195011518E+02 -0.10840738333E+03  0.11652135244E+03  0.00000000000E+00 0. -1.
        -13    1    4    4    0    0 -0.12879777165E+02 -0.31385181943E+02 -0.92597594462E+02  0.98616594980E+02  0.00000000000E+00 0. -1.
         13    1    4    4    0    0 -0.33657557031E+02  0.61808294282E+02 -0.12121271299E+03  0.14016282738E+03  0.00000000000E+00 0.  1.
         21    1    1    2  503  501  0.43434095409E+02  0.98011327429E+00  0.71883219197E+02  0.83992133371E+02  0.00000000000E+00 0.  1.
          1    1    1    2  501    0  0.15367920831E+02 -0.28928190671E+02 -0.10034096977E+03  0.10555246762E+03  0.00000000000E+00 0. -1.
<scales pt_clust_5="13000.00000" pt_clust_6="13000.00000" pt_clust_7="13000.00000" pt_clust_8="13000.00000" pt_clust_9="43.44515" pt_clust_10="13000.00000"></scales>
<clustering>
<clus scale="   43.445">  1  9  2 -1</clus>
<clus scale="   84.384">  5  6 -1 -1</clus>
<clus scale="   84.746">  2  5  1 -1</clus>
<clus scale="   90.606">  7  8 -1 -1</clus>
<clus scale="   36.970">  7 10 -1 -1</clus>
<clus scale="   43.445">  1  5  2 -1</clus>
</clustering>
</event>
<event>
10    2  0.5692308E-006  0.2054620E+04  0.7546771E-02  0.9304682E-01
         21   -1    0    0  501  502  0.00000000000E+00  0.00000000000E+00  0.23609929080E+04  0.23609929080E+04  0.00000000000E+00 0. -1.
          1   -1    0    0  503    0 -0.00000000000E+00 -0.00000000000E+00 -0.17039419952E+04  0.17039419952E+04  0.00000000000E+00 0. -1.
         23    2    1    2    0    0 -0.80027825173E+01  0.76783182299E+02 -0.24350871629E+03  0.27012798468E+03  0.87823297526E+02 0.  0.
         23    2    1    2    0    0  0.32858681767E+03 -0.53828176926E+01 -0.51730215133E+03  0.61766648250E+03  0.76890157740E+02 0.  0.
        -11    1    4    4    0    0  0.28969804996E+02 -0.22864848880E+02 -0.67448336860E+02  0.76885168017E+02  0.00000000000E+00 0.  1.
         11    1    4    4    0    0  0.29961701268E+03  0.17482031187E+02 -0.44985381447E+03  0.54078131448E+03  0.00000000000E+00 0. -1.
        -13    1    3    3    0    0  0.25544786635E+02  0.78831065024E+02 -0.18362140341E+03  0.20145394691E+03  0.00000000000E+00 0.  1.
         13    1    3    3    0    0 -0.33547569152E+02 -0.20478827248E+01 -0.59887312882E+02  0.68674037772E+02  0.00000000000E+00 0. -1.
         21    1    1    2  503  502  0.38363836965E+03  0.12031798410E+04  0.11260877656E+04  0.16920088015E+04  0.00000000000E+00 0. -1.
          1    1    1    2  501    0 -0.70422240481E+03 -0.12745802056E+04  0.29177401481E+03  0.14851316345E+04  0.00000000000E+00 0. -1.
<scales pt_clust_5="13000.00000" pt_clust_6="13000.00000" pt_clust_7="13000.00000" pt_clust_8="13000.00000" pt_clust_9="1276.70497" pt_clust_10="13000.00000"></scales>
<clustering>
<clus scale="   76.890">  5  6 -1 -1</clus>
<clus scale="   87.823">  7  8 -1 -1</clus>
<clus scale="  116.930">  2  7  1 -1</clus>
<clus scale=" 1276.705">  1  9  2 -1</clus>
<clus scale="  362.954">  5 10 -1 -1</clus>
<clus scale=" 1276.705">  1  5  2 -1</clus>
</clustering>
</event>
<event>
10    2  0.5692308E-006  0.1492209E+03  0.7546771E-02  0.1210536E+00
         21   -1    0    0  501  502  0.00000000000E+00  0.00000000000E+00  0.32406832532E+03  0.32406832532E+03  0.00000000000E+00 0.  1.
          3   -1    0    0  503    0 -0.00000000000E+00 -0.00000000000E+00 -0.80186441571E+02  0.80186441571E+02  0.00000000000E+00 0. -1.
         23    2    1    2    0    0  0.66853187407E+02 -0.70549868418E+02  0.14362357041E+03  0.19629632053E+03  0.91966748753E+02 0.  0.
         23    2    1    2    0    0 -0.68198227658E+02  0.30040628096E+02  0.51536211149E+02  0.12819499327E+03  0.90689236665E+02 0.  0.
        -11    1    4    4    0    0 -0.16940492007E+02  0.56509147540E+02  0.19075778191E+02  0.62001204333E+02  0.00000000000E+00 0. -1.
         11    1    4    4    0    0 -0.51257735650E+02 -0.26468519444E+02  0.32460432958E+02  0.66193788934E+02  0.00000000000E+00 0.  1.
        -13    1    3    3    0    0  0.69232779291E+02 -0.17769932410E+02  0.45144328208E+02  0.84539686512E+02  0.00000000000E+00 0. -1.
         13    1    3    3    0    0 -0.23795918836E+01 -0.52779936008E+02  0.98479242200E+02  0.11175663402E+03  0.00000000000E+00 0.  1.
         21    1    1    2  503  502 -0.14906394915E+02  0.21267637191E+02  0.47989506826E+02  0.54566526062E+02  0.00000000000E+00 0.  1.
          3    1    1    2  501    0  0.16251435166E+02  0.19241603131E+02  0.73259536528E+00  0.25196927034E+02  0.00000000000E+00 0. -1.
<scales pt_clust_5="13000.00000" pt_clust_6="13000.00000" pt_clust_7="13000.00000" pt_clust_8="13000.00000" pt_clust_9="25.97139" pt_clust_10="13000.00000"></scales>
<clustering>
<clus scale="   25.971">  1  9  2 -1</clus>
<clus scale="   90.689">  5  6 -1 -1</clus>
<clus scale="   25.529">  5 10 -1 -1</clus>
<clus scale="   91.967">  7  8 -1 -1</clus>
<clus scale="  122.699">  2  7  1 -1</clus>
<clus scale="   25.971">  1  5  2 -1</clus>
</clustering>
</event>
<event>
10    2  0.5692308E-006  0.1656960E+03  0.7546771E-02  0.1214198E+00
          1   -1    0    0  502    0 -0.00000000000E+00  0.00000000000E+00  0.30696734220E+03  0.30696734220E+03  0.00000000000E+00 0. -1.
         21   -1    0    0  503  502  0.00000000000E+00 -0.00000000000E+00 -0.84310188530E+02  0.84310188530E+02  0.00000000000E+00 0.  1.
         23    2    1    2    0    0 -0.41134967988E+02 -0.22579376647E+02  0.16495878533E+03  0.18432083717E+03  0.67534112229E+02 0.  0.
         23    2    1    2    0    0  0.78294158349E+02  0.22563843525E+02  0.43077704303E+02  0.13028243403E+03  0.92079974707E+02 0.  0.
        -11    1    3    3    0    0 -0.56142676461E+02 -0.23295341758E+01  0.12541130654E+03  0.13742424334E+03  0.00000000000E+00 0. -1.
         11    1    3    3    0    0  0.15007708473E+02 -0.20249842471E+02  0.39547478795E+02  0.46896593829E+02  0.00000000000E+00 0.  1.
        -11    1    4    4    0    0  0.74731103695E+02 -0.18678875040E+02  0.10787457981E+02  0.77781794026E+02  0.00000000000E+00 0.  1.
         11    1    4    4    0    0  0.35630546544E+01  0.41242718565E+02  0.32290246322E+02  0.52500640002E+02  0.00000000000E+00 0. -1.
         21    1    1    2  503  501  0.27867746895E+01 -0.20299650743E+02 -0.12777536849E+02  0.24147616474E+02  0.00000000000E+00 0.  1.
          1    1    1    2  501    0 -0.39945965051E+02  0.20315183865E+02  0.27398200877E+02  0.52526643055E+02  0.00000000000E+00 0. -1.
<scales pt_clust_5="13000.00000" pt_clust_6="13000.00000" pt_clust_7="13000.00000" pt_clust_8="13000.00000" pt_clust_9="20.49004" pt_clust_10="13000.00000"></scales>
<clustering>
<clus scale="   20.490">  2  9  1 -1</clus>
<clus scale="   67.534">  5  6 -1 -1</clus>
<clus scale="   82.903">  1  5  2 -1</clus>
<clus scale="   92.080">  7  8 -1 -1</clus>
<clus scale="   52.362">  7 10 -1 -1</clus>
<clus scale="   20.490">  2  5  1 -1</clus>
</clustering>
</event>
<event>
10    2  0.5692308E-006  0.1611168E+03  0.7546771E-02  0.1209999E+00
          2   -1    0    0  503    0 -0.00000000000E+00  0.00000000000E+00  0.20414213900E+03  0.20414213900E+03  0.00000000000E+00 0. -1.
         21   -1    0    0  501  502  0.00000000000E+00 -0.00000000000E+00 -0.12797422353E+03  0.12797422353E+03  0.00000000000E+00 0.  1.
         23    2    1    2    0    0 -0.26199444150E+02 -0.30074351824E+02  0.10611383808E+03  0.14572334282E+03  0.91565651313E+02 0.  0.
         23    2    1    2    0    0 -0.27451115047E+02 -0.11147422093E+02 -0.33359441362E+02  0.10142651156E+03  0.91085982356E+02 0.  0.
        -11    1    3    3    0    0 -0.46526101131E+02 -0.17955054497E+02  0.11088347137E+03  0.12158209692E+03  0.00000000000E+00 0. -1.
         11    1    3    3    0    0  0.20326656981E+02 -0.12119297327E+02 -0.47696332969E+01  0.24141245899E+02  0.00000000000E+00 0.  1.
        -11    1    4    4    0    0 -0.20089854121E+02  0.23590393492E+02  0.20327935369E+02  0.37058519399E+02  0.00000000000E+00 0. -1.
         11    1    4    4    0    0 -0.73612609254E+01 -0.34737815585E+02 -0.53687376730E+02  0.64367992156E+02  0.00000000000E+00 0.  1.
         21    1    1    2  503  502  0.39884301131E+01  0.20293934345E+02 -0.17566219615E+02  0.27135279942E+02  0.00000000000E+00 0. -1.
          2    1    1    2  501    0  0.49662129083E+02  0.20927839573E+02  0.20979738378E+02  0.57831228213E+02  0.00000000000E+00 0. -1.
<scales pt_clust_5="13000.00000" pt_clust_6="13000.00000" pt_clust_7="13000.00000" pt_clust_8="13000.00000" pt_clust_9="20.68215" pt_clust_10="13000.00000"></scales>
<clustering>
<clus scale="   20.682">  2  9  1 -1</clus>
<clus scale="   91.086">  7  8 -1 -1</clus>
<clus scale="   55.988">  7 10 -1 -1</clus>
<clus scale="   91.566">  5  6 -1 -1</clus>
<clus scale="   98.601">  1  5  2 -1</clus>
<clus scale="   20.682">  2  5  1 -1</clus>
</clustering>
</event>
<event>
10    2  0.5692308E-006  0.4229654E+03  0.7546771E-02  0.1083985E+00
          1   -1    0    0  502    0 -0.00000000000E+00  0.00000000000E+00  0.57240686290E+03  0.57240686290E+03  0.00000000000E+00 0. -1.
         21   -1    0    0  503  502  0.00000000000E+00 -0.00000000000E+00 -0.24430260365E+03  0.24430260365E+03  0.00000000000E+00 0. -1.
         23    2    1    2    0    0 -0.52217279581E+02 -0.29731283677E+02 -0.88365313108E+01  0.10961238508E+03  0.91247998128E+02 0.  0.
         23    2    1    2    0    0  0.20018402241E+01  0.14726253570E+03  0.47534682844E+03  0.50569263814E+03  0.89889794620E+02 0.  0.
        -11    1    3    3    0    0 -0.73247675566E+02 -0.24047473253E+02  0.13661874401E+02  0.78295272896E+02  0.00000000000E+00 0. -1.
         11    1    3    3    0    0  0.21030395985E+02 -0.56838104236E+01 -0.22498405712E+02  0.31317112188E+02  0.00000000000E+00 0.  1.
        -11    1    4    4    0    0 -0.31568102602E+02  0.61737645808E+02  0.11934960422E+03  0.13803046780E+03  0.00000000000E+00 0.  1.
         11    1    4    4    0    0  0.33569942826E+02  0.85524889890E+02  0.35599722422E+03  0.36766217035E+03  0.00000000000E+00 0. -1.
         21    1    1    2  503  501  0.17989476510E+02 -0.34450358529E+02 -0.94258029482E+02  0.10195599340E+03  0.00000000000E+00 0. -1.
          1    1    1    2  501    0  0.32225962847E+02 -0.83080893492E+02 -0.44148008406E+02  0.99448449918E+02  0.00000000000E+00 0. -1.
<scales pt_clust_5="13000.00000" pt_clust_6="13000.00000" pt_clust_7="13000.00000" pt_clust_8="13000.00000" pt_clust_9="38.86449" pt_clust_10="13000.00000"></scales>
<clustering>
<clus scale="   38.864">  2  9  1 -1</clus>
<clus scale="   89.890">  7  8 -1 -1</clus>
<clus scale="   91.248">  5  6 -1 -1</clus>
<clus scale="  108.102">  7 10 -1 -1</clus>
<clus scale="  110.695">  1  5  2 -1</clus>
<clus scale="   38.864">  2  5  1 -1</clus>
</clustering>
</event>
<event>
10    2  0.5692308E-006  0.6543898E+03  0.7546771E-02  0.1034941E+00
          2   -1    0    0  503    0 -0.00000000000E+00  0.00000000000E+00  0.12613925766E+04  0.12613925766E+04  0.00000000000E+00 0. -1.
         21   -1    0    0  501  502  0.00000000000E+00 -0.00000000000E+00 -0.29873371893E+03  0.29873371893E+03  0.00000000000E+00 0.  1.
         23    2    1    2    0    0  0.66832062596E+02  0.40049657996E+02  0.42804998656E+03  0.44406555157E+03  0.88864635250E+02 0.  0.
         23    2    1    2    0    0 -0.48512238160E+02 -0.13845118300E+03  0.26148609535E+03  0.31344796585E+03  0.91391913794E+02 0.  0.
        -13    1    4    4    0    0 -0.22371970175E+02 -0.25586620904E+01  0.91629769445E+02  0.94356062072E+02  0.00000000000E+00 0. -1.
         13    1    4    4    0    0 -0.26140267985E+02 -0.13589252091E+03  0.16985632591E+03  0.21909190378E+03  0.00000000000E+00 0.  1.
        -13    1    3    3    0    0  0.31910098322E+02  0.57530317228E+02  0.35680489871E+03  0.36281913886E+03  0.00000000000E+00 0.  1.
         13    1    3    3    0    0  0.34921964274E+02 -0.17480659232E+02  0.71245087848E+02  0.81246412711E+02  0.00000000000E+00 0. -1.
         21    1    1    2  503  502 -0.17375746614E+03 -0.28893806577E+03  0.11313349948E+03  0.35563471652E+03  0.00000000000E+00 0.  1.
          2    1    1    2  501    0  0.15543764171E+03  0.38733959078E+03  0.15998927633E+03  0.44697806164E+03  0.00000000000E+00 0. -1.
<scales pt_clust_5="13000.00000" pt_clust_6="13000.00000" pt_clust_7="13000.00000" pt_clust_8="13000.00000" pt_clust_9="317.80229" pt_clust_10="13000.00000"></scales>
<clustering>
<clus scale="   88.865">  7  8 -1 -1</clus>
<clus scale="   91.392">  5  6 -1 -1</clus>
<clus scale="  118.184">  1  7  2 -1</clus>
<clus scale="  317.802">  2  9  1 -1</clus>
<clus scale="  170.061">  5 10 -1 -1</clus>
<clus scale="  317.802">  2  5  1 -1</clus>
</clustering>
</event>
<event>
10    2  0.5692308E-006  0.4370740E+03  0.7546771E-02  0.1047151E+00
         21   -1    0    0  501  502  0.00000000000E+00  0.00000000000E+00  0.10517079964E+04  0.10517079964E+04  0.00000000000E+00 0.  1.
          3   -1    0    0  503    0 -0.00000000000E+00 -0.00000000000E+00 -0.12917621972E+04  0.12917621972E+04  0.00000000000E+00 0. -1.
         23    2    1    2    0    0 -0.22079844276E+03 -0.14224177540E+03 -0.70148129817E+03  0.75961790138E+03  0.12632762732E+03 0.  0.
         23    2    1    2    0    0  0.13808012254E+03  0.14985631474E+03 -0.21854222335E+03  0.31195858302E+03  0.89634919663E+02 0.  0.
        -11    1    3    3    0    0 -0.22548222539E+03 -0.10312164202E+03 -0.64255699381E+03  0.68873492529E+03  0.00000000000E+00 0. -1.
         11    1    3    3    0    0  0.46837826319E+01 -0.39120133380E+02 -0.58924304362E+02  0.70882976094E+02  0.00000000000E+00 0.  1.
        -11    1    4    4    0    0  0.11023257886E+03  0.15326043974E+03 -0.21054064074E+03  0.28278498056E+03  0.00000000000E+00 0.  1.
         11    1    4    4    0    0  0.27847543679E+02 -0.34041249923E+01 -0.80015826142E+01  0.29173602455E+02  0.00000000000E+00 0. -1.
         21    1    1    2  503  502 -0.27946028527E+02  0.17749029368E+03  0.92683664657E+03  0.94409213231E+03  0.00000000000E+00 0.  1.
          3    1    1    2  501    0  0.11066434875E+03 -0.18510483302E+03 -0.24686732584E+03  0.32780157697E+03  0.00000000000E+00 0. -1.
<scales pt_clust_5="13000.00000" pt_clust_6="13000.00000" pt_clust_7="13000.00000" pt_clust_8="13000.00000" pt_clust_9="179.67689" pt_clust_10="13000.00000"></scales>
<clustering>
<clus scale="   89.635">  7  8 -1 -1</clus>
<clus scale="  126.328">  5  6 -1 -1</clus>
<clus scale="  179.677">  1  9  2 -1</clus>
<clus scale="  159.358">  7 10 -1 -1</clus>
<clus scale="  278.247">  2  5  1 -1</clus>
<clus scale="  179.677">  1  5  2 -1</clus>
</clustering>
</event>
<event>
10    2  0.5692308E-006  0.3149433E+03  0.7546771E-02  0.1122249E+00
         -1   -1    0    0    0  501 -0.00000000000E+00  0.00000000000E+00  0.40150188047E+03  0.40150188047E+03  0.00000000000E+00 0.  1.
         21   -1    0    0  503  502  0.00000000000E+00 -0.00000000000E+00 -0.24309946325E+03  0.24309946325E+03  0.00000000000E+00 0. -1.
         23    2    1    2    0    0  0.29552282504E+01 -0.33330357726E+02  0.19154736362E+02  0.99026303636E+02  0.91212163479E+02 0.  0.
         23    2    1    2    0    0  0.10600008268E+03  0.19143510427E+02  0.29333145028E+03  0.32575935945E+03  0.92050687279E+02 0.  0.
        -11    1    4    4    0    0  0.61507360296E+02 -0.34577897384E+02  0.12485773892E+03  0.14341632168E+03  0.00000000000E+00 0. -1.
         11    1    4    4    0    0  0.44492722383E+02  0.53721407811E+02  0.16847371136E+03  0.18234303777E+03  0.00000000000E+00 0.  1.
        -11    1    3    3    0    0  0.13135053483E+02 -0.53529149349E+02  0.40130018333E+02  0.68178573111E+02  0.00000000000E+00 0.  1.
         11    1    3    3    0    0 -0.10179825232E+02  0.20198791623E+02 -0.20975281971E+02  0.30847730525E+02  0.00000000000E+00 0. -1.
         21    1    1    2  503  501 -0.31876511350E+02 -0.18786564242E+02 -0.12612606512E+03  0.13144136060E+03  0.00000000000E+00 0. -1.
         -1    1    1    2    0  502 -0.77078799579E+02  0.32973411541E+02 -0.27957704299E+02  0.88374320042E+02  0.00000000000E+00 0.  1.
<scales pt_clust_5="13000.00000" pt_clust_6="13000.00000" pt_clust_7="13000.00000" pt_clust_8="13000.00000" pt_clust_9="37.00063" pt_clust_10="13000.00000"></scales>
<clustering>
<clus scale="   37.001">  2  9  1 -1</clus>
<clus scale="   91.212">  7  8 -1 -1</clus>
<clus scale="   92.051">  5  6 -1 -1</clus>
<clus scale="   96.191">  5 10 -1 -1</clus>
<clus scale="   99.890">  1  7  2 -1</clus>
<clus scale="   37.001">  2  5  1 -1</clus>
</clustering>
</event>
<event>
10    2  0.5692308E-006  0.7820613E+03  0.7546771E-02  0.9937682E-01
          2   -1    0    0  502    0 -0.00000000000E+00  0.00000000000E+00  0.58653210588E+03  0.58653210588E+03  0.00000000000E+00 0.  1.
         21   -1    0    0  503  502  0.00000000000E+00 -0.00000000000E+00 -0.54601645009E+03  0.54601645009E+03  0.00000000000E+00 0. -1.
         23    2    1    2    0    0 -0.20024755329E+03 -0.10811255493E+03 -0.12007860330E+03  0.27368606478E+03  0.93261910521E+02 0.  0.
         23    2    1    2    0    0  0.47180831632E+03 -0.82595657805E+02  0.11755252597E+03  0.50146291025E+03  0.90671516787E+02 0.  0.
        -11    1    4    4    0    0  0.33318991223E+02  0.17619358710E+02  0.96117365482E+01  0.38897075172E+02  0.00000000000E+00 0.  1.
         11    1    4    4    0    0  0.43848932510E+03 -0.10021501652E+03  0.10794078942E+03  0.46256583508E+03  0.00000000000E+00 0. -1.
        -13    1    3    3    0    0 -0.92445946194E+02 -0.88278363593E+02 -0.28762517292E+02  0.13102139080E+03  0.00000000000E+00 0. -1.
         13    1    3    3    0    0 -0.10780160709E+03 -0.19834191332E+02 -0.91316086007E+02  0.14266467398E+03  0.00000000000E+00 0.  1.
         21    1    1    2  503  501 -0.16352644685E+02  0.43484441868E+02 -0.28111825595E+02  0.54300832508E+02  0.00000000000E+00 0.  1.
          2    1    1    2  501    0 -0.25520811835E+03  0.14722377086E+03  0.71153558709E+02  0.30309874842E+03  0.00000000000E+00 0.  1.
<scales pt_clust_5="13000.00000" pt_clust_6="13000.00000" pt_clust_7="13000.00000" pt_clust_8="13000.00000" pt_clust_9="46.45757" pt_clust_10="13000.00000"></scales>
<clustering>
<clus scale="   46.458">  2  9  1 -1</clus>
<clus scale="   90.672">  5  6 -1 -1</clus>
<clus scale="   93.262">  7  8 -1 -1</clus>
<clus scale="  244.337">  1  7  2 -1</clus>
<clus scale="  362.550">  5 10 -1 -1</clus>
<clus scale="   46.458">  2  5  1 -1</clus>
</clustering>
</event>
<event>
10    2  0.5692308E-006  0.1472782E+03  0.7546771E-02  0.1221237E+00
         -2   -1    0    0    0  501 -0.00000000000E+00  0.00000000000E+00  0.61564382080E+02  0.61564382080E+02  0.00000000000E+00 0.  1.
         21   -1    0    0  501  502  0.00000000000E+00 -0.00000000000E+00 -0.38516367595E+03  0.38516367595E+03  0.00000000000E+00 0.  1.
         23    2    1    2    0    0 -0.29680393332E+02 -0.29070981819E+02 -0.55362758740E+02  0.11612184330E+03  0.93237329985E+02 0.  0.
         23    2    1    2    0    0  0.76135843702E+01  0.78294657068E+01 -0.48616530891E+02  0.10358152329E+03  0.90809127799E+02 0.  0.
        -11    1    4    4    0    0  0.26419039871E+02  0.23119814091E+02 -0.65312765038E+02  0.74150176994E+02  0.00000000000E+00 0. -1.
         11    1    4    4    0    0 -0.18805455501E+02 -0.15290348385E+02  0.16696234147E+02  0.29431346299E+02  0.00000000000E+00 0.  1.
        -13    1    3    3    0    0 -0.25007518431E+02 -0.60973372630E+02 -0.21395768451E+02  0.69288578103E+02  0.00000000000E+00 0.  1.
         13    1    3    3    0    0 -0.46728749002E+01  0.31902390811E+02 -0.33966990288E+02  0.46833265192E+02  0.00000000000E+00 0. -1.
         21    1    1    2  503  502 -0.11711044269E+02  0.17681685045E+02 -0.11766464404E+03  0.11956069171E+03  0.00000000000E+00 0.  1.
         -2    1    1    2    0  503  0.33777853230E+02  0.35598310666E+01 -0.10195536020E+03  0.10746399974E+03  0.00000000000E+00 0.  1.
<scales pt_clust_5="13000.00000" pt_clust_6="13000.00000" pt_clust_7="13000.00000" pt_clust_8="13000.00000" pt_clust_9="21.20827" pt_clust_10="13000.00000"></scales>
<clustering>
<clus scale="   21.208">  2  9  1 -1</clus>
<clus scale="   90.809">  5  6 -1 -1</clus>
<clus scale="   31.011">  5 10 -1 -1</clus>
<clus scale="   93.237">  7  8 -1 -1</clus>
<clus scale="  101.778">  1  7  2 -1</clus>
<clus scale="   21.208">  2  5  1 -1</clus>
</clustering>
</event>
<event>
10    2  0.5692308E-006  0.5117475E+03  0.7546771E-02  0.1059095E+00
          1   -1    0    0  503    0 -0.00000000000E+00  0.00000000000E+00  0.56432294715E+03  0.56432294715E+03  0.00000000000E+00 0. -1.
         21   -1    0    0  501  502  0.00000000000E+00 -0.00000000000E+00 -0.54809366619E+03  0.54809366619E+03  0.00000000000E+00 0. -1.
         23    2    1    2    0    0  0.57967123733E+02 -0.58317842458E+02 -0.11602036407E+03  0.16948128714E+03  0.92206418577E+02 0.  0.
         23    2    1    2    0    0 -0.65501884622E+02 -0.16956209776E+03  0.31799714109E+03  0.37720027255E+03  0.90089189057E+02 0.  0.
        -11    1    3    3    0    0 -0.20082386486E+01 -0.52787655176E+02 -0.20720954235E+02  0.56744405062E+02  0.00000000000E+00 0.  1.
         11    1    3    3    0    0  0.59975362381E+02 -0.55301872815E+01 -0.95299409839E+02  0.11273688207E+03  0.00000000000E+00 0. -1.
        -13    1    4    4    0    0 -0.81076063589E+02 -0.10701265491E+03  0.17691361965E+03  0.22208886784E+03  0.00000000000E+00 0.  1.
         13    1    4    4    0    0  0.15574178967E+02 -0.62549442845E+02  0.14108352143E+03  0.15511140471E+03  0.00000000000E+00 0. -1.
         21    1    1    2  503  502 -0.81006683467E+02  0.36346179966E+03 -0.13336676481E+03  0.39554172540E+03  0.00000000000E+00 0. -1.
          1    1    1    2  501    0  0.88541444356E+02 -0.13558185944E+03 -0.52380731236E+02  0.17019332826E+03  0.00000000000E+00 0. -1.
<scales pt_clust_5="13000.00000" pt_clust_6="13000.00000" pt_clust_7="13000.00000" pt_clust_8="13000.00000" pt_clust_9="355.58608" pt_clust_10="13000.00000"></scales>
<clustering>
<clus scale="   90.089">  7  8 -1 -1</clus>
<clus scale="   92.206">  5  6 -1 -1</clus>
<clus scale="  123.544">  1  5  2 -1</clus>
<clus scale="  170.765">  7 10 -1 -1</clus>
<clus scale="  355.586">  2  9  1 -1</clus>
<clus scale="  355.586">  2  5  1 -1</clus>
</clustering>
</event>
<event>
10    2  0.5692308E-006  0.2849529E+03  0.7546771E-02  0.1110084E+00
          1   -1    0    0  502    0 -0.00000000000E+00  0.00000000000E+00  0.13415045388E+04  0.13415045388E+04  0.00000000000E+00 0. -1.
         21   -1    0    0  503  502  0.00000000000E+00 -0.00000000000E+00 -0.49498426839E+02  0.49498426839E+02  0.00000000000E+00 0.  1.
         23    2    1    2    0    0  0.99485212146E+02  0.10900011207E+03  0.38372738667E+03  0.42107298972E+03  0.90980346889E+02 0.  0.
         23    2    1    2    0    0 -0.99798755923E+00  0.28984153658E+02  0.35618675739E+03  0.36896601343E+03  0.91792351441E+02 0.  0.
        -11    1    4    4    0    0  0.83104527851E+01 -0.32772134292E+02  0.12411087708E+03  0.12863353459E+03  0.00000000000E+00 0.  1.
         11    1    4    4    0    0 -0.93084403443E+01  0.61756287950E+02  0.23207588032E+03  0.24033247885E+03  0.00000000000E+00 0. -1.
        -13    1    3    3    0    0  0.27912684698E+02  0.88819981903E+02  0.26603666742E+03  0.28185743837E+03  0.00000000000E+00 0. -1.
         13    1    3    3    0    0  0.71572527448E+02  0.20180130164E+02  0.11769071926E+03  0.13921555135E+03  0.00000000000E+00 0.  1.
         21    1    1    2  503  501  0.40345438241E+02 -0.23776654336E+01  0.63860462830E+02  0.75574905839E+02  0.00000000000E+00 0. -1.
          1    1    1    2  501    0 -0.13883266283E+03 -0.13560660029E+03  0.48823150505E+03  0.52538905664E+03  0.00000000000E+00 0. -1.
<scales pt_clust_5="13000.00000" pt_clust_6="13000.00000" pt_clust_7="13000.00000" pt_clust_8="13000.00000" pt_clust_9="40.41544" pt_clust_10="13000.00000"></scales>
<clustering>
<clus scale="   40.415">  2  9  1 -1</clus>
<clus scale="   90.980">  7  8 -1 -1</clus>
<clus scale="   91.792">  5  6 -1 -1</clus>
<clus scale="  182.935">  5 10 -1 -1</clus>
<clus scale="  183.215">  1  7  2 -1</clus>
<clus scale="   40.415">  2  5  1 -1</clus>
</clustering>
</event>
<event>
10    2  0.5692308E-006  0.2205838E+03  0.7546771E-02  0.1158478E+00
         21   -1    0    0  501  502  0.00000000000E+00  0.00000000000E+00  0.11062558343E+03  0.11062558343E+03  0.00000000000E+00 0. -1.
          1   -1    0    0  503    0 -0.00000000000E+00 -0.00000000000E+00 -0.61334101963E+03  0.61334101963E+03  0.00000000000E+00 0. -1.
         23    2    1    2    0    0  0.38813773215E+02 -0.44203014473E+02 -0.14250709521E+03  0.17894516159E+03  0.90844279908E+02 0.  0.
         23    2    1    2    0    0 -0.13965634519E+03  0.41431039732E+02 -0.32285751509E+03  0.36587117100E+03  0.91675039730E+02 0.  0.
        -11    1    3    3    0    0  0.20175829907E+02 -0.71619884008E+02 -0.89074291342E+02  0.11606335027E+03  0.00000000000E+00 0. -1.
         11    1    3    3    0    0  0.18637943308E+02  0.27416869535E+02 -0.53432803868E+02  0.62881811321E+02  0.00000000000E+00 0.  1.
        -11    1    4    4    0    0 -0.11251661302E+02 -0.23628026831E+02 -0.31964464605E+02  0.41311142946E+02  0.00000000000E+00 0.  1.
         11    1    4    4    0    0 -0.12840468389E+03  0.65059066563E+02 -0.29089305049E+03  0.32456002805E+03  0.00000000000E+00 0. -1.
         21    1    1    2  503  502  0.50305893450E+02 -0.35097068314E+02  0.44491789382E+02  0.75776028152E+02  0.00000000000E+00 0. -1.
          1    1    1    2  501    0  0.50536678529E+02  0.37869043056E+02 -0.81842615278E+02  0.10337424232E+03  0.00000000000E+00 0. -1.
<scales pt_clust_5="13000.00000" pt_clust_6="13000.00000" pt_clust_7="13000.00000" pt_clust_8="13000.00000" pt_clust_9="61.33912" pt_clust_10="13000.00000"></scales>
<clustering>
<clus scale="   61.339">  1  9  2 -1</clus>
<clus scale="   90.844">  5  6 -1 -1</clus>
<clus scale="   91.675">  7  8 -1 -1</clus>
<clus scale="   68.384">  7 10 -1 -1</clus>
<clus scale="  121.374">  2  5  1 -1</clus>
<clus scale="   61.339">  1  5  2 -1</clus>
</clustering>
</event>
<event>
10    2  0.5692308E-006  0.2654709E+03  0.7546771E-02  0.1114212E+00
          1   -1    0    0  503    0 -0.00000000000E+00  0.00000000000E+00  0.77213448489E+03  0.77213448489E+03  0.00000000000E+00 0. -1.
         21   -1    0    0  501  502  0.00000000000E+00 -0.00000000000E+00 -0.21002635573E+03  0.21002635573E+03  0.00000000000E+00 0. -1.
         23    2    1    2    0    0  0.17453307812E+03  0.36057069838E+02  0.50637343264E+03  0.54456955780E+03  0.91542571269E+02 0.  0.
         23    2    1    2    0    0 -0.94823284015E+02 -0.17047838386E+02  0.15879007819E+03  0.22055953956E+03  0.11895435080E+03 0.  0.
        -11    1    3    3    0    0  0.74690430859E+02  0.12076884462E+02  0.99845506017E+02  0.12527424584E+03  0.00000000000E+00 0.  1.
         11    1    3    3    0    0  0.99842647265E+02  0.23980185377E+02  0.40652792662E+03  0.41929531196E+03  0.00000000000E+00 0. -1.
        -11    1    4    4    0    0 -0.11302215176E+03 -0.32538514313E+02  0.91081196889E+02  0.14875666751E+03  0.00000000000E+00 0.  1.
         11    1    4    4    0    0  0.18198867742E+02  0.15490675926E+02  0.67708881303E+02  0.71802872053E+02  0.00000000000E+00 0. -1.
         21    1    1    2  503  502  0.20842913980E+02  0.36746483676E+01 -0.11160888826E+03  0.11359786108E+03  0.00000000000E+00 0.  1.
          1    1    1    2  501    0 -0.10055270809E+03 -0.22683879819E+02  0.85535065783E+01  0.10343388218E+03  0.00000000000E+00 0. -1.
<scales pt_clust_5="13000.00000" pt_clust_6="13000.00000" pt_clust_7="13000.00000" pt_clust_8="13000.00000" pt_clust_9="21.16436" pt_clust_10="13000.00000"></scales>
<clustering>
<clus scale="   21.164">  2  9  1 -1</clus>
<clus scale="   91.543">  5  6 -1 -1</clus>
<clus scale="  118.954">  7  8 -1 -1</clus>
<clus scale="   92.786">  7 10 -1 -1</clus>
<clus scale="  204.052">  1  5  2 -1</clus>
<clus scale="   21.164">  2  5  1 -1</clus>
</clustering>
</event>
<event>
10    2  0.5692308E-006  0.5067677E+03  0.7546771E-02  0.1052030E+00
         21   -1    0    0  501  502  0.00000000000E+00  0.00000000000E+00  0.22640669995E+03  0.22640669995E+03  0.00000000000E+00 0. -1.
          2   -1    0    0  503    0 -0.00000000000E+00 -0.00000000000E+00 -0.74745495599E+03  0.74745495599E+03  0.00000000000E+00 0. -1.
         23    2    1    2    0    0 -0.12233696165E+03  0.23290387406E+02 -0.15020249283E+03  0.21557556395E+03  0.91669300135E+02 0.  0.
         23    2    1    2    0    0  0.21228394548E+03 -0.91081876233E+02 -0.48588245740E+03  0.55205645402E+03  0.12379088952E+03 0.  0.
        -11    1    3    3    0    0 -0.40055759840E+02  0.52396955090E+02 -0.50486979669E+02  0.83059255446E+02  0.00000000000E+00 0.  1.
         11    1    3    3    0    0 -0.82281201813E+02 -0.29106567684E+02 -0.99715513160E+02  0.13251630850E+03  0.00000000000E+00 0. -1.
        -11    1    4    4    0    0  0.17242020134E+01 -0.45347377385E+02 -0.10631437481E+03  0.11559456648E+03  0.00000000000E+00 0.  1.
         11    1    4    4    0    0  0.21055974346E+03 -0.45734498849E+02 -0.37956808259E+03  0.43646188754E+03  0.00000000000E+00 0. -1.
         21    1    1    2  503  502 -0.70243786159E+01 -0.19039865198E+02  0.77976513680E+02  0.80574158683E+02  0.00000000000E+00 0. -1.
          2    1    1    2  501    0 -0.82922605206E+02  0.86831354026E+02  0.37060180512E+02  0.12565547929E+03  0.00000000000E+00 0. -1.
<scales pt_clust_5="13000.00000" pt_clust_6="13000.00000" pt_clust_7="13000.00000" pt_clust_8="13000.00000" pt_clust_9="20.29429" pt_clust_10="13000.00000"></scales>
<clustering>
<clus scale="   20.294">  1  9  2 -1</clus>
<clus scale="   91.669">  5  6 -1 -1</clus>
<clus scale="  123.791">  7  8 -1 -1</clus>
<clus scale="  115.575">  7 10 -1 -1</clus>
<clus scale="  155.297">  2  5  1 -1</clus>
<clus scale="   20.294">  1  5  2 -1</clus>
</clustering>
</event>
<event>
10    2  0.5692308E-006  0.4203654E+03  0.7546771E-02  0.1047573E+00
         21   -1    0    0  503  502  0.00000000000E+00  0.00000000000E+00  0.22152985172E+03  0.22152985172E+03  0.00000000000E+00 0. -1.
          2   -1    0    0  502    0 -0.00000000000E+00 -0.00000000000E+00 -0.81001485866E+03  0.81001485866E+03  0.00000000000E+00 0. -1.
         23    2    1    2    0    0  0.47034135052E+02  0.26497770071E+03 -0.26832067617E+03  0.39347561263E+03  0.10198863046E+03 0.  0.
         23    2    1    2    0    0  0.80433156632E+02 -0.28576772800E+03 -0.18532748950E+03  0.36196946023E+03  0.92427943430E+02 0.  0.
        -13    1    3    3    0    0  0.44026528185E+02  0.43620876122E+02 -0.32329200716E+02  0.69902025983E+02  0.00000000000E+00 0.  1.
         13    1    3    3    0    0  0.30076068675E+01  0.22135682459E+03 -0.23599147545E+03  0.32357358665E+03  0.00000000000E+00 0. -1.
        -13    1    4    4    0    0  0.99262303640E+02 -0.23986471677E+03 -0.14087490661E+03  0.29535373129E+03  0.00000000000E+00 0. -1.
         13    1    4    4    0    0 -0.18829147009E+02 -0.45903011226E+02 -0.44452582893E+02  0.66615728942E+02  0.00000000000E+00 0.  1.
         21    1    1    2  503  501  0.19033826619E+01  0.76307311962E+02 -0.10884225370E+03  0.13294008017E+03  0.00000000000E+00 0. -1.
          2    1    1    2  501    0 -0.12937067435E+03 -0.55517284671E+02 -0.25994587579E+02  0.14315955735E+03  0.00000000000E+00 0. -1.
<scales pt_clust_5="13000.00000" pt_clust_6="13000.00000" pt_clust_7="13000.00000" pt_clust_8="13000.00000" pt_clust_9="76.33109" pt_clust_10="13000.00000"></scales>
<clustering>
<clus scale="   76.331">  1  9  2 -1</clus>
<clus scale="   92.428">  7  8 -1 -1</clus>
<clus scale="  101.989">  5  6 -1 -1</clus>
<clus scale="  133.295">  7 10 -1 -1</clus>
<clus scale="  309.000">  2  5  1 -1</clus>
<clus scale="   76.331">  1  5  2 -1</clus>
</clustering>
</event>
<event>
10    2  0.5692308E-006  0.1258678E+04  0.7546771E-02  0.9390124E-01
         21   -1    0    0  503  502  0.00000000000E+00  0.00000000000E+00  0.14234707847E+04  0.14234707847E+04  0.00000000000E+00 0.  1.
         -4   -1    0    0    0  501 -0.00000000000E+00 -0.00000000000E+00 -0.58261556404E+03  0.58261556404E+03  0.00000000000E+00 0.  1.
         23    2    1    2    0    0  0.19759016621E+03  0.29412513326E+03  0.20408402773E+03  0.41901275458E+03  0.91487323313E+02 0.  0.
         23    2    1    2    0    0  0.10353677138E+03 -0.22474975196E+02 -0.40036675404E+03  0.42419819670E+03  0.91790984343E+02 0.  0.
        -11    1    4    4    0    0  0.61892231934E+02  0.33003446125E+02 -0.18058135568E+03  0.19372532578E+03  0.00000000000E+00 0.  1.
         11    1    4    4    0    0  0.41644539442E+02 -0.55478421321E+02 -0.21978539836E+03  0.23047287092E+03  0.00000000000E+00 0. -1.
        -13    1    3    3    0    0  0.72791220547E+02  0.18812558031E+03  0.12346182370E+03  0.23650077731E+03  0.00000000000E+00 0.  1.
         13    1    3    3    0    0  0.12479894566E+03  0.10599955294E+03  0.80622204023E+02  0.18251197726E+03  0.00000000000E+00 0. -1.
         21    1    1    2  503  501  0.57779940067E+02 -0.54507642182E+01  0.26026031190E+03  0.26665269970E+03  0.00000000000E+00 0.  1.
         -4    1    1    2    0  502 -0.35890687765E+03 -0.26619939384E+03  0.77687763507E+03  0.89622269776E+03  0.00000000000E+00 0.  1.
<scales pt_clust_5="13000.00000" pt_clust_6="13000.00000" pt_clust_7="13000.00000" pt_clust_8="13000.00000" pt_clust_9="58.03647" pt_clust_10="13000.00000"></scales>
<clustering>
<clus scale="   58.036">  1  9  2 -1</clus>
<clus scale="   91.487">  7  8 -1 -1</clus>
<clus scale="   91.791">  5  6 -1 -1</clus>
<clus scale="  373.411">  2  7  1 -1</clus>
<clus scale="  376.146">  5 10 -1 -1</clus>
<clus scale="   58.036">  1  5  2 -1</clus>
</clustering>
</event>
<event>
10    2  0.5692308E-006  0.3480739E+03  0.7546771E-02  0.1074486E+00
         -2   -1    0    0    0  501 -0.00000000000E+00  0.00000000000E+00  0.13543524911E+04  0.13543524911E+04  0.00000000000E+00 0.  1.
         21   -1    0    0  503  502  0.00000000000E+00 -0.00000000000E+00 -0.11952778110E+03  0.11952778110E+03  0.00000000000E+00 0.  1.
         23    2    1    2    0    0 -0.57735389802E+02 -0.22673241747E+03  0.59596024927E+03  0.64705239332E+03  0.93633416172E+02 0.  0.
         23    2    1    2    0    0  0.83270415554E+02  0.85853670434E+02  0.56004791317E+03  0.57983031557E+03  0.90800412837E+02 0.  0.
        -11    1    4    4    0    0  0.72795787181E+02  0.23896164861E+02  0.41096445776E+03  0.41804549856E+03  0.00000000000E+00 0. -1.
         11    1    4    4    0    0  0.10474628374E+02  0.61957505573E+02  0.14908345541E+03  0.16178481701E+03  0.00000000000E+00 0.  1.
        -11    1    3    3    0    0 -0.31956192457E+02 -0.26582696882E+02  0.50191270312E+02  0.65169023511E+02  0.00000000000E+00 0. -1.
         11    1    3    3    0    0 -0.25779197344E+02 -0.20014972059E+03  0.54576897896E+03  0.58188336981E+03  0.00000000000E+00 0.  1.
         21    1    1    2  503  501 -0.38303721939E+02 -0.30760690642E+01 -0.43228443977E+02  0.57838876925E+02  0.00000000000E+00 0.  1.
         -2    1    1    2    0  502  0.12768696187E+02  0.14395481611E+03  0.12204499156E+03  0.18915868642E+03  0.00000000000E+00 0.  1.
<scales pt_clust_5="13000.00000" pt_clust_6="13000.00000" pt_clust_7="13000.00000" pt_clust_8="13000.00000" pt_clust_9="38.42704" pt_clust_10="13000.00000"></scales>
<clustering>
<clus scale="   38.427">  2  9  1 -1</clus>
<clus scale="   90.800">  5  6 -1 -1</clus>
<clus scale="   93.633">  7  8 -1 -1</clus>
<clus scale="  142.579">  5 10 -1 -1</clus>
<clus scale="  256.641">  1  7  2 -1</clus>
<clus scale="   38.427">  2  5  1 -1</clus>
</clustering>
</event>
<event>
10    2  0.5692308E-006  0.1880105E+03  0.7546771E-02  0.1170815E+00
          4   -1    0    0  502    0 -0.00000000000E+00  0.00000000000E+00  0.33899102966E+03  0.33899102966E+03  0.00000000000E+00 0. -1.
         21   -1    0    0  503  502  0.00000000000E+00 -0.00000000000E+00 -0.15430140344E+03  0.15430140344E+03  0.00000000000E+00 0. -1.
         23    2    1    2    0    0  0.12426911995E+03 -0.11399430676E+02  0.23678338345E+03  0.28131048605E+03  0.86582086433E+02 0.  0.
         23    2    1    2    0    0 -0.50345938222E+02 -0.39915679322E+02 -0.30179796307E+02  0.11397419241E+03  0.89170182685E+02 0.  0.
        -11    1    3    3    0    0  0.28222279247E+02 -0.32784763906E+02  0.31025576853E+02  0.53234614766E+02  0.00000000000E+00 0.  1.
         11    1    3    3    0    0  0.96046840703E+02  0.21385333230E+02  0.20575780660E+03  0.22807587129E+03  0.00000000000E+00 0. -1.
        -13    1    4    4    0    0 -0.35074742988E+02  0.19069061385E+02  0.97879624133E+01  0.41105606746E+02  0.00000000000E+00 0.  1.
         13    1    4    4    0    0 -0.15271195234E+02 -0.58984740707E+02 -0.39967758720E+02  0.72868585668E+02  0.00000000000E+00 0. -1.
         21    1    1    2  503  501 -0.32986708389E+02  0.50331735135E+01 -0.35988415374E+01  0.33561993778E+02  0.00000000000E+00 0.  1.
          4    1    1    2  501    0 -0.40936473338E+02  0.46281936484E+02 -0.18315119389E+02  0.64445760856E+02  0.00000000000E+00 0. -1.
<scales pt_clust_5="13000.00000" pt_clust_6="13000.00000" pt_clust_7="13000.00000" pt_clust_8="13000.00000" pt_clust_9="33.36848" pt_clust_10="13000.00000"></scales>
<clustering>
<clus scale="   33.368">  2  9  1 -1</clus>
<clus scale="   86.582">  5  6 -1 -1</clus>
<clus scale="   89.170">  7  8 -1 -1</clus>
<clus scale="   69.906">  7 10 -1 -1</clus>
<clus scale="  147.430">  1  5  2 -1</clus>
<clus scale="   33.368">  2  5  1 -1</clus>
</clustering>
</event>
<event>
10    2  0.5692308E-006  0.2538705E+03  0.7546771E-02  0.1142597E+00
         21   -1    0    0  503  502  0.00000000000E+00  0.00000000000E+00  0.16521422594E+03  0.16521422594E+03  0.00000000000E+00 0.  1.
          2   -1    0    0  502    0 -0.00000000000E+00 -0.00000000000E+00 -0.54724279655E+03  0.54724279655E+03  0.00000000000E+00 0. -1.
         23    2    1    2    0    0 -0.80291546731E+02  0.59666911662E+02 -0.48242767685E+02  0.14380937523E+03  0.91361364620E+02 0.  0.
         23    2    1    2    0    0  0.34571968770E+00 -0.16618885701E+02 -0.42016529875E+03  0.43087491393E+03  0.94010671201E+02 0.  0.
        -11    1    3    3    0    0 -0.54166145267E+02 -0.11688334174E+02 -0.32668901116E+01  0.55509107539E+02  0.00000000000E+00 0. -1.
         11    1    3    3    0    0 -0.26125401464E+02  0.71355245836E+02 -0.44975877574E+02  0.88300267687E+02  0.00000000000E+00 0.  1.
        -13    1    4    4    0    0 -0.44725975567E+02 -0.20723423011E+02 -0.18911666545E+03  0.19543537628E+03  0.00000000000E+00 0.  1.
         13    1    4    4    0    0  0.45071695255E+02  0.41045373094E+01 -0.23104863330E+03  0.23543953765E+03  0.00000000000E+00 0. -1.
         21    1    1    2  503  501  0.34314187580E+02 -0.37556963476E+02  0.74654633099E+02  0.90339931470E+02  0.00000000000E+00 0. -1.
          2    1    1    2  501    0  0.45631639463E+02 -0.54910624844E+01  0.11724862721E+02  0.47432801869E+02  0.00000000000E+00 0. -1.
<scales pt_clust_5="13000.00000" pt_clust_6="13000.00000" pt_clust_7="13000.00000" pt_clust_8="13000.00000" pt_clust_9="50.87228" pt_clust_10="13000.00000"></scales>
<clustering>
<clus scale="   50.872">  1  9  2 -1</clus>
<clus scale="   91.361">  5  6 -1 -1</clus>
<clus scale="   94.011">  7  8 -1 -1</clus>
<clus scale="   60.915">  7 10 -1 -1</clus>
<clus scale="  115.954">  2  5  1 -1</clus>
<clus scale="   50.872">  1  5  2 -1</clus>
</clustering>
</event>
<event>
10    2  0.5692308E-006  0.4250594E+03  0.7546771E-02  0.1077257E+00
         -3   -1    0    0    0  501 -0.00000000000E+00  0.00000000000E+00  0.44217850260E+03  0.44217850260E+03  0.00000000000E+00 0.  1.
         21   -1    0    0  503  502  0.00000000000E+00 -0.00000000000E+00 -0.26508206348E+03  0.26508206348E+03  0.00000000000E+00 0.  1.
         23    2    1    2    0    0  0.63603623984E+02 -0.53230286353E+02  0.95501483297E+02  0.15657412404E+03  0.92282385303E+02 0.  0.
         23    2    1    2    0    0 -0.20900870718E+02 -0.23712943805E+02  0.24865795414E+03  0.26776817529E+03  0.94179973647E+02 0.  0.
        -11    1    3    3    0    0  0.61244276257E+02  0.66330564146E+01  0.64220354710E+02  0.88989396957E+02  0.00000000000E+00 0.  1.
         11    1    3    3    0    0  0.23593477271E+01 -0.59863342767E+02  0.31281128587E+02  0.67584727081E+02  0.00000000000E+00 0. -1.
        -13    1    4    4    0    0  0.55468438429E+01  0.34219156018E+02  0.10643912364E+03  0.11194197228E+03  0.00000000000E+00 0.  1.
         13    1    4    4    0    0 -0.26447714561E+02 -0.57932099823E+02  0.14221883050E+03  0.15582620301E+03  0.00000000000E+00 0. -1.
         21    1    1    2  503  501  0.81655057179E+02  0.39442976694E+01 -0.41346621717E+02  0.91611401989E+02  0.00000000000E+00 0. -1.
         -3    1    1    2    0  502 -0.12435781044E+03  0.72998932488E+02 -0.12571637660E+03  0.19130686477E+03  0.00000000000E+00 0.  1.
<scales pt_clust_5="13000.00000" pt_clust_6="13000.00000" pt_clust_7="13000.00000" pt_clust_8="13000.00000" pt_clust_9="81.75027" pt_clust_10="13000.00000"></scales>
<clustering>
<clus scale="   81.750">  2  9  1 -1</clus>
<clus scale="   92.282">  5  6 -1 -1</clus>
<clus scale="   94.180">  7  8 -1 -1</clus>
<clus scale="   96.444">  7 10 -1 -1</clus>
<clus scale="  130.711">  1  5  2 -1</clus>
<clus scale="   81.750">  2  5  1 -1</clus>
</clustering>
</event>
<event>
10    2  0.5692308E-006  0.1829699E+03  0.7546771E-02  0.1195590E+00
         -2   -1    0    0    0  501 -0.00000000000E+00  0.00000000000E+00  0.74451965152E+03  0.74451965152E+03  0.00000000000E+00 0.  1.
         21   -1    0    0  501  502  0.00000000000E+00 -0.00000000000E+00 -0.52603453642E+02  0.52603453642E+02  0.00000000000E+00 0. -1.
         23    2    1    2    0    0 -0.24104704331E+01 -0.50799027455E+01  0.46598147774E+03  0.47491295998E+03  0.91498449046E+02 0.  0.
         23    2    1    2    0    0  0.65663900972E+02  0.61351098130E+02  0.13154926345E+03  0.18375024844E+03  0.91560034687E+02 0.  0.
        -13    1    4    4    0    0 -0.22886205146E+02  0.20450915873E+02  0.29107930210E+02  0.42299999375E+02  0.00000000000E+00 0.  1.
         13    1    4    4    0    0  0.88550106118E+02  0.40900182257E+02  0.10244133324E+03  0.14145024906E+03  0.00000000000E+00 0. -1.
        -13    1    3    3    0    0 -0.16239560760E+02  0.40213014131E+02  0.25694507395E+03  0.26057931781E+03  0.00000000000E+00 0.  1.
         13    1    3    3    0    0  0.13829090327E+02 -0.45292916876E+02  0.20903640379E+03  0.21433364218E+03  0.00000000000E+00 0. -1.
         21    1    1    2  503  502 -0.25609243492E+02 -0.16516877320E+02  0.13415137700E+01  0.30503118658E+02  0.00000000000E+00 0.  1.
         -2    1    1    2    0  503 -0.37644187047E+02 -0.39754318064E+02  0.93043942909E+02  0.10795677809E+03  0.00000000000E+00 0.  1.
<scales pt_clust_5="13000.00000" pt_clust_6="13000.00000" pt_clust_7="13000.00000" pt_clust_8="13000.00000" pt_clust_9="30.47360" pt_clust_10="13000.00000"></scales>
<clustering>
<clus scale="   30.474">  2  9  1 -1</clus>
<clus scale="   91.498">  7  8 -1 -1</clus>
<clus scale="   91.560">  5  6 -1 -1</clus>
<clus scale="   60.571">  5 10 -1 -1</clus>
<clus scale="   91.927">  1  7  2 -1</clus>
<clus scale="   30.474">  2  5  1 -1</clus>
</clustering>
</event>
<event>
10    2  0.5692308E-006  0.1277895E+03  0.7546771E-02  0.1245717E+00
         21   -1    0    0  503  502  0.00000000000E+00  0.00000000000E+00  0.69005214089E+02  0.69005214089E+02  0.00000000000E+00 0.  1.
         -3   -1    0    0    0  501 -0.00000000000E+00 -0.00000000000E+00 -0.64132123549E+03  0.64132123549E+03  0.00000000000E+00 0.  1.
         23    2    1    2    0    0  0.20492978840E+02 -0.23881938676E+02 -0.48018585498E+03  0.48907279005E+03  0.87312252679E+02 0.  0.
         23    2    1    2    0    0 -0.17450681396E+02  0.27466892818E+02 -0.10443934909E+03  0.14277915210E+03  0.91757027821E+02 0.  0.
        -13    1    4    4    0    0 -0.42571157187E+02 -0.17132162448E+02 -0.43979886865E+02  0.63561347241E+02  0.00000000000E+00 0. -1.
         13    1    4    4    0    0  0.25120475791E+02  0.44599055266E+02 -0.60459462222E+02  0.79217804860E+02  0.00000000000E+00 0.  1.
        -13    1    3    3    0    0  0.29150190148E+02 -0.53319124417E+02 -0.35622212242E+03  0.36136804385E+03  0.00000000000E+00 0.  1.
         13    1    3    3    0    0 -0.86572113082E+01  0.29437185741E+02 -0.12396373256E+03  0.12770474620E+03  0.00000000000E+00 0. -1.
         21    1    1    2  503  501  0.29127790418E+02 -0.19680567085E+02  0.21681241171E+02  0.41301684157E+02  0.00000000000E+00 0.  1.
         -3    1    1    2    0  502 -0.32170087862E+02  0.16095612943E+02 -0.93720585007E+01  0.37172823267E+02  0.00000000000E+00 0.  1.
<scales pt_clust_5="13000.00000" pt_clust_6="13000.00000" pt_clust_7="13000.00000" pt_clust_8="13000.00000" pt_clust_9="35.15328" pt_clust_10="13000.00000"></scales>
<clustering>
<clus scale="   35.153">  1  9  2 -1</clus>
<clus scale="   87.312">  7  8 -1 -1</clus>
<clus scale="   91.757">  5  6 -1 -1</clus>
<clus scale="   23.119">  5 10 -1 -1</clus>
<clus scale="   94.254">  2  7  1 -1</clus>
<clus scale="   35.153">  1  5  2 -1</clus>
</clustering>
</event>
<event>
10    2  0.5692308E-006  0.2006438E+03  0.7546771E-02  0.1174038E+00
         21   -1    0    0  501  502  0.00000000000E+00  0.00000000000E+00  0.31312368687E+03  0.31312368687E+03  0.00000000000E+00 0.  1.
          3   -1    0    0  503    0 -0.00000000000E+00 -0.00000000000E+00 -0.13304411048E+03  0.13304411048E+03  0.00000000000E+00 0. -1.
         23    2    1    2    0    0  0.71827807094E+01 -0.46297372606E+02 -0.40232255308E+02  0.12152256552E+03  0.10466164777E+03 0.  0.
         23    2    1    2    0    0 -0.62545981690E+02  0.33761907875E+02  0.81937217367E+02  0.14462917109E+03  0.95666207673E+02 0.  0.
        -13    1    4    4    0    0 -0.37473547396E+02  0.49939101798E+02  0.93666537484E+02  0.11256820549E+03  0.00000000000E+00 0.  1.
         13    1    4    4    0    0 -0.25072434294E+02 -0.16177193923E+02 -0.11729320117E+02  0.32060965597E+02  0.00000000000E+00 0. -1.
        -13    1    3    3    0    0 -0.19182496386E+02  0.17540657983E+02  0.17640050487E+02  0.31413599464E+02  0.00000000000E+00 0.  1.
         13    1    3    3    0    0  0.26365277095E+02 -0.63838030590E+02 -0.57872305795E+02  0.90108966057E+02  0.00000000000E+00 0. -1.
         21    1    1    2  503  502 -0.20392526693E+02  0.27920210185E+02  0.64013191962E+02  0.72753570544E+02  0.00000000000E+00 0.  1.
          3    1    1    2  501    0  0.75755727673E+02 -0.15384745454E+02  0.74361422366E+02  0.10726249020E+03  0.00000000000E+00 0. -1.
<scales pt_clust_5="13000.00000" pt_clust_6="13000.00000" pt_clust_7="13000.00000" pt_clust_8="13000.00000" pt_clust_9="34.57446" pt_clust_10="13000.00000"></scales>
<clustering>
<clus scale="   34.574">  1  9  2 -1</clus>
<clus scale="   95.666">  5  6 -1 -1</clus>
<clus scale="   68.374">  5 10 -1 -1</clus>
<clus scale="  104.662">  7  8 -1 -1</clus>
<clus scale="  112.712">  2  7  1 -1</clus>
<clus scale="   34.574">  1  5  2 -1</clus>
</clustering>
</event>
<event>
10    2  0.5692308E-006  0.1950206E+03  0.7546771E-02  0.1165687E+00
         21   -1    0    0  501  502  0.00000000000E+00  0.00000000000E+00  0.31660994589E+03  0.31660994589E+03  0.00000000000E+00 0. -1.
          1   -1    0    0  503    0 -0.00000000000E+00 -0.00000000000E+00 -0.34968066401E+03  0.34968066401E+03  0.00000000000E+00 0. -1.
         23    2    1    2    0    0  0.66523698693E+02 -0.96764473458E+02 -0.28961357388E+03  0.32523614787E+03  0.90076433640E+02 0.  0.
         23    2    1    2    0    0 -0.13240167262E+02  0.77195740412E+02  0.86841514845E+02  0.14889509626E+03  0.92161904395E+02 0.  0.
        -11    1    3    3    0    0 -0.21126880054E+02 -0.26914945595E+02 -0.48595103080E+02  0.59432679567E+02  0.00000000000E+00 0.  1.
         11    1    3    3    0    0  0.87650578747E+02 -0.69849527863E+02 -0.24101847080E+03  0.26580346831E+03  0.00000000000E+00 0. -1.
        -13    1    4    4    0    0  0.19416059539E+02 -0.12095898599E+02  0.31354132836E+02  0.38812057106E+02  0.00000000000E+00 0.  1.
         13    1    4    4    0    0 -0.32656226801E+02  0.89291639012E+02  0.55487382009E+02  0.11008303915E+03  0.00000000000E+00 0. -1.
         21    1    1    2  503  502 -0.62136240389E+01 -0.19342635758E+02  0.13365243722E+02  0.24318232286E+02  0.00000000000E+00 0. -1.
          1    1    1    2  501    0 -0.47069907392E+02  0.38911368803E+02  0.15633609720E+03  0.16784113349E+03  0.00000000000E+00 0. -1.
<scales pt_clust_5="13000.00000" pt_clust_6="13000.00000" pt_clust_7="13000.00000" pt_clust_8="13000.00000" pt_clust_9="20.31617" pt_clust_10="13000.00000"></scales>
<clustering>
<clus scale="   20.316">  1  9  2 -1</clus>
<clus scale="   90.076">  5  6 -1 -1</clus>
<clus scale="   92.162">  7  8 -1 -1</clus>
<clus scale="   57.888">  7 10 -1 -1</clus>
<clus scale="  148.588">  2  5  1 -1</clus>
<clus scale="   20.316">  1  5  2 -1</clus>
</clustering>
</event>
<event>
10    2  0.5692308E-006  0.4252579E+03  0.7546771E-02  0.1081182E+00
          2   -1    0    0  503    0 -0.00000000000E+00  0.00000000000E+00  0.13419129997E+04  0.13419129997E+04  0.00000000000E+00 0.  1.
         21   -1    0    0  501  502  0.00000000000E+00 -0.00000000000E+00 -0.61572894685E+02  0.61572894685E+02  0.00000000000E+00 0. -1.
         23    2    1    2    0    0  0.52756327368E+02  0.57294865487E+02  0.23246912963E+03  0.26137148588E+03  0.90593739901E+02 0.  0.
         23    2    1    2    0    0  0.11703265502E+03 -0.13449624846E+03  0.32851526153E+03  0.38467893577E+03  0.90938019386E+02 0.  0.
        -13    1    3    3    0    0  0.43134740343E+02  0.35595994727E+02  0.23090773603E+03  0.23758380253E+03  0.00000000000E+00 0.  1.
         13    1    3    3    0    0  0.96215870250E+01  0.21698870761E+02  0.15613936020E+01  0.23787683350E+02  0.00000000000E+00 0. -1.
        -13    1    4    4    0    0 -0.69750439714E+01 -0.29326977975E+02  0.20733630596E+02  0.36586969173E+02  0.00000000000E+00 0.  1.
         13    1    4    4    0    0  0.12400769899E+03 -0.10516927049E+03  0.30778163094E+03  0.34809196659E+03  0.00000000000E+00 0. -1.
         21    1    1    2  503  502  0.31458945957E+01 -0.20382482736E+02  0.14673621100E+02  0.25311211181E+02  0.00000000000E+00 0. -1.
          2    1    1    2  501    0 -0.17293487698E+03  0.97583865711E+02  0.70468209279E+03  0.73212426160E+03  0.00000000000E+00 0.  1.
<scales pt_clust_5="13000.00000" pt_clust_6="13000.00000" pt_clust_7="13000.00000" pt_clust_8="13000.00000" pt_clust_9="20.62383" pt_clust_10="13000.00000"></scales>
<clustering>
<clus scale="   20.624">  2  9  1 -1</clus>
<clus scale="   90.594">  5  6 -1 -1</clus>
<clus scale="   90.938">  7  8 -1 -1</clus>
<clus scale="  117.416">  1  5  2 -1</clus>
<clus scale="  186.742">  7 10 -1 -1</clus>
<clus scale="   20.624">  2  5  1 -1</clus>
</clustering>
</event>
<event>
10    2  0.5692308E-006  0.2300992E+03  0.7546771E-02  0.1140201E+00
         -1   -1    0    0    0  501 -0.00000000000E+00  0.00000000000E+00  0.91945276975E+03  0.91945276975E+03  0.00000000000E+00 0.  1.
         21   -1    0    0  503  502  0.00000000000E+00 -0.00000000000E+00 -0.56808006754E+02  0.56808006754E+02  0.00000000000E+00 0. -1.
         23    2    1    2    0    0 -0.11688129098E+03 -0.61570586341E+02  0.42480043664E+03  0.45495522902E+03  0.95271591567E+02 0.  0.
         23    2    1    2    0    0  0.15785799508E+02  0.86283342917E+02  0.17396731586E+03  0.21567569392E+03  0.92506060503E+02 0.  0.
        -11    1    4    4    0    0  0.46583933238E+02  0.23135619850E+02  0.44842345737E+02  0.68674272569E+02  0.00000000000E+00 0.  1.
         11    1    4    4    0    0 -0.30798133731E+02  0.63147723067E+02  0.12912497013E+03  0.14700142135E+03  0.00000000000E+00 0. -1.
        -13    1    3    3    0    0 -0.60861146917E+02 -0.82977482929E+02  0.26749744074E+03  0.28660813435E+03  0.00000000000E+00 0.  1.
         13    1    3    3    0    0 -0.56020144061E+02  0.21406896588E+02  0.15730299590E+03  0.16834709467E+03  0.00000000000E+00 0. -1.
         21    1    1    2  503  501  0.52621469602E+01 -0.24661874692E+02  0.35100991443E+00  0.25219465933E+02  0.00000000000E+00 0. -1.
         -1    1    1    2    0  502  0.95833344510E+02 -0.50881883345E-01  0.26352600058E+03  0.28041038763E+03  0.00000000000E+00 0.  1.
<scales pt_clust_5="13000.00000" pt_clust_6="13000.00000" pt_clust_7="13000.00000" pt_clust_8="13000.00000" pt_clust_9="25.21702" pt_clust_10="13000.00000"></scales>
<clustering>
<clus scale="   25.217">  2  9  1 -1</clus>
<clus scale="   92.506">  5  6 -1 -1</clus>
<clus scale="   95.272">  7  8 -1 -1</clus>
<clus scale="   96.951">  5 10 -1 -1</clus>
<clus scale="  164.973">  1  7  2 -1</clus>
<clus scale="   25.217">  2  5  1 -1</clus>
</clustering>
</event>
<event>
10    2  0.5692308E-006  0.3001789E+03  0.7546771E-02  0.1105081E+00
          1   -1    0    0  502    0 -0.00000000000E+00  0.00000000000E+00  0.44456998538E+03  0.44456998538E+03  0.00000000000E+00 0. -1.
         21   -1    0    0  503  502  0.00000000000E+00 -0.00000000000E+00 -0.17933340149E+03  0.17933340149E+03  0.00000000000E+00 0. -1.
         23    2    1    2    0    0 -0.52544635576E+02  0.15021649751E+03  0.69693035396E+02  0.19558731617E+03  0.89840660118E+02 0.  0.
         23    2    1    2    0    0  0.45785436889E+02 -0.26869305589E+02  0.21649964159E+03  0.24189289474E+03  0.93924501084E+02 0.  0.
        -11    1    3    3    0    0 -0.16291223995E+02  0.14480705986E+03  0.60617322170E+02  0.15782568965E+03  0.00000000000E+00 0. -1.
         11    1    3    3    0    0 -0.36253411581E+02  0.54094376488E+01  0.90757132263E+01  0.37761626521E+02  0.00000000000E+00 0.  1.
        -13    1    4    4    0    0 -0.28544688337E+02  0.68769604285E+00  0.61015608460E+02  0.67365990187E+02  0.00000000000E+00 0.  1.
         13    1    4    4    0    0  0.74330125226E+02 -0.27557001631E+02  0.15548403313E+03  0.17452690455E+03  0.00000000000E+00 0. -1.
         21    1    1    2  503  501  0.47781165723E+02  0.10854151139E+01 -0.27680347516E+02  0.55230603495E+02  0.00000000000E+00 0. -1.
          1    1    1    2  501    0 -0.41021967036E+02 -0.12443260704E+03  0.67242544218E+01  0.13119257247E+03  0.00000000000E+00 0. -1.
<scales pt_clust_5="13000.00000" pt_clust_6="13000.00000" pt_clust_7="13000.00000" pt_clust_8="13000.00000" pt_clust_9="47.79349" pt_clust_10="13000.00000"></scales>
<clustering>
<clus scale="   47.793">  2  9  1 -1</clus>
<clus scale="   89.841">  5  6 -1 -1</clus>
<clus scale="   93.925">  7  8 -1 -1</clus>
<clus scale="  125.460">  7 10 -1 -1</clus>
<clus scale="  178.129">  1  5  2 -1</clus>
<clus scale="   47.793">  2  5  1 -1</clus>
</clustering>
</event>
<event>
10    2  0.5692308E-006  0.2399932E+03  0.7546771E-02  0.1143139E+00
          2   -1    0    0  503    0 -0.00000000000E+00  0.00000000000E+00  0.77900174055E+03  0.77900174055E+03  0.00000000000E+00 0. -1.
         21   -1    0    0  501  502  0.00000000000E+00 -0.00000000000E+00 -0.86112831203E+02  0.86112831203E+02  0.00000000000E+00 0.  1.
         23    2    1    2    0    0  0.61743031881E+01 -0.83486436030E+02  0.11281167545E+03  0.16994661645E+03  0.95641368176E+02 0.  0.
         23    2    1    2    0    0 -0.33732797839E+02  0.10551959063E+03  0.59886115485E+03  0.61591823026E+03  0.91914622956E+02 0.  0.
        -13    1    3    3    0    0  0.34765305044E+02 -0.43113087042E+00  0.54044540076E+02  0.64262155431E+02  0.00000000000E+00 0. -1.
         13    1    3    3    0    0 -0.28591001856E+02 -0.83055305159E+02  0.58767135370E+02  0.10568446102E+03  0.00000000000E+00 0.  1.
        -13    1    4    4    0    0 -0.57201534445E+02  0.97651973352E+02  0.54521667663E+03  0.55683852948E+03  0.00000000000E+00 0. -1.
         13    1    4    4    0    0  0.23468736606E+02  0.78676172783E+01  0.53644478223E+02  0.59079700772E+02  0.00000000000E+00 0.  1.
         21    1    1    2  503  502  0.50531479886E+02 -0.12090636031E+02 -0.12450527299E+02  0.53428733553E+02  0.00000000000E+00 0.  1.
          2    1    1    2  501    0 -0.22972985235E+02 -0.99425185691E+01 -0.63333936567E+01  0.25820991486E+02  0.00000000000E+00 0. -1.
<scales pt_clust_5="13000.00000" pt_clust_6="13000.00000" pt_clust_7="13000.00000" pt_clust_8="13000.00000" pt_clust_9="51.95781" pt_clust_10="13000.00000"></scales>
<clustering>
<clus scale="   51.958">  2  9  1 -1</clus>
<clus scale="   91.915">  7  8 -1 -1</clus>
<clus scale="   15.624">  7 10 -1 -1</clus>
<clus scale="   95.641">  5  6 -1 -1</clus>
<clus scale="  135.479">  1  5  2 -1</clus>
<clus scale="   51.958">  2  5  1 -1</clus>
</clustering>
</event>
<event>
10    2  0.5692308E-006  0.2053207E+03  0.7546771E-02  0.1172024E+00
          2   -1    0    0  503    0 -0.00000000000E+00  0.00000000000E+00  0.50666320513E+03  0.50666320513E+03  0.00000000000E+00 0. -1.
         21   -1    0    0  501  502  0.00000000000E+00 -0.00000000000E+00 -0.72594845337E+02  0.72594845337E+02  0.00000000000E+00 0. -1.
         23    2    1    2    0    0 -0.20579944881E+02 -0.43796889646E+02  0.94868345901E+02  0.14085593131E+03  0.92188332538E+02 0.  0.
         23    2    1    2    0    0 -0.12238030744E+02  0.96365789463E+02  0.17445113204E+03  0.22008235121E+03  0.92557598658E+02 0.  0.
        -11    1    3    3    0    0  0.36654270888E+02 -0.17062323651E+02  0.43959337187E+02  0.59725051600E+02  0.00000000000E+00 0.  1.
         11    1    3    3    0    0 -0.57234215769E+02 -0.26734565995E+02  0.50909008713E+02  0.81130879706E+02  0.00000000000E+00 0. -1.
        -11    1    4    4    0    0  0.11612003024E+02  0.99237559211E+02  0.98029146365E+02  0.13997373078E+03  0.00000000000E+00 0. -1.
         11    1    4    4    0    0 -0.23850033769E+02 -0.28717697477E+01  0.76421985678E+02  0.80108620430E+02  0.00000000000E+00 0.  1.
         21    1    1    2  503  502 -0.25753737256E+02 -0.16612219174E+02 -0.86109115213E+01  0.31833451050E+02  0.00000000000E+00 0. -1.
          2    1    1    2  501    0  0.58571712882E+02 -0.35956680643E+02  0.17335979337E+03  0.18648631690E+03  0.00000000000E+00 0. -1.
<scales pt_clust_5="13000.00000" pt_clust_6="13000.00000" pt_clust_7="13000.00000" pt_clust_8="13000.00000" pt_clust_9="30.64671" pt_clust_10="13000.00000"></scales>
<clustering>
<clus scale="   30.647">  2  9  1 -1</clus>
<clus scale="   92.188">  5  6 -1 -1</clus>
<clus scale="   92.558">  7  8 -1 -1</clus>
<clus scale="   67.156">  7 10 -1 -1</clus>
<clus scale="  110.117">  1  5  2 -1</clus>
<clus scale="   30.647">  2  5  1 -1</clus>
</clustering>
</event>
<event>
10    2  0.5692308E-006  0.1488291E+03  0.7546771E-02  0.1224059E+00
          1   -1    0    0  502    0 -0.00000000000E+00  0.00000000000E+00  0.13457094506E+03  0.13457094506E+03  0.00000000000E+00 0. -1.
         21   -1    0    0  503  502  0.00000000000E+00 -0.00000000000E+00 -0.32679306223E+03  0.32679306223E+03  0.00000000000E+00 0.  1.
         23    2    1    2    0    0  0.30599230718E+02 -0.98213656253E+01  0.17241237044E+02  0.98478066311E+02  0.91476210822E+02 0.  0.
         23    2    1    2    0    0 -0.26063135049E+01  0.20782550742E+01  0.32906457577E+02  0.95228446418E+02  0.89300112221E+02 0.  0.
        -11    1    3    3    0    0  0.56465926338E+02 -0.26398128748E+02  0.24391626384E+02  0.66934396809E+02  0.00000000000E+00 0. -1.
         11    1    3    3    0    0 -0.25866695620E+02  0.16576763122E+02 -0.71503893400E+01  0.31543669502E+02  0.00000000000E+00 0.  1.
        -13    1    4    4    0    0 -0.51469843565E+01  0.23046546901E+02 -0.24519239439E+02  0.34041560991E+02  0.00000000000E+00 0.  1.
         13    1    4    4    0    0  0.25406708516E+01 -0.20968291827E+02  0.57425697016E+02  0.61186885427E+02  0.00000000000E+00 0. -1.
         21    1    1    2  503  501 -0.43874524143E+02  0.44059866704E+02 -0.20085274582E+03  0.21025715499E+03  0.00000000000E+00 0.  1.
          1    1    1    2  501    0  0.15881606930E+02 -0.36316756153E+02 -0.41517065974E+02  0.57400339574E+02  0.00000000000E+00 0. -1.
<scales pt_clust_5="13000.00000" pt_clust_6="13000.00000" pt_clust_7="13000.00000" pt_clust_8="13000.00000" pt_clust_9="62.17914" pt_clust_10="13000.00000"></scales>
<clustering>
<clus scale="   62.179">  2  9  1 -1</clus>
<clus scale="   89.300">  7  8 -1 -1</clus>
<clus scale="   18.453">  7 10 -1 -1</clus>
<clus scale="   91.476">  5  6 -1 -1</clus>
<clus scale="   92.979">  1  5  2 -1</clus>
<clus scale="   62.179">  2  5  1 -1</clus>
</clustering>
</event>
<event>
10    2  0.5692308E-006  0.2455788E+03  0.7546771E-02  0.1121686E+00
         21   -1    0    0  503  502  0.00000000000E+00  0.00000000000E+00  0.36964484041E+03  0.36964484041E+03  0.00000000000E+00 0. -1.
          1   -1    0    0  502    0 -0.00000000000E+00 -0.00000000000E+00 -0.39777682075E+03  0.39777682075E+03  0.00000000000E+00 0. -1.
         23    2    1    2    0    0  0.56068041812E+02 -0.14087741035E+03  0.17624685848E+03  0.24967516616E+03  0.91020126418E+02 0.  0.
         23    2    1    2    0    0  0.55534576463E+02  0.18936277355E+03 -0.23778050503E+03  0.32202850249E+03  0.90666634761E+02 0.  0.
        -11    1    4    4    0    0  0.29392247337E+02  0.13001708757E+03 -0.21562352113E+03  0.25349921130E+03  0.00000000000E+00 0. -1.
         11    1    4    4    0    0  0.26142329126E+02  0.59345685981E+02 -0.22156983895E+02  0.68529291197E+02  0.00000000000E+00 0.  1.
        -11    1    3    3    0    0 -0.83517588349E+01 -0.89882622612E+02  0.64368538027E+02  0.11086905074E+03  0.00000000000E+00 0.  1.
         11    1    3    3    0    0  0.64419800647E+02 -0.50994787739E+02  0.11187832045E+03  0.13880611542E+03  0.00000000000E+00 0. -1.
         21    1    1    2  503  501 -0.76802698916E+02 -0.64218917129E+02  0.85132705411E+02  0.13141651878E+03  0.00000000000E+00 0. -1.
          1    1    1    2  501    0 -0.34799919359E+02  0.15733553932E+02 -0.51731039207E+02  0.64301473732E+02  0.00000000000E+00 0. -1.
<scales pt_clust_5="13000.00000" pt_clust_6="13000.00000" pt_clust_7="13000.00000" pt_clust_8="13000.00000" pt_clust_9="100.11355" pt_clust_10="13000.00000"></scales>
<clustering>
<clus scale="   90.667">  5  6 -1 -1</clus>
<clus scale="   38.191">  5 10 -1 -1</clus>
<clus scale="   91.020">  7  8 -1 -1</clus>
<clus scale="  100.114">  1  9  2 -1</clus>
<clus scale="  213.668">  2  7  1 -1</clus>
<clus scale="  100.114">  1  5  2 -1</clus>
</clustering>
</event>
<event>
10    2  0.5692308E-006  0.6623629E+03  0.7546771E-02  0.9957972E-01
         21   -1    0    0  503  502  0.00000000000E+00  0.00000000000E+00  0.24730927378E+03  0.24730927378E+03  0.00000000000E+00 0. -1.
          1   -1    0    0  502    0 -0.00000000000E+00 -0.00000000000E+00 -0.14027160610E+04  0.14027160610E+04  0.00000000000E+00 0. -1.
         23    2    1    2    0    0 -0.29417940424E+03  0.17785118155E+03 -0.10774861902E+03  0.37146594403E+03  0.90579346533E+02 0.  0.
         23    2    1    2    0    0  0.32291977909E+01 -0.26324933361E+03 -0.67362791310E+03  0.72881585692E+03  0.89929687117E+02 0.  0.
        -11    1    3    3    0    0 -0.24750134355E+03  0.18199844730E+03 -0.10446435053E+03  0.32448906054E+03  0.00000000000E+00 0. -1.
         11    1    3    3    0    0 -0.46678060687E+02 -0.41472657578E+01 -0.32842684960E+01  0.46976883489E+02  0.00000000000E+00 0.  1.
        -11    1    4    4    0    0  0.18301029294E+02 -0.88520587566E+02 -0.34110326508E+03  0.35287711678E+03  0.00000000000E+00 0.  1.
         11    1    4    4    0    0 -0.15071831503E+02 -0.17472874605E+03 -0.33252464802E+03  0.37593874014E+03  0.00000000000E+00 0. -1.
         21    1    1    2  503  501 -0.48167467830E+02 -0.53486343939E+01 -0.24291855070E+02  0.54210765257E+02  0.00000000000E+00 0.  1.
          1    1    1    2  501    0  0.33911767428E+03  0.90746786459E+02 -0.34973840000E+03  0.49553276854E+03  0.00000000000E+00 0. -1.
<scales pt_clust_5="13000.00000" pt_clust_6="13000.00000" pt_clust_7="13000.00000" pt_clust_8="13000.00000" pt_clust_9="48.46352" pt_clust_10="13000.00000"></scales>
<clustering>
<clus scale="   48.464">  1  9  2 -1</clus>
<clus scale="   89.930">  7  8 -1 -1</clus>
<clus scale="   90.579">  5  6 -1 -1</clus>
<clus scale="  336.025">  7 10 -1 -1</clus>
<clus scale="  377.010">  2  5  1 -1</clus>
<clus scale="   48.464">  1  5  2 -1</clus>
</clustering>
</event>
<event>
10    2  0.5692308E-006  0.6667514E+03  0.7546771E-02  0.1041924E+00
          2   -1    0    0  503    0 -0.00000000000E+00  0.00000000000E+00  0.35207310007E+03  0.35207310007E+03  0.00000000000E+00 0. -1.
         21   -1    0    0  501  502  0.00000000000E+00 -0.00000000000E+00 -0.96553904109E+03  0.96553904109E+03  0.00000000000E+00 0. -1.
         23    2    1    2    0    0  0.32993309806E+01 -0.34640588259E+01  0.17504303154E+03  0.19734406097E+03  0.91004012112E+02 0.  0.
         23    2    1    2    0    0  0.33189417864E+03  0.11046198065E+03 -0.25433068456E+03  0.44216548053E+03  0.92035971659E+02 0.  0.
        -11    1    3    3    0    0  0.39429885407E+02  0.19087680620E+02  0.12000719549E+03  0.12775281752E+03  0.00000000000E+00 0. -1.
         11    1    3    3    0    0 -0.36130554426E+02 -0.22551739446E+02  0.55035836049E+02  0.69591243449E+02  0.00000000000E+00 0.  1.
        -13    1    4    4    0    0  0.40122526933E+02 -0.16623472257E+02 -0.28974928160E+02  0.52208270027E+02  0.00000000000E+00 0.  1.
         13    1    4    4    0    0  0.29177165170E+03  0.12708545290E+03 -0.22535575640E+03  0.38995721050E+03  0.00000000000E+00 0. -1.
         21    1    1    2  503  502 -0.37248874175E+02 -0.10721552347E+03 -0.20337823368E+03  0.23290631815E+03  0.00000000000E+00 0. -1.
          2    1    1    2  501    0 -0.29794463544E+03  0.21760165457E+00 -0.33080005431E+03  0.44519628151E+03  0.00000000000E+00 0. -1.
<scales pt_clust_5="13000.00000" pt_clust_6="13000.00000" pt_clust_7="13000.00000" pt_clust_8="13000.00000" pt_clust_9="113.69725" pt_clust_10="13000.00000"></scales>
<clustering>
<clus scale="   91.004">  5  6 -1 -1</clus>
<clus scale="   91.130">  1  5  2 -1</clus>
<clus scale="   92.036">  7  8 -1 -1</clus>
<clus scale="  113.697">  2  9  1 -1</clus>
<clus scale="  321.250">  7 10 -1 -1</clus>
<clus scale="  113.697">  2  5  1 -1</clus>
</clustering>
</event>
<event>
10    2  0.5692308E-006  0.1469427E+03  0.7546771E-02  0.1225632E+00
         -2   -1    0    0    0  501 -0.00000000000E+00  0.00000000000E+00  0.21465435768E+03  0.21465435768E+03  0.00000000000E+00 0.  1.
         21   -1    0    0  501  502  0.00000000000E+00 -0.00000000000E+00 -0.14080816437E+03  0.14080816437E+03  0.00000000000E+00 0.  1.
         23    2    1    2    0    0 -0.13815968453E+00 -0.22649197973E+02  0.11459633684E+03  0.14870273200E+03  0.92017263759E+02 0.  0.
         23    2    1    2    0    0 -0.36821496138E+02 -0.41224785310E+02 -0.17852407414E+01  0.10383379567E+03  0.87880399048E+02 0.  0.
        -11    1    3    3    0    0 -0.32492658661E+01  0.24686183718E+02  0.24281596240E+00  0.24900288248E+02  0.00000000000E+00 0. -1.
         11    1    3    3    0    0  0.31111061816E+01 -0.47335381691E+02  0.11435352088E+03  0.12380244375E+03  0.00000000000E+00 0.  1.
        -11    1    4    4    0    0 -0.53184792060E+01 -0.64291514315E+02  0.24644575344E+01  0.64558179846E+02  0.00000000000E+00 0.  1.
         11    1    4    4    0    0 -0.31503016932E+02  0.23066729006E+02 -0.42496982758E+01  0.39275615823E+02  0.00000000000E+00 0. -1.
         21    1    1    2  503  502  0.10784312382E+02  0.31385073220E+02 -0.49777912515E+02  0.59826121293E+02  0.00000000000E+00 0.  1.
         -2    1    1    2    0  503  0.26175343440E+02  0.32488910063E+02  0.10813009720E+02  0.43099873091E+02  0.00000000000E+00 0.  1.
<scales pt_clust_5="13000.00000" pt_clust_6="13000.00000" pt_clust_7="13000.00000" pt_clust_8="13000.00000" pt_clust_9="33.18621" pt_clust_10="13000.00000"></scales>
<clustering>
<clus scale="   33.186">  2  9  1 -1</clus>
<clus scale="   87.880">  7  8 -1 -1</clus>
<clus scale="   47.626">  7 10 -1 -1</clus>
<clus scale="   92.017">  5  6 -1 -1</clus>
<clus scale="   93.493">  1  5  2 -1</clus>
<clus scale="   33.186">  2  5  1 -1</clus>
</clustering>
</event>
<event>
10    2  0.5692308E-006  0.2452128E+03  0.7546771E-02  0.1129259E+00
          3   -1    0    0  503    0 -0.00000000000E+00  0.00000000000E+00  0.76679197100E+03  0.76679197100E+03  0.00000000000E+00 0. -1.
         21   -1    0    0  501  502  0.00000000000E+00 -0.00000000000E+00 -0.10143207968E+03  0.10143207968E+03  0.00000000000E+00 0. -1.
         23    2    1    2    0    0  0.94806963782E+02  0.18354571971E+03  0.24235060735E+03  0.33111789325E+03  0.90707501032E+02 0.  0.
         23    2    1    2    0    0 -0.12612391296E+02  0.11873206200E+01  0.24155152956E+03  0.25900098213E+03  0.92595276163E+02 0.  0.
        -11    1    3    3    0    0  0.63308438710E+02  0.17622861118E+03  0.17451388821E+03  0.25596792570E+03  0.00000000000E+00 0. -1.
         11    1    3    3    0    0  0.31498525072E+02  0.73171085276E+01  0.67836719138E+02  0.75149967547E+02  0.00000000000E+00 0.  1.
        -13    1    4    4    0    0 -0.77090030937E+01  0.36530435403E+02  0.20326433235E+03  0.20666468069E+03  0.00000000000E+00 0. -1.
         13    1    4    4    0    0 -0.49033882026E+01 -0.35343114783E+02  0.38287197217E+02  0.52336301447E+02  0.00000000000E+00 0.  1.
         21    1    1    2  503  502 -0.62312991195E+02 -0.72881840170E+02  0.68038428266E+02  0.11757507907E+03  0.00000000000E+00 0. -1.
          3    1    1    2  501    0 -0.19881581290E+02 -0.11185120016E+03  0.11341932615E+03  0.16053009623E+03  0.00000000000E+00 0. -1.
<scales pt_clust_5="13000.00000" pt_clust_6="13000.00000" pt_clust_7="13000.00000" pt_clust_8="13000.00000" pt_clust_9="95.88885" pt_clust_10="13000.00000"></scales>
<clustering>
<clus scale="   90.708">  5  6 -1 -1</clus>
<clus scale="   92.595">  7  8 -1 -1</clus>
<clus scale="   95.889">  2  9  1 -1</clus>
<clus scale="  139.803">  7 10 -1 -1</clus>
<clus scale="  177.926">  1  5  2 -1</clus>
<clus scale="   95.889">  2  5  1 -1</clus>
</clustering>
</event>
<event>
10    2  0.5692308E-006  0.3895102E+03  0.7546771E-02  0.1049823E+00
          1   -1    0    0  503    0 -0.00000000000E+00  0.00000000000E+00  0.18282642015E+03  0.18282642015E+03  0.00000000000E+00 0. -1.
         21   -1    0    0  501  502  0.00000000000E+00 -0.00000000000E+00 -0.10707245717E+04  0.10707245717E+04  0.00000000000E+00 0. -1.
         23    2    1    2    0    0 -0.12090385441E+03  0.29477614697E+03 -0.45424679157E+03  0.56272389628E+03  0.93847306637E+02 0.  0.
         23    2    1    2    0    0  0.70733518278E+02 -0.11019352707E+03 -0.49795551852E+02  0.16699315719E+03  0.90891548264E+02 0.  0.
        -11    1    3    3    0    0 -0.18336161750E+02  0.54651711236E+02 -0.31103640072E+02  0.65501609098E+02  0.00000000000E+00 0.  1.
         11    1    3    3    0    0 -0.10256769266E+03  0.24012443574E+03 -0.42314315149E+03  0.49722228718E+03  0.00000000000E+00 0. -1.
        -13    1    4    4    0    0  0.84099241588E+02 -0.51074990715E+02 -0.36468467803E+02  0.10493467614E+03  0.00000000000E+00 0. -1.
         13    1    4    4    0    0 -0.13365723310E+02 -0.59118536358E+02 -0.13327084049E+02  0.62058481048E+02  0.00000000000E+00 0.  1.
         21    1    1    2  503  502 -0.27199668066E+02  0.48468149898E+02 -0.22408378353E+03  0.23087339721E+03  0.00000000000E+00 0. -1.
          1    1    1    2  501    0  0.77370004198E+02 -0.23305076980E+03 -0.15977202464E+03  0.29296054122E+03  0.00000000000E+00 0. -1.
<scales pt_clust_5="13000.00000" pt_clust_6="13000.00000" pt_clust_7="13000.00000" pt_clust_8="13000.00000" pt_clust_9="55.57862" pt_clust_10="13000.00000"></scales>
<clustering>
<clus scale="   55.579">  2  9  1 -1</clus>
<clus scale="   90.892">  7  8 -1 -1</clus>
<clus scale="   93.847">  5  6 -1 -1</clus>
<clus scale="  230.927">  7 10 -1 -1</clus>
<clus scale="  364.195">  1  5  2 -1</clus>
<clus scale="   55.579">  2  5  1 -1</clus>
</clustering>
</event>
<event>
10    2  0.5692308E-006  0.1322693E+03  0.7546771E-02  0.1242846E+00
         -1   -1    0    0    0  501 -0.00000000000E+00  0.00000000000E+00  0.82183565227E+03  0.82183565227E+03  0.00000000000E+00 0.  1.
         21   -1    0    0  503  502  0.00000000000E+00 -0.00000000000E+00 -0.33100017848E+02  0.33100017848E+02  0.00000000000E+00 0.  1.
         23    2    1    2    0    0  0.21768818672E+02  0.11320033659E+01  0.30028882130E+03  0.31366373704E+03  0.87956812369E+02 0.  0.
         23    2    1    2    0    0 -0.28295833817E+02 -0.51731934116E+01  0.44731167072E+03  0.45758434922E+03  0.92023310919E+02 0.  0.
        -11    1    3    3    0    0  0.54493009080E+02  0.12570341216E+02  0.18914259734E+03  0.19723697332E+03  0.00000000000E+00 0. -1.
         11    1    3    3    0    0 -0.32724190408E+02 -0.11438337850E+02  0.11114622396E+03  0.11642676372E+03  0.00000000000E+00 0.  1.
        -13    1    4    4    0    0 -0.38514751091E+01  0.42380838850E+02  0.21886675860E+03  0.22296552958E+03  0.00000000000E+00 0. -1.
         13    1    4    4    0    0 -0.24444358707E+02 -0.47554032262E+02  0.22844491211E+03  0.23461881964E+03  0.00000000000E+00 0.  1.
         21    1    1    2  503  501 -0.13622310249E+02  0.23020640230E+02 -0.74527814377E+01  0.27767988121E+02  0.00000000000E+00 0.  1.
         -1    1    1    2    0  502  0.20149325394E+02 -0.18979450184E+02  0.48587923846E+02  0.55919595731E+02  0.00000000000E+00 0.  1.
<scales pt_clust_5="13000.00000" pt_clust_6="13000.00000" pt_clust_7="13000.00000" pt_clust_8="13000.00000" pt_clust_9="26.74915" pt_clust_10="13000.00000"></scales>
<clustering>
<clus scale="   26.749">  2  9  1 -1</clus>
<clus scale="   87.957">  5  6 -1 -1</clus>
<clus scale="   90.063">  1  5  2 -1</clus>
<clus scale="   92.023">  7  8 -1 -1</clus>
<clus scale="   22.115">  7 10 -1 -1</clus>
<clus scale="   26.749">  2  5  1 -1</clus>
</clustering>
</event>
<event>
10    2  0.5692308E-006  0.2750586E+03  0.7546771E-02  0.1132429E+00
         21   -1    0    0  501  502  0.00000000000E+00  0.00000000000E+00  0.37855434611E+02  0.37855434611E+02  0.00000000000E+00 0. -1.
          1   -1    0    0  503    0 -0.00000000000E+00 -0.00000000000E+00 -0.17234325264E+04  0.17234325264E+04  0.00000000000E+00 0. -1.
         23    2    1    2    0    0 -0.51070225927E+02  0.41336627244E+02 -0.27909116801E+03  0.30055778948E+03  0.90145549124E+02 0.  0.
         23    2    1    2    0    0  0.59005456432E+02  0.16774338371E+02 -0.15490155624E+03  0.19054366016E+03  0.92462814059E+02 0.  0.
        -11    1    3    3    0    0 -0.24946103927E+02  0.64675635476E+02 -0.12913628544E+03  0.14656543298E+03  0.00000000000E+00 0. -1.
         11    1    3    3    0    0 -0.26124122001E+02 -0.23339008232E+02 -0.14995488257E+03  0.15399235650E+03  0.00000000000E+00 0.  1.
        -13    1    4    4    0    0  0.56096521873E+02 -0.28762177400E+02 -0.70329025140E+02  0.94447098379E+02  0.00000000000E+00 0. -1.
         13    1    4    4    0    0  0.29089345590E+01  0.45536515771E+02 -0.84572531098E+02  0.96096561776E+02  0.00000000000E+00 0.  1.
         21    1    1    2  503  502  0.36160153806E+02  0.68723598536E+02 -0.59204754233E+03  0.59711873367E+03  0.00000000000E+00 0. -1.
          1    1    1    2  501    0 -0.44095384311E+02 -0.12683456415E+03 -0.65953682522E+03  0.67306777771E+03  0.00000000000E+00 0. -1.
<scales pt_clust_5="13000.00000" pt_clust_6="13000.00000" pt_clust_7="13000.00000" pt_clust_8="13000.00000" pt_clust_9="77.65627" pt_clust_10="13000.00000"></scales>
<clustering>
<clus scale="   77.656">  1  9  2 -1</clus>
<clus scale="   90.146">  5  6 -1 -1</clus>
<clus scale="   92.463">  7  8 -1 -1</clus>
<clus scale="  116.637">  2  5  1 -1</clus>
<clus scale="   99.907">  7 10 -1 -1</clus>
<clus scale="   77.656">  1  5  2 -1</clus>
</clustering>
</event>
<event>
10    2  0.5692308E-006  0.5231263E+03  0.7546771E-02  0.1028926E+00
          2   -1    0    0  502    0 -0.00000000000E+00  0.00000000000E+00  0.14558219049E+04  0.14558219049E+04  0.00000000000E+00 0. -1.
         21   -1    0    0  503  502  0.00000000000E+00 -0.00000000000E+00 -0.14116907390E+03  0.14116907390E+03  0.00000000000E+00 0. -1.
         23    2    1    2    0    0  0.21424531862E+03 -0.14093063278E+03  0.49177246356E+03  0.56188489904E+03  0.90066553434E+02 0.  0.
         23    2    1    2    0    0 -0.29828628068E+01  0.18677750027E+03  0.65640243854E+03  0.68860129937E+03  0.91721622845E+02 0.  0.
        -13    1    3    3    0    0  0.69809379563E+02 -0.92214072788E+02  0.16723806600E+03  0.20333557341E+03  0.00000000000E+00 0.  1.
         13    1    3    3    0    0  0.14443593906E+03 -0.48716559988E+02  0.32453439756E+03  0.35854932563E+03  0.00000000000E+00 0. -1.
        -13    1    4    4    0    0  0.28250493193E+02  0.15233970504E+03  0.56757725925E+03  0.58834464501E+03  0.00000000000E+00 0. -1.
         13    1    4    4    0    0 -0.31233356000E+02  0.34437795233E+02  0.88825179292E+02  0.10025665436E+03  0.00000000000E+00 0.  1.
         21    1    1    2  503  501  0.25912014084E+02  0.12300435156E+02 -0.23524303742E+02  0.37096172922E+02  0.00000000000E+00 0. -1.
          2    1    1    2  501    0 -0.23717446990E+03 -0.58147302649E+02  0.19000223267E+03  0.30940860751E+03  0.00000000000E+00 0. -1.
<scales pt_clust_5="13000.00000" pt_clust_6="13000.00000" pt_clust_7="13000.00000" pt_clust_8="13000.00000" pt_clust_9="28.68333" pt_clust_10="13000.00000"></scales>
<clustering>
<clus scale="   28.683">  2  9  1 -1</clus>
<clus scale="   90.067">  5  6 -1 -1</clus>
<clus scale="   91.722">  7  8 -1 -1</clus>
<clus scale="  229.089">  7 10 -1 -1</clus>
<clus scale="  276.354">  1  5  2 -1</clus>
<clus scale="   28.683">  2  5  1 -1</clus>
</clustering>
</event>
<event>
10    2  0.5692308E-006  0.1868998E+03  0.7546771E-02  0.1189549E+00
          1   -1    0    0  502    0 -0.00000000000E+00  0.00000000000E+00  0.20418355426E+03  0.20418355426E+03  0.00000000000E+00 0. -1.
         21   -1    0    0  503  502  0.00000000000E+00 -0.00000000000E+00 -0.14447479299E+03  0.14447479299E+03  0.00000000000E+00 0.  1.
         23    2    1    2    0    0 -0.31722876011E+02  0.50658694699E+01  0.82543862581E+02  0.12748680348E+03  0.91691831233E+02 0.  0.
         23    2    1    2    0    0  0.64785652593E+01  0.37451756240E+02 -0.56290551305E+02  0.12108418867E+03  0.10024045454E+03 0.  0.
        -11    1    3    3    0    0  0.16760134402E+02 -0.29821940818E+02  0.15093565698E+02  0.37390720571E+02  0.00000000000E+00 0.  1.
         11    1    3    3    0    0 -0.48483010413E+02  0.34887810288E+02  0.67450296883E+02  0.90096082906E+02  0.00000000000E+00 0. -1.
        -13    1    4    4    0    0  0.28750219583E+02 -0.32816751455E+01 -0.67399733316E+02  0.73348950701E+02  0.00000000000E+00 0.  1.
         13    1    4    4    0    0 -0.22271654324E+02  0.40733431385E+02  0.11109182011E+02  0.47735237966E+02  0.00000000000E+00 0. -1.
         21    1    1    2  503  501 -0.23297927497E+02 -0.14187218082E+02 -0.99893783319E+01  0.29049238579E+02  0.00000000000E+00 0. -1.
          1    1    1    2  501    0  0.48542238249E+02 -0.28330407627E+02  0.43444828324E+02  0.71038116519E+02  0.00000000000E+00 0. -1.
<scales pt_clust_5="13000.00000" pt_clust_6="13000.00000" pt_clust_7="13000.00000" pt_clust_8="13000.00000" pt_clust_9="27.27766" pt_clust_10="13000.00000"></scales>
<clustering>
<clus scale="   27.278">  2  9  1 -1</clus>
<clus scale="   91.692">  5  6 -1 -1</clus>
<clus scale="   98.506">  1  5  2 -1</clus>
<clus scale="  100.240">  7  8 -1 -1</clus>
<clus scale="   37.798">  7 10 -1 -1</clus>
<clus scale="   27.278">  2  5  1 -1</clus>
</clustering>
</event>
<event>
10    2  0.5692308E-006  0.2142681E+03  0.7546771E-02  0.1172289E+00
         21   -1    0    0  503  502  0.00000000000E+00  0.00000000000E+00  0.35305499081E+03  0.35305499081E+03  0.00000000000E+00 0.  1.
          2   -1    0    0  502    0 -0.00000000000E+00 -0.00000000000E+00 -0.96592842417E+02  0.96592842417E+02  0.00000000000E+00 0. -1.
         23    2    1    2    0    0  0.47177117723E+02  0.61966618523E+01  0.51494436064E+02  0.11278319353E+03  0.88341908190E+02 0.  0.
         23    2    1    2    0    0 -0.24879295123E+01  0.95998962600E+02  0.12119639902E+03  0.17984165151E+03  0.91828437141E+02 0.  0.
        -11    1    3    3    0    0  0.48838049669E+02  0.37413995167E+02  0.12455885912E+02  0.62770305270E+02  0.00000000000E+00 0. -1.
         11    1    3    3    0    0 -0.16609319464E+01 -0.31217333315E+02  0.39038550151E+02  0.50012888260E+02  0.00000000000E+00 0.  1.
        -13    1    4    4    0    0  0.38475779091E+02  0.13609200664E+02  0.35050268508E+02  0.53797000305E+02  0.00000000000E+00 0. -1.
         13    1    4    4    0    0 -0.40963708603E+02  0.82389761936E+02  0.86146130513E+02  0.12604465120E+03  0.00000000000E+00 0.  1.
         21    1    1    2  503  501 -0.30034567865E+02 -0.33796457724E+02  0.73539928035E+02  0.86327265896E+02  0.00000000000E+00 0.  1.
          2    1    1    2  501    0 -0.14654620345E+02 -0.68399166728E+02  0.10231385278E+02  0.70695722298E+02  0.00000000000E+00 0. -1.
<scales pt_clust_5="13000.00000" pt_clust_6="13000.00000" pt_clust_7="13000.00000" pt_clust_8="13000.00000" pt_clust_9="45.21367" pt_clust_10="13000.00000"></scales>
<clustering>
<clus scale="   45.214">  1  9  2 -1</clus>
<clus scale="   88.342">  5  6 -1 -1</clus>
<clus scale="   91.828">  7  8 -1 -1</clus>
<clus scale="   75.851">  7 10 -1 -1</clus>
<clus scale="   96.307">  2  5  1 -1</clus>
<clus scale="   45.214">  1  5  2 -1</clus>
</clustering>
</event>
<event>
10    2  0.5692308E-006  0.3424952E+03  0.7546771E-02  0.1094970E+00
         21   -1    0    0  501  502  0.00000000000E+00  0.00000000000E+00  0.14039631899E+03  0.14039631899E+03  0.00000000000E+00 0.  1.
          2   -1    0    0  503    0 -0.00000000000E+00 -0.00000000000E+00 -0.16209089530E+04  0.16209089530E+04  0.00000000000E+00 0. -1.
         23    2    1    2    0    0  0.56576957799E+02  0.10658438512E+03 -0.84928577112E+03  0.86270624846E+03  0.91730947829E+02 0.  0.
         23    2    1    2    0    0 -0.17564860537E+02 -0.21814893967E+03 -0.47114061193E+03  0.52868213317E+03  0.98152114170E+02 0.  0.
        -11    1    4    4    0    0 -0.26664428716E+02 -0.13673345270E+03 -0.18839026168E+03  0.23430305065E+03  0.00000000000E+00 0.  1.
         11    1    4    4    0    0  0.90995681789E+01 -0.81415486967E+02 -0.28275035025E+03  0.29437908252E+03  0.00000000000E+00 0. -1.
        -11    1    3    3    0    0 -0.25428178626E+02  0.30469815508E+02 -0.22580877352E+03  0.22926971916E+03  0.00000000000E+00 0.  1.
         11    1    3    3    0    0  0.82005136425E+02  0.76114569613E+02 -0.62347699760E+03  0.63343652929E+03  0.00000000000E+00 0. -1.
         21    1    1    2  503  502  0.37951881955E+02  0.23699753625E+02  0.86319840130E+02  0.97227251663E+02  0.00000000000E+00 0.  1.
          2    1    1    2  501    0 -0.76963979217E+02  0.87864800922E+02 -0.24640609112E+03  0.27268963874E+03  0.00000000000E+00 0. -1.
<scales pt_clust_5="13000.00000" pt_clust_6="13000.00000" pt_clust_7="13000.00000" pt_clust_8="13000.00000" pt_clust_9="44.74398" pt_clust_10="13000.00000"></scales>
<clustering>
<clus scale="   44.744">  1  9  2 -1</clus>
<clus scale="   91.731">  7  8 -1 -1</clus>
<clus scale="   98.152">  5  6 -1 -1</clus>
<clus scale="  115.484">  5 10 -1 -1</clus>
<clus scale="  155.897">  2  7  1 -1</clus>
<clus scale="   44.744">  1  5  2 -1</clus>
</clustering>
</event>
<event>
10    2  0.5692308E-006  0.3172966E+03  0.7546771E-02  0.1087911E+00
         21   -1    0    0  501  502  0.00000000000E+00  0.00000000000E+00  0.27121587502E+03  0.27121587502E+03  0.00000000000E+00 0.  1.
         -1   -1    0    0    0  501 -0.00000000000E+00 -0.00000000000E+00 -0.79301887258E+03  0.79301887258E+03  0.00000000000E+00 0.  1.
         23    2    1    2    0    0  0.11121457132E+03 -0.18573383421E+03 -0.15277685840E+03  0.28023556892E+03  0.91244000258E+02 0.  0.
         23    2    1    2    0    0 -0.10747760258E+03  0.16329083354E+03 -0.53986883460E+03  0.58147215846E+03  0.91848686032E+02 0.  0.
        -13    1    4    4    0    0 -0.88678045203E+02  0.14936202396E+03 -0.52674209244E+03  0.55464406771E+03  0.00000000000E+00 0.  1.
         13    1    4    4    0    0 -0.18799557373E+02  0.13928809576E+02 -0.13126742159E+02  0.26828090751E+02  0.00000000000E+00 0. -1.
        -13    1    3    3    0    0  0.39353696260E+02 -0.13827224123E+02 -0.57302415139E+02  0.70876458130E+02  0.00000000000E+00 0. -1.
         13    1    3    3    0    0  0.71860875059E+02 -0.17190661009E+03 -0.95474443256E+02  0.20935911079E+03  0.00000000000E+00 0.  1.
         21    1    1    2  503  502 -0.17477727389E+02 -0.12401684241E+02  0.16281621381E+03  0.16422055963E+03  0.00000000000E+00 0.  1.
         -1    1    1    2    0  503  0.13740758647E+02  0.34844684914E+02  0.80264816200E+01  0.38306460580E+02  0.00000000000E+00 0.  1.
<scales pt_clust_5="13000.00000" pt_clust_6="13000.00000" pt_clust_7="13000.00000" pt_clust_8="13000.00000" pt_clust_9="21.43065" pt_clust_10="13000.00000"></scales>
<clustering>
<clus scale="   21.431">  1  9  2 -1</clus>
<clus scale="   91.244">  7  8 -1 -1</clus>
<clus scale="   91.849">  5  6 -1 -1</clus>
<clus scale="   33.690">  5 10 -1 -1</clus>
<clus scale="  236.173">  2  7  1 -1</clus>
<clus scale="   21.431">  1  5  2 -1</clus>
</clustering>
</event>
<event>
10    2  0.5692308E-006  0.2517531E+03  0.7546771E-02  0.1117006E+00
          2   -1    0    0  503    0 -0.00000000000E+00  0.00000000000E+00  0.71498164272E+03  0.71498164272E+03  0.00000000000E+00 0. -1.
         21   -1    0    0  501  502  0.00000000000E+00 -0.00000000000E+00 -0.26340492427E+03  0.26340492427E+03  0.00000000000E+00 0. -1.
         23    2    1    2    0    0 -0.20358713621E+03 -0.10054912909E+03 -0.12693781707E+03  0.27439922118E+03  0.87314797091E+02 0.  0.
         23    2    1    2    0    0  0.10064866459E+03  0.96391524559E+02  0.50441849305E+03  0.53161546878E+03  0.93570886626E+02 0.  0.
        -11    1    4    4    0    0  0.15105057377E+02 -0.18149757514E+02  0.51160741001E+02  0.56347119500E+02  0.00000000000E+00 0. -1.
         11    1    4    4    0    0  0.85543607215E+02  0.11454128207E+03  0.45325775205E+03  0.47526834928E+03  0.00000000000E+00 0.  1.
        -11    1    3    3    0    0 -0.69496203385E+02 -0.79861872493E+02 -0.71954099598E+02  0.12800403670E+03  0.00000000000E+00 0.  1.
         11    1    3    3    0    0 -0.13409093283E+03 -0.20687256600E+02 -0.54983717470E+02  0.14639518448E+03  0.00000000000E+00 0. -1.
         21    1    1    2  503  502  0.32693465137E+02 -0.83574491129E+01 -0.30681054791E+02  0.45607419806E+02  0.00000000000E+00 0.  1.
          2    1    1    2  501    0  0.70245006486E+02  0.12515053647E+02  0.10477709726E+03  0.12676445722E+03  0.00000000000E+00 0. -1.
<scales pt_clust_5="13000.00000" pt_clust_6="13000.00000" pt_clust_7="13000.00000" pt_clust_8="13000.00000" pt_clust_9="33.74477" pt_clust_10="13000.00000"></scales>
<clustering>
<clus scale="   33.745">  2  9  1 -1</clus>
<clus scale="   87.315">  7  8 -1 -1</clus>
<clus scale="   93.571">  5  6 -1 -1</clus>
<clus scale="   72.854">  5 10 -1 -1</clus>
<clus scale="  222.989">  1  7  2 -1</clus>
<clus scale="   33.745">  2  5  1 -1</clus>
</clustering>
</event>
<event>
10    2  0.5692308E-006  0.1476901E+03  0.7546771E-02  0.1220843E+00
         21   -1    0    0  503  502  0.00000000000E+00  0.00000000000E+00  0.27848915592E+03  0.27848915592E+03  0.00000000000E+00 0. -1.
          2   -1    0    0  502    0 -0.00000000000E+00 -0.00000000000E+00 -0.21072759603E+03  0.21072759603E+03  0.00000000000E+00 0. -1.
         23    2    1    2    0    0  0.27151803544E+02 -0.21067695586E+02 -0.87602999869E+02  0.13060084732E+03  0.90560628876E+02 0.  0.
         23    2    1    2    0    0 -0.30161573134E+02  0.32152311936E+02 -0.29312269837E+02  0.10534018228E+03  0.91070594497E+02 0.  0.
        -11    1    3    3    0    0  0.39107385308E+02 -0.50190202885E+02 -0.69743941732E+02  0.94406893073E+02  0.00000000000E+00 0.  1.
         11    1    3    3    0    0 -0.11955581764E+02  0.29122507299E+02 -0.17859058137E+02  0.36193954250E+02  0.00000000000E+00 0. -1.
        -13    1    4    4    0    0 -0.59405771443E+02  0.25319463528E+02 -0.17848461575E+01  0.64601134587E+02  0.00000000000E+00 0. -1.
         13    1    4    4    0    0  0.29244198309E+02  0.68328484087E+01 -0.27527423680E+02  0.40739047689E+02  0.00000000000E+00 0.  1.
         21    1    1    2  503  501  0.21525360856E+01 -0.77866248018E+02  0.16686944471E+03  0.18415536259E+03  0.00000000000E+00 0. -1.
          2    1    1    2  501    0  0.85723350412E+00  0.66781631668E+02  0.17807384878E+02  0.69120359762E+02  0.00000000000E+00 0. -1.
<scales pt_clust_5="13000.00000" pt_clust_6="13000.00000" pt_clust_7="13000.00000" pt_clust_8="13000.00000" pt_clust_9="77.89599" pt_clust_10="13000.00000"></scales>
<clustering>
<clus scale="   77.896">  1  9  2 -1</clus>
<clus scale="   90.561">  5  6 -1 -1</clus>
<clus scale="   91.071">  7  8 -1 -1</clus>
<clus scale="   33.962">  7 10 -1 -1</clus>
<clus scale="  101.765">  2  5  1 -1</clus>
<clus scale="   77.896">  1  5  2 -1</clus>
</clustering>
</event>
<event>
10    2  0.5692308E-006  0.2299341E+03  0.7546771E-02  0.1132655E+00
          2   -1    0    0  503    0 -0.00000000000E+00  0.00000000000E+00  0.88097854107E+03  0.88097854107E+03  0.00000000000E+00 0. -1.
         21   -1    0    0  501  502  0.00000000000E+00 -0.00000000000E+00 -0.21302633325E+03  0.21302633325E+03  0.00000000000E+00 0. -1.
         23    2    1    2    0    0 -0.67996869891E+02  0.10313193680E+03  0.23520390043E+03  0.28265934236E+03  0.96517658170E+02 0.  0.
         23    2    1    2    0    0  0.66167823254E+02 -0.11487193189E+03  0.28738799494E+03  0.32948170571E+03  0.91611097526E+02 0.  0.
        -11    1    4    4    0    0 -0.15084285149E+02 -0.18362321790E+02  0.12109609337E+02  0.26671204665E+02  0.00000000000E+00 0. -1.
         11    1    4    4    0    0  0.81252108403E+02 -0.96509610099E+02  0.27527838561E+03  0.30281050104E+03  0.00000000000E+00 0.  1.
        -11    1    3    3    0    0 -0.65594268982E+02  0.13854571700E+02  0.11110595849E+03  0.12976552428E+03  0.00000000000E+00 0.  1.
         11    1    3    3    0    0 -0.24026009094E+01  0.89277365102E+02  0.12409794194E+03  0.15289381807E+03  0.00000000000E+00 0. -1.
         21    1    1    2  503  502  0.90908169350E+01  0.15591090248E+03 -0.10826741646E+03  0.19003338110E+03  0.00000000000E+00 0. -1.
          2    1    1    2  501    0 -0.72617702982E+01 -0.14417090739E+03  0.25362772891E+03  0.29183044515E+03  0.00000000000E+00 0. -1.
<scales pt_clust_5="13000.00000" pt_clust_6="13000.00000" pt_clust_7="13000.00000" pt_clust_8="13000.00000" pt_clust_9="156.17571" pt_clust_10="13000.00000"></scales>
<clustering>
<clus scale="   91.611">  5  6 -1 -1</clus>
<clus scale="   96.518">  7  8 -1 -1</clus>
<clus scale="  144.354">  5 10 -1 -1</clus>
<clus scale="  156.176">  2  9  1 -1</clus>
<clus scale="  198.564">  1  7  2 -1</clus>
<clus scale="  156.176">  2  5  1 -1</clus>
</clustering>
</event>
<event>
10    2  0.5692308E-006  0.1617290E+03  0.7546771E-02  0.1193830E+00
         21   -1    0    0  503  502  0.00000000000E+00  0.00000000000E+00  0.18606475917E+03  0.18606475917E+03  0.00000000000E+00 0.  1.
          2   -1    0    0  502    0 -0.00000000000E+00 -0.00000000000E+00 -0.22651135934E+03  0.22651135934E+03  0.00000000000E+00 0. -1.
         23    2    1    2    0    0 -0.77889595390E+02 -0.36435291783E+02  0.65089527330E+02  0.14174980209E+03  0.91989348664E+02 0.  0.
         23    2    1    2    0    0  0.55107018187E+02  0.43070055791E+02 -0.12844045403E+03  0.17260460221E+03  0.91671071290E+02 0.  0.
        -11    1    3    3    0    0 -0.56402388542E+02 -0.63927118034E+02  0.25512336836E+02  0.88987556345E+02  0.00000000000E+00 0.  1.
         11    1    3    3    0    0 -0.21487206847E+02  0.27491826251E+02  0.39577190495E+02  0.52762245746E+02  0.00000000000E+00 0. -1.
        -11    1    4    4    0    0 -0.19150284268E+02  0.22098499216E+02 -0.93474790930E+01  0.30699387951E+02  0.00000000000E+00 0.  1.
         11    1    4    4    0    0  0.74257302455E+02  0.20971556575E+02 -0.11909297494E+03  0.14190521426E+03  0.00000000000E+00 0. -1.
         21    1    1    2  503  501 -0.22815041658E+02 -0.67423225911E+01  0.42410014301E+02  0.48627094842E+02  0.00000000000E+00 0. -1.
          2    1    1    2  501    0  0.45597618860E+02  0.10755858284E+00 -0.19505687775E+02  0.49594619367E+02  0.00000000000E+00 0. -1.
<scales pt_clust_5="13000.00000" pt_clust_6="13000.00000" pt_clust_7="13000.00000" pt_clust_8="13000.00000" pt_clust_9="23.79044" pt_clust_10="13000.00000"></scales>
<clustering>
<clus scale="   23.790">  1  9  2 -1</clus>
<clus scale="   91.671">  7  8 -1 -1</clus>
<clus scale="   43.160">  7 10 -1 -1</clus>
<clus scale="   91.989">  5  6 -1 -1</clus>
<clus scale="  138.346">  2  5  1 -1</clus>
<clus scale="   23.790">  1  5  2 -1</clus>
</clustering>
</event>
<event>
10    2  0.5692308E-006  0.4051314E+03  0.7546771E-02  0.1049962E+00
         21   -1    0    0  501  502  0.00000000000E+00  0.00000000000E+00  0.27236170477E+03  0.27236170477E+03  0.00000000000E+00 0. -1.
          1   -1    0    0  503    0 -0.00000000000E+00 -0.00000000000E+00 -0.29236530016E+04  0.29236530016E+04  0.00000000000E+00 0. -1.
         23    2    1    2    0    0 -0.18465205416E+03 -0.26248630754E+03 -0.13991961256E+04  0.14383807581E+04  0.90520521367E+02 0.  0.
         23    2    1    2    0    0  0.16202422006E+02 -0.16106040278E+02 -0.43591489891E+03  0.44582406620E+03  0.90638710825E+02 0.  0.
        -13    1    4    4    0    0  0.53635046142E+02 -0.83951265604E+01 -0.22353755049E+03  0.23003528600E+03  0.00000000000E+00 0. -1.
         13    1    4    4    0    0 -0.37432624136E+02 -0.77109137172E+01 -0.21237734842E+03  0.21578878020E+03  0.00000000000E+00 0.  1.
        -13    1    3    3    0    0 -0.15699280073E+03 -0.25940280350E+03 -0.13218522149E+04  0.13561820792E+04  0.00000000000E+00 0. -1.
         13    1    3    3    0    0 -0.27659253434E+02 -0.30835040365E+01 -0.77343910734E+02  0.82198678975E+02  0.00000000000E+00 0.  1.
         21    1    1    2  503  502 -0.21606151857E+01  0.34544446520E+02  0.22563574216E+03  0.22827499903E+03  0.00000000000E+00 0. -1.
          1    1    1    2  501    0  0.17061024734E+03  0.24404790130E+03 -0.10418160145E+04  0.10835348830E+04  0.00000000000E+00 0. -1.
<scales pt_clust_5="13000.00000" pt_clust_6="13000.00000" pt_clust_7="13000.00000" pt_clust_8="13000.00000" pt_clust_9="34.61195" pt_clust_10="13000.00000"></scales>
<clustering>
<clus scale="   34.612">  1  9  2 -1</clus>
<clus scale="   90.521">  7  8 -1 -1</clus>
<clus scale="   90.639">  5  6 -1 -1</clus>
<clus scale="  310.366">  5 10 -1 -1</clus>
<clus scale="  322.384">  2  7  1 -1</clus>
<clus scale="   34.612">  1  5  2 -1</clus>
</clustering>
</event>
<event>
10    2  0.5692308E-006  0.6234430E+03  0.7546771E-02  0.1044750E+00
          1   -1    0    0  503    0 -0.00000000000E+00  0.00000000000E+00  0.52374189289E+03  0.52374189289E+03  0.00000000000E+00 0. -1.
         21   -1    0    0  501  502  0.00000000000E+00 -0.00000000000E+00 -0.49301841016E+03  0.49301841016E+03  0.00000000000E+00 0. -1.
         23    2    1    2    0    0  0.43832687836E+02 -0.18495986988E+02  0.83840287585E+02  0.13259770991E+03  0.91046981250E+02 0.  0.
         23    2    1    2    0    0 -0.25868730460E+02 -0.90800524279E+02  0.23392500818E+03  0.26362444143E+03  0.76570296079E+02 0.  0.
        -11    1    3    3    0    0 -0.23041533200E+02 -0.26115312394E+02  0.21990243940E+02  0.41188501092E+02  0.00000000000E+00 0.  1.
         11    1    3    3    0    0  0.66874221036E+02  0.76193254052E+01  0.61850043645E+02  0.91409208823E+02  0.00000000000E+00 0. -1.
        -11    1    4    4    0    0  0.10665787361E+02 -0.64682277382E+02  0.80797995837E+02  0.10404745148E+03  0.00000000000E+00 0. -1.
         11    1    4    4    0    0 -0.36534517820E+02 -0.26118246896E+02  0.15312701234E+03  0.15957698995E+03  0.00000000000E+00 0.  1.
         21    1    1    2  503  502  0.23625860552E+03 -0.38686063107E+02 -0.54408136338E+02  0.24550964434E+03  0.00000000000E+00 0. -1.
          1    1    1    2  501    0 -0.25422256290E+03  0.14798257437E+03 -0.23263367669E+03  0.37502850737E+03  0.00000000000E+00 0. -1.
<scales pt_clust_5="13000.00000" pt_clust_6="13000.00000" pt_clust_7="13000.00000" pt_clust_8="13000.00000" pt_clust_9="250.05244" pt_clust_10="13000.00000"></scales>
<clustering>
<clus scale="   76.570">  7  8 -1 -1</clus>
<clus scale="   91.047">  5  6 -1 -1</clus>
<clus scale="  102.728">  1  5  2 -1</clus>
<clus scale="  250.052">  2  9  1 -1</clus>
<clus scale="  109.203">  7 10 -1 -1</clus>
<clus scale="  250.052">  2  5  1 -1</clus>
</clustering>
</event>
<event>
10    2  0.5692308E-006  0.2647078E+03  0.7546771E-02  0.1133759E+00
          3   -1    0    0  503    0 -0.00000000000E+00  0.00000000000E+00  0.17978205361E+03  0.17978205361E+03  0.00000000000E+00 0. -1.
         21   -1    0    0  501  502  0.00000000000E+00 -0.00000000000E+00 -0.69997554906E+03  0.69997554906E+03  0.00000000000E+00 0. -1.
         23    2    1    2    0    0  0.74376805176E+02 -0.56945932128E+02  0.60099142543E+01  0.12682018515E+03  0.85278906871E+02 0.  0.
         23    2    1    2    0    0 -0.21675402101E+02  0.31065006255E+02  0.12242217104E+02  0.99840168385E+02  0.91560524647E+02 0.  0.
        -11    1    4    4    0    0 -0.49918268042E+02  0.27627313702E+02 -0.16506269729E+02  0.59393256242E+02  0.00000000000E+00 0. -1.
         11    1    4    4    0    0  0.28242865941E+02  0.34376925535E+01  0.28748486833E+02  0.40446912142E+02  0.00000000000E+00 0.  1.
        -13    1    3    3    0    0  0.60389210370E+02 -0.74079843965E+02  0.23731829703E+02  0.98477813502E+02  0.00000000000E+00 0. -1.
         13    1    3    3    0    0  0.13987594806E+02  0.17133911837E+02 -0.17721915449E+02  0.28342371645E+02  0.00000000000E+00 0.  1.
         21    1    1    2  503  502 -0.38823619273E+02 -0.14937128353E+03 -0.40184721152E+03  0.43046513816E+03  0.00000000000E+00 0. -1.
          3    1    1    2  501    0 -0.13877783803E+02  0.17525220941E+03 -0.13659841528E+03  0.22263211098E+03  0.00000000000E+00 0. -1.
<scales pt_clust_5="13000.00000" pt_clust_6="13000.00000" pt_clust_7="13000.00000" pt_clust_8="13000.00000" pt_clust_9="159.30210" pt_clust_10="13000.00000"></scales>
<clustering>
<clus scale="   85.279">  7  8 -1 -1</clus>
<clus scale="   91.561">  5  6 -1 -1</clus>
<clus scale="  126.678">  1  7  2 -1</clus>
<clus scale="  154.312">  5 10 -1 -1</clus>
<clus scale="  159.302">  2  9  1 -1</clus>
<clus scale="  159.302">  2  5  1 -1</clus>
</clustering>
</event>
<event>
10    2  0.5692308E-006  0.1771440E+03  0.7546771E-02  0.1183142E+00
         21   -1    0    0  501  502  0.00000000000E+00  0.00000000000E+00  0.14281479611E+03  0.14281479611E+03  0.00000000000E+00 0. -1.
         -3   -1    0    0    0  501 -0.00000000000E+00 -0.00000000000E+00 -0.60517921028E+03  0.60517921028E+03  0.00000000000E+00 0.  1.
         23    2    1    2    0    0  0.18696597024E+02 -0.99751923982E+02 -0.43718261218E+03  0.45645541560E+03  0.83203972042E+02 0.  0.
         23    2    1    2    0    0 -0.55430310877E+02  0.77616980754E+02 -0.11106046893E+03  0.17117602061E+03  0.88712384747E+02 0.  0.
        -11    1    4    4    0    0 -0.77950828596E+02  0.53507327921E+02 -0.65900364445E+02  0.11524853081E+03  0.00000000000E+00 0. -1.
         11    1    4    4    0    0  0.22520517719E+02  0.24109652834E+02 -0.45160104486E+02  0.55927489799E+02  0.00000000000E+00 0.  1.
        -11    1    3    3    0    0  0.31551648505E+01 -0.27222071925E+02 -0.23276969301E+02  0.35955716722E+02  0.00000000000E+00 0. -1.
         11    1    3    3    0    0  0.15541432173E+02 -0.72529852057E+02 -0.41390564287E+03  0.42049969888E+03  0.00000000000E+00 0.  1.
         21    1    1    2  503  502  0.22588422571E+02 -0.15046920539E+02  0.74038220197E+02  0.78856228047E+02  0.00000000000E+00 0. -1.
         -3    1    1    2    0  503  0.14145291282E+02  0.37181863766E+02  0.11840446741E+02  0.41506342137E+02  0.00000000000E+00 0.  1.
<scales pt_clust_5="13000.00000" pt_clust_6="13000.00000" pt_clust_7="13000.00000" pt_clust_8="13000.00000" pt_clust_9="27.14124" pt_clust_10="13000.00000"></scales>
<clustering>
<clus scale="   27.141">  1  9  2 -1</clus>
<clus scale="   83.204">  7  8 -1 -1</clus>
<clus scale="   88.712">  5  6 -1 -1</clus>
<clus scale="   38.842">  5 10 -1 -1</clus>
<clus scale="  133.405">  2  7  1 -1</clus>
<clus scale="   27.141">  1  5  2 -1</clus>
</clustering>
</event>
<event>
10    2  0.5692308E-006  0.2034012E+03  0.7546771E-02  0.1175609E+00
         21   -1    0    0  501  502  0.00000000000E+00  0.00000000000E+00  0.13704279212E+03  0.13704279212E+03  0.00000000000E+00 0.  1.
          1   -1    0    0  503    0 -0.00000000000E+00 -0.00000000000E+00 -0.73830810481E+03  0.73830810481E+03  0.00000000000E+00 0. -1.
         23    2    1    2    0    0  0.30577866527E+01  0.55097220083E+00 -0.25588885008E+03  0.27562286073E+03  0.10236798392E+03 0.  0.
         23    2    1    2    0    0 -0.50785583806E+02  0.13918828497E+02 -0.38981037598E+03  0.40282231305E+03  0.86837649436E+02 0.  0.
        -11    1    4    4    0    0  0.16959383503E+02  0.27635950782E+02 -0.12162744059E+03  0.12587533820E+03  0.00000000000E+00 0.  1.
         11    1    4    4    0    0 -0.67744967309E+02 -0.13717122286E+02 -0.26818293540E+03  0.27694697485E+03  0.00000000000E+00 0. -1.
        -13    1    3    3    0    0  0.51149808771E+02 -0.12319129825E+02 -0.13408625409E+03  0.14403884001E+03  0.00000000000E+00 0.  1.
         13    1    3    3    0    0 -0.48092022118E+02  0.12870102025E+02 -0.12180259599E+03  0.13158402072E+03  0.00000000000E+00 0. -1.
         21    1    1    2  503  502  0.34538085652E+02  0.53313866715E+02  0.92898794178E+02  0.11254080906E+03  0.00000000000E+00 0.  1.
          1    1    1    2  501    0  0.13189711501E+02 -0.67783667412E+02 -0.48464880813E+02  0.84364914091E+02  0.00000000000E+00 0. -1.
<scales pt_clust_5="13000.00000" pt_clust_6="13000.00000" pt_clust_7="13000.00000" pt_clust_8="13000.00000" pt_clust_9="63.52360" pt_clust_10="13000.00000"></scales>
<clustering>
<clus scale="   63.524">  1  9  2 -1</clus>
<clus scale="   86.838">  5  6 -1 -1</clus>
<clus scale="   50.684">  5 10 -1 -1</clus>
<clus scale="  102.368">  7  8 -1 -1</clus>
<clus scale="  104.403">  2  7  1 -1</clus>
<clus scale="   63.524">  1  5  2 -1</clus>
</clustering>
</event>
<event>
10    2  0.5692308E-006  0.1486274E+03  0.7546771E-02  0.1216400E+00
         -2   -1    0    0    0  501 -0.00000000000E+00  0.00000000000E+00  0.60079643975E+03  0.60079643975E+03  0.00000000000E+00 0.  1.
         21   -1    0    0  503  502  0.00000000000E+00 -0.00000000000E+00 -0.79915945699E+02  0.79915945699E+02  0.00000000000E+00 0.  1.
         23    2    1    2    0    0  0.47800048734E+02  0.28049881520E+02  0.31763647394E+03  0.33538201113E+03  0.92285011252E+02 0.  0.
         23    2    1    2    0    0 -0.55101673586E+02 -0.54653691586E+02  0.16656213746E+03  0.20485474270E+03  0.90549983638E+02 0.  0.
        -13    1    3    3    0    0  0.35794040611E+02 -0.30385242933E+02  0.11715779581E+03  0.12621578922E+03  0.00000000000E+00 0.  1.
         13    1    3    3    0    0  0.12006008123E+02  0.58435124453E+02  0.20047867814E+03  0.20916622191E+03  0.00000000000E+00 0. -1.
        -13    1    4    4    0    0 -0.80879324777E+00  0.20194183312E+02  0.89109941779E+01  0.22087666319E+02  0.00000000000E+00 0. -1.
         13    1    4    4    0    0 -0.54292880338E+02 -0.74847874899E+02  0.15765114328E+03  0.18276707638E+03  0.00000000000E+00 0.  1.
         21    1    1    2  503  501 -0.23908833083E+02  0.54332923758E+02 -0.26289467756E+02  0.64921760746E+02  0.00000000000E+00 0.  1.
         -2    1    1    2    0  502  0.31210457934E+02 -0.27729113692E+02  0.62971350407E+02  0.75553870865E+02  0.00000000000E+00 0.  1.
<scales pt_clust_5="13000.00000" pt_clust_6="13000.00000" pt_clust_7="13000.00000" pt_clust_8="13000.00000" pt_clust_9="59.36075" pt_clust_10="13000.00000"></scales>
<clustering>
<clus scale="   59.361">  2  9  1 -1</clus>
<clus scale="   90.550">  7  8 -1 -1</clus>
<clus scale="   32.176">  7 10 -1 -1</clus>
<clus scale="   92.285">  5  6 -1 -1</clus>
<clus scale="  109.640">  1  5  2 -1</clus>
<clus scale="   59.361">  2  5  1 -1</clus>
</clustering>
</event>
<event>
10    2  0.5692308E-006  0.2540126E+03  0.7546771E-02  0.1145496E+00
          1   -1    0    0  503    0 -0.00000000000E+00  0.00000000000E+00  0.25055727928E+03  0.25055727928E+03  0.00000000000E+00 0. -1.
         21   -1    0    0  501  502  0.00000000000E+00 -0.00000000000E+00 -0.16168795805E+03  0.16168795805E+03  0.00000000000E+00 0. -1.
         23    2    1    2    0    0 -0.39293398433E+02 -0.39463122529E+02  0.25920112022E+02  0.10970461005E+03  0.90895214722E+02 0.  0.
         23    2    1    2    0    0  0.11365854682E+03  0.46419311748E+02 -0.27546528099E+01  0.14464463285E+03  0.76429470319E+02 0.  0.
        -13    1    3    3    0    0  0.24208678099E+02 -0.81385392641E+01  0.29234266076E+02  0.38819302282E+02  0.00000000000E+00 0.  1.
         13    1    3    3    0    0 -0.63502076532E+02 -0.31324583265E+02 -0.33141540544E+01  0.70885307770E+02  0.00000000000E+00 0. -1.
        -13    1    4    4    0    0  0.44874910342E+02  0.48823653090E+02  0.24393820173E+02  0.70658086174E+02  0.00000000000E+00 0.  1.
         13    1    4    4    0    0  0.68783636476E+02 -0.24043413419E+01 -0.27148472983E+02  0.73986546679E+02  0.00000000000E+00 0. -1.
         21    1    1    2  503  502  0.19991248572E+02 -0.28016938434E+02 -0.91651598292E+01  0.35617397622E+02  0.00000000000E+00 0.  1.
          1    1    1    2  501    0 -0.94356396957E+02  0.21060749215E+02  0.74869021842E+02  0.12227859680E+03  0.00000000000E+00 0. -1.
<scales pt_clust_5="13000.00000" pt_clust_6="13000.00000" pt_clust_7="13000.00000" pt_clust_8="13000.00000" pt_clust_9="34.41800" pt_clust_10="13000.00000"></scales>
<clustering>
<clus scale="   34.418">  2  9  1 -1</clus>
<clus scale="   76.429">  7  8 -1 -1</clus>
<clus scale="   90.895">  5  6 -1 -1</clus>
<clus scale="   92.402">  7 10 -1 -1</clus>
<clus scale="  107.995">  1  5  2 -1</clus>
<clus scale="   34.418">  2  5  1 -1</clus>
</clustering>
</event>
<event>
10    2  0.5692308E-006  0.4557764E+03  0.7546771E-02  0.1077634E+00
          1   -1    0    0  502    0 -0.00000000000E+00  0.00000000000E+00  0.71115437458E+03  0.71115437458E+03  0.00000000000E+00 0. -1.
         21   -1    0    0  503  502  0.00000000000E+00 -0.00000000000E+00 -0.34742743947E+03  0.34742743947E+03  0.00000000000E+00 0. -1.
         23    2    1    2    0    0  0.26423001699E+02 -0.41105202073E+02  0.29541756664E+03  0.31419204364E+03  0.95169790115E+02 0.  0.
         23    2    1    2    0    0 -0.13090130515E+03 -0.15290085469E+01  0.34915405766E+03  0.38615373223E+03  0.10034270965E+03 0.  0.
        -13    1    3    3    0    0 -0.37623588843E+01 -0.66939986797E+02  0.19473938476E+03  0.20595762951E+03  0.00000000000E+00 0. -1.
         13    1    3    3    0    0  0.30185360583E+02  0.25834784724E+02  0.10067818188E+03  0.10823441413E+03  0.00000000000E+00 0.  1.
        -13    1    4    4    0    0 -0.99413291185E+02  0.44686329275E+02  0.22753795601E+03  0.25229623841E+03  0.00000000000E+00 0. -1.
         13    1    4    4    0    0 -0.31488013964E+02 -0.46215337822E+02  0.12161610165E+03  0.13385749382E+03  0.00000000000E+00 0.  1.
         21    1    1    2  503  501 -0.88212277562E+01  0.77063834812E+02 -0.20091748378E+03  0.21537057363E+03  0.00000000000E+00 0. -1.
          1    1    1    2  501    0  0.11329953121E+03 -0.34429624192E+02 -0.79927205412E+02  0.14286546454E+03  0.00000000000E+00 0. -1.
<scales pt_clust_5="13000.00000" pt_clust_6="13000.00000" pt_clust_7="13000.00000" pt_clust_8="13000.00000" pt_clust_9="77.56706" pt_clust_10="13000.00000"></scales>
<clustering>
<clus scale="   77.567">  2  9  1 -1</clus>
<clus scale="   95.170">  5  6 -1 -1</clus>
<clus scale="  100.343">  7  8 -1 -1</clus>
<clus scale="  104.948">  1  5  2 -1</clus>
<clus scale="  111.362">  7 10 -1 -1</clus>
<clus scale="   77.567">  2  5  1 -1</clus>
</clustering>
</event>
<event>
10    2  0.5692308E-006  0.1626961E+03  0.7546771E-02  0.1209979E+00
          1   -1    0    0  502    0 -0.00000000000E+00  0.00000000000E+00  0.40839482446E+03  0.40839482446E+03  0.00000000000E+00 0. -1.
         21   -1    0    0  503  502  0.00000000000E+00 -0.00000000000E+00 -0.18361452582E+03  0.18361452582E+03  0.00000000000E+00 0.  1.
         23    2    1    2    0    0 -0.18839515153E+02 -0.21695811421E+02  0.15701543546E+03  0.18393565554E+03  0.91393888421E+02 0.  0.
         23    2    1    2    0    0  0.45376175802E+01 -0.22612251759E+02  0.18057618742E+03  0.20349830283E+03  0.90949963638E+02 0.  0.
        -11    1    3    3    0    0 -0.42296655756E+02 -0.44782171894E+02  0.11606588751E+03  0.13139916382E+03  0.00000000000E+00 0. -1.
         11    1    3    3    0    0  0.23457140603E+02  0.23086360474E+02  0.40949547946E+02  0.52536491719E+02  0.00000000000E+00 0.  1.
        -11    1    4    4    0    0  0.17441182154E+02  0.15126410812E+02  0.52279265159E+01  0.23671382609E+02  0.00000000000E+00 0.  1.
         11    1    4    4    0    0 -0.12903564574E+02 -0.37738662571E+02  0.17534826091E+03  0.17982692022E+03  0.00000000000E+00 0. -1.
         21    1    1    2  503  501 -0.34784474298E+02  0.71043061094E+02 -0.12446931516E+03  0.14747774950E+03  0.00000000000E+00 0.  1.
          1    1    1    2  501    0  0.49086371870E+02 -0.26734997915E+02  0.11657990920E+02  0.57097642413E+02  0.00000000000E+00 0. -1.
<scales pt_clust_5="13000.00000" pt_clust_6="13000.00000" pt_clust_7="13000.00000" pt_clust_8="13000.00000" pt_clust_9="79.10168" pt_clust_10="13000.00000"></scales>
<clustering>
<clus scale="   79.102">  2  9  1 -1</clus>
<clus scale="   90.950">  7  8 -1 -1</clus>
<clus scale="   33.274">  7 10 -1 -1</clus>
<clus scale="   91.394">  5  6 -1 -1</clus>
<clus scale="   95.798">  1  5  2 -1</clus>
<clus scale="   79.102">  2  5  1 -1</clus>
</clustering>
</event>
<event>
10    2  0.5692308E-006  0.3957565E+03  0.7546771E-02  0.1095463E+00
         21   -1    0    0  503  502  0.00000000000E+00  0.00000000000E+00  0.87165117498E+02  0.87165117498E+02  0.00000000000E+00 0.  1.
         -4   -1    0    0    0  501 -0.00000000000E+00 -0.00000000000E+00 -0.13361858716E+04  0.13361858716E+04  0.00000000000E+00 0.  1.
         23    2    1    2    0    0  0.11066018144E+02  0.46315879142E+02 -0.14665299590E+02  0.10413447381E+03  0.91440145483E+02 0.  0.
         23    2    1    2    0    0  0.11654171308E+03 -0.10319383462E+03 -0.98494635154E+03  0.10011183951E+04  0.88813215519E+02 0.  0.
        -11    1    3    3    0    0 -0.17502799670E+02  0.50072307320E+02 -0.39467504432E+02  0.66115564452E+02  0.00000000000E+00 0.  1.
         11    1    3    3    0    0  0.28568817814E+02 -0.37564281784E+01  0.24802204842E+02  0.38018909361E+02  0.00000000000E+00 0. -1.
        -11    1    4    4    0    0  0.84455459110E+02 -0.15700106937E+02 -0.49098144408E+03  0.49843956139E+03  0.00000000000E+00 0. -1.
         11    1    4    4    0    0  0.32086253973E+02 -0.87493727686E+02 -0.49396490747E+03  0.50267883374E+03  0.00000000000E+00 0.  1.
         21    1    1    2  503  501  0.11430435583E+02 -0.18023593193E+02  0.17474749032E+01  0.21413977625E+02  0.00000000000E+00 0.  1.
         -4    1    1    2    0  502 -0.13903816681E+03  0.74901548674E+02 -0.25115657789E+03  0.29668414255E+03  0.00000000000E+00 0.  1.
<scales pt_clust_5="13000.00000" pt_clust_6="13000.00000" pt_clust_7="13000.00000" pt_clust_8="13000.00000" pt_clust_9="21.34256" pt_clust_10="13000.00000"></scales>
<clustering>
<clus scale="   21.343">  1  9  2 -1</clus>
<clus scale="   88.813">  7  8 -1 -1</clus>
<clus scale="   91.440">  5  6 -1 -1</clus>
<clus scale="   99.750">  2  5  1 -1</clus>
<clus scale="  152.650">  7 10 -1 -1</clus>
<clus scale="   21.343">  1  5  2 -1</clus>
</clustering>
</event>
<event>
10    2  0.5692308E-006  0.2019558E+03  0.7546771E-02  0.1151731E+00
         21   -1    0    0  501  502  0.00000000000E+00  0.00000000000E+00  0.60265723095E+02  0.60265723095E+02  0.00000000000E+00 0. -1.
          1   -1    0    0  503    0 -0.00000000000E+00 -0.00000000000E+00 -0.10304269957E+04  0.10304269957E+04  0.00000000000E+00 0. -1.
         23    2    1    2    0    0 -0.16788322923E+03  0.71831517339E+01 -0.45961016949E+03  0.49783807762E+03  0.91459648539E+02 0.  0.
         23    2    1    2    0    0  0.10469303988E+03  0.39353074848E+02 -0.22329942853E+03  0.26593195700E+03  0.91366700023E+02 0.  0.
        -11    1    3    3    0    0 -0.14039219387E+03 -0.18698567713E+02 -0.41944700465E+03  0.44271367072E+03  0.00000000000E+00 0. -1.
         11    1    3    3    0    0 -0.27491035359E+02  0.25881719447E+02 -0.40163164841E+02  0.55124406906E+02  0.00000000000E+00 0.  1.
        -13    1    4    4    0    0  0.95768388586E+02  0.59731172795E+02 -0.21375509542E+03  0.24172430178E+03  0.00000000000E+00 0. -1.
         13    1    4    4    0    0  0.89246512970E+01 -0.20378097947E+02 -0.95443331174E+01  0.24207655222E+02  0.00000000000E+00 0.  1.
         21    1    1    2  503  502  0.23426496041E+02 -0.91410769431E+02 -0.15098013077E+03  0.17804417815E+03  0.00000000000E+00 0.  1.
          1    1    1    2  501    0  0.39763693309E+02  0.44874542850E+02 -0.13627154385E+03  0.14887850606E+03  0.00000000000E+00 0. -1.
<scales pt_clust_5="13000.00000" pt_clust_6="13000.00000" pt_clust_7="13000.00000" pt_clust_8="13000.00000" pt_clust_9="94.36487" pt_clust_10="13000.00000"></scales>
<clustering>
<clus scale="   91.367">  7  8 -1 -1</clus>
<clus scale="   59.957">  7 10 -1 -1</clus>
<clus scale="   91.460">  5  6 -1 -1</clus>
<clus scale="   94.365">  1  9  2 -1</clus>
<clus scale="  185.301">  2  5  1 -1</clus>
<clus scale="   94.365">  1  5  2 -1</clus>
</clustering>
</event>
<event>
10    2  0.5692308E-006  0.2034421E+03  0.7546771E-02  0.1178206E+00
         21   -1    0    0  501  502  0.00000000000E+00  0.00000000000E+00  0.14831141413E+03  0.14831141413E+03  0.00000000000E+00 0.  1.
         -2   -1    0    0    0  501 -0.00000000000E+00 -0.00000000000E+00 -0.26707121911E+03  0.26707121911E+03  0.00000000000E+00 0.  1.
         23    2    1    2    0    0  0.33019312313E+02  0.29138526820E+02 -0.68416480183E+02  0.12202677570E+03  0.90941687336E+02 0.  0.
         23    2    1    2    0    0 -0.90718806036E+02  0.61023606400E+02 -0.38292370682E+02  0.14567934667E+03  0.88331104872E+02 0.  0.
        -11    1    4    4    0    0 -0.99696278611E+02  0.26709101695E+02 -0.38640972353E+02  0.11020820671E+03  0.00000000000E+00 0.  1.
         11    1    4    4    0    0  0.89774725754E+01  0.34314504705E+02  0.34860167110E+00  0.35471139961E+02  0.00000000000E+00 0. -1.
        -13    1    3    3    0    0 -0.18429557806E+02  0.43167400650E+02 -0.24514945645E+02  0.52953334548E+02  0.00000000000E+00 0.  1.
         13    1    3    3    0    0  0.51448870118E+02 -0.14028873830E+02 -0.43901534538E+02  0.69073441149E+02  0.00000000000E+00 0. -1.
         21    1    1    2  503  502  0.77519202127E+01 -0.56698035536E+02  0.38629733143E+02  0.69043578871E+02  0.00000000000E+00 0.  1.
         -2    1    1    2    0  503  0.49947573510E+02 -0.33464097684E+02 -0.50680687261E+02  0.78632931998E+02  0.00000000000E+00 0.  1.
<scales pt_clust_5="13000.00000" pt_clust_6="13000.00000" pt_clust_7="13000.00000" pt_clust_8="13000.00000" pt_clust_9="57.22551" pt_clust_10="13000.00000"></scales>
<clustering>
<clus scale="   57.226">  1  9  2 -1</clus>
<clus scale="   88.331">  5  6 -1 -1</clus>
<clus scale="   66.047">  5 10 -1 -1</clus>
<clus scale="   90.942">  7  8 -1 -1</clus>
<clus scale="   98.393">  2  7  1 -1</clus>
<clus scale="   57.226">  1  5  2 -1</clus>
</clustering>
</event>
<event>
10    2  0.5692308E-006  0.3306408E+03  0.7546771E-02  0.1110738E+00
          2   -1    0    0  502    0 -0.00000000000E+00  0.00000000000E+00  0.60679965545E+03  0.60679965545E+03  0.00000000000E+00 0. -1.
         21   -1    0    0  503  502  0.00000000000E+00 -0.00000000000E+00 -0.23978125359E+03  0.23978125359E+03  0.00000000000E+00 0. -1.
         23    2    1    2    0    0  0.72132865248E+02  0.20798491059E+02  0.38020989328E+03  0.39682145879E+03  0.85275903609E+02 0.  0.
         23    2    1    2    0    0 -0.21132189378E+03 -0.58424317042E+02  0.62276367126E+02  0.24633346231E+03  0.93442416166E+02 0.  0.
        -11    1    4    4    0    0 -0.56688661761E+02 -0.58182355331E+02  0.48378735390E+01  0.81376875490E+02  0.00000000000E+00 0. -1.
         11    1    4    4    0    0 -0.15463323202E+03 -0.24196171176E+00  0.57438493587E+02  0.16495658682E+03  0.00000000000E+00 0.  1.
        -13    1    3    3    0    0  0.50236615326E+01 -0.24727606423E+02  0.41755043734E+02  0.48787041024E+02  0.00000000000E+00 0. -1.
         13    1    3    3    0    0  0.67109203715E+02  0.45526097482E+02  0.33845484954E+03  0.34803441777E+03  0.00000000000E+00 0.  1.
         21    1    1    2  503  501  0.34496048600E+02  0.49817183526E+02 -0.77038867144E+02  0.98013857155E+02  0.00000000000E+00 0. -1.
          2    1    1    2  501    0  0.10469297994E+03 -0.12191357542E+02  0.15710086107E+01  0.10541213078E+03  0.00000000000E+00 0. -1.
<scales pt_clust_5="13000.00000" pt_clust_6="13000.00000" pt_clust_7="13000.00000" pt_clust_8="13000.00000" pt_clust_9="60.59479" pt_clust_10="13000.00000"></scales>
<clustering>
<clus scale="   60.595">  2  9  1 -1</clus>
<clus scale="   85.276">  7  8 -1 -1</clus>
<clus scale="   93.442">  5  6 -1 -1</clus>
<clus scale="  115.339">  1  7  2 -1</clus>
<clus scale="  143.701">  5 10 -1 -1</clus>
<clus scale="   60.595">  2  5  1 -1</clus>
</clustering>
</event>
<event>
10    2  0.5692308E-006  0.5763656E+03  0.7546771E-02  0.1025543E+00
         -2   -1    0    0    0  501 -0.00000000000E+00  0.00000000000E+00  0.19335557549E+04  0.19335557549E+04  0.00000000000E+00 0.  1.
         21   -1    0    0  503  502  0.00000000000E+00 -0.00000000000E+00 -0.11802976318E+03  0.11802976318E+03  0.00000000000E+00 0.  1.
         23    2    1    2    0    0  0.59288013530E+02 -0.20724587152E+03  0.92118889481E+03  0.95043036215E+03  0.90900899685E+02 0.  0.
         23    2    1    2    0    0  0.25396068623E+02 -0.17278130839E+03  0.45840162955E+03  0.49904192058E+03  0.91719374689E+02 0.  0.
        -13    1    3    3    0    0  0.68650797846E+02 -0.14370963321E+03  0.76771500985E+03  0.78406104805E+03  0.00000000000E+00 0.  1.
         13    1    3    3    0    0 -0.93627843156E+01 -0.63536238310E+02  0.15347388496E+03  0.16636931410E+03  0.00000000000E+00 0. -1.
        -13    1    4    4    0    0  0.49798655875E+02 -0.16263111242E+03  0.41032784158E+03  0.44418208251E+03  0.00000000000E+00 0.  1.
         13    1    4    4    0    0 -0.24402587252E+02 -0.10150195978E+02  0.48073787971E+02  0.54859838068E+02  0.00000000000E+00 0. -1.
         21    1    1    2  503  501  0.15752895690E+01  0.40524295079E+02 -0.28498592189E+01  0.40654910238E+02  0.00000000000E+00 0. -1.
         -2    1    1    2    0  502 -0.86259371723E+02  0.33950288483E+03  0.43878532655E+03  0.56145832509E+03  0.00000000000E+00 0.  1.
<scales pt_clust_5="13000.00000" pt_clust_6="13000.00000" pt_clust_7="13000.00000" pt_clust_8="13000.00000" pt_clust_9="40.55490" pt_clust_10="13000.00000"></scales>
<clustering>
<clus scale="   40.555">  2  9  1 -1</clus>
<clus scale="   90.901">  5  6 -1 -1</clus>
<clus scale="   91.719">  7  8 -1 -1</clus>
<clus scale="  228.570">  1  5  2 -1</clus>
<clus scale="  257.680">  7 10 -1 -1</clus>
<clus scale="   40.555">  2  5  1 -1</clus>
</clustering>
</event>
<event>
10    2  0.5692308E-006  0.3155525E+03  0.7546771E-02  0.1093612E+00
          1   -1    0    0  503    0 -0.00000000000E+00  0.00000000000E+00  0.86772461966E+03  0.86772461966E+03  0.00000000000E+00 0. -1.
         21   -1    0    0  501  502  0.00000000000E+00 -0.00000000000E+00 -0.27015378388E+03  0.27015378388E+03  0.00000000000E+00 0. -1.
         23    2    1    2    0    0  0.94802086167E+02  0.16003416037E+03  0.26488834027E+03  0.33574695599E+03  0.89229017814E+02 0.  0.
         23    2    1    2    0    0 -0.68161531154E+02 -0.20059476219E+03  0.53451287877E+03  0.58176892666E+03  0.88695059110E+02 0.  0.
        -11    1    4    4    0    0  0.19506204961E+02 -0.21630556103E+02  0.90834458980E+02  0.95390103928E+02  0.00000000000E+00 0. -1.
         11    1    4    4    0    0 -0.87667736114E+02 -0.17896420609E+03  0.44367841979E+03  0.48637882273E+03  0.00000000000E+00 0.  1.
        -13    1    3    3    0    0  0.29065437203E+02  0.86795196302E+02  0.62906057200E+02  0.11106474586E+03  0.00000000000E+00 0.  1.
         13    1    3    3    0    0  0.65736648965E+02  0.73238964067E+02  0.20198228307E+03  0.22468221013E+03  0.00000000000E+00 0. -1.
         21    1    1    2  503  502 -0.25568634510E+02  0.14705458196E+02 -0.18934857755E+03  0.19163217212E+03  0.00000000000E+00 0. -1.
          1    1    1    2  501    0 -0.10719205032E+01  0.25855143628E+02 -0.12481805715E+02  0.28730348754E+02  0.00000000000E+00 0. -1.
<scales pt_clust_5="13000.00000" pt_clust_6="13000.00000" pt_clust_7="13000.00000" pt_clust_8="13000.00000" pt_clust_9="29.49586" pt_clust_10="13000.00000"></scales>
<clustering>
<clus scale="   29.496">  2  9  1 -1</clus>
<clus scale="   88.695">  5  6 -1 -1</clus>
<clus scale="   30.639">  5 10 -1 -1</clus>
<clus scale="   89.229">  7  8 -1 -1</clus>
<clus scale="  206.566">  1  7  2 -1</clus>
<clus scale="   29.496">  2  5  1 -1</clus>
</clustering>
</event>
<event>
10    2  0.5692308E-006  0.6503535E+03  0.7546771E-02  0.1008042E+00
          2   -1    0    0  503    0 -0.00000000000E+00  0.00000000000E+00  0.16232843689E+04  0.16232843689E+04  0.00000000000E+00 0. -1.
         21   -1    0    0  501  502  0.00000000000E+00 -0.00000000000E+00 -0.21546015489E+03  0.21546015489E+03  0.00000000000E+00 0.  1.
         23    2    1    2    0    0  0.63493016612E+02 -0.24210395964E+03  0.89134012694E+02  0.28061495635E+03  0.90300559667E+02 0.  0.
         23    2    1    2    0    0  0.18518266114E+03 -0.64911771847E+01  0.50497520557E+03  0.54537249233E+03  0.89980241050E+02 0.  0.
        -11    1    4    4    0    0  0.10487943739E+03 -0.41907223684E+02  0.22167094736E+03  0.24878488838E+03  0.00000000000E+00 0.  1.
         11    1    4    4    0    0  0.80303223757E+02  0.35416046499E+02  0.28330425822E+03  0.29658760396E+03  0.00000000000E+00 0. -1.
        -13    1    3    3    0    0  0.76424132863E+02 -0.21151615421E+03  0.99355912983E+02  0.24586851978E+03  0.00000000000E+00 0.  1.
         13    1    3    3    0    0 -0.12931116251E+02 -0.30587805438E+02 -0.10221900289E+02  0.34746436573E+02  0.00000000000E+00 0. -1.
         21    1    1    2  503  502  0.14750761861E+03  0.54486941974E+02  0.16211679936E+03  0.22585212204E+03  0.00000000000E+00 0.  1.
          2    1    1    2  501    0 -0.39618329637E+03  0.19410819485E+03  0.65159819635E+03  0.78690495304E+03  0.00000000000E+00 0. -1.
<scales pt_clust_5="13000.00000" pt_clust_6="13000.00000" pt_clust_7="13000.00000" pt_clust_8="13000.00000" pt_clust_9="157.24924" pt_clust_10="13000.00000"></scales>
<clustering>
<clus scale="   89.980">  5  6 -1 -1</clus>
<clus scale="   90.301">  7  8 -1 -1</clus>
<clus scale="  157.249">  2  9  1 -1</clus>
<clus scale="  271.172">  1  7  2 -1</clus>
<clus scale="  292.106">  5 10 -1 -1</clus>
<clus scale="  157.249">  2  5  1 -1</clus>
</clustering>
</event>
<event>
10    2  0.5692308E-006  0.2530054E+03  0.7546771E-02  0.1129942E+00
         21   -1    0    0  503  502  0.00000000000E+00  0.00000000000E+00  0.18599727884E+03  0.18599727884E+03  0.00000000000E+00 0.  1.
          1   -1    0    0  502    0 -0.00000000000E+00 -0.00000000000E+00 -0.93280266827E+03  0.93280266827E+03  0.00000000000E+00 0. -1.
         23    2    1    2    0    0 -0.19762392468E+02  0.13502597239E+03 -0.66060962193E+03  0.68047608005E+03  0.89554774043E+02 0.  0.
         23    2    1    2    0    0  0.38029142114E+02 -0.11350020569E+03 -0.23130304497E+03  0.27607361456E+03  0.91580727796E+02 0.  0.
        -11    1    4    4    0    0  0.64153967593E+02 -0.10472664170E+03 -0.18136010127E+03  0.21903170403E+03  0.00000000000E+00 0.  1.
         11    1    4    4    0    0 -0.26124825479E+02 -0.87735639942E+01 -0.49942943703E+02  0.57041910532E+02  0.00000000000E+00 0. -1.
        -13    1    3    3    0    0 -0.22263958838E+02  0.21669790787E+02 -0.46088997634E+02  0.55582905635E+02  0.00000000000E+00 0.  1.
         13    1    3    3    0    0  0.25015663698E+01  0.11335618160E+03 -0.61452062430E+03  0.62489317442E+03  0.00000000000E+00 0. -1.
         21    1    1    2  503  501 -0.32397305418E+02 -0.37859928623E+02  0.11363189286E+03  0.12407726089E+03  0.00000000000E+00 0.  1.
          1    1    1    2  501    0  0.14130555773E+02  0.16334161926E+02  0.31475384614E+02  0.38172991616E+02  0.00000000000E+00 0. -1.
<scales pt_clust_5="13000.00000" pt_clust_6="13000.00000" pt_clust_7="13000.00000" pt_clust_8="13000.00000" pt_clust_9="49.82930" pt_clust_10="13000.00000"></scales>
<clustering>
<clus scale="   49.829">  1  9  2 -1</clus>
<clus scale="   89.555">  7  8 -1 -1</clus>
<clus scale="   91.581">  5  6 -1 -1</clus>
<clus scale="    4.248">  5 10 -1 -1</clus>
<clus scale="  159.292">  2  7  1 -1</clus>
<clus scale="   49.829">  1  5  2 -1</clus>
</clustering>
</event>
<event>
10    2  0.5692308E-006  0.3027240E+03  0.7546771E-02  0.1113605E+00
         21   -1    0    0  501  502  0.00000000000E+00  0.00000000000E+00  0.11978684695E+04  0.11978684695E+04  0.00000000000E+00 0. -1.
          1   -1    0    0  503    0 -0.00000000000E+00 -0.00000000000E+00 -0.96851908282E+02  0.96851908282E+02  0.00000000000E+00 0. -1.
         23    2    1    2    0    0 -0.48748942061E+02 -0.98214880418E+02  0.17731367473E+02  0.14372850007E+03  0.91218738488E+02 0.  0.
         23    2    1    2    0    0 -0.26364461532E+02 -0.44748736947E+01  0.57748088282E+02  0.11219744722E+03  0.92403009343E+02 0.  0.
        -11    1    3    3    0    0 -0.51244119396E+02 -0.74435717706E+01  0.81391909391E+01  0.52417677958E+02  0.00000000000E+00 0.  1.
         11    1    3    3    0    0  0.24951773349E+01 -0.90771308647E+02  0.95921765338E+01  0.91310822108E+02  0.00000000000E+00 0. -1.
        -13    1    4    4    0    0  0.42513645139E+01  0.40501738361E+02  0.16581684406E+02  0.43970639844E+02  0.00000000000E+00 0.  1.
         13    1    4    4    0    0 -0.30615826046E+02 -0.44976612056E+02  0.41166403876E+02  0.68226807375E+02  0.00000000000E+00 0. -1.
         21    1    1    2  503  502  0.70278519439E+02  0.91308660388E+01  0.38948677557E+03  0.39588178962E+03  0.00000000000E+00 0. -1.
          1    1    1    2  501    0  0.48348841546E+01  0.93558888074E+02  0.63605032988E+03  0.64291264086E+03  0.00000000000E+00 0. -1.
<scales pt_clust_5="13000.00000" pt_clust_6="13000.00000" pt_clust_7="13000.00000" pt_clust_8="13000.00000" pt_clust_9="70.86920" pt_clust_10="13000.00000"></scales>
<clustering>
<clus scale="   70.869">  1  9  2 -1</clus>
<clus scale="   91.219">  5  6 -1 -1</clus>
<clus scale="   92.403">  7  8 -1 -1</clus>
<clus scale="  117.649">  7 10 -1 -1</clus>
<clus scale="  139.740">  2  5  1 -1</clus>
<clus scale="   70.869">  1  5  2 -1</clus>
</clustering>
</event>
<event>
10    2  0.5692308E-006  0.1408741E+03  0.7546771E-02  0.1231864E+00
          1   -1    0    0  502    0 -0.00000000000E+00  0.00000000000E+00  0.42395316023E+03  0.42395316023E+03  0.00000000000E+00 0. -1.
         21   -1    0    0  503  502  0.00000000000E+00 -0.00000000000E+00 -0.47088601038E+02  0.47088601038E+02  0.00000000000E+00 0.  1.
         23    2    1    2    0    0 -0.11384548310E+02  0.22155071510E+02  0.20915478893E+03  0.22973128943E+03  0.91707603139E+02 0.  0.
         23    2    1    2    0    0  0.96607171497E+01 -0.32562023928E+02  0.60203780078E+02  0.11050924188E+03  0.86221705775E+02 0.  0.
        -11    1    4    4    0    0  0.32574545507E+02  0.89641476098E+01 -0.10416639083E+00  0.33785615401E+02  0.00000000000E+00 0.  1.
         11    1    4    4    0    0 -0.22913828358E+02 -0.41526171538E+02  0.60307946469E+02  0.76723626478E+02  0.00000000000E+00 0. -1.
        -13    1    3    3    0    0 -0.43378757995E+02  0.59605780446E+01  0.17432970255E+03  0.17974451404E+03  0.00000000000E+00 0.  1.
         13    1    3    3    0    0  0.31994209685E+02  0.16194493466E+02  0.34825086383E+02  0.49986775387E+02  0.00000000000E+00 0. -1.
         21    1    1    2  503  501  0.21811064015E+02 -0.24725089884E+02  0.37442098343E+02  0.49889511038E+02  0.00000000000E+00 0. -1.
          1    1    1    2  501    0 -0.20087232855E+02  0.35132042302E+02  0.70063891832E+02  0.80911718921E+02  0.00000000000E+00 0. -1.
<scales pt_clust_5="13000.00000" pt_clust_6="13000.00000" pt_clust_7="13000.00000" pt_clust_8="13000.00000" pt_clust_9="32.97048" pt_clust_10="13000.00000"></scales>
<clustering>
<clus scale="   32.970">  2  9  1 -1</clus>
<clus scale="   86.222">  5  6 -1 -1</clus>
<clus scale="   36.194">  5 10 -1 -1</clus>
<clus scale="   91.708">  7  8 -1 -1</clus>
<clus scale="   93.267">  1  7  2 -1</clus>
<clus scale="   32.970">  2  5  1 -1</clus>
</clustering>
</event>
<event>
10    2  0.5692308E-006  0.3401490E+03  0.7546771E-02  0.1101965E+00
         21   -1    0    0  501  502  0.00000000000E+00  0.00000000000E+00  0.45930060885E+03  0.45930060885E+03  0.00000000000E+00 0. -1.
          2   -1    0    0  503    0 -0.00000000000E+00 -0.00000000000E+00 -0.33621540655E+03  0.33621540655E+03  0.00000000000E+00 0. -1.
         23    2    1    2    0    0 -0.50520991536E+02  0.82176564051E+02 -0.22772857547E+03  0.26322317822E+03  0.90115366070E+02 0.  0.
         23    2    1    2    0    0 -0.92769927115E+01 -0.67811966261E+02 -0.28649905712E+02  0.11871473264E+03  0.92670627960E+02 0.  0.
        -11    1    4    4    0    0  0.39793437124E+02 -0.46067480870E+02 -0.88897663089E+01  0.61520389927E+02  0.00000000000E+00 0.  1.
         11    1    4    4    0    0 -0.49070429835E+02 -0.21744485391E+02 -0.19760139403E+02  0.57194342713E+02  0.00000000000E+00 0. -1.
        -11    1    3    3    0    0  0.22959948359E+02  0.76714892259E+01 -0.23459241665E+02  0.33709746292E+02  0.00000000000E+00 0.  1.
         11    1    3    3    0    0 -0.73480939894E+02  0.74505074825E+02 -0.20426933380E+03  0.22951343192E+03  0.00000000000E+00 0. -1.
         21    1    1    2  503  502 -0.48150751425E+02 -0.74834681585E+01  0.66452978617E+02  0.82404463019E+02  0.00000000000E+00 0. -1.
          2    1    1    2  501    0  0.10794873567E+03 -0.68811296318E+01  0.31301070486E+03  0.33117364152E+03  0.00000000000E+00 0. -1.
<scales pt_clust_5="13000.00000" pt_clust_6="13000.00000" pt_clust_7="13000.00000" pt_clust_8="13000.00000" pt_clust_9="48.72881" pt_clust_10="13000.00000"></scales>
<clustering>
<clus scale="   48.729">  1  9  2 -1</clus>
<clus scale="   90.115">  7  8 -1 -1</clus>
<clus scale="   92.671">  5  6 -1 -1</clus>
<clus scale="   68.917">  5 10 -1 -1</clus>
<clus scale="  132.661">  2  7  1 -1</clus>
<clus scale="   48.729">  1  5  2 -1</clus>
</clustering>
</event>
<event>
10    2  0.5692308E-006  0.7800317E+03  0.7546771E-02  0.1016204E+00
          1   -1    0    0  503    0 -0.00000000000E+00  0.00000000000E+00  0.24700348933E+04  0.24700348933E+04  0.00000000000E+00 0. -1.
         21   -1    0    0  501  502  0.00000000000E+00 -0.00000000000E+00 -0.33133516968E+03  0.33133516968E+03  0.00000000000E+00 0.  1.
         23    2    1    2    0    0  0.19757364938E+02  0.74523739121E+02  0.31131188569E+03  0.33388897574E+03  0.92858046443E+02 0.  0.
         23    2    1    2    0    0  0.24060158301E+03  0.19192498458E+03  0.46965343449E+03  0.56890940598E+03  0.91428891662E+02 0.  0.
        -11    1    3    3    0    0 -0.23777352214E+02  0.68555096365E+02  0.23364475503E+03  0.24465288731E+03  0.00000000000E+00 0.  1.
         11    1    3    3    0    0  0.43534717152E+02  0.59686427564E+01  0.77667130651E+02  0.89236088425E+02  0.00000000000E+00 0. -1.
        -13    1    4    4    0    0  0.32553483976E+02  0.32886628759E+02  0.14267641475E+03  0.14999272981E+03  0.00000000000E+00 0.  1.
         13    1    4    4    0    0  0.20804809903E+03  0.15903835582E+03  0.32697701974E+03  0.41891667616E+03  0.00000000000E+00 0. -1.
         21    1    1    2  503  502 -0.22639162623E+02  0.23877208738E+02 -0.24769667588E+03  0.24987255957E+03  0.00000000000E+00 0.  1.
          1    1    1    2  501    0 -0.23771978532E+03 -0.29032593244E+03  0.16054310793E+04  0.16486991217E+04  0.00000000000E+00 0. -1.
<scales pt_clust_5="13000.00000" pt_clust_6="13000.00000" pt_clust_7="13000.00000" pt_clust_8="13000.00000" pt_clust_9="32.90369" pt_clust_10="13000.00000"></scales>
<clustering>
<clus scale="   32.904">  2  9  1 -1</clus>
<clus scale="   91.429">  7  8 -1 -1</clus>
<clus scale="   92.858">  5  6 -1 -1</clus>
<clus scale="  122.276">  1  5  2 -1</clus>
<clus scale="  322.603">  7 10 -1 -1</clus>
<clus scale="   32.904">  2  5  1 -1</clus>
</clustering>
</event>
<event>
10    2  0.5692308E-006  0.6197105E+03  0.7546771E-02  0.1027756E+00
          2   -1    0    0  503    0 -0.00000000000E+00  0.00000000000E+00  0.11547892098E+04  0.11547892098E+04  0.00000000000E+00 0. -1.
         21   -1    0    0  501  502  0.00000000000E+00 -0.00000000000E+00 -0.42534725763E+03  0.42534725763E+03  0.00000000000E+00 0. -1.
         23    2    1    2    0    0 -0.99170293065E+02 -0.11134522919E+03  0.72488141818E+03  0.74582270743E+03  0.92552327925E+02 0.  0.
         23    2    1    2    0    0 -0.19777816726E+03  0.89997075750E+02  0.84810717580E+02  0.25005334156E+03  0.90100714301E+02 0.  0.
        -11    1    4    4    0    0 -0.13169693295E+03  0.89498283932E+02  0.25502206538E+02  0.16125875949E+03  0.00000000000E+00 0. -1.
         11    1    4    4    0    0 -0.66081234316E+02  0.49879181797E+00  0.59308511042E+02  0.88794582065E+02  0.00000000000E+00 0.  1.
        -11    1    3    3    0    0 -0.29617764968E+01 -0.19987078283E+02  0.19527150052E+02  0.28099199410E+02  0.00000000000E+00 0.  1.
         11    1    3    3    0    0 -0.96208516568E+02 -0.91358150907E+02  0.70535426813E+03  0.71772350802E+03  0.00000000000E+00 0. -1.
         21    1    1    2  503  502  0.24942882931E+02  0.17249195284E+03  0.12234708123E+03  0.21294231494E+03  0.00000000000E+00 0.  1.
          2    1    1    2  501    0  0.27200557740E+03 -0.15114379940E+03 -0.20259726485E+03  0.37131810346E+03  0.00000000000E+00 0. -1.
<scales pt_clust_5="13000.00000" pt_clust_6="13000.00000" pt_clust_7="13000.00000" pt_clust_8="13000.00000" pt_clust_9="174.28612" pt_clust_10="13000.00000"></scales>
<clustering>
<clus scale="   90.101">  5  6 -1 -1</clus>
<clus scale="   92.552">  7  8 -1 -1</clus>
<clus scale="  174.286">  2  9  1 -1</clus>
<clus scale="  172.125">  1  7  2 -1</clus>
<clus scale="  254.870">  5 10 -1 -1</clus>
<clus scale="  174.286">  2  5  1 -1</clus>
</clustering>
</event>
<event>
10    2  0.5692308E-006  0.1186494E+03  0.7546771E-02  0.1254780E+00
          1   -1    0    0  503    0 -0.00000000000E+00  0.00000000000E+00  0.79299442843E+02  0.79299442843E+02  0.00000000000E+00 0. -1.
         21   -1    0    0  501  502  0.00000000000E+00 -0.00000000000E+00 -0.26646392781E+03  0.26646392781E+03  0.00000000000E+00 0.  1.
         23    2    1    2    0    0  0.57162699778E+01  0.26498315801E+02 -0.26084566017E+02  0.98233080519E+02  0.90744129513E+02 0.  0.
         23    2    1    2    0    0 -0.19662550411E+02 -0.26871960876E+02 -0.28325577727E+02  0.10014059831E+03  0.90094855050E+02 0.  0.
        -11    1    4    4    0    0 -0.34804798528E+02  0.20787099935E+00  0.21887564340E+02  0.41115479855E+02  0.00000000000E+00 0. -1.
         11    1    4    4    0    0  0.15142248117E+02 -0.27079831875E+02 -0.50213142068E+02  0.59025118456E+02  0.00000000000E+00 0.  1.
        -13    1    3    3    0    0  0.41165520685E+02 -0.11171309549E+02 -0.77473877487E+01  0.43352280993E+02  0.00000000000E+00 0. -1.
         13    1    3    3    0    0 -0.35449250707E+02  0.37669625351E+02 -0.18337178269E+02  0.54880799526E+02  0.00000000000E+00 0.  1.
         21    1    1    2  503  502  0.31353739751E+02  0.17528066253E+02 -0.10179234737E+03  0.10794430085E+03  0.00000000000E+00 0.  1.
          1    1    1    2  501    0 -0.17407459318E+02 -0.17154421178E+02 -0.30961993859E+02  0.39445390980E+02  0.00000000000E+00 0. -1.
<scales pt_clust_5="13000.00000" pt_clust_6="13000.00000" pt_clust_7="13000.00000" pt_clust_8="13000.00000" pt_clust_9="35.92061" pt_clust_10="13000.00000"></scales>
<clustering>
<clus scale="   35.921">  2  9  1 -1</clus>
<clus scale="   90.095">  5  6 -1 -1</clus>
<clus scale="   17.021">  5 10 -1 -1</clus>
<clus scale="   90.744">  7  8 -1 -1</clus>
<clus scale="   98.262">  1  7  2 -1</clus>
<clus scale="   35.921">  2  5  1 -1</clus>
</clustering>
</event>
<event>
10    2  0.5692308E-006  0.4398170E+03  0.7546771E-02  0.1074652E+00
         21   -1    0    0  501  502  0.00000000000E+00  0.00000000000E+00  0.49545053627E+03  0.49545053627E+03  0.00000000000E+00 0. -1.
          1   -1    0    0  503    0 -0.00000000000E+00 -0.00000000000E+00 -0.53295295711E+03  0.53295295711E+03  0.00000000000E+00 0. -1.
         23    2    1    2    0    0 -0.67121244371E+02  0.58758626233E+02  0.17139756735E+03  0.21310471937E+03  0.89881353564E+02 0.  0.
         23    2    1    2    0    0  0.14925920637E+03  0.74936696920E+02 -0.15928244798E+03  0.24925804150E+03  0.94153352508E+02 0.  0.
        -11    1    4    4    0    0 -0.29066151917E+01  0.28965459064E+02 -0.89103483705E+01  0.30444055885E+02  0.00000000000E+00 0.  1.
         11    1    4    4    0    0  0.15216582156E+03  0.45971237856E+02 -0.15037209961E+03  0.21881398562E+03  0.00000000000E+00 0. -1.
        -13    1    3    3    0    0 -0.63946511940E+02  0.79852487123E+02  0.12146097005E+03  0.15880284422E+03  0.00000000000E+00 0. -1.
         13    1    3    3    0    0 -0.31747324314E+01 -0.21093860890E+02  0.49936597308E+02  0.54301875142E+02  0.00000000000E+00 0.  1.
         21    1    1    2  503  502 -0.26432317133E+03  0.77730166159E+02  0.26411942257E+02  0.27677844628E+03  0.00000000000E+00 0. -1.
          1    1    1    2  501    0  0.18218520933E+03 -0.21142548931E+03 -0.76029482469E+02  0.28926228623E+03  0.00000000000E+00 0. -1.
<scales pt_clust_5="13000.00000" pt_clust_6="13000.00000" pt_clust_7="13000.00000" pt_clust_8="13000.00000" pt_clust_9="295.45080" pt_clust_10="13000.00000"></scales>
<clustering>
<clus scale="   89.881">  7  8 -1 -1</clus>
<clus scale="   94.153">  5  6 -1 -1</clus>
<clus scale="  126.635">  2  7  1 -1</clus>
<clus scale="  247.629">  5 10 -1 -1</clus>
<clus scale="  295.451">  1  9  2 -1</clus>
<clus scale="  295.451">  1  5  2 -1</clus>
</clustering>
</event>
<event>
10    2  0.5692308E-006  0.1909364E+03  0.7546771E-02  0.1178501E+00
         21   -1    0    0  501  502  0.00000000000E+00  0.00000000000E+00  0.56752585837E+02  0.56752585837E+02  0.00000000000E+00 0. -1.
          2   -1    0    0  503    0 -0.00000000000E+00 -0.00000000000E+00 -0.49919092972E+03  0.49919092972E+03  0.00000000000E+00 0. -1.
         23    2    1    2    0    0 -0.41049316893E+02  0.53724450784E+02 -0.14044355613E+03  0.18488732055E+03  0.99436239933E+02 0.  0.
         23    2    1    2    0    0  0.70209660742E+02 -0.38710808182E+02 -0.21731398899E+03  0.24916409098E+03  0.91812043265E+02 0.  0.
        -11    1    3    3    0    0 -0.54337021371E+02  0.44372370745E+01 -0.27755788943E+02  0.61176668626E+02  0.00000000000E+00 0.  1.
         11    1    3    3    0    0  0.13287704478E+02  0.49287213709E+02 -0.11268776719E+03  0.12371065193E+03  0.00000000000E+00 0. -1.
        -13    1    4    4    0    0 -0.12264655705E+01 -0.36649503045E+02 -0.13623837353E+03  0.14108715290E+03  0.00000000000E+00 0.  1.
         13    1    4    4    0    0  0.71436126312E+02 -0.20613051367E+01 -0.81075615463E+02  0.10807693808E+03  0.00000000000E+00 0. -1.
         21    1    1    2  503  502  0.22431593663E+02  0.42039557981E+01 -0.54549375837E+02  0.59131075103E+02  0.00000000000E+00 0.  1.
          2    1    1    2  501    0 -0.51591937512E+02 -0.19217598400E+02 -0.30131422917E+02  0.62761028923E+02  0.00000000000E+00 0. -1.
<scales pt_clust_5="13000.00000" pt_clust_6="13000.00000" pt_clust_7="13000.00000" pt_clust_8="13000.00000" pt_clust_9="22.82214" pt_clust_10="13000.00000"></scales>
<clustering>
<clus scale="   22.822">  1  9  2 -1</clus>
<clus scale="   91.812">  7  8 -1 -1</clus>
<clus scale="   48.332">  7 10 -1 -1</clus>
<clus scale="   99.436">  5  6 -1 -1</clus>
<clus scale="  118.231">  2  5  1 -1</clus>
<clus scale="   22.822">  1  5  2 -1</clus>
</clustering>
</event>
<event>
10    2  0.6464523E-006  0.2580922E+03  0.7546771E-02  0.1145852E+00
         21   -1    0    0  501  502  0.00000000000E+00  0.00000000000E+00  0.74422759697E+03  0.74422759697E+03  0.00000000000E+00 0.  1.
         -2   -1    0    0    0  501 -0.00000000000E+00 -0.00000000000E+00 -0.37871073055E+03  0.37871073055E+03  0.00000000000E+00 0.  1.
         23    2    1    2    0    0  0.36815849189E+02 -0.73221343185E+02 -0.11016691000E+03  0.16307616765E+03  0.87979068803E+02 0.  0.
         23    2    1    2    0    0 -0.31940235256E+01  0.65574141717E+02  0.45909187910E+01  0.11213571634E+03  0.90791918665E+02 0.  0.
        -11    1    3    3    0    0  0.34429553088E+02 -0.10223605381E+02 -0.89975326718E+02  0.96878664580E+02  0.00000000000E+00 0.  1.
         11    1    3    3    0    0  0.23862961009E+01 -0.62997737804E+02 -0.20191583285E+02  0.66197503073E+02  0.00000000000E+00 0. -1.
        -13    1    4    4    0    0  0.31314556224E+02  0.54421897364E+02 -0.22681805201E+02  0.66759333665E+02  0.00000000000E+00 0.  1.
         13    1    4    4    0    0 -0.34508579750E+02  0.11152244352E+02  0.27272723992E+02  0.45376382672E+02  0.00000000000E+00 0. -1.
         21    1    1    2  503  502 -0.79763667378E+02  0.85775045751E+02  0.64287216563E+03  0.65345560097E+03  0.00000000000E+00 0.  1.
         -2    1    1    2    0  503  0.46141841714E+02 -0.78127844282E+02 -0.17177930799E+03  0.19427084255E+03  0.00000000000E+00 0.  1.
<scales pt_clust_5="13000.00000" pt_clust_6="13000.00000" pt_clust_7="13000.00000" pt_clust_8="13000.00000" pt_clust_9="117.13070" pt_clust_10="13000.00000"></scales>
<clustering>
<clus scale="   87.979">  5  6 -1 -1</clus>
<clus scale="   90.792">  7  8 -1 -1</clus>
<clus scale="   90.736">  7 10 -1 -1</clus>
<clus scale="  117.131">  1  9  2 -1</clus>
<clus scale="  102.083">  2  5  1 -1</clus>
<clus scale="  117.131">  1  5  2 -1</clus>
</clustering>
</event>
<event>
10    2  0.5692308E-006  0.2471418E+03  0.7546771E-02  0.1150593E+00
         21   -1    0    0  501  502  0.00000000000E+00  0.00000000000E+00  0.37988541166E+03  0.37988541166E+03  0.00000000000E+00 0.  1.
          1   -1    0    0  503    0 -0.00000000000E+00 -0.00000000000E+00 -0.13118819770E+03  0.13118819770E+03  0.00000000000E+00 0. -1.
         23    2    1    2    0    0  0.30194750277E+02 -0.42640597804E+02 -0.41808855695E+02  0.11219437716E+03  0.90053619175E+02 0.  0.
         23    2    1    2    0    0 -0.10635057583E+03  0.35490599173E+02  0.17436237428E+03  0.22648711549E+03  0.91236770608E+02 0.  0.
        -11    1    3    3    0    0  0.55043667360E+02 -0.53603848010E+02 -0.28486871406E+02  0.81943149075E+02  0.00000000000E+00 0. -1.
         11    1    3    3    0    0 -0.24848917083E+02  0.10963250206E+02 -0.13321984288E+02  0.30251228085E+02  0.00000000000E+00 0.  1.
        -13    1    4    4    0    0 -0.93836088124E+02  0.63478647756E+02  0.14526336406E+03  0.18421779255E+03  0.00000000000E+00 0.  1.
         13    1    4    4    0    0 -0.12514487703E+02 -0.27988048583E+02  0.29099010224E+02  0.42269322942E+02  0.00000000000E+00 0. -1.
         21    1    1    2  503  502 -0.22060387785E+02 -0.93012602520E+01  0.41603857057E+02  0.48000573680E+02  0.00000000000E+00 0.  1.
          1    1    1    2  501    0  0.98216213335E+02  0.16451258882E+02  0.74539838322E+02  0.12439154303E+03  0.00000000000E+00 0. -1.
<scales pt_clust_5="13000.00000" pt_clust_6="13000.00000" pt_clust_7="13000.00000" pt_clust_8="13000.00000" pt_clust_9="23.94106" pt_clust_10="13000.00000"></scales>
<clustering>
<clus scale="   23.941">  1  9  2 -1</clus>
<clus scale="   90.054">  5  6 -1 -1</clus>
<clus scale="   91.237">  7  8 -1 -1</clus>
<clus scale="   92.685">  7 10 -1 -1</clus>
<clus scale="  103.872">  2  5  1 -1</clus>
<clus scale="   23.941">  1  5  2 -1</clus>
</clustering>
</event>
<event>
10    2  0.5692308E-006  0.1435454E+03  0.7546771E-02  0.1222134E+00
          2   -1    0    0  503    0 -0.00000000000E+00  0.00000000000E+00  0.15634149451E+03  0.15634149451E+03  0.00000000000E+00 0. -1.
         21   -1    0    0  501  502  0.00000000000E+00 -0.00000000000E+00 -0.20213703553E+03  0.20213703553E+03  0.00000000000E+00 0.  1.
         23    2    1    2    0    0 -0.25762665781E+02 -0.30085591218E+02 -0.12195964943E+02  0.97790231922E+02  0.88573868332E+02 0.  0.
         23    2    1    2    0    0  0.41946641130E+02  0.67658273592E+02  0.65512938828E+02  0.13663661322E+03  0.89668591101E+02 0.  0.
        -11    1    4    4    0    0  0.45148409056E+01 -0.20092486123E+02 -0.54027242983E+00  0.20600574781E+02  0.00000000000E+00 0.  1.
         11    1    4    4    0    0  0.37431800224E+02  0.87750759715E+02  0.66053211258E+02  0.11603603844E+03  0.00000000000E+00 0. -1.
        -11    1    3    3    0    0 -0.30049223959E+02  0.21061991874E+02  0.15071400453E+02  0.39670019837E+02  0.00000000000E+00 0.  1.
         11    1    3    3    0    0  0.42865581784E+01 -0.51147583092E+02 -0.27267365396E+02  0.58120212085E+02  0.00000000000E+00 0. -1.
         21    1    1    2  503  502 -0.15003482341E+01 -0.52118057289E+02 -0.82219461810E+02  0.97358013747E+02  0.00000000000E+00 0.  1.
          2    1    1    2  501    0 -0.14683627115E+02  0.14545374915E+02 -0.16893053099E+02  0.26693671154E+02  0.00000000000E+00 0. -1.
<scales pt_clust_5="13000.00000" pt_clust_6="13000.00000" pt_clust_7="13000.00000" pt_clust_8="13000.00000" pt_clust_9="52.13965" pt_clust_10="13000.00000"></scales>
<clustering>
<clus scale="   52.140">  2  9  1 -1</clus>
<clus scale="   88.574">  7  8 -1 -1</clus>
<clus scale="   89.669">  5  6 -1 -1</clus>
<clus scale="   15.618">  5 10 -1 -1</clus>
<clus scale="  107.882">  1  7  2 -1</clus>
<clus scale="   52.140">  2  5  1 -1</clus>
</clustering>
</event>
<event>
10    2  0.5692308E-006  0.2060510E+03  0.7546771E-02  0.1169255E+00
         -1   -1    0    0    0  501 -0.00000000000E+00  0.00000000000E+00  0.57052483715E+02  0.57052483715E+02  0.00000000000E+00 0.  1.
         21   -1    0    0  501  502  0.00000000000E+00 -0.00000000000E+00 -0.81504188845E+03  0.81504188845E+03  0.00000000000E+00 0.  1.
         23    2    1    2    0    0 -0.95987799342E+01 -0.63011388767E+02 -0.14283468399E+03  0.18513944065E+03  0.99057023204E+02 0.  0.
         23    2    1    2    0    0 -0.86541567590E+02  0.23460826057E+02 -0.10686003754E+03  0.16533800107E+03  0.88756598040E+02 0.  0.
        -11    1    3    3    0    0 -0.22404640438E+02 -0.85943212610E+02 -0.91737452744E+02  0.12768697640E+03  0.00000000000E+00 0.  1.
         11    1    3    3    0    0  0.12805860504E+02  0.22931823843E+02 -0.51097231241E+02  0.57452464251E+02  0.00000000000E+00 0. -1.
        -13    1    4    4    0    0 -0.57493581838E+02 -0.17449589632E+02 -0.97156828056E+02  0.11423418652E+03  0.00000000000E+00 0.  1.
         13    1    4    4    0    0 -0.29047985752E+02  0.40910415690E+02 -0.97032094849E+01  0.51103814559E+02  0.00000000000E+00 0. -1.
         21    1    1    2  503  502  0.44684331549E+02  0.81401940587E+01 -0.33650492666E+03  0.33955635454E+03  0.00000000000E+00 0. -1.
         -1    1    1    2    0  503  0.51456015975E+02  0.31410368651E+02 -0.17178975655E+03  0.18206057589E+03  0.00000000000E+00 0.  1.
<scales pt_clust_5="13000.00000" pt_clust_6="13000.00000" pt_clust_7="13000.00000" pt_clust_8="13000.00000" pt_clust_9="45.41973" pt_clust_10="13000.00000"></scales>
<clustering>
<clus scale="   45.420">  2  9  1 -1</clus>
<clus scale="   88.757">  7  8 -1 -1</clus>
<clus scale="   76.246">  7 10 -1 -1</clus>
<clus scale="   99.057">  5  6 -1 -1</clus>
<clus scale="  116.065">  1  5  2 -1</clus>
<clus scale="   45.420">  2  5  1 -1</clus>
</clustering>
</event>
<event>
10    2  0.5692308E-006  0.2422167E+03  0.7546771E-02  0.1135976E+00
         21   -1    0    0  501  502  0.00000000000E+00  0.00000000000E+00  0.15699184325E+03  0.15699184325E+03  0.00000000000E+00 0.  1.
          2   -1    0    0  503    0 -0.00000000000E+00 -0.00000000000E+00 -0.76488099081E+03  0.76488099081E+03  0.00000000000E+00 0. -1.
         23    2    1    2    0    0  0.13632777532E+01  0.14184314507E+03 -0.30028284032E+03  0.34439399176E+03  0.91192658921E+02 0.  0.
         23    2    1    2    0    0 -0.88517505675E+02  0.27052215748E+02  0.62157422193E+02  0.14470092257E+03  0.92236872626E+02 0.  0.
        -11    1    4    4    0    0 -0.28643404490E+02 -0.70143509528E+01 -0.21379409081E+02  0.36424234690E+02  0.00000000000E+00 0. -1.
         11    1    4    4    0    0 -0.59874101185E+02  0.34066566701E+02  0.83536831274E+02  0.10827668788E+03  0.00000000000E+00 0.  1.
        -13    1    3    3    0    0  0.33005456766E+02  0.13111089202E+03 -0.24286637597E+03  0.27796313201E+03  0.00000000000E+00 0.  1.
         13    1    3    3    0    0 -0.31642179013E+02  0.10732253050E+02 -0.57416464353E+02  0.66430859749E+02  0.00000000000E+00 0. -1.
         21    1    1    2  503  502  0.94055394745E+02 -0.10008099782E+03 -0.31800361001E+03  0.34639416765E+03  0.00000000000E+00 0. -1.
          2    1    1    2  501    0 -0.69011668230E+01 -0.68814362999E+02 -0.51760119429E+02  0.86383752071E+02  0.00000000000E+00 0. -1.
<scales pt_clust_5="13000.00000" pt_clust_6="13000.00000" pt_clust_7="13000.00000" pt_clust_8="13000.00000" pt_clust_9="137.34133" pt_clust_10="13000.00000"></scales>
<clustering>
<clus scale="   91.193">  7  8 -1 -1</clus>
<clus scale="   92.237">  5  6 -1 -1</clus>
<clus scale="   69.160">  5 10 -1 -1</clus>
<clus scale="  137.341">  1  9  2 -1</clus>
<clus scale="  156.658">  2  7  1 -1</clus>
<clus scale="  137.341">  1  5  2 -1</clus>
</clustering>
</event>
<event>
10    2  0.5692308E-006  0.4942617E+03  0.7546771E-02  0.1058131E+00
         21   -1    0    0  501  502  0.00000000000E+00  0.00000000000E+00  0.31500448413E+03  0.31500448413E+03  0.00000000000E+00 0.  1.
          2   -1    0    0  503    0 -0.00000000000E+00 -0.00000000000E+00 -0.67034753717E+03  0.67034753717E+03  0.00000000000E+00 0.  1.
         23    2    1    2    0    0 -0.80500347349E+02 -0.10129705898E+03 -0.82669116038E+02  0.17745635020E+03  0.88967260263E+02 0.  0.
         23    2    1    2    0    0  0.31591303118E+02  0.27936962683E+03 -0.22723974606E+03  0.37293948958E+03  0.91654579090E+02 0.  0.
        -11    1    3    3    0    0 -0.45244347373E+02 -0.10706001532E+03 -0.81047938552E+02  0.14169568163E+03  0.00000000000E+00 0.  1.
         11    1    3    3    0    0 -0.35255999976E+02  0.57629563410E+01 -0.16211774859E+01  0.35760668569E+02  0.00000000000E+00 0. -1.
        -13    1    4    4    0    0  0.16824147394E+01  0.44829258582E+02 -0.87402365825E+02  0.98242895398E+02  0.00000000000E+00 0. -1.
         13    1    4    4    0    0  0.29908888378E+02  0.23454036825E+03 -0.13983738023E+03  0.27469659418E+03  0.00000000000E+00 0.  1.
         21    1    1    2  503  502  0.14433918374E+03 -0.97315591892E+00  0.10938370193E+03  0.18110643623E+03  0.00000000000E+00 0.  1.
          2    1    1    2  501    0 -0.95430139505E+02 -0.17709941194E+03 -0.15481789288E+03  0.25384974530E+03  0.00000000000E+00 0.  1.
<scales pt_clust_5="13000.00000" pt_clust_6="13000.00000" pt_clust_7="13000.00000" pt_clust_8="13000.00000" pt_clust_9="144.34246" pt_clust_10="13000.00000"></scales>
<clustering>
<clus scale="   88.967">  5  6 -1 -1</clus>
<clus scale="   91.655">  7  8 -1 -1</clus>
<clus scale="  144.342">  1  9  2 -1</clus>
<clus scale="  140.882">  2  5  1 -1</clus>
<clus scale="  225.334">  7 10 -1 -1</clus>
<clus scale="  144.342">  1  5  2 -1</clus>
</clustering>
</event>
<event>
10    2  0.5692308E-006  0.3964534E+03  0.7546771E-02  0.1065514E+00
         21   -1    0    0  503  502  0.00000000000E+00  0.00000000000E+00  0.81361193794E+03  0.81361193794E+03  0.00000000000E+00 0. -1.
         -1   -1    0    0    0  501 -0.00000000000E+00 -0.00000000000E+00 -0.17731365472E+03  0.17731365472E+03  0.00000000000E+00 0.  1.
         23    2    1    2    0    0 -0.48315533811E+02 -0.17197455885E+03  0.92049307716E+02  0.22343776421E+03  0.97681726654E+02 0.  0.
         23    2    1    2    0    0  0.11710047630E+03 -0.14192817593E+01  0.22301630225E+03  0.26994136351E+03  0.97043973302E+02 0.  0.
        -11    1    4    4    0    0  0.46699884110E+02  0.16815451035E+02  0.18653319263E+02  0.53024380137E+02  0.00000000000E+00 0.  1.
         11    1    4    4    0    0  0.70400592194E+02 -0.18234732794E+02  0.20436298298E+03  0.21691698337E+03  0.00000000000E+00 0. -1.
        -13    1    3    3    0    0  0.19838862469E+01 -0.14002280327E+03  0.84022326603E+02  0.16330974437E+03  0.00000000000E+00 0. -1.
         13    1    3    3    0    0 -0.50299420057E+02 -0.31951755585E+02  0.80269811129E+01  0.60128019832E+02  0.00000000000E+00 0.  1.
         21    1    1    2  503  501 -0.28929838391E+02 -0.74504347729E+02  0.20662684026E+03  0.22154567135E+03  0.00000000000E+00 0. -1.
         -1    1    1    2    0  502 -0.39855104103E+02  0.24789818834E+03  0.11460583299E+03  0.27600079359E+03  0.00000000000E+00 0.  1.
<scales pt_clust_5="13000.00000" pt_clust_6="13000.00000" pt_clust_7="13000.00000" pt_clust_8="13000.00000" pt_clust_9="79.92392" pt_clust_10="13000.00000"></scales>
<clustering>
<clus scale="   79.924">  1  9  2 -1</clus>
<clus scale="   97.044">  5  6 -1 -1</clus>
<clus scale="   97.682">  7  8 -1 -1</clus>
<clus scale="  222.197">  2  7  1 -1</clus>
<clus scale="  123.950">  5 10 -1 -1</clus>
<clus scale="   79.924">  1  5  2 -1</clus>
</clustering>
</event>
<event>
10    2  0.5692308E-006  0.2656276E+03  0.7546771E-02  0.1119443E+00
          1   -1    0    0  503    0 -0.00000000000E+00  0.00000000000E+00  0.10532276354E+04  0.10532276354E+04  0.00000000000E+00 0. -1.
         21   -1    0    0  501  502  0.00000000000E+00 -0.00000000000E+00 -0.81193746141E+02  0.81193746141E+02  0.00000000000E+00 0. -1.
         23    2    1    2    0    0 -0.14609776489E+03  0.19233418611E+02  0.33649277564E+03  0.37881798462E+03  0.92526731910E+02 0.  0.
         23    2    1    2    0    0  0.18798454855E+03 -0.71000850214E+01  0.48842717352E+03  0.53167289905E+03  0.93415020434E+02 0.  0.
        -11    1    3    3    0    0 -0.12173907977E+03  0.42146032090E+02  0.19708490145E+03  0.23545519732E+03  0.00000000000E+00 0. -1.
         11    1    3    3    0    0 -0.24358685115E+02 -0.22912613479E+02  0.13940787419E+03  0.14336278731E+03  0.00000000000E+00 0.  1.
        -13    1    4    4    0    0  0.89545501313E+02  0.30637133912E+01  0.11745463649E+03  0.14772736638E+03  0.00000000000E+00 0.  1.
         13    1    4    4    0    0  0.98439047237E+02 -0.10163798413E+02  0.37097253703E+03  0.38394553266E+03  0.00000000000E+00 0. -1.
         21    1    1    2  503  502 -0.14835902241E+02 -0.71350528195E+02  0.11875777471E+02  0.73837903272E+02  0.00000000000E+00 0. -1.
          1    1    1    2  501    0 -0.27050881424E+02  0.59217194606E+02  0.13523816258E+03  0.15009259455E+03  0.00000000000E+00 0. -1.
<scales pt_clust_5="13000.00000" pt_clust_6="13000.00000" pt_clust_7="13000.00000" pt_clust_8="13000.00000" pt_clust_9="72.87662" pt_clust_10="13000.00000"></scales>
<clustering>
<clus scale="   72.877">  2  9  1 -1</clus>
<clus scale="   92.527">  5  6 -1 -1</clus>
<clus scale="   93.415">  7  8 -1 -1</clus>
<clus scale="   56.775">  7 10 -1 -1</clus>
<clus scale="  178.576">  1  5  2 -1</clus>
<clus scale="   72.877">  2  5  1 -1</clus>
</clustering>
</event>
<event>
10    2  0.5692308E-006  0.1354667E+03  0.7546771E-02  0.1226701E+00
         21   -1    0    0  501  502  0.00000000000E+00  0.00000000000E+00  0.12822064606E+03  0.12822064606E+03  0.00000000000E+00 0. -1.
          1   -1    0    0  503    0 -0.00000000000E+00 -0.00000000000E+00 -0.34548782358E+03  0.34548782358E+03  0.00000000000E+00 0. -1.
         23    2    1    2    0    0  0.58359492327E+02  0.30407801244E+02 -0.22339587406E+03  0.25004422325E+03  0.91027096594E+02 0.  0.
         23    2    1    2    0    0 -0.59007745610E+02 -0.26197001828E+02 -0.22336276691E+02  0.11351290349E+03  0.90653588212E+02 0.  0.
        -11    1    4    4    0    0 -0.37464979678E+02 -0.37492180616E+02 -0.52608484099E+02  0.74678918771E+02  0.00000000000E+00 0.  1.
         11    1    4    4    0    0 -0.21542765932E+02  0.11295178788E+02  0.30272207408E+02  0.38833984720E+02  0.00000000000E+00 0. -1.
        -11    1    3    3    0    0 -0.19678884787E+02  0.27568684733E+02 -0.58659556375E+02  0.67736507428E+02  0.00000000000E+00 0.  1.
         11    1    3    3    0    0  0.78038377114E+02  0.28391165104E+01 -0.16473631768E+03  0.18230771582E+03  0.00000000000E+00 0. -1.
         21    1    1    2  503  502  0.29957671835E+02  0.28202233538E+02  0.47191141585E+02  0.62608561095E+02  0.00000000000E+00 0. -1.
          1    1    1    2  501    0 -0.29309418551E+02 -0.32413032954E+02 -0.18726168358E+02  0.47542781812E+02  0.00000000000E+00 0. -1.
<scales pt_clust_5="13000.00000" pt_clust_6="13000.00000" pt_clust_7="13000.00000" pt_clust_8="13000.00000" pt_clust_9="41.14399" pt_clust_10="13000.00000"></scales>
<clustering>
<clus scale="   41.144">  1  9  2 -1</clus>
<clus scale="   90.654">  5  6 -1 -1</clus>
<clus scale="   35.646">  5 10 -1 -1</clus>
<clus scale="   91.027">  7  8 -1 -1</clus>
<clus scale="  116.702">  2  7  1 -1</clus>
<clus scale="   41.144">  1  5  2 -1</clus>
</clustering>
</event>
<event>
10    2  0.5692308E-006  0.3942658E+03  0.7546771E-02  0.1100868E+00
         21   -1    0    0  501  502  0.00000000000E+00  0.00000000000E+00  0.12185342717E+03  0.12185342717E+03  0.00000000000E+00 0. -1.
          2   -1    0    0  503    0 -0.00000000000E+00 -0.00000000000E+00 -0.10734211602E+04  0.10734211602E+04  0.00000000000E+00 0. -1.
         23    2    1    2    0    0  0.11157323404E+02  0.59071934272E+01 -0.16475820125E+03  0.18661894290E+03  0.86729373176E+02 0.  0.
         23    2    1    2    0    0  0.19316069208E+02  0.12084560152E+02 -0.25642118907E+03  0.27305687190E+03  0.91044395575E+02 0.  0.
        -13    1    3    3    0    0  0.36197639874E+01  0.41349621921E+02 -0.12977824341E+03  0.13625449125E+03  0.00000000000E+00 0.  1.
         13    1    3    3    0    0  0.75375594169E+01 -0.35442428494E+02 -0.34979957844E+02  0.50364451653E+02  0.00000000000E+00 0. -1.
        -13    1    4    4    0    0 -0.35105959250E+02 -0.29918011219E+01 -0.12814484805E+03  0.13290026836E+03  0.00000000000E+00 0.  1.
         13    1    4    4    0    0  0.54422028458E+02  0.15076361274E+02 -0.12827634102E+03  0.14015660354E+03  0.00000000000E+00 0. -1.
         21    1    1    2  503  502  0.19413273316E+03  0.96435508301E+02 -0.39223825267E+03  0.44814972075E+03  0.00000000000E+00 0. -1.
          2    1    1    2  501    0 -0.22460612578E+03 -0.11442726188E+03 -0.13815009000E+03  0.28744905177E+03  0.00000000000E+00 0. -1.
<scales pt_clust_5="13000.00000" pt_clust_6="13000.00000" pt_clust_7="13000.00000" pt_clust_8="13000.00000" pt_clust_9="222.67288" pt_clust_10="13000.00000"></scales>
<clustering>
<clus scale="   86.729">  5  6 -1 -1</clus>
<clus scale="   87.643">  2  5  1 -1</clus>
<clus scale="   91.044">  7  8 -1 -1</clus>
<clus scale="  222.673">  1  9  2 -1</clus>
<clus scale="   58.773">  7 10 -1 -1</clus>
<clus scale="  222.673">  1  5  2 -1</clus>
</clustering>
</event>
<event>
10    2  0.5692308E-006  0.1923031E+03  0.7546771E-02  0.1189917E+00
         21   -1    0    0  501  502  0.00000000000E+00  0.00000000000E+00  0.12448623587E+03  0.12448623587E+03  0.00000000000E+00 0. -1.
          2   -1    0    0  503    0 -0.00000000000E+00 -0.00000000000E+00 -0.53017362797E+03  0.53017362797E+03  0.00000000000E+00 0. -1.
         23    2    1    2    0    0  0.12284260203E+02 -0.31194945422E+02 -0.21838228425E+03  0.23759345416E+03  0.87383063094E+02 0.  0.
         23    2    1    2    0    0  0.71704766976E+02 -0.27661988712E+02 -0.19631723577E+03  0.22944156142E+03  0.90532943302E+02 0.  0.
        -11    1    4    4    0    0  0.35463422407E+02 -0.33335785354E+02 -0.18463659226E+03  0.19094397115E+03  0.00000000000E+00 0. -1.
         11    1    4    4    0    0  0.36241344569E+02  0.56737966423E+01 -0.11680643501E+02  0.38497590277E+02  0.00000000000E+00 0.  1.
        -13    1    3    3    0    0  0.41312329160E+01  0.20247938222E+02 -0.10296600417E+02  0.23088223574E+02  0.00000000000E+00 0.  1.
         13    1    3    3    0    0  0.81530272870E+01 -0.51442883644E+02 -0.20808568383E+03  0.21450523058E+03  0.00000000000E+00 0. -1.
         21    1    1    2  503  502 -0.14477978175E+02  0.56144267849E+02  0.72919676630E+02  0.93161525879E+02  0.00000000000E+00 0. -1.
          2    1    1    2  501    0 -0.69511049004E+02  0.27126662855E+01 -0.63907548715E+02  0.94463322379E+02  0.00000000000E+00 0. -1.
<scales pt_clust_5="13000.00000" pt_clust_6="13000.00000" pt_clust_7="13000.00000" pt_clust_8="13000.00000" pt_clust_9="57.98095" pt_clust_10="13000.00000"></scales>
<clustering>
<clus scale="   57.981">  1  9  2 -1</clus>
<clus scale="   87.383">  7  8 -1 -1</clus>
<clus scale="   89.700">  2  7  1 -1</clus>
<clus scale="   90.533">  5  6 -1 -1</clus>
<clus scale="   73.682">  5 10 -1 -1</clus>
<clus scale="   57.981">  1  5  2 -1</clus>
</clustering>
</event>
<event>
10    2  0.5692308E-006  0.1775014E+03  0.7546771E-02  0.1183697E+00
         21   -1    0    0  503  502  0.00000000000E+00  0.00000000000E+00  0.15465392974E+03  0.15465392974E+03  0.00000000000E+00 0.  1.
          1   -1    0    0  502    0 -0.00000000000E+00 -0.00000000000E+00 -0.87658242701E+03  0.87658242701E+03  0.00000000000E+00 0. -1.
         23    2    1    2    0    0 -0.44952467781E+01  0.81165227070E+02 -0.52640392097E+03  0.54024677327E+03  0.90318805844E+02 0.  0.
         23    2    1    2    0    0  0.16242992312E+02 -0.76868464330E+02 -0.21082037209E+03  0.24266664772E+03  0.90935565191E+02 0.  0.
        -13    1    4    4    0    0 -0.17917652759E+02 -0.83433092906E+02 -0.14645182100E+03  0.16950002698E+03  0.00000000000E+00 0.  1.
         13    1    4    4    0    0  0.34160645071E+02  0.65646285759E+01 -0.64368551094E+02  0.73166620736E+02  0.00000000000E+00 0. -1.
        -13    1    3    3    0    0 -0.44531685987E+02  0.23797722638E+02 -0.18618569682E+03  0.19291064346E+03  0.00000000000E+00 0.  1.
         13    1    3    3    0    0  0.40036439209E+02  0.57367504432E+02 -0.34021822415E+03  0.34733612981E+03  0.00000000000E+00 0. -1.
         21    1    1    2  503  501 -0.16263802685E+02  0.94852255794E+02  0.83895557242E+02  0.12767116445E+03  0.00000000000E+00 0.  1.
          1    1    1    2  501    0  0.45160571510E+01 -0.99149018535E+02 -0.68599761455E+02  0.12065177131E+03  0.00000000000E+00 0. -1.
<scales pt_clust_5="13000.00000" pt_clust_6="13000.00000" pt_clust_7="13000.00000" pt_clust_8="13000.00000" pt_clust_9="96.23649" pt_clust_10="13000.00000"></scales>
<clustering>
<clus scale="   90.319">  7  8 -1 -1</clus>
<clus scale="   90.936">  5  6 -1 -1</clus>
<clus scale="   96.236">  1  9  2 -1</clus>
<clus scale="   48.812">  5 10 -1 -1</clus>
<clus scale="  130.968">  2  7  1 -1</clus>
<clus scale="   96.236">  1  5  2 -1</clus>
</clustering>
</event>
<event>
10    2  0.5692308E-006  0.1255815E+03  0.7546771E-02  0.1242524E+00
         21   -1    0    0  501  502  0.00000000000E+00  0.00000000000E+00  0.27577794160E+03  0.27577794160E+03  0.00000000000E+00 0. -1.
          4   -1    0    0  503    0 -0.00000000000E+00 -0.00000000000E+00 -0.14398371735E+03  0.14398371735E+03  0.00000000000E+00 0. -1.
         23    2    1    2    0    0 -0.28343776017E+02  0.16194262656E+02 -0.45518069017E+02  0.11290196495E+03  0.98027217142E+02 0.  0.
         23    2    1    2    0    0  0.10510327637E+02 -0.14884983154E+02 -0.10524551442E+02  0.87750225176E+02  0.85189824069E+02 0.  0.
        -11    1    3    3    0    0  0.88336858754E+00  0.49990429615E+02 -0.46401112017E+02  0.68212070703E+02  0.00000000000E+00 0.  1.
         11    1    3    3    0    0 -0.29227144605E+02 -0.33796166959E+02  0.88304300033E+00  0.44689894247E+02  0.00000000000E+00 0. -1.
        -11    1    4    4    0    0 -0.22763711999E+02 -0.12753737394E+02 -0.36930301517E+02  0.45218265907E+02  0.00000000000E+00 0. -1.
         11    1    4    4    0    0  0.33274039637E+02 -0.21312457603E+01  0.26405750075E+02  0.42531959269E+02  0.00000000000E+00 0.  1.
         21    1    1    2  503  502 -0.23053537741E+02  0.43514099320E+01  0.17400080798E+03  0.17557528741E+03  0.00000000000E+00 0. -1.
          4    1    1    2  501    0  0.40886986121E+02 -0.56606894340E+01  0.13836036725E+02  0.43534181412E+02  0.00000000000E+00 0. -1.
<scales pt_clust_5="13000.00000" pt_clust_6="13000.00000" pt_clust_7="13000.00000" pt_clust_8="13000.00000" pt_clust_9="23.46061" pt_clust_10="13000.00000"></scales>
<clustering>
<clus scale="   23.461">  1  9  2 -1</clus>
<clus scale="   85.190">  7  8 -1 -1</clus>
<clus scale="   34.623">  7 10 -1 -1</clus>
<clus scale="   98.027">  5  6 -1 -1</clus>
<clus scale="  105.921">  2  5  1 -1</clus>
<clus scale="   23.461">  1  5  2 -1</clus>
</clustering>
</event>
<event>
10    2  0.5692308E-006  0.1366014E+03  0.7546771E-02  0.1234418E+00
         -4   -1    0    0    0  501 -0.00000000000E+00  0.00000000000E+00  0.20043308788E+03  0.20043308788E+03  0.00000000000E+00 0.  1.
         21   -1    0    0  501  502  0.00000000000E+00 -0.00000000000E+00 -0.42231537301E+03  0.42231537301E+03  0.00000000000E+00 0.  1.
         23    2    1    2    0    0 -0.29012516848E+02 -0.73156375976E+01 -0.16695037907E+03  0.18765205633E+03  0.80284621731E+02 0.  0.
         23    2    1    2    0    0  0.55987934294E+01  0.47668697288E+02  0.16106543641E+03  0.19107922673E+03  0.90915042177E+02 0.  0.
        -11    1    3    3    0    0  0.64181160475E+01  0.20455153897E+02 -0.12259149879E+03  0.12445192289E+03  0.00000000000E+00 0.  1.
         11    1    3    3    0    0 -0.35430632896E+02 -0.27770791495E+02 -0.44358880277E+02  0.63200133442E+02  0.00000000000E+00 0. -1.
        -13    1    4    4    0    0  0.37917668868E+02 -0.70952792672E+01  0.50725028042E+02  0.63726925786E+02  0.00000000000E+00 0. -1.
         13    1    4    4    0    0 -0.32318875439E+02  0.54763976555E+02  0.11034040837E+03  0.12735230095E+03  0.00000000000E+00 0.  1.
         21    1    1    2  503  502  0.38283880520E+02 -0.54077866368E+02 -0.21359922921E+03  0.22363966969E+03  0.00000000000E+00 0.  1.
         -4    1    1    2    0  503 -0.14870157101E+02  0.13724806678E+02 -0.23981132594E+01  0.20377508134E+02  0.00000000000E+00 0.  1.
<scales pt_clust_5="13000.00000" pt_clust_6="13000.00000" pt_clust_7="13000.00000" pt_clust_8="13000.00000" pt_clust_9="66.25761" pt_clust_10="13000.00000"></scales>
<clustering>
<clus scale="   66.258">  2  9  1 -1</clus>
<clus scale="   80.285">  5  6 -1 -1</clus>
<clus scale="   90.915">  7  8 -1 -1</clus>
<clus scale="   16.630">  7 10 -1 -1</clus>
<clus scale="   97.067">  1  5  2 -1</clus>
<clus scale="   66.258">  2  5  1 -1</clus>
</clustering>
</event>
<event>
10    2  0.5692308E-006  0.1318806E+03  0.7546771E-02  0.1242262E+00
         21   -1    0    0  501  502  0.00000000000E+00  0.00000000000E+00  0.72793212290E+02  0.72793212290E+02  0.00000000000E+00 0.  1.
          3   -1    0    0  503    0 -0.00000000000E+00 -0.00000000000E+00 -0.32222239770E+03  0.32222239770E+03  0.00000000000E+00 0. -1.
         23    2    1    2    0    0 -0.22678888953E+02  0.10246057060E+01 -0.15310739278E+03  0.17973931103E+03  0.91372667606E+02 0.  0.
         23    2    1    2    0    0  0.92697973669E+01 -0.89939127025E+01 -0.49715078225E+02  0.10358312229E+03  0.89950289666E+02 0.  0.
        -11    1    4    4    0    0 -0.21695473304E+01 -0.28108539440E+02  0.17222290908E+02  0.33036407631E+02  0.00000000000E+00 0.  1.
         11    1    4    4    0    0  0.11439344697E+02  0.19114626737E+02 -0.66937369132E+02  0.70546714656E+02  0.00000000000E+00 0. -1.
        -13    1    3    3    0    0  0.26402863225E+02  0.10736804857E+02 -0.13697568495E+02  0.31622990809E+02  0.00000000000E+00 0.  1.
         13    1    3    3    0    0 -0.49081752179E+02 -0.97121991506E+01 -0.13940982429E+03  0.14811632022E+03  0.00000000000E+00 0. -1.
         21    1    1    2  503  502  0.45469382760E+02 -0.14232145568E+02  0.39906729081E+01  0.47811548880E+02  0.00000000000E+00 0.  1.
          3    1    1    2  501    0 -0.32060291174E+02  0.22201452565E+02 -0.50597387312E+02  0.63881627789E+02  0.00000000000E+00 0. -1.
<scales pt_clust_5="13000.00000" pt_clust_6="13000.00000" pt_clust_7="13000.00000" pt_clust_8="13000.00000" pt_clust_9="47.64471" pt_clust_10="13000.00000"></scales>
<clustering>
<clus scale="   47.645">  1  9  2 -1</clus>
<clus scale="   89.950">  5  6 -1 -1</clus>
<clus scale="   32.616">  5 10 -1 -1</clus>
<clus scale="   91.373">  7  8 -1 -1</clus>
<clus scale="   91.943">  2  7  1 -1</clus>
<clus scale="   47.645">  1  5  2 -1</clus>
</clustering>
</event>
<event>
10    2  0.5692308E-006  0.2678191E+03  0.7546771E-02  0.1140172E+00
         -1   -1    0    0    0  501 -0.00000000000E+00  0.00000000000E+00  0.58672703304E+03  0.58672703304E+03  0.00000000000E+00 0.  1.
         21   -1    0    0  501  502  0.00000000000E+00 -0.00000000000E+00 -0.12288813007E+03  0.12288813007E+03  0.00000000000E+00 0. -1.
         23    2    1    2    0    0 -0.43979851089E+02 -0.26710176928E+02  0.18541485447E+03  0.21293203758E+03  0.91179622249E+02 0.  0.
         23    2    1    2    0    0 -0.27120627147E+02  0.10222857746E+03  0.14557760881E+03  0.20701572248E+03  0.10235457342E+03 0.  0.
        -13    1    4    4    0    0  0.33547201007E+02  0.16919553860E+02  0.17071714652E+02  0.41268988835E+02  0.00000000000E+00 0. -1.
         13    1    4    4    0    0 -0.60667828154E+02  0.85309023602E+02  0.12850589416E+03  0.16574673365E+03  0.00000000000E+00 0.  1.
        -13    1    3    3    0    0  0.23427320581E+02  0.11474938842E+02  0.34059079025E+02  0.42901450268E+02  0.00000000000E+00 0. -1.
         13    1    3    3    0    0 -0.67407171670E+02 -0.38185115769E+02  0.15135577545E+03  0.17003058731E+03  0.00000000000E+00 0.  1.
         21    1    1    2  503  502  0.12450651758E+03  0.16432033696E+02  0.82388623507E+01  0.12585612224E+03  0.00000000000E+00 0. -1.
         -1    1    1    2    0  503 -0.53406039346E+02 -0.91950434230E+02  0.12460757733E+03  0.16381128082E+03  0.00000000000E+00 0.  1.
<scales pt_clust_5="13000.00000" pt_clust_6="13000.00000" pt_clust_7="13000.00000" pt_clust_8="13000.00000" pt_clust_9="117.49309" pt_clust_10="13000.00000"></scales>
<clustering>
<clus scale="   91.180">  7  8 -1 -1</clus>
<clus scale="  102.355">  5  6 -1 -1</clus>
<clus scale="  104.697">  1  7  2 -1</clus>
<clus scale="  117.493">  2  9  1 -1</clus>
<clus scale="   97.933">  5 10 -1 -1</clus>
<clus scale="  117.493">  2  5  1 -1</clus>
</clustering>
</event>
<event>
10    2  0.5958543E-006  0.1617347E+03  0.7546771E-02  0.1200102E+00
          4   -1    0    0  503    0 -0.00000000000E+00  0.00000000000E+00  0.18796303431E+03  0.18796303431E+03  0.00000000000E+00 0. -1.
         21   -1    0    0  501  502  0.00000000000E+00 -0.00000000000E+00 -0.41084423752E+03  0.41084423752E+03  0.00000000000E+00 0.  1.
         23    2    1    2    0    0 -0.62964166923E+02  0.47598959168E+02 -0.70420364087E+02  0.13841709663E+03  0.89275515850E+02 0.  0.
         23    2    1    2    0    0  0.40304474093E+02 -0.68339110834E+02  0.12052737401E+03  0.17119624460E+03  0.92122861330E+02 0.  0.
        -11    1    4    4    0    0  0.44560087562E+01  0.22967503612E+02  0.20656800806E+02  0.31210024924E+02  0.00000000000E+00 0.  1.
         11    1    4    4    0    0  0.35848465337E+02 -0.91306614446E+02  0.99870573199E+02  0.13998621968E+03  0.00000000000E+00 0. -1.
        -13    1    3    3    0    0 -0.27817696179E+01  0.34754390907E+02 -0.68484575760E+02  0.76848832435E+02  0.00000000000E+00 0.  1.
         13    1    3    3    0    0 -0.60182397305E+02  0.12844568261E+02 -0.19357883270E+01  0.61568264192E+02  0.00000000000E+00 0. -1.
         21    1    1    2  503  502  0.37472316562E+02  0.35334419857E+02 -0.25914386701E+03  0.26421248938E+03  0.00000000000E+00 0.  1.
          4    1    1    2  501    0 -0.14812623732E+02 -0.14594268191E+02 -0.13844346121E+02  0.24981441219E+02  0.00000000000E+00 0. -1.
<scales pt_clust_5="13000.00000" pt_clust_6="13000.00000" pt_clust_7="13000.00000" pt_clust_8="13000.00000" pt_clust_9="51.50433" pt_clust_10="13000.00000"></scales>
<clustering>
<clus scale="   51.504">  2  9  1 -1</clus>
<clus scale="   89.276">  7  8 -1 -1</clus>
<clus scale="   92.123">  5  6 -1 -1</clus>
<clus scale="   14.094">  5 10 -1 -1</clus>
<clus scale="  120.630">  1  7  2 -1</clus>
<clus scale="   51.504">  2  5  1 -1</clus>
</clustering>
</event>
<event>
10    2  0.5692308E-006  0.5590834E+03  0.7546771E-02  0.1052903E+00
          2   -1    0    0  503    0 -0.00000000000E+00  0.00000000000E+00  0.56034274257E+03  0.56034274257E+03  0.00000000000E+00 0. -1.
         21   -1    0    0  501  502  0.00000000000E+00 -0.00000000000E+00 -0.38200221747E+03  0.38200221747E+03  0.00000000000E+00 0. -1.
         23    2    1    2    0    0 -0.63488581236E+02  0.72189765792E+01  0.97713823351E+02  0.14786448687E+03  0.90735889448E+02 0.  0.
         23    2    1    2    0    0  0.22745991651E+03  0.19707212213E+03  0.11678709836E+03  0.33559294438E+03  0.91694945526E+02 0.  0.
        -11    1    3    3    0    0 -0.72074367387E+02 -0.25185120341E+02  0.57913268049E+02  0.95827716956E+02  0.00000000000E+00 0.  1.
         11    1    3    3    0    0  0.85857861507E+01  0.32404096920E+02  0.39800555302E+02  0.52036769917E+02  0.00000000000E+00 0. -1.
        -13    1    4    4    0    0  0.17545735635E+03  0.10406524731E+03  0.10179800629E+03  0.22798616993E+03  0.00000000000E+00 0.  1.
         13    1    4    4    0    0  0.52002560162E+02  0.93006874817E+02  0.14989092075E+02  0.10760677445E+03  0.00000000000E+00 0. -1.
         21    1    1    2  503  502 -0.26199493210E+02 -0.10444465521E+01 -0.17490439294E+03  0.17685884480E+03  0.00000000000E+00 0. -1.
          2    1    1    2  501    0 -0.13777184206E+03 -0.20324665215E+03  0.13874399633E+03  0.28202868399E+03  0.00000000000E+00 0. -1.
<scales pt_clust_5="13000.00000" pt_clust_6="13000.00000" pt_clust_7="13000.00000" pt_clust_8="13000.00000" pt_clust_9="26.22030" pt_clust_10="13000.00000"></scales>
<clustering>
<clus scale="   26.220">  2  9  1 -1</clus>
<clus scale="   90.736">  5  6 -1 -1</clus>
<clus scale="   91.695">  7  8 -1 -1</clus>
<clus scale="  112.823">  1  5  2 -1</clus>
<clus scale="  269.635">  7 10 -1 -1</clus>
<clus scale="   26.220">  2  5  1 -1</clus>
</clustering>
</event>
<event>
10    2  0.5692308E-006  0.1756916E+03  0.7546771E-02  0.1198840E+00
         21   -1    0    0  501  502  0.00000000000E+00  0.00000000000E+00  0.27594915308E+03  0.27594915308E+03  0.00000000000E+00 0.  1.
          3   -1    0    0  503    0 -0.00000000000E+00 -0.00000000000E+00 -0.11574567586E+03  0.11574567586E+03  0.00000000000E+00 0. -1.
         23    2    1    2    0    0  0.10194896345E+02  0.16868460683E+00  0.47362119766E+02  0.10258298379E+03  0.90421976357E+02 0.  0.
         23    2    1    2    0    0 -0.56804611413E+02  0.92996116929E+01  0.73373353819E+02  0.13081622484E+03  0.91738699446E+02 0.  0.
        -13    1    4    4    0    0 -0.70707274394E+00 -0.20456211400E+02  0.63292998325E+02  0.66520374125E+02  0.00000000000E+00 0. -1.
         13    1    4    4    0    0 -0.56097538669E+02  0.29755823092E+02  0.10080355494E+02  0.64295850718E+02  0.00000000000E+00 0.  1.
        -13    1    3    3    0    0  0.32759265481E+02 -0.33731088704E+02  0.11705479184E+02  0.48455898123E+02  0.00000000000E+00 0. -1.
         13    1    3    3    0    0 -0.22564369136E+02  0.33899773311E+02  0.35656640582E+02  0.54127085665E+02  0.00000000000E+00 0.  1.
         21    1    1    2  503  502  0.47749525517E+02  0.50959907391E+02  0.62400451295E+02  0.93652259291E+02  0.00000000000E+00 0. -1.
          3    1    1    2  501    0 -0.11398104480E+01 -0.60428203691E+02 -0.22932447660E+02  0.64643361027E+02  0.00000000000E+00 0. -1.
<scales pt_clust_5="13000.00000" pt_clust_6="13000.00000" pt_clust_7="13000.00000" pt_clust_8="13000.00000" pt_clust_9="69.83502" pt_clust_10="13000.00000"></scales>
<clustering>
<clus scale="   69.835">  1  9  2 -1</clus>
<clus scale="   90.422">  7  8 -1 -1</clus>
<clus scale="   91.739">  5  6 -1 -1</clus>
<clus scale="   55.196">  5 10 -1 -1</clus>
<clus scale="   96.722">  2  7  1 -1</clus>
<clus scale="   69.835">  1  5  2 -1</clus>
</clustering>
</event>
<event>
10    2  0.5692308E-006  0.1836156E+03  0.7546771E-02  0.1188826E+00
         21   -1    0    0  503  502  0.00000000000E+00  0.00000000000E+00  0.39875911374E+03  0.39875911374E+03  0.00000000000E+00 0. -1.
         -3   -1    0    0    0  501 -0.00000000000E+00 -0.00000000000E+00 -0.72895977035E+02  0.72895977035E+02  0.00000000000E+00 0.  1.
         23    2    1    2    0    0  0.52501161673E+02  0.13508500413E+02  0.16515626711E+03  0.19613749945E+03  0.90854138947E+02 0.  0.
         23    2    1    2    0    0 -0.44673057107E+02 -0.77850880373E+02  0.36052478794E+02  0.13317322212E+03  0.91536245591E+02 0.  0.
        -11    1    3    3    0    0 -0.19520759937E+02 -0.56069141283E+01  0.82007312264E+02  0.84484891072E+02  0.00000000000E+00 0. -1.
         11    1    3    3    0    0  0.72021921610E+02  0.19115414542E+02  0.83148954847E+02  0.11165260838E+03  0.00000000000E+00 0.  1.
        -11    1    4    4    0    0 -0.66980281252E+02 -0.69180401087E+02  0.46651382968E+02  0.10699830608E+03  0.00000000000E+00 0. -1.
         11    1    4    4    0    0  0.22307224144E+02 -0.86704792855E+01 -0.10598904175E+02  0.26174916041E+02  0.00000000000E+00 0.  1.
         21    1    1    2  503  501 -0.90650105721E+01  0.21172694809E+02  0.62923089005E+02  0.67005765066E+02  0.00000000000E+00 0. -1.
         -3    1    1    2    0  502  0.12369060062E+01  0.43169685150E+02  0.61731301798E+02  0.75338604143E+02  0.00000000000E+00 0.  1.
<scales pt_clust_5="13000.00000" pt_clust_6="13000.00000" pt_clust_7="13000.00000" pt_clust_8="13000.00000" pt_clust_9="23.03166" pt_clust_10="13000.00000"></scales>
<clustering>
<clus scale="   23.032">  1  9  2 -1</clus>
<clus scale="   90.854">  5  6 -1 -1</clus>
<clus scale="   91.536">  7  8 -1 -1</clus>
<clus scale="   47.521">  7 10 -1 -1</clus>
<clus scale="  105.561">  2  5  1 -1</clus>
<clus scale="   23.032">  1  5  2 -1</clus>
</clustering>
</event>
<event>
10    2  0.5692308E-006  0.2453547E+03  0.7546771E-02  0.1143821E+00
          2   -1    0    0  502    0 -0.00000000000E+00  0.00000000000E+00  0.71895799968E+03  0.71895799968E+03  0.00000000000E+00 0. -1.
         21   -1    0    0  503  502  0.00000000000E+00 -0.00000000000E+00 -0.14689469008E+03  0.14689469008E+03  0.00000000000E+00 0. -1.
         23    2    1    2    0    0  0.65186320961E+02  0.53045167688E+02  0.25784791028E+03  0.28656260452E+03  0.92571784129E+02 0.  0.
         23    2    1    2    0    0 -0.89197851887E+02  0.24195617154E+02  0.40852157512E+03  0.42860750864E+03  0.90955123314E+02 0.  0.
        -11    1    3    3    0    0  0.53790529934E+02 -0.15148821991E+02  0.11684043883E+03  0.12951677909E+03  0.00000000000E+00 0.  1.
         11    1    3    3    0    0  0.11395791027E+02  0.68193989679E+02  0.14100747145E+03  0.15704582543E+03  0.00000000000E+00 0. -1.
        -13    1    4    4    0    0  0.16324376672E+02  0.16811620371E+02  0.61111983900E+02  0.65450671726E+02  0.00000000000E+00 0.  1.
         13    1    4    4    0    0 -0.10552222856E+03  0.73839967826E+01  0.34740959122E+03  0.36315683692E+03  0.00000000000E+00 0. -1.
         21    1    1    2  503  501  0.18345299930E+02 -0.28039933426E+02 -0.95431996783E+02  0.10114372895E+03  0.00000000000E+00 0. -1.
          2    1    1    2  501    0  0.56662309952E+01 -0.49200851416E+02  0.11258209853E+01  0.49538847652E+02  0.00000000000E+00 0. -1.
<scales pt_clust_5="13000.00000" pt_clust_6="13000.00000" pt_clust_7="13000.00000" pt_clust_8="13000.00000" pt_clust_9="33.50803" pt_clust_10="13000.00000"></scales>
<clustering>
<clus scale="   33.508">  2  9  1 -1</clus>
<clus scale="   90.955">  7  8 -1 -1</clus>
<clus scale="   64.876">  7 10 -1 -1</clus>
<clus scale="   92.572">  5  6 -1 -1</clus>
<clus scale="  124.733">  1  5  2 -1</clus>
<clus scale="   33.508">  2  5  1 -1</clus>
</clustering>
</event>
<event>
10    2  0.5692308E-006  0.1842924E+03  0.7546771E-02  0.1194077E+00
          2   -1    0    0  502    0 -0.00000000000E+00  0.00000000000E+00  0.19362740244E+03  0.19362740244E+03  0.00000000000E+00 0. -1.
         21   -1    0    0  503  502  0.00000000000E+00 -0.00000000000E+00 -0.34662771724E+03  0.34662771724E+03  0.00000000000E+00 0. -1.
         23    2    1    2    0    0 -0.20218727924E+02 -0.41937766096E+01  0.14294049196E+03  0.17041782912E+03  0.90464730800E+02 0.  0.
         23    2    1    2    0    0  0.52757784334E+01 -0.50045280303E+02 -0.12064786674E+03  0.16051077359E+03  0.93142024734E+02 0.  0.
        -11    1    4    4    0    0  0.42816486976E+02 -0.84470905016E+01 -0.26817605556E+02  0.51222932977E+02  0.00000000000E+00 0. -1.
         11    1    4    4    0    0 -0.37540708543E+02 -0.41598189802E+02 -0.93830261180E+02  0.10928784061E+03  0.00000000000E+00 0.  1.
        -11    1    3    3    0    0  0.18372116963E+02  0.28085601883E+02  0.23956063924E+02  0.41233829722E+02  0.00000000000E+00 0.  1.
         11    1    3    3    0    0 -0.38590844887E+02 -0.32279378492E+02  0.11898442804E+03  0.12918399940E+03  0.00000000000E+00 0. -1.
         21    1    1    2  503  501 -0.12382706469E+02 -0.23071311463E+02 -0.76955125508E+02  0.81287810735E+02  0.00000000000E+00 0. -1.
          2    1    1    2  501    0  0.27325655960E+02  0.77310368375E+02 -0.98337814516E+02  0.12803870624E+03  0.00000000000E+00 0. -1.
<scales pt_clust_5="13000.00000" pt_clust_6="13000.00000" pt_clust_7="13000.00000" pt_clust_8="13000.00000" pt_clust_9="26.18429" pt_clust_10="13000.00000"></scales>
<clustering>
<clus scale="   26.184">  2  9  1 -1</clus>
<clus scale="   90.465">  7  8 -1 -1</clus>
<clus scale="   92.993">  1  7  2 -1</clus>
<clus scale="   93.142">  5  6 -1 -1</clus>
<clus scale="   67.418">  5 10 -1 -1</clus>
<clus scale="   26.184">  2  5  1 -1</clus>
</clustering>
</event>
<event>
10    2  0.5692308E-006  0.2548968E+03  0.7546771E-02  0.1134634E+00
         21   -1    0    0  503  502  0.00000000000E+00  0.00000000000E+00  0.17802651359E+03  0.17802651359E+03  0.00000000000E+00 0. -1.
          1   -1    0    0  502    0 -0.00000000000E+00 -0.00000000000E+00 -0.81744087001E+03  0.81744087001E+03  0.00000000000E+00 0. -1.
         23    2    1    2    0    0 -0.34489363165E+02 -0.98299033074E+02 -0.16667626741E+03  0.21695414568E+03  0.91847194498E+02 0.  0.
         23    2    1    2    0    0 -0.21853993245E+02 -0.67715873385E+02 -0.19215079062E+03  0.22536707302E+03  0.93836851693E+02 0.  0.
        -11    1    4    4    0    0 -0.20193425598E+02 -0.91407055415E+02 -0.14536946911E+03  0.17290259329E+03  0.00000000000E+00 0.  1.
         11    1    4    4    0    0 -0.16605676471E+01  0.23691182030E+02 -0.46781321510E+02  0.52464479728E+02  0.00000000000E+00 0. -1.
        -13    1    3    3    0    0 -0.37593445574E+01 -0.61674063545E+02 -0.15624689070E+03  0.16802057505E+03  0.00000000000E+00 0. -1.
         13    1    3    3    0    0 -0.30730018608E+02 -0.36624969530E+02 -0.10429376707E+02  0.48933570636E+02  0.00000000000E+00 0.  1.
         21    1    1    2  503  501  0.11297192743E+03  0.14315498965E+03  0.71443601783E+02  0.19585759032E+03  0.00000000000E+00 0. -1.
          1    1    1    2  501    0 -0.56628571019E+02  0.22859916810E+02 -0.35203090018E+03  0.35728857459E+03  0.00000000000E+00 0. -1.
<scales pt_clust_5="13000.00000" pt_clust_6="13000.00000" pt_clust_7="13000.00000" pt_clust_8="13000.00000" pt_clust_9="172.59797" pt_clust_10="13000.00000"></scales>
<clustering>
<clus scale="   91.847">  7  8 -1 -1</clus>
<clus scale="   93.837">  5  6 -1 -1</clus>
<clus scale="   61.069">  5 10 -1 -1</clus>
<clus scale="  138.882">  2  7  1 -1</clus>
<clus scale="  172.598">  1  9  2 -1</clus>
<clus scale="  172.598">  1  5  2 -1</clus>
</clustering>
</event>
<event>
10    2  0.5692308E-006  0.3622961E+03  0.7546771E-02  0.1105258E+00
          2   -1    0    0  502    0 -0.00000000000E+00  0.00000000000E+00  0.72647399530E+03  0.72647399530E+03  0.00000000000E+00 0. -1.
         21   -1    0    0  503  502  0.00000000000E+00 -0.00000000000E+00 -0.24050125956E+03  0.24050125956E+03  0.00000000000E+00 0.  1.
         23    2    1    2    0    0 -0.40837262831E+02  0.15989926208E+02  0.12016371216E+03  0.15687971182E+03  0.90821619040E+02 0.  0.
         23    2    1    2    0    0 -0.24029130556E+02 -0.73817838340E+02  0.44485295538E+03  0.46048657741E+03  0.90151337712E+02 0.  0.
        -11    1    4    4    0    0 -0.11432611059E+00  0.20925765185E+02  0.92309565828E+02  0.94651765236E+02  0.00000000000E+00 0.  1.
         11    1    4    4    0    0 -0.23914804445E+02 -0.94743603525E+02  0.35254338955E+03  0.36583481217E+03  0.00000000000E+00 0. -1.
        -13    1    3    3    0    0 -0.62299588360E+02  0.35012297905E+02  0.93821082274E+02  0.11793852294E+03  0.00000000000E+00 0.  1.
         13    1    3    3    0    0  0.21462325529E+02 -0.19022371696E+02  0.26342629890E+02  0.38941188882E+02  0.00000000000E+00 0. -1.
         21    1    1    2  503  501 -0.75566546030E+02  0.11848524823E+03 -0.12687632659E+03  0.18933213984E+03  0.00000000000E+00 0.  1.
          2    1    1    2  501    0  0.14043293942E+03 -0.60657336097E+02  0.47832394788E+02  0.16027682579E+03  0.00000000000E+00 0. -1.
<scales pt_clust_5="13000.00000" pt_clust_6="13000.00000" pt_clust_7="13000.00000" pt_clust_8="13000.00000" pt_clust_9="142.42030" pt_clust_10="13000.00000"></scales>
<clustering>
<clus scale="   90.151">  5  6 -1 -1</clus>
<clus scale="   90.822">  7  8 -1 -1</clus>
<clus scale="  100.856">  1  7  2 -1</clus>
<clus scale="  142.420">  2  9  1 -1</clus>
<clus scale="   83.178">  5 10 -1 -1</clus>
<clus scale="  142.420">  2  5  1 -1</clus>
</clustering>
</event>
<event>
10    2  0.5692308E-006  0.2368891E+03  0.7546771E-02  0.1154276E+00
          3   -1    0    0  502    0 -0.00000000000E+00  0.00000000000E+00  0.96311214276E+03  0.96311214276E+03  0.00000000000E+00 0. -1.
         21   -1    0    0  503  502  0.00000000000E+00 -0.00000000000E+00 -0.74533255244E+02  0.74533255244E+02  0.00000000000E+00 0. -1.
         23    2    1    2    0    0  0.55685048896E+02  0.31786792233E+02  0.45614524026E+03  0.46955112779E+03  0.91096413570E+02 0.  0.
         23    2    1    2    0    0  0.17606370129E+01 -0.14317551958E+03  0.32640172010E+03  0.36759523971E+03  0.89921344093E+02 0.  0.
        -13    1    4    4    0    0  0.10190012080E+02 -0.10313833065E+03  0.12642906179E+03  0.16347984360E+03  0.00000000000E+00 0.  1.
         13    1    4    4    0    0 -0.84293750669E+01 -0.40037188930E+02  0.19997265830E+03  0.20411539611E+03  0.00000000000E+00 0. -1.
        -13    1    3    3    0    0 -0.14095778161E+02 -0.20023464019E+02  0.10038916374E+03  0.10333254216E+03  0.00000000000E+00 0. -1.
         13    1    3    3    0    0  0.69780827057E+02  0.51810256253E+02  0.35575607652E+03  0.36621858562E+03  0.00000000000E+00 0.  1.
         21    1    1    2  503  501 -0.73624370416E+02  0.43191941601E+02  0.16740534110E+02  0.86984695325E+02  0.00000000000E+00 0. -1.
          3    1    1    2  501    0  0.16178684508E+02  0.68196785749E+02  0.89291393048E+02  0.11351433518E+03  0.00000000000E+00 0. -1.
<scales pt_clust_5="13000.00000" pt_clust_6="13000.00000" pt_clust_7="13000.00000" pt_clust_8="13000.00000" pt_clust_9="85.35861" pt_clust_10="13000.00000"></scales>
<clustering>
<clus scale="   85.359">  2  9  1 -1</clus>
<clus scale="   89.921">  5  6 -1 -1</clus>
<clus scale="   81.725">  5 10 -1 -1</clus>
<clus scale="   91.096">  7  8 -1 -1</clus>
<clus scale="  108.134">  1  7  2 -1</clus>
<clus scale="   85.359">  2  5  1 -1</clus>
</clustering>
</event>
<event>
10    2  0.5692308E-006  0.2546227E+03  0.7546771E-02  0.1132775E+00
          3   -1    0    0  502    0 -0.00000000000E+00  0.00000000000E+00  0.11053543327E+03  0.11053543327E+03  0.00000000000E+00 0. -1.
         21   -1    0    0  503  502  0.00000000000E+00 -0.00000000000E+00 -0.56893936409E+03  0.56893936409E+03  0.00000000000E+00 0. -1.
         23    2    1    2    0    0 -0.99305154986E+02  0.18883940697E+02 -0.95808172850E+02  0.16573921195E+03  0.89845218953E+02 0.  0.
         23    2    1    2    0    0  0.16742942553E+03 -0.35590396681E+02 -0.62681768241E+02  0.20199623370E+03  0.87029796565E+02 0.  0.
        -13    1    4    4    0    0  0.85368060943E+02 -0.51482381441E+02 -0.63881137004E+02  0.11840160933E+03  0.00000000000E+00 0.  1.
         13    1    4    4    0    0  0.82061364589E+02  0.15891984759E+02  0.11993687634E+01  0.83594624368E+02  0.00000000000E+00 0. -1.
        -13    1    3    3    0    0 -0.11016951119E+03 -0.30473621591E+01 -0.72347634593E+02  0.13183621597E+03  0.00000000000E+00 0.  1.
         13    1    3    3    0    0  0.10864356200E+02  0.21931302857E+02 -0.23460538256E+02  0.33902995972E+02  0.00000000000E+00 0. -1.
         21    1    1    2  503  501 -0.41967422908E+02 -0.12631084212E+02 -0.19059754723E+03  0.19557155694E+03  0.00000000000E+00 0.  1.
          3    1    1    2  501    0 -0.26156847638E+02  0.29337540196E+02 -0.10931644250E+03  0.11616779478E+03  0.00000000000E+00 0. -1.
<scales pt_clust_5="13000.00000" pt_clust_6="13000.00000" pt_clust_7="13000.00000" pt_clust_8="13000.00000" pt_clust_9="43.82703" pt_clust_10="13000.00000"></scales>
<clustering>
<clus scale="   43.827">  2  9  1 -1</clus>
<clus scale="   87.030">  5  6 -1 -1</clus>
<clus scale="   46.411">  5 10 -1 -1</clus>
<clus scale="   89.845">  7  8 -1 -1</clus>
<clus scale="  145.798">  1  7  2 -1</clus>
<clus scale="   43.827">  2  5  1 -1</clus>
</clustering>
</event>
<event>
10    2  0.5692308E-006  0.2947629E+03  0.7546771E-02  0.1126208E+00
         21   -1    0    0  501  502  0.00000000000E+00  0.00000000000E+00  0.68140938388E+02  0.68140938388E+02  0.00000000000E+00 0. -1.
          1   -1    0    0  503    0 -0.00000000000E+00 -0.00000000000E+00 -0.15197059242E+04  0.15197059242E+04  0.00000000000E+00 0. -1.
         23    2    1    2    0    0  0.26308265361E+02 -0.53701717841E+02 -0.15758535424E+03  0.19243215682E+03  0.92849296082E+02 0.  0.
         23    2    1    2    0    0  0.37678363454E+02  0.72340370814E+02 -0.31918509530E+03  0.34178391084E+03  0.91018285659E+02 0.  0.
        -13    1    3    3    0    0  0.60254440494E+02 -0.45509225612E+02 -0.10656149009E+03  0.13060259716E+03  0.00000000000E+00 0.  1.
         13    1    3    3    0    0 -0.33946175133E+02 -0.81924922294E+01 -0.51023864150E+02  0.61829559661E+02  0.00000000000E+00 0. -1.
        -13    1    4    4    0    0  0.64851236061E+02  0.66932255302E+02 -0.26529999215E+03  0.28119334176E+03  0.00000000000E+00 0. -1.
         13    1    4    4    0    0 -0.27172872607E+02  0.54081155121E+01 -0.53885103150E+02  0.60590569073E+02  0.00000000000E+00 0.  1.
         21    1    1    2  503  502 -0.23154538453E+03 -0.18625043325E+02 -0.55895468110E+03  0.60530198485E+03  0.00000000000E+00 0. -1.
          1    1    1    2  501    0  0.16755875571E+03 -0.13609647428E-01 -0.41583985518E+03  0.44832881009E+03  0.00000000000E+00 0. -1.
<scales pt_clust_5="13000.00000" pt_clust_6="13000.00000" pt_clust_7="13000.00000" pt_clust_8="13000.00000" pt_clust_9="224.10313" pt_clust_10="13000.00000"></scales>
<clustering>
<clus scale="   91.018">  7  8 -1 -1</clus>
<clus scale="   92.849">  5  6 -1 -1</clus>
<clus scale="  110.440">  2  5  1 -1</clus>
<clus scale="  176.857">  7 10 -1 -1</clus>
<clus scale="  224.103">  1  9  2 -1</clus>
<clus scale="  224.103">  1  5  2 -1</clus>
</clustering>
</event>
<event>
10    2  0.5692308E-006  0.3664680E+03  0.7546771E-02  0.1097399E+00
         21   -1    0    0  501  502  0.00000000000E+00  0.00000000000E+00  0.52863512174E+03  0.52863512174E+03  0.00000000000E+00 0. -1.
          3   -1    0    0  503    0 -0.00000000000E+00 -0.00000000000E+00 -0.26079342424E+03  0.26079342424E+03  0.00000000000E+00 0. -1.
         23    2    1    2    0    0  0.31691487441E+02 -0.69116554977E+02 -0.34747997515E+02  0.12438555199E+03  0.92102625720E+02 0.  0.
         23    2    1    2    0    0 -0.28002733596E+02  0.51449531358E+02  0.52987599659E+02  0.12068359598E+03  0.91244930026E+02 0.  0.
        -11    1    4    4    0    0 -0.22862568005E+02  0.27915199609E+02  0.78009738618E+02  0.85950420036E+02  0.00000000000E+00 0. -1.
         11    1    4    4    0    0 -0.51401655913E+01  0.23534331748E+02 -0.25022138959E+02  0.34733175945E+02  0.00000000000E+00 0.  1.
        -13    1    3    3    0    0 -0.30516726827E+02 -0.26715709084E+02 -0.26955910366E+02  0.48699289849E+02  0.00000000000E+00 0. -1.
         13    1    3    3    0    0  0.62208214268E+02 -0.42400845893E+02 -0.77920871489E+01  0.75686262142E+02  0.00000000000E+00 0.  1.
         21    1    1    2  503  502 -0.15723481168E+03  0.19237270043E+03  0.15765750432E+03  0.29425487344E+03  0.00000000000E+00 0. -1.
          3    1    1    2  501    0  0.15354605784E+03 -0.17470567681E+03  0.91944591042E+02  0.25010452457E+03  0.00000000000E+00 0. -1.
<scales pt_clust_5="13000.00000" pt_clust_6="13000.00000" pt_clust_7="13000.00000" pt_clust_8="13000.00000" pt_clust_9="220.84735" pt_clust_10="13000.00000"></scales>
<clustering>
<clus scale="   91.245">  5  6 -1 -1</clus>
<clus scale="   92.103">  7  8 -1 -1</clus>
<clus scale="  119.433">  2  7  1 -1</clus>
<clus scale="  220.847">  1  9  2 -1</clus>
<clus scale="  108.678">  5 10 -1 -1</clus>
<clus scale="  220.847">  1  5  2 -1</clus>
</clustering>
</event>
<event>
10    2  0.5692308E-006  0.1334735E+03  0.7546771E-02  0.1245285E+00
         21   -1    0    0  501  502  0.00000000000E+00  0.00000000000E+00  0.14007342973E+03  0.14007342973E+03  0.00000000000E+00 0. -1.
          3   -1    0    0  503    0 -0.00000000000E+00 -0.00000000000E+00 -0.15266022662E+03  0.15266022662E+03  0.00000000000E+00 0. -1.
         23    2    1    2    0    0  0.12313308722E+02 -0.64146820741E+01 -0.38988463095E+02  0.90862415924E+02  0.80889508932E+02 0.  0.
         23    2    1    2    0    0 -0.15522652957E+02 -0.66193620636E+01 -0.53251709909E+02  0.10695857013E+03  0.91211964171E+02 0.  0.
        -11    1    4    4    0    0  0.37916422614E+02  0.26844750872E+01 -0.16502113071E+02  0.41438885677E+02  0.00000000000E+00 0. -1.
         11    1    4    4    0    0 -0.53439075571E+02 -0.93038371508E+01 -0.36749596838E+02  0.65519684457E+02  0.00000000000E+00 0.  1.
        -13    1    3    3    0    0 -0.21075063608E+02  0.23674092389E+02 -0.32593900181E+02  0.45464087867E+02  0.00000000000E+00 0.  1.
         13    1    3    3    0    0  0.33388372330E+02 -0.30088774463E+02 -0.63945629139E+01  0.45398328057E+02  0.00000000000E+00 0. -1.
         21    1    1    2  503  502  0.25286907585E+02  0.12660547371E+02  0.54806315965E+02  0.61672112211E+02  0.00000000000E+00 0. -1.
          3    1    1    2  501    0 -0.22077563349E+02  0.37349676712E+00  0.24847060146E+02  0.33240558076E+02  0.00000000000E+00 0. -1.
<scales pt_clust_5="13000.00000" pt_clust_6="13000.00000" pt_clust_7="13000.00000" pt_clust_8="13000.00000" pt_clust_9="28.27927" pt_clust_10="13000.00000"></scales>
<clustering>
<clus scale="   28.279">  1  9  2 -1</clus>
<clus scale="   80.890">  7  8 -1 -1</clus>
<clus scale="   83.439">  2  7  1 -1</clus>
<clus scale="   91.212">  5  6 -1 -1</clus>
<clus scale="   13.110">  5 10 -1 -1</clus>
<clus scale="   28.279">  1  5  2 -1</clus>
</clustering>
</event>
<event>
10    2  0.5692308E-006  0.7702503E+03  0.7546771E-02  0.9629565E-01
          2   -1    0    0  502    0 -0.00000000000E+00  0.00000000000E+00  0.16403399927E+04  0.16403399927E+04  0.00000000000E+00 0. -1.
         21   -1    0    0  503  502  0.00000000000E+00 -0.00000000000E+00 -0.40433412072E+03  0.40433412072E+03  0.00000000000E+00 0. -1.
         23    2    1    2    0    0  0.24730823467E+03  0.63348129481E+03  0.66868438667E+03  0.95836175906E+03  0.94119808974E+02 0.  0.
         23    2    1    2    0    0 -0.49790018659E+02 -0.21608669358E+03  0.29385677500E+03  0.37946819127E+03  0.92042375419E+02 0.  0.
        -11    1    3    3    0    0  0.13827690521E+02  0.34494211159E+02  0.73055181530E+02  0.81964109078E+02  0.00000000000E+00 0.  1.
         11    1    3    3    0    0  0.23348054415E+03  0.59898708365E+03  0.59562920514E+03  0.87639764998E+03  0.00000000000E+00 0. -1.
        -13    1    4    4    0    0 -0.28218416569E+02 -0.21623038067E+03  0.26022726792E+03  0.33951448795E+03  0.00000000000E+00 0.  1.
         13    1    4    4    0    0 -0.21571602090E+02  0.14368708921E+00  0.33629507079E+02  0.39953703322E+02  0.00000000000E+00 0. -1.
         21    1    1    2  503  501 -0.72087979547E+02  0.81950164507E+02  0.13517594472E+03  0.17373843066E+03  0.00000000000E+00 0. -1.
          2    1    1    2  501    0 -0.12543023647E+03 -0.49934476573E+03  0.13828876561E+03  0.53310573246E+03  0.00000000000E+00 0. -1.
<scales pt_clust_5="13000.00000" pt_clust_6="13000.00000" pt_clust_7="13000.00000" pt_clust_8="13000.00000" pt_clust_9="109.14448" pt_clust_10="13000.00000"></scales>
<clustering>
<clus scale="   92.042">  7  8 -1 -1</clus>
<clus scale="   94.120">  5  6 -1 -1</clus>
<clus scale="  109.144">  2  9  1 -1</clus>
<clus scale="  485.306">  7 10 -1 -1</clus>
<clus scale="  706.149">  1  5  2 -1</clus>
<clus scale="  109.144">  2  5  1 -1</clus>
</clustering>
</event>
<event>
10    2  0.5692308E-006  0.2477496E+03  0.7546771E-02  0.1153950E+00
         21   -1    0    0  503  502  0.00000000000E+00  0.00000000000E+00  0.49100740421E+03  0.49100740421E+03  0.00000000000E+00 0.  1.
          1   -1    0    0  502    0 -0.00000000000E+00 -0.00000000000E+00 -0.32858075820E+03  0.32858075820E+03  0.00000000000E+00 0. -1.
         23    2    1    2    0    0  0.13820279648E+02 -0.14208332968E+02 -0.11002733131E+03  0.14553194864E+03  0.93170046606E+02 0.  0.
         23    2    1    2    0    0  0.65399902881E+02 -0.11710514854E+02 -0.81178159002E+02  0.13901615299E+03  0.91221235668E+02 0.  0.
        -11    1    3    3    0    0  0.38984697937E+02  0.21060495325E+02 -0.84051430059E+02  0.95015756754E+02  0.00000000000E+00 0.  1.
         11    1    3    3    0    0 -0.25164418289E+02 -0.35268828293E+02 -0.25975901254E+02  0.50516191889E+02  0.00000000000E+00 0. -1.
        -13    1    4    4    0    0  0.58436998304E+02  0.31770677933E+02 -0.34822243458E+02  0.75078941032E+02  0.00000000000E+00 0.  1.
         13    1    4    4    0    0  0.69629045764E+01 -0.43481192787E+02 -0.46355915545E+02  0.63937211953E+02  0.00000000000E+00 0. -1.
         21    1    1    2  503  501 -0.18799858943E+03  0.62943872289E+02  0.36921978311E+03  0.41908071887E+03  0.00000000000E+00 0.  1.
          1    1    1    2  501    0  0.10877840690E+03 -0.37025024467E+02 -0.15587646786E+02  0.11595934191E+03  0.00000000000E+00 0. -1.
<scales pt_clust_5="13000.00000" pt_clust_6="13000.00000" pt_clust_7="13000.00000" pt_clust_8="13000.00000" pt_clust_9="196.07200" pt_clust_10="13000.00000"></scales>
<clustering>
<clus scale="   91.221">  7  8 -1 -1</clus>
<clus scale="   93.170">  5  6 -1 -1</clus>
<clus scale="   95.255">  2  5  1 -1</clus>
<clus scale="  120.728">  7 10 -1 -1</clus>
<clus scale="  196.072">  1  9  2 -1</clus>
<clus scale="  196.072">  1  5  2 -1</clus>
</clustering>
</event>
<event>
10    2  0.5692308E-006  0.2590149E+03  0.7546771E-02  0.1131462E+00
          1   -1    0    0  503    0 -0.00000000000E+00  0.00000000000E+00  0.80398760062E+03  0.80398760062E+03  0.00000000000E+00 0. -1.
         21   -1    0    0  501  502  0.00000000000E+00 -0.00000000000E+00 -0.69552103985E+02  0.69552103985E+02  0.00000000000E+00 0. -1.
         23    2    1    2    0    0 -0.10566912407E+03  0.78738577475E+01  0.20736542333E+03  0.24945621955E+03  0.89442860331E+02 0.  0.
         23    2    1    2    0    0  0.10153637048E+03  0.12599707976E+02  0.50586834548E+03  0.52385648587E+03  0.89746574613E+02 0.  0.
        -11    1    3    3    0    0 -0.67616527046E+02  0.37311029210E+02  0.17552791456E+03  0.19176588961E+03  0.00000000000E+00 0. -1.
         11    1    3    3    0    0 -0.38052597020E+02 -0.29437171462E+02  0.31837508771E+02  0.57690329938E+02  0.00000000000E+00 0.  1.
        -13    1    4    4    0    0  0.11733275075E+02  0.27332880004E+02  0.44017545225E+02  0.53125326925E+02  0.00000000000E+00 0.  1.
         13    1    4    4    0    0  0.89803095402E+02 -0.14733172028E+02  0.46185080026E+03  0.47073115894E+03  0.00000000000E+00 0. -1.
         21    1    1    2  503  502 -0.89420768135E+01  0.37348737281E+02  0.46985917977E+01  0.38690640717E+02  0.00000000000E+00 0. -1.
          1    1    1    2  501    0  0.13074830402E+02 -0.57822303004E+02  0.16503136028E+02  0.61536358468E+02  0.00000000000E+00 0. -1.
<scales pt_clust_5="13000.00000" pt_clust_6="13000.00000" pt_clust_7="13000.00000" pt_clust_8="13000.00000" pt_clust_9="38.40428" pt_clust_10="13000.00000"></scales>
<clustering>
<clus scale="   38.404">  2  9  1 -1</clus>
<clus scale="   89.443">  5  6 -1 -1</clus>
<clus scale="   89.747">  7  8 -1 -1</clus>
<clus scale="   42.830">  7 10 -1 -1</clus>
<clus scale="  143.027">  1  5  2 -1</clus>
<clus scale="   38.404">  2  5  1 -1</clus>
</clustering>
</event>
<event>
10    2  0.5692308E-006  0.1965552E+03  0.7546771E-02  0.1184071E+00
         21   -1    0    0  501  502  0.00000000000E+00  0.00000000000E+00  0.14462139545E+03  0.14462139545E+03  0.00000000000E+00 0.  1.
         -3   -1    0    0    0  501 -0.00000000000E+00 -0.00000000000E+00 -0.37087817961E+03  0.37087817961E+03  0.00000000000E+00 0.  1.
         23    2    1    2    0    0  0.30888946517E+02  0.69594072807E+01 -0.26965968358E+03  0.28627993476E+03  0.90759548986E+02 0.  0.
         23    2    1    2    0    0  0.58575296866E+02 -0.12549175521E+02  0.46306504237E+02  0.11683944859E+03  0.88986612491E+02 0.  0.
        -11    1    4    4    0    0 -0.19606107284E+02 -0.89626839410E+01 -0.63944276572E+01  0.22485947863E+02  0.00000000000E+00 0. -1.
         11    1    4    4    0    0  0.78181404149E+02 -0.35864915799E+01  0.52700931894E+02  0.94353500725E+02  0.00000000000E+00 0.  1.
        -13    1    3    3    0    0 -0.25471436018E+02  0.20220305535E+02 -0.14819296873E+03  0.15171951354E+03  0.00000000000E+00 0. -1.
         13    1    3    3    0    0  0.56360382536E+02 -0.13260898254E+02 -0.12146671485E+03  0.13456042122E+03  0.00000000000E+00 0.  1.
         21    1    1    2  503  502 -0.17273760710E+02 -0.19569240621E+02  0.19652035717E+02  0.32673238214E+02  0.00000000000E+00 0.  1.
         -3    1    1    2    0  503 -0.72190482673E+02  0.25159008861E+02 -0.22555640526E+02  0.79706953492E+02  0.00000000000E+00 0.  1.
<scales pt_clust_5="13000.00000" pt_clust_6="13000.00000" pt_clust_7="13000.00000" pt_clust_8="13000.00000" pt_clust_9="26.10245" pt_clust_10="13000.00000"></scales>
<clustering>
<clus scale="   26.102">  1  9  2 -1</clus>
<clus scale="   88.987">  5  6 -1 -1</clus>
<clus scale="   79.045">  5 10 -1 -1</clus>
<clus scale="   90.760">  7  8 -1 -1</clus>
<clus scale="   95.652">  2  7  1 -1</clus>
<clus scale="   26.102">  1  5  2 -1</clus>
</clustering>
</event>
<event>
10    2  0.5692308E-006  0.2465442E+03  0.7546771E-02  0.1127032E+00
          1   -1    0    0  503    0 -0.00000000000E+00  0.00000000000E+00  0.24990457226E+03  0.24990457226E+03  0.00000000000E+00 0. -1.
         21   -1    0    0  501  502  0.00000000000E+00 -0.00000000000E+00 -0.37941700067E+03  0.37941700067E+03  0.00000000000E+00 0.  1.
         23    2    1    2    0    0  0.14056601201E+03  0.88313846193E+01 -0.14251927505E+03  0.22006482625E+03  0.90994433388E+02 0.  0.
         23    2    1    2    0    0 -0.10090837034E+03  0.19986094541E+02  0.15331490275E+03  0.20618865989E+03  0.91795211654E+02 0.  0.
        -13    1    3    3    0    0  0.11327137691E+03  0.45277864419E+02 -0.10800884705E+03  0.16293066278E+03  0.00000000000E+00 0.  1.
         13    1    3    3    0    0  0.27294635095E+02 -0.36446479800E+02 -0.34510428001E+02  0.57134163472E+02  0.00000000000E+00 0. -1.
        -13    1    4    4    0    0 -0.98921555346E+02 -0.17340024940E+02  0.10895347787E+03  0.14817898271E+03  0.00000000000E+00 0. -1.
         13    1    4    4    0    0 -0.19868149951E+01  0.37326119480E+02  0.44361424876E+02  0.58009677178E+02  0.00000000000E+00 0.  1.
         21    1    1    2  503  502  0.28166531164E+02  0.68025882781E+01 -0.12050684598E+03  0.12394163389E+03  0.00000000000E+00 0.  1.
          1    1    1    2  501    0 -0.67824172829E+02 -0.35620067438E+02 -0.19801210138E+02  0.79126452892E+02  0.00000000000E+00 0. -1.
<scales pt_clust_5="13000.00000" pt_clust_6="13000.00000" pt_clust_7="13000.00000" pt_clust_8="13000.00000" pt_clust_9="28.97635" pt_clust_10="13000.00000"></scales>
<clustering>
<clus scale="   28.976">  2  9  1 -1</clus>
<clus scale="   90.994">  5  6 -1 -1</clus>
<clus scale="   91.795">  7  8 -1 -1</clus>
<clus scale="   71.218">  7 10 -1 -1</clus>
<clus scale="  184.933">  1  5  2 -1</clus>
<clus scale="   28.976">  2  5  1 -1</clus>
</clustering>
</event>
<event>
10    2  0.5692308E-006  0.2742450E+03  0.7546771E-02  0.1134075E+00
         -2   -1    0    0    0  501 -0.00000000000E+00  0.00000000000E+00  0.10839864657E+03  0.10839864657E+03  0.00000000000E+00 0. -1.
         21   -1    0    0  503  502  0.00000000000E+00 -0.00000000000E+00 -0.44359753925E+03  0.44359753925E+03  0.00000000000E+00 0. -1.
         23    2    1    2    0    0 -0.62594180513E+02  0.43483624956E+02 -0.80964907336E+02  0.14295003548E+03  0.89836180625E+02 0.  0.
         23    2    1    2    0    0 -0.55674052094E+02  0.15410868921E+02  0.12559646500E+02  0.10705687743E+03  0.89254329460E+02 0.  0.
        -13    1    4    4    0    0 -0.11318798080E+02 -0.35906856612E+02 -0.19244698662E+01  0.37697760225E+02  0.00000000000E+00 0. -1.
         13    1    4    4    0    0 -0.44355254013E+02  0.51317725533E+02  0.14484116366E+02  0.69359117204E+02  0.00000000000E+00 0.  1.
        -13    1    3    3    0    0  0.20916647816E+02 -0.14638296897E+01 -0.25758261559E+02  0.33213506165E+02  0.00000000000E+00 0.  1.
         13    1    3    3    0    0 -0.83510828329E+02  0.44947454645E+02 -0.55206645778E+02  0.10973652931E+03  0.00000000000E+00 0. -1.
         21    1    1    2  503  501  0.13821544394E+02 -0.22826704302E+02 -0.86554130265E+02  0.90574339548E+02  0.00000000000E+00 0.  1.
         -2    1    1    2    0  502  0.10444668821E+03 -0.36067789574E+02 -0.18023950158E+03  0.21141493337E+03  0.00000000000E+00 0. -1.
<scales pt_clust_5="13000.00000" pt_clust_6="13000.00000" pt_clust_7="13000.00000" pt_clust_8="13000.00000" pt_clust_9="26.68508" pt_clust_10="13000.00000"></scales>
<clustering>
<clus scale="   26.685">  2  9  1 -1</clus>
<clus scale="   89.254">  5  6 -1 -1</clus>
<clus scale="   89.836">  7  8 -1 -1</clus>
<clus scale="  113.042">  1  7  2 -1</clus>
<clus scale="  104.936">  5 10 -1 -1</clus>
<clus scale="   26.685">  2  5  1 -1</clus>
</clustering>
</event>
<event>
10    2  0.5692308E-006  0.3147080E+03  0.7546771E-02  0.1109062E+00
         -4   -1    0    0    0  501 -0.00000000000E+00  0.00000000000E+00  0.29475669753E+03  0.29475669753E+03  0.00000000000E+00 0.  1.
         21   -1    0    0  501  502  0.00000000000E+00 -0.00000000000E+00 -0.36450919459E+03  0.36450919459E+03  0.00000000000E+00 0.  1.
         23    2    1    2    0    0  0.96312428064E+02  0.41759657935E+02  0.56287445163E+02  0.15051705432E+03  0.92017141483E+02 0.  0.
         23    2    1    2    0    0  0.37274307831E+02  0.17871394867E+02  0.41918136621E+02  0.11531215671E+03  0.99151412139E+02 0.  0.
        -11    1    4    4    0    0  0.69304649233E+02  0.15451721045E+02  0.13196034206E+02  0.72222056239E+02  0.00000000000E+00 0.  1.
         11    1    4    4    0    0 -0.32030341402E+02  0.24196738219E+01  0.28722102415E+02  0.43090100474E+02  0.00000000000E+00 0. -1.
        -13    1    3    3    0    0  0.77267354987E+02 -0.15887986748E+02  0.31695111198E+02  0.85013248047E+02  0.00000000000E+00 0. -1.
         13    1    3    3    0    0  0.19045073077E+02  0.57647644683E+02  0.24592333965E+02  0.65503806270E+02  0.00000000000E+00 0.  1.
         21    1    1    2  503  502 -0.75659514164E+02  0.13237695841E+03 -0.96929035004E+02  0.18067445594E+03  0.00000000000E+00 0.  1.
         -4    1    1    2    0  503 -0.57927221731E+02 -0.19200801121E+03 -0.71029043834E+02  0.21276222516E+03  0.00000000000E+00 0.  1.
<scales pt_clust_5="13000.00000" pt_clust_6="13000.00000" pt_clust_7="13000.00000" pt_clust_8="13000.00000" pt_clust_9="151.67697" pt_clust_10="13000.00000"></scales>
<clustering>
<clus scale="   92.017">  7  8 -1 -1</clus>
<clus scale="   99.151">  5  6 -1 -1</clus>
<clus scale="  139.596">  1  7  2 -1</clus>
<clus scale="  151.677">  2  9  1 -1</clus>
<clus scale="  107.626">  5 10 -1 -1</clus>
<clus scale="  151.677">  2  5  1 -1</clus>
</clustering>
</event>
<event>
10    2  0.5692308E-006  0.2578740E+03  0.7546771E-02  0.1146688E+00
          2   -1    0    0  502    0 -0.00000000000E+00  0.00000000000E+00  0.53705166573E+03  0.53705166573E+03  0.00000000000E+00 0. -1.
         21   -1    0    0  503  502  0.00000000000E+00 -0.00000000000E+00 -0.13686085063E+03  0.13686085063E+03  0.00000000000E+00 0. -1.
         23    2    1    2    0    0 -0.20250928292E+02 -0.40680674001E+02  0.17663137065E+03  0.20403720490E+03  0.91474163306E+02 0.  0.
         23    2    1    2    0    0 -0.11256591484E+03 -0.48762644559E+01  0.19059198853E+03  0.23939403526E+03  0.91045784563E+02 0.  0.
        -11    1    4    4    0    0 -0.12145991024E+03 -0.23954852051E+02  0.16386616529E+03  0.20537396344E+03  0.00000000000E+00 0. -1.
         11    1    4    4    0    0  0.88939953971E+01  0.19078587595E+02  0.26725823240E+02  0.34020071820E+02  0.00000000000E+00 0.  1.
        -13    1    3    3    0    0 -0.10750032385E+02  0.21428841500E+02  0.10041452741E+02  0.25992099135E+02  0.00000000000E+00 0.  1.
         13    1    3    3    0    0 -0.95008959073E+01 -0.62109515501E+02  0.16658991791E+03  0.17804510576E+03  0.00000000000E+00 0. -1.
         21    1    1    2  503  501  0.29181400280E+02  0.83491914638E+01 -0.72134769559E+02  0.78260386529E+02  0.00000000000E+00 0. -1.
          2    1    1    2  501    0  0.10363544285E+03  0.37207746993E+02  0.10510222548E+03  0.15222088967E+03  0.00000000000E+00 0. -1.
<scales pt_clust_5="13000.00000" pt_clust_6="13000.00000" pt_clust_7="13000.00000" pt_clust_8="13000.00000" pt_clust_9="30.35232" pt_clust_10="13000.00000"></scales>
<clustering>
<clus scale="   30.352">  2  9  1 -1</clus>
<clus scale="   91.046">  5  6 -1 -1</clus>
<clus scale="   91.474">  7  8 -1 -1</clus>
<clus scale="  100.322">  1  7  2 -1</clus>
<clus scale="  110.923">  5 10 -1 -1</clus>
<clus scale="   30.352">  2  5  1 -1</clus>
</clustering>
</event>
<event>
10    2  0.5692308E-006  0.1595589E+03  0.7546771E-02  0.1212708E+00
          1   -1    0    0  503    0 -0.00000000000E+00  0.00000000000E+00  0.50612797575E+03  0.50612797575E+03  0.00000000000E+00 0. -1.
         21   -1    0    0  501  502  0.00000000000E+00 -0.00000000000E+00 -0.11706571174E+03  0.11706571174E+03  0.00000000000E+00 0. -1.
         23    2    1    2    0    0 -0.47924750649E+02  0.47208098850E+01  0.14547486745E+03  0.17848995015E+03  0.91524081401E+02 0.  0.
         23    2    1    2    0    0  0.47942834893E+02  0.20571267279E+01  0.27359972828E+03  0.29397605578E+03  0.96241170357E+02 0.  0.
        -13    1    3    3    0    0  0.21910344865E+02 -0.19661766314E+02  0.40195239449E+02  0.49822741203E+02  0.00000000000E+00 0.  1.
         13    1    3    3    0    0 -0.69835095514E+02  0.24382576199E+02  0.10527962800E+03  0.12866720895E+03  0.00000000000E+00 0. -1.
        -13    1    4    4    0    0 -0.29373494049E+02 -0.19815342407E+01  0.61388350830E+02  0.68082730910E+02  0.00000000000E+00 0.  1.
         13    1    4    4    0    0  0.77316328941E+02  0.40386609686E+01  0.21221137745E+03  0.22589332487E+03  0.00000000000E+00 0. -1.
         21    1    1    2  503  502  0.41714760602E+02 -0.14250519383E+01 -0.77043212782E+02  0.87623105747E+02  0.00000000000E+00 0. -1.
          1    1    1    2  501    0 -0.41732844845E+02 -0.53528846747E+01  0.47030881073E+02  0.63104575807E+02  0.00000000000E+00 0. -1.
<scales pt_clust_5="13000.00000" pt_clust_6="13000.00000" pt_clust_7="13000.00000" pt_clust_8="13000.00000" pt_clust_9="41.73909" pt_clust_10="13000.00000"></scales>
<clustering>
<clus scale="   41.739">  2  9  1 -1</clus>
<clus scale="   91.524">  5  6 -1 -1</clus>
<clus scale="   95.826">  1  5  2 -1</clus>
<clus scale="   96.241">  7  8 -1 -1</clus>
<clus scale="   35.437">  7 10 -1 -1</clus>
<clus scale="   41.739">  2  5  1 -1</clus>
</clustering>
</event>
<event>
10    2  0.5692308E-006  0.1953072E+03  0.7546771E-02  0.1179376E+00
          1   -1    0    0  503    0 -0.00000000000E+00  0.00000000000E+00  0.64524162136E+03  0.64524162136E+03  0.00000000000E+00 0. -1.
         21   -1    0    0  501  502  0.00000000000E+00 -0.00000000000E+00 -0.18098212930E+03  0.18098212930E+03  0.00000000000E+00 0. -1.
         23    2    1    2    0    0  0.44876897546E+02  0.37296538807E+02  0.37715737568E+03  0.39240261191E+03  0.91253252325E+02 0.  0.
         23    2    1    2    0    0  0.81581024369E+02 -0.65591853644E+02  0.18120932869E+03  0.22742174871E+03  0.89028513298E+02 0.  0.
        -11    1    3    3    0    0  0.71709572299E+02  0.38420497072E+02  0.27589667277E+03  0.28764104610E+03  0.00000000000E+00 0. -1.
         11    1    3    3    0    0 -0.26832674753E+02 -0.11239582653E+01  0.10126070291E+03  0.10476156581E+03  0.00000000000E+00 0.  1.
        -13    1    4    4    0    0 -0.97550971196E+00 -0.31809052213E+02  0.83458233245E+01  0.32900154846E+02  0.00000000000E+00 0.  1.
         13    1    4    4    0    0  0.82556534081E+02 -0.33782801430E+02  0.17286350537E+03  0.19452159386E+03  0.00000000000E+00 0. -1.
         21    1    1    2  503  502 -0.12914215503E+03  0.62676439969E+02 -0.94589163503E+02  0.17191027365E+03  0.00000000000E+00 0. -1.
          1    1    1    2  501    0  0.26842331182E+01 -0.34381125132E+02  0.48195118893E+00  0.34489116395E+02  0.00000000000E+00 0. -1.
<scales pt_clust_5="13000.00000" pt_clust_6="13000.00000" pt_clust_7="13000.00000" pt_clust_8="13000.00000" pt_clust_9="140.19463" pt_clust_10="13000.00000"></scales>
<clustering>
<clus scale="   89.029">  7  8 -1 -1</clus>
<clus scale="   34.486">  7 10 -1 -1</clus>
<clus scale="   91.253">  5  6 -1 -1</clus>
<clus scale="  108.315">  1  5  2 -1</clus>
<clus scale="  140.195">  2  9  1 -1</clus>
<clus scale="  140.195">  2  5  1 -1</clus>
</clustering>
</event>
<event>
10    2  0.5692308E-006  0.2251955E+03  0.7546771E-02  0.1138092E+00
          2   -1    0    0  502    0 -0.00000000000E+00  0.00000000000E+00  0.58444751541E+03  0.58444751541E+03  0.00000000000E+00 0. -1.
         21   -1    0    0  503  502  0.00000000000E+00 -0.00000000000E+00 -0.13108889994E+03  0.13108889994E+03  0.00000000000E+00 0.  1.
         23    2    1    2    0    0  0.13374484745E+03  0.10182665544E+03  0.12619817122E+03  0.21923673790E+03  0.62309043078E+02 0.  0.
         23    2    1    2    0    0 -0.60893934389E+02 -0.43091719117E+02  0.24275254048E+03  0.26896011377E+03  0.88576404219E+02 0.  0.
        -11    1    3    3    0    0  0.57350070881E+01  0.28312067028E+02  0.36332477344E+02  0.46416724956E+02  0.00000000000E+00 0. -1.
         11    1    3    3    0    0  0.12800984036E+03  0.73514588415E+02  0.89865693875E+02  0.17282001295E+03  0.00000000000E+00 0.  1.
        -11    1    4    4    0    0 -0.70397734086E+02 -0.52054004544E+00  0.12612293959E+03  0.14444067231E+03  0.00000000000E+00 0.  1.
         11    1    4    4    0    0  0.95037996970E+01 -0.42571179072E+02  0.11662960089E+03  0.12451944146E+03  0.00000000000E+00 0. -1.
         21    1    1    2  503  501 -0.11088396906E+02  0.29596713333E+02 -0.47464119769E+02  0.57024211100E+02  0.00000000000E+00 0.  1.
          2    1    1    2  501    0 -0.61762516157E+02 -0.88331649659E+02  0.13187202354E+03  0.17031535258E+03  0.00000000000E+00 0. -1.
<scales pt_clust_5="13000.00000" pt_clust_6="13000.00000" pt_clust_7="13000.00000" pt_clust_8="13000.00000" pt_clust_9="31.60566" pt_clust_10="13000.00000"></scales>
<clustering>
<clus scale="   31.606">  2  9  1 -1</clus>
<clus scale="   62.309">  5  6 -1 -1</clus>
<clus scale="   88.576">  7  8 -1 -1</clus>
<clus scale="  103.613">  7 10 -1 -1</clus>
<clus scale="  185.183">  1  5  2 -1</clus>
<clus scale="   31.606">  2  5  1 -1</clus>
</clustering>
</event>
<event>
10    2  0.5692308E-006  0.3063874E+03  0.7546771E-02  0.1123374E+00
         21   -1    0    0  501  502  0.00000000000E+00  0.00000000000E+00  0.27847528337E+03  0.27847528337E+03  0.00000000000E+00 0. -1.
          2   -1    0    0  503    0 -0.00000000000E+00 -0.00000000000E+00 -0.25266500757E+03  0.25266500757E+03  0.00000000000E+00 0. -1.
         23    2    1    2    0    0  0.23560057538E+02 -0.49450889679E+02 -0.12221856479E+03  0.16232112180E+03  0.91707699803E+02 0.  0.
         23    2    1    2    0    0  0.56401079858E+02  0.11381383634E+03  0.15760192292E+03  0.22332454921E+03  0.94344141419E+02 0.  0.
        -11    1    4    4    0    0  0.70418660452E+02  0.64188357380E+02  0.59052400339E+02  0.11209870182E+03  0.00000000000E+00 0.  1.
         11    1    4    4    0    0 -0.14017580594E+02  0.49625478961E+02  0.98549522580E+02  0.11122584739E+03  0.00000000000E+00 0. -1.
        -13    1    3    3    0    0 -0.16348442594E+02 -0.61638838910E+02 -0.61102490220E+02  0.88318357936E+02  0.00000000000E+00 0. -1.
         13    1    3    3    0    0  0.39908500132E+02  0.12187949232E+02 -0.61116074567E+02  0.74002763865E+02  0.00000000000E+00 0.  1.
         21    1    1    2  503  502 -0.22290393192E+02  0.26525069887E+02  0.10059245511E+02  0.36078101134E+02  0.00000000000E+00 0. -1.
          2    1    1    2  501    0 -0.57670744204E+02 -0.90888016548E+02 -0.19632327840E+02  0.10941651880E+03  0.00000000000E+00 0. -1.
<scales pt_clust_5="13000.00000" pt_clust_6="13000.00000" pt_clust_7="13000.00000" pt_clust_8="13000.00000" pt_clust_9="34.64738" pt_clust_10="13000.00000"></scales>
<clustering>
<clus scale="   34.647">  1  9  2 -1</clus>
<clus scale="   91.708">  7  8 -1 -1</clus>
<clus scale="   94.344">  5  6 -1 -1</clus>
<clus scale="  105.498">  2  7  1 -1</clus>
<clus scale="  123.994">  5 10 -1 -1</clus>
<clus scale="   34.647">  1  5  2 -1</clus>
</clustering>
</event>
<event>
10    2  0.5692308E-006  0.1604387E+03  0.7546771E-02  0.1204837E+00
         21   -1    0    0  501  502  0.00000000000E+00  0.00000000000E+00  0.37906773470E+03  0.37906773470E+03  0.00000000000E+00 0. -1.
          3   -1    0    0  503    0 -0.00000000000E+00 -0.00000000000E+00 -0.14378880067E+03  0.14378880067E+03  0.00000000000E+00 0. -1.
         23    2    1    2    0    0 -0.11064724869E+02  0.78023105984E+02 -0.52002635141E+02  0.13197818931E+03  0.92216783653E+02 0.  0.
         23    2    1    2    0    0 -0.33679115071E+02  0.23451027222E+02  0.31329563319E+02  0.10364024924E+03  0.89863931895E+02 0.  0.
        -11    1    4    4    0    0 -0.43953932061E+02  0.42672870286E+02 -0.47964123798E+01  0.61448576662E+02  0.00000000000E+00 0. -1.
         11    1    4    4    0    0  0.10274816990E+02 -0.19221843064E+02  0.36125975699E+02  0.42191672581E+02  0.00000000000E+00 0.  1.
        -13    1    3    3    0    0  0.31213830855E+02 -0.11437875572E+01 -0.17670421283E+02  0.35886700530E+02  0.00000000000E+00 0.  1.
         13    1    3    3    0    0 -0.42278555723E+02  0.79166893542E+02 -0.34332213857E+02  0.96091488777E+02  0.00000000000E+00 0. -1.
         21    1    1    2  503  502  0.20649049739E+02 -0.61283910270E+02  0.21659597445E+03  0.22604406000E+03  0.00000000000E+00 0. -1.
          3    1    1    2  501    0  0.24094790201E+02 -0.40190222937E+02  0.39356031409E+02  0.61194036824E+02  0.00000000000E+00 0. -1.
<scales pt_clust_5="13000.00000" pt_clust_6="13000.00000" pt_clust_7="13000.00000" pt_clust_8="13000.00000" pt_clust_9="64.66917" pt_clust_10="13000.00000"></scales>
<clustering>
<clus scale="   64.669">  1  9  2 -1</clus>
<clus scale="   89.864">  5  6 -1 -1</clus>
<clus scale="   67.139">  5 10 -1 -1</clus>
<clus scale="   92.217">  7  8 -1 -1</clus>
<clus scale="  111.547">  2  7  1 -1</clus>
<clus scale="   64.669">  1  5  2 -1</clus>
</clustering>
</event>
<event>
10    2  0.5692308E-006  0.2739141E+03  0.7546771E-02  0.1122113E+00
          2   -1    0    0  503    0 -0.00000000000E+00  0.00000000000E+00  0.12420777542E+04  0.12420777542E+04  0.00000000000E+00 0. -1.
         21   -1    0    0  501  502  0.00000000000E+00 -0.00000000000E+00 -0.77284775166E+02  0.77284775166E+02  0.00000000000E+00 0. -1.
         23    2    1    2    0    0  0.36955498556E+02 -0.13926271059E+03  0.80504280521E+03  0.82113199453E+03  0.73512058731E+02 0.  0.
         23    2    1    2    0    0  0.60716658515E+02  0.72800574551E+02  0.20133377536E+03  0.23941972259E+03  0.88318051305E+02 0.  0.
        -13    1    3    3    0    0  0.43266872578E+02 -0.34476003956E+02  0.33232263051E+03  0.33689604904E+03  0.00000000000E+00 0.  1.
         13    1    3    3    0    0 -0.63113740223E+01 -0.10478670664E+03  0.47272017470E+03  0.48423594549E+03  0.00000000000E+00 0. -1.
        -13    1    4    4    0    0  0.82620168512E+02  0.46713971288E+02  0.13767327106E+03  0.16721906865E+03  0.00000000000E+00 0.  1.
         13    1    4    4    0    0 -0.21903509996E+02  0.26086603262E+02  0.63660504304E+02  0.72200653932E+02  0.00000000000E+00 0. -1.
         21    1    1    2  503  502  0.21671123724E+02  0.78548449264E+02  0.42073200245E+02  0.91704147475E+02  0.00000000000E+00 0. -1.
          2    1    1    2  501    0 -0.11934328080E+03 -0.12086313221E+02  0.11634319819E+03  0.16710666475E+03  0.00000000000E+00 0. -1.
<scales pt_clust_5="13000.00000" pt_clust_6="13000.00000" pt_clust_7="13000.00000" pt_clust_8="13000.00000" pt_clust_9="81.48311" pt_clust_10="13000.00000"></scales>
<clustering>
<clus scale="   73.512">  5  6 -1 -1</clus>
<clus scale="   81.483">  2  9  1 -1</clus>
<clus scale="   88.318">  7  8 -1 -1</clus>
<clus scale="  111.901">  7 10 -1 -1</clus>
<clus scale="  152.352">  1  5  2 -1</clus>
<clus scale="   81.483">  2  5  1 -1</clus>
</clustering>
</event>
<event>
10    2  0.5692308E-006  0.2015279E+03  0.7546771E-02  0.1176708E+00
         21   -1    0    0  503  502  0.00000000000E+00  0.00000000000E+00  0.11744992170E+04  0.11744992170E+04  0.00000000000E+00 0. -1.
          1   -1    0    0  502    0 -0.00000000000E+00 -0.00000000000E+00 -0.55328677892E+02  0.55328677892E+02  0.00000000000E+00 0. -1.
         23    2    1    2    0    0 -0.46126012812E+02  0.21524490295E+02  0.46554431538E+03  0.47717372751E+03  0.91500513109E+02 0.  0.
         23    2    1    2    0    0 -0.26026270537E+02  0.10502886756E+03  0.89113007344E+02  0.16556565590E+03  0.88104645483E+02 0.  0.
        -11    1    4    4    0    0  0.85612657381E+01  0.46668300747E+02 -0.69601178113E+01  0.47954862168E+02  0.00000000000E+00 0. -1.
         11    1    4    4    0    0 -0.34587536275E+02  0.58360566814E+02  0.96073125156E+02  0.11761079373E+03  0.00000000000E+00 0.  1.
        -11    1    3    3    0    0 -0.46668053753E+02 -0.28059165318E+02  0.21670417077E+03  0.22344109208E+03  0.00000000000E+00 0. -1.
         11    1    3    3    0    0  0.54204094110E+00  0.49583655613E+02  0.24884014461E+03  0.25373263543E+03  0.00000000000E+00 0.  1.
         21    1    1    2  503  501  0.39914958973E+02 -0.10048273093E+03  0.49029805386E+03  0.50207784733E+03  0.00000000000E+00 0. -1.
          1    1    1    2  501    0  0.32237324376E+02 -0.26070626930E+02  0.74215162511E+02  0.85010664142E+02  0.00000000000E+00 0. -1.
<scales pt_clust_5="13000.00000" pt_clust_6="13000.00000" pt_clust_7="13000.00000" pt_clust_8="13000.00000" pt_clust_9="103.79822" pt_clust_10="13000.00000"></scales>
<clustering>
<clus scale="   88.105">  5  6 -1 -1</clus>
<clus scale="   41.460">  5 10 -1 -1</clus>
<clus scale="   91.501">  7  8 -1 -1</clus>
<clus scale="  104.706">  2  7  1 -1</clus>
<clus scale="  103.798">  1  9  2 -1</clus>
<clus scale="  103.798">  1  5  2 -1</clus>
</clustering>
</event>
<event>
10    2  0.5692308E-006  0.3578924E+03  0.7546771E-02  0.1108431E+00
         21   -1    0    0  501  502  0.00000000000E+00  0.00000000000E+00  0.38416135372E+03  0.38416135372E+03  0.00000000000E+00 0.  1.
         -4   -1    0    0    0  501 -0.00000000000E+00 -0.00000000000E+00 -0.53405024337E+03  0.53405024337E+03  0.00000000000E+00 0.  1.
         23    2    1    2    0    0 -0.26721389999E+02  0.16765569396E+02 -0.84656089982E+02  0.12779921324E+03  0.90392855537E+02 0.  0.
         23    2    1    2    0    0 -0.32650983031E+02 -0.32179756127E+02 -0.41260995398E+03  0.42504393232E+03  0.91179750404E+02 0.  0.
        -11    1    4    4    0    0 -0.42987343733E+02  0.20726501115E+02 -0.17449428219E+03  0.18090260940E+03  0.00000000000E+00 0.  1.
         11    1    4    4    0    0  0.10336360702E+02 -0.52906257242E+02 -0.23811567179E+03  0.24414132292E+03  0.00000000000E+00 0. -1.
        -13    1    3    3    0    0 -0.43577771755E+02  0.36332474094E+01 -0.94609550032E+02  0.10422662633E+03  0.00000000000E+00 0.  1.
         13    1    3    3    0    0  0.16856381757E+02  0.13132321987E+02  0.99534600503E+01  0.23572586911E+02  0.00000000000E+00 0. -1.
         21    1    1    2  503  502  0.20657154784E+02  0.38852903629E+02  0.28458195714E+03  0.28796381108E+03  0.00000000000E+00 0.  1.
         -4    1    1    2    0  503  0.38715218245E+02 -0.23438716898E+02  0.62795197175E+02  0.77404640442E+02  0.00000000000E+00 0.  1.
<scales pt_clust_5="13000.00000" pt_clust_6="13000.00000" pt_clust_7="13000.00000" pt_clust_8="13000.00000" pt_clust_9="44.00302" pt_clust_10="13000.00000"></scales>
<clustering>
<clus scale="   44.003">  1  9  2 -1</clus>
<clus scale="   90.393">  7  8 -1 -1</clus>
<clus scale="   91.180">  5  6 -1 -1</clus>
<clus scale="   53.688">  5 10 -1 -1</clus>
<clus scale="   96.456">  2  7  1 -1</clus>
<clus scale="   44.003">  1  5  2 -1</clus>
</clustering>
</event>
<event>
10    2  0.5692308E-006  0.1260671E+03  0.7546771E-02  0.1250452E+00
         21   -1    0    0  503  502  0.00000000000E+00  0.00000000000E+00  0.94934785248E+02  0.94934785248E+02  0.00000000000E+00 0. -1.
         -1   -1    0    0    0  501 -0.00000000000E+00 -0.00000000000E+00 -0.21420870484E+03  0.21420870484E+03  0.00000000000E+00 0.  1.
         23    2    1    2    0    0  0.11635600418E+02 -0.30893691343E+02 -0.36976381180E+02  0.91167989165E+02  0.76514979719E+02 0.  0.
         23    2    1    2    0    0 -0.17679712214E+02  0.40886596917E+02 -0.86327581121E+02  0.13227669273E+03  0.89779653296E+02 0.  0.
        -13    1    3    3    0    0 -0.29449232578E+02 -0.30003401115E+02 -0.21830847523E+02  0.47371376183E+02  0.00000000000E+00 0. -1.
         13    1    3    3    0    0  0.41084832996E+02 -0.89029022806E+00 -0.15145533656E+02  0.43796612983E+02  0.00000000000E+00 0.  1.
        -13    1    4    4    0    0  0.35625778236E+02  0.88127686220E+01 -0.42637818724E+02  0.56256951137E+02  0.00000000000E+00 0.  1.
         13    1    4    4    0    0 -0.53305490450E+02  0.32073828295E+02 -0.43689762397E+02  0.76019741593E+02  0.00000000000E+00 0. -1.
         21    1    1    2  503  501 -0.18159293899E+02 -0.32579184907E+02  0.26442474874E+02  0.45720539385E+02  0.00000000000E+00 0. -1.
         -1    1    1    2    0  502  0.24203405695E+02  0.22586279333E+02 -0.22412432169E+02  0.39978268811E+02  0.00000000000E+00 0.  1.
<scales pt_clust_5="13000.00000" pt_clust_6="13000.00000" pt_clust_7="13000.00000" pt_clust_8="13000.00000" pt_clust_9="37.29830" pt_clust_10="13000.00000"></scales>
<clustering>
<clus scale="   37.298">  1  9  2 -1</clus>
<clus scale="   76.515">  5  6 -1 -1</clus>
<clus scale="   89.283">  2  5  1 -1</clus>
<clus scale="   89.780">  7  8 -1 -1</clus>
<clus scale="   24.023">  7 10 -1 -1</clus>
<clus scale="   37.298">  1  5  2 -1</clus>
</clustering>
</event>
<event>
10    2  0.5692308E-006  0.2074502E+03  0.7546771E-02  0.1165155E+00
         21   -1    0    0  501  502  0.00000000000E+00  0.00000000000E+00  0.34317072047E+03  0.34317072047E+03  0.00000000000E+00 0. -1.
          2   -1    0    0  503    0 -0.00000000000E+00 -0.00000000000E+00 -0.40255958779E+03  0.40255958779E+03  0.00000000000E+00 0.  1.
         23    2    1    2    0    0  0.76014650645E+02 -0.14506668677E+02 -0.25027202841E+03  0.27973918233E+03  0.98128748988E+02 0.  0.
         23    2    1    2    0    0  0.13083698114E+02  0.10648359086E+02 -0.74039746251E+02  0.11936319923E+03  0.92092988863E+02 0.  0.
        -11    1    3    3    0    0  0.81099304248E+02  0.76604563757E+01 -0.24232075235E+03  0.25564648787E+03  0.00000000000E+00 0.  1.
         11    1    3    3    0    0 -0.50846536035E+01 -0.22167125052E+02 -0.79512760604E+01  0.24092694460E+02  0.00000000000E+00 0. -1.
        -13    1    4    4    0    0  0.45627125776E+02  0.11388837559E+01 -0.97351290260E+01  0.46668023313E+02  0.00000000000E+00 0.  1.
         13    1    4    4    0    0 -0.32543427662E+02  0.95094753301E+01 -0.64304617225E+02  0.72695175917E+02  0.00000000000E+00 0. -1.
         21    1    1    2  503  502 -0.13943700176E+03  0.34440088705E+02  0.24582651472E+03  0.28470945279E+03  0.00000000000E+00 0. -1.
          2    1    1    2  501    0  0.50338653001E+02 -0.30581779114E+02  0.19096392625E+02  0.61918473907E+02  0.00000000000E+00 0.  1.
<scales pt_clust_5="13000.00000" pt_clust_6="13000.00000" pt_clust_7="13000.00000" pt_clust_8="13000.00000" pt_clust_9="132.70669" pt_clust_10="13000.00000"></scales>
<clustering>
<clus scale="   92.093">  7  8 -1 -1</clus>
<clus scale="   58.900">  7 10 -1 -1</clus>
<clus scale="   98.129">  5  6 -1 -1</clus>
<clus scale="  124.972">  2  5  1 -1</clus>
<clus scale="  132.707">  1  9  2 -1</clus>
<clus scale="  132.707">  1  5  2 -1</clus>
</clustering>
</event>
<event>
10    2  0.5692308E-006  0.3883731E+03  0.7546771E-02  0.1084673E+00
         -1   -1    0    0    0  501 -0.00000000000E+00  0.00000000000E+00  0.11933475668E+03  0.11933475668E+03  0.00000000000E+00 0.  1.
         21   -1    0    0  501  502  0.00000000000E+00 -0.00000000000E+00 -0.79163465819E+03  0.79163465819E+03  0.00000000000E+00 0.  1.
         23    2    1    2    0    0 -0.18988219873E+02  0.12142902565E+03 -0.18527336630E+03  0.23877822932E+03  0.87081925634E+02 0.  0.
         23    2    1    2    0    0  0.12415646181E+03 -0.17347449812E+03 -0.13906058152E+03  0.27034786536E+03  0.90784880142E+02 0.  0.
        -11    1    4    4    0    0  0.34736997253E+02 -0.88928487781E+01 -0.53552194023E+02  0.64448267799E+02  0.00000000000E+00 0. -1.
         11    1    4    4    0    0  0.89419464561E+02 -0.16458164934E+03 -0.85508387500E+02  0.20589959756E+03  0.00000000000E+00 0.  1.
        -13    1    3    3    0    0 -0.53666365823E+02  0.74498032387E+02 -0.10406565118E+03  0.13877930467E+03  0.00000000000E+00 0. -1.
         13    1    3    3    0    0  0.34678145950E+02  0.46930993263E+02 -0.81207715120E+02  0.99998924645E+02  0.00000000000E+00 0.  1.
         21    1    1    2  503  502  0.38788977704E+01 -0.36953746744E+02 -0.17471004506E+03  0.17861753858E+03  0.00000000000E+00 0.  1.
         -1    1    1    2    0  503 -0.10904713971E+03  0.88999219215E+02 -0.17325590863E+03  0.22322578161E+03  0.00000000000E+00 0.  1.
<scales pt_clust_5="13000.00000" pt_clust_6="13000.00000" pt_clust_7="13000.00000" pt_clust_8="13000.00000" pt_clust_9="37.15677" pt_clust_10="13000.00000"></scales>
<clustering>
<clus scale="   37.157">  2  9  1 -1</clus>
<clus scale="   87.082">  7  8 -1 -1</clus>
<clus scale="   90.785">  5  6 -1 -1</clus>
<clus scale="  132.524">  5 10 -1 -1</clus>
<clus scale="  140.385">  1  7  2 -1</clus>
<clus scale="   37.157">  2  5  1 -1</clus>
</clustering>
</event>
<event>
10    2  0.5692308E-006  0.2256317E+03  0.7546771E-02  0.1148544E+00
         -1   -1    0    0    0  501 -0.00000000000E+00  0.00000000000E+00  0.45584582614E+03  0.45584582614E+03  0.00000000000E+00 0.  1.
         21   -1    0    0  503  502  0.00000000000E+00 -0.00000000000E+00 -0.78295417815E+03  0.78295417815E+03  0.00000000000E+00 0.  1.
         23    2    1    2    0    0 -0.10736227591E+03  0.30523558981E+02  0.41654768527E+03  0.44038480661E+03  0.89266218980E+02 0.  0.
         23    2    1    2    0    0  0.71394310123E+01 -0.39292729554E+01 -0.17315481512E+03  0.19648640637E+03  0.92508957539E+02 0.  0.
        -13    1    4    4    0    0  0.47891983984E+02  0.11418567484E+02 -0.96093319336E+02  0.10797199560E+03  0.00000000000E+00 0. -1.
         13    1    4    4    0    0 -0.40752552972E+02 -0.15347840439E+02 -0.77061495788E+02  0.88514410764E+02  0.00000000000E+00 0.  1.
        -13    1    3    3    0    0 -0.85317581414E+02 -0.14909106031E+02  0.31890219246E+03  0.33045420181E+03  0.00000000000E+00 0.  1.
         13    1    3    3    0    0 -0.22044694500E+02  0.45432665012E+02  0.97645492811E+02  0.10993060480E+03  0.00000000000E+00 0. -1.
         21    1    1    2  503  501 -0.28475801442E+02  0.10227607550E+02 -0.22210812425E+02  0.37533923489E+02  0.00000000000E+00 0.  1.
         -1    1    1    2    0  502  0.12869864634E+03 -0.36821893575E+02 -0.54829040973E+03  0.56439486782E+03  0.00000000000E+00 0.  1.
<scales pt_clust_5="13000.00000" pt_clust_6="13000.00000" pt_clust_7="13000.00000" pt_clust_8="13000.00000" pt_clust_9="30.25682" pt_clust_10="13000.00000"></scales>
<clustering>
<clus scale="   30.257">  2  9  1 -1</clus>
<clus scale="   89.266">  7  8 -1 -1</clus>
<clus scale="   92.509">  5  6 -1 -1</clus>
<clus scale="  111.569">  5 10 -1 -1</clus>
<clus scale="  143.296">  1  7  2 -1</clus>
<clus scale="   30.257">  2  5  1 -1</clus>
</clustering>
</event>
<event>
10    2  0.5692308E-006  0.2029507E+03  0.7546771E-02  0.1148378E+00
          1   -1    0    0  503    0 -0.00000000000E+00  0.00000000000E+00  0.17400820795E+04  0.17400820795E+04  0.00000000000E+00 0. -1.
         21   -1    0    0  501  502  0.00000000000E+00 -0.00000000000E+00 -0.43031098139E+02  0.43031098139E+02  0.00000000000E+00 0.  1.
         23    2    1    2    0    0 -0.77550196264E+01 -0.15817421074E+03  0.61970886549E+03  0.64573357572E+03  0.88620266149E+02 0.  0.
         23    2    1    2    0    0 -0.38938267873E+02  0.16730558527E+03  0.96056834182E+03  0.98002973525E+03  0.90881214269E+02 0.  0.
        -11    1    3    3    0    0 -0.70462096958E+01 -0.80159805206E+02  0.15624598498E+03  0.17574996803E+03  0.00000000000E+00 0. -1.
         11    1    3    3    0    0 -0.70880993057E+00 -0.78014405535E+02  0.46346288051E+03  0.46998360769E+03  0.00000000000E+00 0.  1.
        -13    1    4    4    0    0  0.25771249579E+02  0.18291103091E+02  0.13804535343E+03  0.14161652926E+03  0.00000000000E+00 0.  1.
         13    1    4    4    0    0 -0.64709517452E+02  0.14901448217E+03  0.82252298839E+03  0.83841320599E+03  0.00000000000E+00 0. -1.
         21    1    1    2  503  502  0.44964219048E+02 -0.33135875126E+02  0.22776086367E+02  0.60320123717E+02  0.00000000000E+00 0.  1.
          1    1    1    2  501    0  0.17290684513E+01  0.24004500602E+02  0.93997687653E+02  0.97029742919E+02  0.00000000000E+00 0. -1.
<scales pt_clust_5="13000.00000" pt_clust_6="13000.00000" pt_clust_7="13000.00000" pt_clust_8="13000.00000" pt_clust_9="55.85488" pt_clust_10="13000.00000"></scales>
<clustering>
<clus scale="   55.855">  2  9  1 -1</clus>
<clus scale="   88.620">  5  6 -1 -1</clus>
<clus scale="   90.881">  7  8 -1 -1</clus>
<clus scale="   22.398">  7 10 -1 -1</clus>
<clus scale="  197.684">  1  5  2 -1</clus>
<clus scale="   55.855">  2  5  1 -1</clus>
</clustering>
</event>
<event>
10    2  0.5692308E-006  0.1884380E+03  0.7546771E-02  0.1187328E+00
         -1   -1    0    0    0  501 -0.00000000000E+00  0.00000000000E+00  0.27860030594E+03  0.27860030594E+03  0.00000000000E+00 0.  1.
         21   -1    0    0  503  502  0.00000000000E+00 -0.00000000000E+00 -0.17786020431E+03  0.17786020431E+03  0.00000000000E+00 0. -1.
         23    2    1    2    0    0 -0.45722751035E+01 -0.25380270107E+02  0.43704625606E+02  0.10339238887E+03  0.90082339921E+02 0.  0.
         23    2    1    2    0    0 -0.29352216257E+02  0.53264953740E+02  0.17474412701E+03  0.20602508826E+03  0.90620743601E+02 0.  0.
        -13    1    3    3    0    0  0.26028380421E+02 -0.48321272385E+02  0.20104442653E+02  0.58451779842E+02  0.00000000000E+00 0. -1.
         13    1    3    3    0    0 -0.30600655524E+02  0.22941002278E+02  0.23600182953E+02  0.44940609024E+02  0.00000000000E+00 0.  1.
        -13    1    4    4    0    0  0.23403537745E+02  0.38148243433E+02  0.12183347333E+03  0.12979371818E+03  0.00000000000E+00 0. -1.
         13    1    4    4    0    0 -0.52755754002E+02  0.15116710307E+02  0.52910653686E+02  0.76231370080E+02  0.00000000000E+00 0.  1.
         21    1    1    2  503  501  0.26645117375E+02 -0.54230066382E+02 -0.87112845691E+02  0.10601655656E+03  0.00000000000E+00 0. -1.
         -1    1    1    2    0  502  0.72793739852E+01  0.26345382749E+02 -0.30595805293E+02  0.41026476565E+02  0.00000000000E+00 0.  1.
<scales pt_clust_5="13000.00000" pt_clust_6="13000.00000" pt_clust_7="13000.00000" pt_clust_8="13000.00000" pt_clust_9="60.42237" pt_clust_10="13000.00000"></scales>
<clustering>
<clus scale="   60.422">  2  9  1 -1</clus>
<clus scale="   90.082">  5  6 -1 -1</clus>
<clus scale="   90.621">  7  8 -1 -1</clus>
<clus scale="   19.175">  7 10 -1 -1</clus>
<clus scale="  100.960">  1  5  2 -1</clus>
<clus scale="   60.422">  2  5  1 -1</clus>
</clustering>
</event>
<event>
10    2  0.5692308E-006  0.3018290E+03  0.7546771E-02  0.1113234E+00
         21   -1    0    0  501  502  0.00000000000E+00  0.00000000000E+00  0.37516911233E+03  0.37516911233E+03  0.00000000000E+00 0.  1.
          1   -1    0    0  503    0 -0.00000000000E+00 -0.00000000000E+00 -0.12388252853E+04  0.12388252853E+04  0.00000000000E+00 0. -1.
         23    2    1    2    0    0 -0.14924837473E+03  0.27398546863E+02 -0.51424239351E+03  0.54331749237E+03  0.87880034726E+02 0.  0.
         23    2    1    2    0    0  0.13503326199E+03  0.24814530569E+01 -0.51041599030E+03  0.53559609891E+03  0.89991991662E+02 0.  0.
        -11    1    4    4    0    0  0.10250546019E+03 -0.34371442463E+02 -0.28346332651E+03  0.30338131600E+03  0.00000000000E+00 0.  1.
         11    1    4    4    0    0  0.32527801795E+02  0.36852895520E+02 -0.22695266380E+03  0.23221478291E+03  0.00000000000E+00 0. -1.
        -13    1    3    3    0    0 -0.11426379164E+03  0.57848569642E+02 -0.40061349544E+03  0.42058749841E+03  0.00000000000E+00 0. -1.
         13    1    3    3    0    0 -0.34984583083E+02 -0.30450022778E+02 -0.11362889806E+03  0.12272999395E+03  0.00000000000E+00 0.  1.
         21    1    1    2  503  502  0.11834760191E+03 -0.96149534323E+01  0.32148053765E+03  0.34270736540E+03  0.00000000000E+00 0.  1.
          1    1    1    2  501    0 -0.10413248917E+03 -0.20265046488E+02 -0.16047832684E+03  0.19237344099E+03  0.00000000000E+00 0. -1.
<scales pt_clust_5="13000.00000" pt_clust_6="13000.00000" pt_clust_7="13000.00000" pt_clust_8="13000.00000" pt_clust_9="118.73753" pt_clust_10="13000.00000"></scales>
<clustering>
<clus scale="   87.880">  7  8 -1 -1</clus>
<clus scale="   89.992">  5  6 -1 -1</clus>
<clus scale="  106.086">  5 10 -1 -1</clus>
<clus scale="  118.738">  1  9  2 -1</clus>
<clus scale="  142.318">  2  7  1 -1</clus>
<clus scale="  118.738">  1  5  2 -1</clus>
</clustering>
</event>
<event>
10    2  0.5692308E-006  0.1335880E+03  0.7546771E-02  0.1236546E+00
         21   -1    0    0  501  502  0.00000000000E+00  0.00000000000E+00  0.57993559801E+02  0.57993559801E+02  0.00000000000E+00 0. -1.
          3   -1    0    0  503    0 -0.00000000000E+00 -0.00000000000E+00 -0.40466174135E+03  0.40466174135E+03  0.00000000000E+00 0. -1.
         23    2    1    2    0    0  0.29000807683E+02  0.11370855948E+02 -0.18561204293E+03  0.20990207691E+03  0.92933891553E+02 0.  0.
         23    2    1    2    0    0 -0.93530249810E+01 -0.20578805153E+02 -0.13212425306E+03  0.15314190497E+03  0.74058480363E+02 0.  0.
        -11    1    3    3    0    0  0.13160490754E+02 -0.40562580615E+02 -0.97293267692E+02  0.10622853384E+03  0.00000000000E+00 0.  1.
         11    1    3    3    0    0  0.15840316929E+02  0.51933436563E+02 -0.88318775237E+02  0.10367354307E+03  0.00000000000E+00 0. -1.
        -11    1    4    4    0    0 -0.22776560198E+02  0.18145021642E+02 -0.89025737160E+02  0.93667472378E+02  0.00000000000E+00 0.  1.
         11    1    4    4    0    0  0.13423535217E+02 -0.38723826795E+02 -0.43098515897E+02  0.59474432590E+02  0.00000000000E+00 0. -1.
         21    1    1    2  503  502  0.18580003437E+02 -0.28568712509E+02  0.72250451202E+01  0.34836606309E+02  0.00000000000E+00 0. -1.
          3    1    1    2  501    0 -0.38227786139E+02  0.37776661714E+02 -0.36156930682E+02  0.64774712964E+02  0.00000000000E+00 0. -1.
<scales pt_clust_5="13000.00000" pt_clust_6="13000.00000" pt_clust_7="13000.00000" pt_clust_8="13000.00000" pt_clust_9="34.07914" pt_clust_10="13000.00000"></scales>
<clustering>
<clus scale="   34.079">  1  9  2 -1</clus>
<clus scale="   74.058">  7  8 -1 -1</clus>
<clus scale="   40.951">  7 10 -1 -1</clus>
<clus scale="   92.934">  5  6 -1 -1</clus>
<clus scale="   99.363">  2  5  1 -1</clus>
<clus scale="   34.079">  1  5  2 -1</clus>
</clustering>
</event>
<event>
10    2  0.5692308E-006  0.2264545E+03  0.7546771E-02  0.1155405E+00
         21   -1    0    0  503  502  0.00000000000E+00  0.00000000000E+00  0.32425903708E+03  0.32425903708E+03  0.00000000000E+00 0.  1.
          3   -1    0    0  502    0 -0.00000000000E+00 -0.00000000000E+00 -0.17388490085E+03  0.17388490085E+03  0.00000000000E+00 0. -1.
         23    2    1    2    0    0  0.61123949253E+02 -0.97451457071E+02  0.54523090503E+02  0.15561629785E+03  0.89502743545E+02 0.  0.
         23    2    1    2    0    0 -0.53559610256E+02 -0.37701185877E+02  0.31605888441E+02  0.11711629992E+03  0.91800241044E+02 0.  0.
        -11    1    4    4    0    0 -0.33755101493E+02  0.19602200491E+02  0.40022448106E+02  0.55905719682E+02  0.00000000000E+00 0. -1.
         11    1    4    4    0    0 -0.19804508763E+02 -0.57303386368E+02 -0.84165596644E+01  0.61210580238E+02  0.00000000000E+00 0.  1.
        -13    1    3    3    0    0  0.18394111523E+02 -0.27054724903E+02  0.64836576432E+02  0.72622882907E+02  0.00000000000E+00 0.  1.
         13    1    3    3    0    0  0.42729837730E+02 -0.70396732168E+02 -0.10313485929E+02  0.82993414946E+02  0.00000000000E+00 0. -1.
         21    1    1    2  503  501 -0.46151945507E+02  0.52166687151E+02  0.10437490584E+03  0.12548101965E+03  0.00000000000E+00 0.  1.
          3    1    1    2  501    0  0.38587606510E+02  0.82985955797E+02 -0.40129748558E+02  0.99930320499E+02  0.00000000000E+00 0. -1.
<scales pt_clust_5="13000.00000" pt_clust_6="13000.00000" pt_clust_7="13000.00000" pt_clust_8="13000.00000" pt_clust_9="69.65174" pt_clust_10="13000.00000"></scales>
<clustering>
<clus scale="   69.652">  1  9  2 -1</clus>
<clus scale="   89.503">  7  8 -1 -1</clus>
<clus scale="   91.800">  5  6 -1 -1</clus>
<clus scale="   95.930">  5 10 -1 -1</clus>
<clus scale="  120.543">  2  7  1 -1</clus>
<clus scale="   69.652">  1  5  2 -1</clus>
</clustering>
</event>
<event>
10    2  0.5692308E-006  0.2192194E+03  0.7546771E-02  0.1138985E+00
         -1   -1    0    0    0  501 -0.00000000000E+00  0.00000000000E+00  0.80015529875E+03  0.80015529875E+03  0.00000000000E+00 0.  1.
         21   -1    0    0  503  502  0.00000000000E+00 -0.00000000000E+00 -0.20609715660E+03  0.20609715660E+03  0.00000000000E+00 0.  1.
         23    2    1    2    0    0  0.73216266657E+02 -0.13219670639E+03  0.10812906515E+03  0.21487611242E+03  0.10790392983E+03 0.  0.
         23    2    1    2    0    0 -0.76147079385E+02  0.35852133846E+02  0.35254122386E+03  0.37470656322E+03  0.95057565692E+02 0.  0.
        -13    1    4    4    0    0 -0.43731002593E+02  0.63695759636E+02  0.28048619971E+03  0.29093308271E+03  0.00000000000E+00 0.  1.
         13    1    4    4    0    0 -0.32416076792E+02 -0.27843625790E+02  0.72055024149E+02  0.83773480510E+02  0.00000000000E+00 0. -1.
        -13    1    3    3    0    0  0.38132085625E+02 -0.14363142243E+03  0.82780157506E+02  0.17010760107E+03  0.00000000000E+00 0. -1.
         13    1    3    3    0    0  0.35084181032E+02  0.11434716039E+02  0.25348907647E+02  0.44768511350E+02  0.00000000000E+00 0.  1.
         21    1    1    2  503  501  0.11124950461E+03  0.95488321966E+02 -0.87440027280E+02  0.17070509740E+03  0.00000000000E+00 0.  1.
         -1    1    1    2    0  502 -0.10831869188E+03  0.85625057942E+00  0.22082788042E+03  0.24596468232E+03  0.00000000000E+00 0.  1.
<scales pt_clust_5="13000.00000" pt_clust_6="13000.00000" pt_clust_7="13000.00000" pt_clust_8="13000.00000" pt_clust_9="146.60993" pt_clust_10="13000.00000"></scales>
<clustering>
<clus scale="   95.058">  5  6 -1 -1</clus>
<clus scale="  107.904">  7  8 -1 -1</clus>
<clus scale="  108.322">  5 10 -1 -1</clus>
<clus scale="  146.610">  2  9  1 -1</clus>
<clus scale="  196.456">  1  7  2 -1</clus>
<clus scale="  146.610">  2  5  1 -1</clus>
</clustering>
</event>
<event>
10    2  0.5692308E-006  0.2834704E+03  0.7546771E-02  0.1110952E+00
          1   -1    0    0  503    0 -0.00000000000E+00  0.00000000000E+00  0.27969273304E+03  0.27969273304E+03  0.00000000000E+00 0. -1.
         21   -1    0    0  501  502  0.00000000000E+00 -0.00000000000E+00 -0.47661015464E+03  0.47661015464E+03  0.00000000000E+00 0. -1.
         23    2    1    2    0    0 -0.14380066037E+02 -0.13986110427E+03  0.72029747011E+02  0.18265834062E+03  0.91694439084E+02 0.  0.
         23    2    1    2    0    0 -0.29586681975E+02  0.11106605871E+03 -0.10340948173E+03  0.17770885931E+03  0.87612080315E+02 0.  0.
        -11    1    4    4    0    0 -0.51185922515E+01  0.10496950338E+03 -0.10949432388E+03  0.15176891510E+03  0.00000000000E+00 0. -1.
         11    1    4    4    0    0 -0.24468089723E+02  0.60965553346E+01  0.60848421580E+01  0.25939944213E+02  0.00000000000E+00 0.  1.
        -13    1    3    3    0    0 -0.26528682862E+02 -0.12132220838E+03  0.90614534201E+02  0.15373302530E+03  0.00000000000E+00 0. -1.
         13    1    3    3    0    0  0.12148616825E+02 -0.18538895892E+02 -0.18584787190E+02  0.28925315324E+02  0.00000000000E+00 0.  1.
         21    1    1    2  503  502 -0.59497251637E+01 -0.66600132249E+02 -0.25019322458E+03  0.25897418109E+03  0.00000000000E+00 0. -1.
          1    1    1    2  501    0  0.49916473176E+02  0.95395177802E+02  0.84655537702E+02  0.13696150666E+03  0.00000000000E+00 0. -1.
<scales pt_clust_5="13000.00000" pt_clust_6="13000.00000" pt_clust_7="13000.00000" pt_clust_8="13000.00000" pt_clust_9="66.86536" pt_clust_10="13000.00000"></scales>
<clustering>
<clus scale="   66.865">  2  9  1 -1</clus>
<clus scale="   87.612">  5  6 -1 -1</clus>
<clus scale="   91.694">  7  8 -1 -1</clus>
<clus scale="  100.435">  5 10 -1 -1</clus>
<clus scale="  182.036">  1  7  2 -1</clus>
<clus scale="   66.865">  2  5  1 -1</clus>
</clustering>
</event>
<event>
10    2  0.5692308E-006  0.1694746E+03  0.7546771E-02  0.1196951E+00
         21   -1    0    0  503  502  0.00000000000E+00  0.00000000000E+00  0.31955582180E+03  0.31955582180E+03  0.00000000000E+00 0.  1.
          2   -1    0    0  502    0 -0.00000000000E+00 -0.00000000000E+00 -0.46463407854E+03  0.46463407854E+03  0.00000000000E+00 0. -1.
         23    2    1    2    0    0  0.23460383341E+02 -0.36890054273E+02 -0.12078233239E+03  0.15791914987E+03  0.91863052351E+02 0.  0.
         23    2    1    2    0    0 -0.53069568113E+00  0.52003775818E+02 -0.27649192429E+03  0.29598240974E+03  0.91940895923E+02 0.  0.
        -13    1    4    4    0    0  0.36193562031E+02  0.30876596708E+02 -0.66538179756E+02  0.81796500671E+02  0.00000000000E+00 0. -1.
         13    1    4    4    0    0 -0.36724257712E+02  0.21127179109E+02 -0.20995374453E+03  0.21418590907E+03  0.00000000000E+00 0.  1.
        -13    1    3    3    0    0 -0.26546036575E+02 -0.16994856895E+02 -0.91227383431E+02  0.96519183100E+02  0.00000000000E+00 0.  1.
         13    1    3    3    0    0  0.50006419916E+02 -0.19895197378E+02 -0.29554948964E+02  0.61399966773E+02  0.00000000000E+00 0. -1.
         21    1    1    2  503  501 -0.23003806940E+02 -0.64238252148E+02  0.26965475470E+03  0.27815358151E+03  0.00000000000E+00 0.  1.
          2    1    1    2  501    0  0.74119280291E-01  0.49124530603E+02 -0.17458754757E+02  0.52134759214E+02  0.00000000000E+00 0. -1.
<scales pt_clust_5="13000.00000" pt_clust_6="13000.00000" pt_clust_7="13000.00000" pt_clust_8="13000.00000" pt_clust_9="68.23290" pt_clust_10="13000.00000"></scales>
<clustering>
<clus scale="   68.233">  1  9  2 -1</clus>
<clus scale="   91.863">  7  8 -1 -1</clus>
<clus scale="   91.941">  5  6 -1 -1</clus>
<clus scale="   26.201">  5 10 -1 -1</clus>
<clus scale="  112.290">  2  7  1 -1</clus>
<clus scale="   68.233">  1  5  2 -1</clus>
</clustering>
</event>
<event>
10    2  0.5692308E-006  0.6337172E+03  0.7546771E-02  0.1029522E+00
         21   -1    0    0  503  502  0.00000000000E+00  0.00000000000E+00  0.86986629928E+03  0.86986629928E+03  0.00000000000E+00 0. -1.
          1   -1    0    0  502    0 -0.00000000000E+00 -0.00000000000E+00 -0.23675770725E+03  0.23675770725E+03  0.00000000000E+00 0. -1.
         23    2    1    2    0    0 -0.16660230865E+02 -0.11092386512E+03  0.99454460518E+02  0.17799798421E+03  0.95970961853E+02 0.  0.
         23    2    1    2    0    0 -0.89952058840E+02  0.27278859671E+03 -0.51658364310E+02  0.30543495808E+03  0.90094037729E+02 0.  0.
        -11    1    3    3    0    0 -0.41361430440E+02 -0.19762208805E+02  0.80105515622E+01  0.46534737146E+02  0.00000000000E+00 0.  1.
         11    1    3    3    0    0  0.24701199575E+02 -0.91161656317E+02  0.91443908956E+02  0.13146324706E+03  0.00000000000E+00 0. -1.
        -11    1    4    4    0    0 -0.10753082041E+03  0.21141176053E+03 -0.40153658853E+02  0.24056210456E+03  0.00000000000E+00 0. -1.
         11    1    4    4    0    0  0.17578761572E+02  0.61376836172E+02 -0.11504705457E+02  0.64872853526E+02  0.00000000000E+00 0.  1.
         21    1    1    2  503  501  0.16868776427E+01 -0.32077321262E+02  0.21001351014E+03  0.21245581784E+03  0.00000000000E+00 0. -1.
          1    1    1    2  501    0  0.10492541206E+03 -0.12978741032E+03  0.37529898568E+03  0.41073524639E+03  0.00000000000E+00 0. -1.
<scales pt_clust_5="13000.00000" pt_clust_6="13000.00000" pt_clust_7="13000.00000" pt_clust_8="13000.00000" pt_clust_9="32.12165" pt_clust_10="13000.00000"></scales>
<clustering>
<clus scale="   32.122">  1  9  2 -1</clus>
<clus scale="   90.094">  7  8 -1 -1</clus>
<clus scale="   95.971">  5  6 -1 -1</clus>
<clus scale="  152.725">  2  5  1 -1</clus>
<clus scale="  192.913">  7 10 -1 -1</clus>
<clus scale="   32.122">  1  5  2 -1</clus>
</clustering>
</event>
<event>
10    2  0.5692308E-006  0.2782305E+03  0.7546771E-02  0.1125909E+00
         21   -1    0    0  501  502  0.00000000000E+00  0.00000000000E+00  0.14727821367E+03  0.14727821367E+03  0.00000000000E+00 0. -1.
          1   -1    0    0  503    0 -0.00000000000E+00 -0.00000000000E+00 -0.65561620751E+03  0.65561620751E+03  0.00000000000E+00 0. -1.
         23    2    1    2    0    0  0.77877891485E+02 -0.10097655200E+02 -0.90909094143E+00  0.12048364223E+03  0.91370416310E+02 0.  0.
         23    2    1    2    0    0  0.49621919112E+02  0.32004667110E+02 -0.36726012385E+03  0.38320377845E+03  0.92078790568E+02 0.  0.
        -11    1    3    3    0    0  0.73306291101E+02  0.11233151338E+02  0.32186245397E+02  0.80845224946E+02  0.00000000000E+00 0. -1.
         11    1    3    3    0    0  0.45716003840E+01 -0.21330806538E+02 -0.33095336338E+02  0.39638417286E+02  0.00000000000E+00 0.  1.
        -13    1    4    4    0    0  0.43318554571E+02  0.61552917683E+02 -0.21033603048E+03  0.22339763778E+03  0.00000000000E+00 0. -1.
         13    1    4    4    0    0  0.63033645409E+01 -0.29548250573E+02 -0.15692409337E+03  0.15980614067E+03  0.00000000000E+00 0.  1.
         21    1    1    2  503  502  0.20806927285E+02 -0.29578343236E+02  0.47619506626E+02  0.59794849469E+02  0.00000000000E+00 0. -1.
          1    1    1    2  501    0 -0.14830673788E+03  0.76713313265E+01 -0.18778828568E+03  0.23941215104E+03  0.00000000000E+00 0. -1.
<scales pt_clust_5="13000.00000" pt_clust_6="13000.00000" pt_clust_7="13000.00000" pt_clust_8="13000.00000" pt_clust_9="36.16361" pt_clust_10="13000.00000"></scales>
<clustering>
<clus scale="   36.164">  1  9  2 -1</clus>
<clus scale="   91.370">  5  6 -1 -1</clus>
<clus scale="   92.079">  7  8 -1 -1</clus>
<clus scale="  132.294">  2  5  1 -1</clus>
<clus scale="  111.637">  7 10 -1 -1</clus>
<clus scale="   36.164">  1  5  2 -1</clus>
</clustering>
</event>
<event>
10    2  0.5692308E-006  0.2384105E+03  0.7546771E-02  0.1142513E+00
          1   -1    0    0  503    0 -0.00000000000E+00  0.00000000000E+00  0.57905114155E+03  0.57905114155E+03  0.00000000000E+00 0. -1.
         21   -1    0    0  501  502  0.00000000000E+00 -0.00000000000E+00 -0.16790482505E+03  0.16790482505E+03  0.00000000000E+00 0. -1.
         23    2    1    2    0    0  0.10452977849E+03  0.39380008490E+01  0.44525877397E+03  0.46656335150E+03  0.92108646310E+02 0.  0.
         23    2    1    2    0    0 -0.44447254674E+02  0.31663165756E+01  0.58153887060E+02  0.11901496642E+03  0.93792876286E+02 0.  0.
        -11    1    4    4    0    0  0.61969305231E+01 -0.31423467221E+02 -0.32948696857E+01  0.32197708091E+02  0.00000000000E+00 0. -1.
         11    1    4    4    0    0 -0.50644185197E+02  0.34589783796E+02  0.61448756745E+02  0.86817258324E+02  0.00000000000E+00 0.  1.
        -13    1    3    3    0    0  0.66035410829E+02  0.35615382263E+02  0.36055125737E+03  0.36827481604E+03  0.00000000000E+00 0. -1.
         13    1    3    3    0    0  0.38494367659E+02 -0.31677381414E+02  0.84707516598E+02  0.98288535460E+02  0.00000000000E+00 0.  1.
         21    1    1    2  503  502  0.17186478026E+02  0.20557030051E+02  0.11431968155E+02  0.29131707937E+02  0.00000000000E+00 0.  1.
          1    1    1    2  501    0 -0.77269001840E+02 -0.27661347476E+02 -0.10369831268E+03  0.13224594074E+03  0.00000000000E+00 0. -1.
<scales pt_clust_5="13000.00000" pt_clust_6="13000.00000" pt_clust_7="13000.00000" pt_clust_8="13000.00000" pt_clust_9="26.79490" pt_clust_10="13000.00000"></scales>
<clustering>
<clus scale="   26.795">  2  9  1 -1</clus>
<clus scale="   92.109">  7  8 -1 -1</clus>
<clus scale="   93.793">  5  6 -1 -1</clus>
<clus scale="   65.705">  5 10 -1 -1</clus>
<clus scale="  140.288">  1  7  2 -1</clus>
<clus scale="   26.795">  2  5  1 -1</clus>
</clustering>
</event>
<event>
10    2  0.5692308E-006  0.3043682E+03  0.7546771E-02  0.1110518E+00
          2   -1    0    0  503    0 -0.00000000000E+00  0.00000000000E+00  0.19219940205E+04  0.19219940205E+04  0.00000000000E+00 0. -1.
         21   -1    0    0  501  502  0.00000000000E+00 -0.00000000000E+00 -0.10916851388E+03  0.10916851388E+03  0.00000000000E+00 0. -1.
         23    2    1    2    0    0 -0.45679702363E+02 -0.11674339590E+03  0.43557495477E+03  0.46025446386E+03  0.79956079106E+02 0.  0.
         23    2    1    2    0    0  0.63932209329E+02  0.21290076148E+03  0.77486344900E+03  0.81111615897E+03  0.89899928317E+02 0.  0.
        -11    1    3    3    0    0 -0.62850763379E+02 -0.71997330101E+02  0.34223308582E+03  0.35532705924E+03  0.00000000000E+00 0.  1.
         11    1    3    3    0    0  0.17171061016E+02 -0.44746065801E+02  0.93341868949E+02  0.10492740462E+03  0.00000000000E+00 0. -1.
        -13    1    4    4    0    0 -0.18888510917E+02  0.71080317251E+02  0.19369704837E+03  0.20719009120E+03  0.00000000000E+00 0.  1.
         13    1    4    4    0    0  0.82820720246E+02  0.14182044423E+03  0.58116640063E+03  0.60392606776E+03  0.00000000000E+00 0. -1.
         21    1    1    2  503  502 -0.38884284211E+02 -0.25258879525E+03  0.19060772930E+03  0.31881717882E+03  0.00000000000E+00 0. -1.
          2    1    1    2  501    0  0.20631777245E+02  0.15643142967E+03  0.41177937354E+03  0.44097473272E+03  0.00000000000E+00 0. -1.
<scales pt_clust_5="13000.00000" pt_clust_6="13000.00000" pt_clust_7="13000.00000" pt_clust_8="13000.00000" pt_clust_9="276.74339" pt_clust_10="13000.00000"></scales>
<clustering>
<clus scale="   79.956">  5  6 -1 -1</clus>
<clus scale="   89.900">  7  8 -1 -1</clus>
<clus scale="  148.690">  1  5  2 -1</clus>
<clus scale="  122.888">  7 10 -1 -1</clus>
<clus scale="  276.743">  2  9  1 -1</clus>
<clus scale="  276.743">  2  5  1 -1</clus>
</clustering>
</event>
<event>
10    2  0.5692308E-006  0.4443141E+03  0.7546771E-02  0.1075448E+00
         21   -1    0    0  503  502  0.00000000000E+00  0.00000000000E+00  0.65462005032E+03  0.65462005032E+03  0.00000000000E+00 0.  1.
         -3   -1    0    0    0  501 -0.00000000000E+00 -0.00000000000E+00 -0.23948459098E+03  0.23948459098E+03  0.00000000000E+00 0.  1.
         23    2    1    2    0    0  0.53623010972E+02  0.53224094898E+02 -0.11542098158E+03  0.16613383883E+03  0.92575471018E+02 0.  0.
         23    2    1    2    0    0 -0.31688895461E+02 -0.22618178947E+03  0.12002631554E+03  0.27379418654E+03  0.91621788763E+02 0.  0.
        -13    1    4    4    0    0  0.21651826006E+02 -0.10613115353E+03  0.23659586060E+02  0.11087109331E+03  0.00000000000E+00 0.  1.
         13    1    4    4    0    0 -0.53340721468E+02 -0.12005063594E+03  0.96366729483E+02  0.16292309323E+03  0.00000000000E+00 0. -1.
        -13    1    3    3    0    0  0.46101870043E+02 -0.76193980465E+01 -0.16114445484E+02  0.49427856531E+02  0.00000000000E+00 0.  1.
         13    1    3    3    0    0  0.75211409291E+01  0.60843492944E+02 -0.99306536093E+02  0.11670598230E+03  0.00000000000E+00 0. -1.
         21    1    1    2  503  501  0.17878704138E+02  0.15734771033E+02  0.11130093836E+03  0.11382060429E+03  0.00000000000E+00 0.  1.
         -3    1    1    2    0  502 -0.39812819649E+02  0.15722292354E+03  0.29922918701E+03  0.34035601163E+03  0.00000000000E+00 0.  1.
<scales pt_clust_5="13000.00000" pt_clust_6="13000.00000" pt_clust_7="13000.00000" pt_clust_8="13000.00000" pt_clust_9="23.81661" pt_clust_10="13000.00000"></scales>
<clustering>
<clus scale="   23.817">  1  9  2 -1</clus>
<clus scale="   91.622">  5  6 -1 -1</clus>
<clus scale="   92.575">  7  8 -1 -1</clus>
<clus scale="  120.199">  2  7  1 -1</clus>
<clus scale="  180.234">  5 10 -1 -1</clus>
<clus scale="   23.817">  1  5  2 -1</clus>
</clustering>
</event>
<event>
10    2  0.5692308E-006  0.2557331E+03  0.7546771E-02  0.1132515E+00
         21   -1    0    0  501  502  0.00000000000E+00  0.00000000000E+00  0.35534771001E+03  0.35534771001E+03  0.00000000000E+00 0.  1.
          2   -1    0    0  503    0 -0.00000000000E+00 -0.00000000000E+00 -0.27640898193E+03  0.27640898193E+03  0.00000000000E+00 0. -1.
         23    2    1    2    0    0 -0.17057200521E+02 -0.12222441285E+03 -0.38224139405E+02  0.15767944748E+03  0.90398938808E+02 0.  0.
         23    2    1    2    0    0 -0.21087789004E+02  0.14149312065E+03 -0.76198515739E+01  0.17019525018E+03  0.91887774002E+02 0.  0.
        -11    1    3    3    0    0 -0.51025439734E+02 -0.79102951686E+02 -0.66820830669E+01  0.94369077030E+02  0.00000000000E+00 0.  1.
         11    1    3    3    0    0  0.33968239213E+02 -0.43121461164E+02 -0.31542056338E+02  0.63310370447E+02  0.00000000000E+00 0. -1.
        -13    1    4    4    0    0  0.17959794165E+02  0.19734083491E+02  0.26756851158E+02  0.37787793553E+02  0.00000000000E+00 0. -1.
         13    1    4    4    0    0 -0.39047583169E+02  0.12175903715E+03 -0.34376702732E+02  0.13240745663E+03  0.00000000000E+00 0.  1.
         21    1    1    2  503  502  0.16499496408E+02  0.23605346162E+02  0.20682224313E+03  0.20881782971E+03  0.00000000000E+00 0.  1.
          2    1    1    2  501    0  0.21645493116E+02 -0.42874053958E+02 -0.82039524076E+02  0.95064164571E+02  0.00000000000E+00 0. -1.
<scales pt_clust_5="13000.00000" pt_clust_6="13000.00000" pt_clust_7="13000.00000" pt_clust_8="13000.00000" pt_clust_9="28.80010" pt_clust_10="13000.00000"></scales>
<clustering>
<clus scale="   28.800">  1  9  2 -1</clus>
<clus scale="   90.399">  5  6 -1 -1</clus>
<clus scale="   91.888">  7  8 -1 -1</clus>
<clus scale="   47.440">  7 10 -1 -1</clus>
<clus scale="  144.823">  2  5  1 -1</clus>
<clus scale="   28.800">  1  5  2 -1</clus>
</clustering>
</event>
<event>
10    2  0.5692308E-006  0.3820194E+03  0.7546771E-02  0.1095114E+00
          1   -1    0    0  502    0 -0.00000000000E+00  0.00000000000E+00  0.77478864778E+03  0.77478864778E+03  0.00000000000E+00 0. -1.
         21   -1    0    0  503  502  0.00000000000E+00 -0.00000000000E+00 -0.19624953163E+03  0.19624953163E+03  0.00000000000E+00 0. -1.
         23    2    1    2    0    0  0.66654274778E+02 -0.39158826132E+01  0.44665534050E+03  0.46084895414E+03  0.91774935873E+02 0.  0.
         23    2    1    2    0    0  0.74508292760E+02 -0.57556470069E+02 -0.56657037806E+02  0.14349431327E+03  0.92284153950E+02 0.  0.
        -11    1    3    3    0    0  0.50117473273E+02  0.37014683796E+02  0.33572786755E+03  0.34146017189E+03  0.00000000000E+00 0.  1.
         11    1    3    3    0    0  0.16536801505E+02 -0.40930566409E+02  0.11092747296E+03  0.11938878225E+03  0.00000000000E+00 0. -1.
        -11    1    4    4    0    0  0.40183484702E+02  0.15066854598E+02  0.36188593859E+01  0.43067606081E+02  0.00000000000E+00 0.  1.
         11    1    4    4    0    0  0.34324808058E+02 -0.72623324667E+02 -0.60275897192E+02  0.10042670719E+03  0.00000000000E+00 0. -1.
         21    1    1    2  503  501 -0.51524598672E+02 -0.43957310314E+02 -0.54557021099E+02  0.86968373272E+02  0.00000000000E+00 0. -1.
          1    1    1    2  501    0 -0.89637968866E+02  0.10542966300E+03  0.24309783456E+03  0.27972653873E+03  0.00000000000E+00 0. -1.
<scales pt_clust_5="13000.00000" pt_clust_6="13000.00000" pt_clust_7="13000.00000" pt_clust_8="13000.00000" pt_clust_9="67.72761" pt_clust_10="13000.00000"></scales>
<clustering>
<clus scale="   67.728">  2  9  1 -1</clus>
<clus scale="   91.775">  5  6 -1 -1</clus>
<clus scale="   92.284">  7  8 -1 -1</clus>
<clus scale="  111.922">  1  5  2 -1</clus>
<clus scale="  104.666">  7 10 -1 -1</clus>
<clus scale="   67.728">  2  5  1 -1</clus>
</clustering>
</event>
<event>
10    2  0.5692308E-006  0.3407315E+03  0.7546771E-02  0.1104052E+00
         21   -1    0    0  501  502  0.00000000000E+00  0.00000000000E+00  0.24504915233E+03  0.24504915233E+03  0.00000000000E+00 0.  1.
          3   -1    0    0  503    0 -0.00000000000E+00 -0.00000000000E+00 -0.65665281270E+03  0.65665281270E+03  0.00000000000E+00 0. -1.
         23    2    1    2    0    0  0.78977731466E+02 -0.96459995016E+02 -0.33353506986E+03  0.36054184539E+03  0.56592992005E+02 0.  0.
         23    2    1    2    0    0 -0.48373240446E+02 -0.24631090084E+01 -0.26805900174E+03  0.28733783196E+03  0.91440494105E+02 0.  0.
        -13    1    4    4    0    0  0.24548369169E+02 -0.75975561390E+01 -0.11336378149E+03  0.11623980490E+03  0.00000000000E+00 0.  1.
         13    1    4    4    0    0 -0.72921609615E+02  0.51344471306E+01 -0.15469522024E+03  0.17109802706E+03  0.00000000000E+00 0. -1.
        -13    1    3    3    0    0  0.40811050264E+02 -0.35340878151E+02 -0.76730405386E+02  0.93819372215E+02  0.00000000000E+00 0.  1.
         13    1    3    3    0    0  0.38166681202E+02 -0.61119116865E+02 -0.25680466448E+03  0.26672247318E+03  0.00000000000E+00 0. -1.
         21    1    1    2  503  502 -0.83302834935E+02  0.62749238595E+02  0.12205947829E+03  0.16054701957E+03  0.00000000000E+00 0.  1.
          3    1    1    2  501    0  0.52698343915E+02  0.36173865430E+02  0.67930932936E+02  0.93275268111E+02  0.00000000000E+00 0. -1.
<scales pt_clust_5="13000.00000" pt_clust_6="13000.00000" pt_clust_7="13000.00000" pt_clust_8="13000.00000" pt_clust_9="104.29204" pt_clust_10="13000.00000"></scales>
<clustering>
<clus scale="   56.593">  7  8 -1 -1</clus>
<clus scale="   91.440">  5  6 -1 -1</clus>
<clus scale="   63.919">  5 10 -1 -1</clus>
<clus scale="  104.292">  1  9  2 -1</clus>
<clus scale="  125.063">  2  7  1 -1</clus>
<clus scale="  104.292">  1  5  2 -1</clus>
</clustering>
</event>
<event>
10    2  0.5692308E-006  0.2106858E+03  0.7546771E-02  0.1160086E+00
          1   -1    0    0  503    0 -0.00000000000E+00  0.00000000000E+00  0.42751214925E+03  0.42751214925E+03  0.00000000000E+00 0. -1.
         21   -1    0    0  501  502  0.00000000000E+00 -0.00000000000E+00 -0.19847383886E+03  0.19847383886E+03  0.00000000000E+00 0. -1.
         23    2    1    2    0    0  0.20159338864E+01  0.98241353479E+02  0.33371671592E+03  0.35995740276E+03  0.92450299080E+02 0.  0.
         23    2    1    2    0    0 -0.13405935560E+02 -0.62276220372E+02  0.25883743963E+02  0.11658759272E+03  0.94152280069E+02 0.  0.
        -13    1    4    4    0    0 -0.44213784803E+02 -0.22736810820E+01  0.20890812921E+02  0.48953594932E+02  0.00000000000E+00 0.  1.
         13    1    4    4    0    0  0.30807849242E+02 -0.60002539290E+02  0.49929310416E+01  0.67633997786E+02  0.00000000000E+00 0. -1.
        -13    1    3    3    0    0  0.42771231391E+02  0.23070910717E+02  0.10251920274E+03  0.11345409682E+03  0.00000000000E+00 0.  1.
         13    1    3    3    0    0 -0.40755297505E+02  0.75170442762E+02  0.23119751318E+03  0.24650330594E+03  0.00000000000E+00 0. -1.
         21    1    1    2  503  502  0.30564139682E+02 -0.13534333543E+02 -0.30968003552E+02  0.45567116026E+02  0.00000000000E+00 0.  1.
          1    1    1    2  501    0 -0.19174138008E+02 -0.22430799564E+02 -0.99594145932E+02  0.10387387661E+03  0.00000000000E+00 0. -1.
<scales pt_clust_5="13000.00000" pt_clust_6="13000.00000" pt_clust_7="13000.00000" pt_clust_8="13000.00000" pt_clust_9="33.42671" pt_clust_10="13000.00000"></scales>
<clustering>
<clus scale="   33.427">  2  9  1 -1</clus>
<clus scale="   92.450">  7  8 -1 -1</clus>
<clus scale="   94.152">  5  6 -1 -1</clus>
<clus scale="   31.026">  5 10 -1 -1</clus>
<clus scale="  134.173">  1  7  2 -1</clus>
<clus scale="   33.427">  2  5  1 -1</clus>
</clustering>
</event>
<event>
10    2  0.5692308E-006  0.1881378E+03  0.7546771E-02  0.1184795E+00
          1   -1    0    0  503    0 -0.00000000000E+00  0.00000000000E+00  0.42447678234E+03  0.42447678234E+03  0.00000000000E+00 0. -1.
         21   -1    0    0  501  502  0.00000000000E+00 -0.00000000000E+00 -0.18620880800E+03  0.18620880800E+03  0.00000000000E+00 0. -1.
         23    2    1    2    0    0  0.18328158926E+02 -0.50212950820E+02  0.34081245442E+03  0.35718152641E+03  0.92564852317E+02 0.  0.
         23    2    1    2    0    0  0.28050736630E+02  0.81559627707E+02  0.89607226164E+01  0.12675237131E+03  0.92450269793E+02 0.  0.
        -11    1    4    4    0    0 -0.29499951157E+02  0.31627733105E+02  0.23444501327E+02  0.49195581733E+02  0.00000000000E+00 0.  1.
         11    1    4    4    0    0  0.57550687786E+02  0.49931894602E+02 -0.14483778710E+02  0.77556789574E+02  0.00000000000E+00 0. -1.
        -13    1    3    3    0    0 -0.36916597508E+02 -0.23024065487E+02  0.17434429820E+03  0.17969106010E+03  0.00000000000E+00 0.  1.
         13    1    3    3    0    0  0.55244756434E+02 -0.27188885332E+02  0.16646815621E+03  0.17749046631E+03  0.00000000000E+00 0. -1.
         21    1    1    2  503  502 -0.18899222073E+02 -0.22419716107E+02 -0.39729333053E+02  0.49378580074E+02  0.00000000000E+00 0. -1.
          1    1    1    2  501    0 -0.27479673483E+02 -0.89269607809E+01 -0.71775869635E+02  0.77373112548E+02  0.00000000000E+00 0. -1.
<scales pt_clust_5="13000.00000" pt_clust_6="13000.00000" pt_clust_7="13000.00000" pt_clust_8="13000.00000" pt_clust_9="29.32276" pt_clust_10="13000.00000"></scales>
<clustering>
<clus scale="   29.323">  2  9  1 -1</clus>
<clus scale="   92.450">  5  6 -1 -1</clus>
<clus scale="   42.786">  5 10 -1 -1</clus>
<clus scale="   92.565">  7  8 -1 -1</clus>
<clus scale="  107.324">  1  7  2 -1</clus>
<clus scale="   29.323">  2  5  1 -1</clus>
</clustering>
</event>
<event>
10    2  0.5692308E-006  0.2226937E+03  0.7546771E-02  0.1158445E+00
         -1   -1    0    0    0  501 -0.00000000000E+00  0.00000000000E+00  0.31643219746E+03  0.31643219746E+03  0.00000000000E+00 0.  1.
         21   -1    0    0  503  502  0.00000000000E+00 -0.00000000000E+00 -0.18533754291E+03  0.18533754291E+03  0.00000000000E+00 0.  1.
         23    2    1    2    0    0  0.65659575267E+02  0.45414362774E+02 -0.53657954715E+02  0.13239804412E+03  0.90974841647E+02 0.  0.
         23    2    1    2    0    0 -0.43698138364E+02  0.21097170539E+02  0.24528792551E+03  0.26478570648E+03  0.87124543365E+02 0.  0.
        -13    1    3    3    0    0 -0.20534907580E+02 -0.47976703035E+01 -0.65571776940E+01  0.22083854939E+02  0.00000000000E+00 0. -1.
         13    1    3    3    0    0  0.86194482847E+02  0.50212033078E+02 -0.47100777021E+02  0.11031418918E+03  0.00000000000E+00 0.  1.
        -13    1    4    4    0    0  0.20580531877E+02  0.14250532700E+02  0.25682687965E+02  0.35864138574E+02  0.00000000000E+00 0. -1.
         13    1    4    4    0    0 -0.64278670241E+02  0.68466378386E+01  0.21960523754E+03  0.22892156791E+03  0.00000000000E+00 0.  1.
         21    1    1    2  503  501  0.39645010722E+01 -0.20698502508E+02 -0.45017279214E+02  0.49706143510E+02  0.00000000000E+00 0.  1.
         -1    1    1    2    0  502 -0.25925937975E+02 -0.45813030805E+02 -0.15518037037E+02  0.54879846255E+02  0.00000000000E+00 0.  1.
<scales pt_clust_5="13000.00000" pt_clust_6="13000.00000" pt_clust_7="13000.00000" pt_clust_8="13000.00000" pt_clust_9="21.07475" pt_clust_10="13000.00000"></scales>
<clustering>
<clus scale="   21.075">  2  9  1 -1</clus>
<clus scale="   87.125">  7  8 -1 -1</clus>
<clus scale="   56.844">  7 10 -1 -1</clus>
<clus scale="   90.975">  5  6 -1 -1</clus>
<clus scale="  118.048">  1  5  2 -1</clus>
<clus scale="   21.075">  2  5  1 -1</clus>
</clustering>
</event>
<event>
10    2  0.5692308E-006  0.4045657E+03  0.7546771E-02  0.1066851E+00
         21   -1    0    0  503  502  0.00000000000E+00  0.00000000000E+00  0.89083194245E+03  0.89083194245E+03  0.00000000000E+00 0. -1.
          1   -1    0    0  502    0 -0.00000000000E+00 -0.00000000000E+00 -0.16068618183E+03  0.16068618183E+03  0.00000000000E+00 0. -1.
         23    2    1    2    0    0  0.80497270470E+02  0.11333427317E+03  0.36983212547E+03  0.40462625639E+03  0.87304858421E+02 0.  0.
         23    2    1    2    0    0 -0.94708778200E+02  0.88174145987E+01 -0.57452365211E+02  0.14247598656E+03  0.89169125868E+02 0.  0.
        -11    1    3    3    0    0  0.32308798051E+02  0.70285296942E+01  0.17016174761E+03  0.17334439423E+03  0.00000000000E+00 0.  1.
         11    1    3    3    0    0  0.48188472419E+02  0.10630574348E+03  0.19967037786E+03  0.23128186216E+03  0.00000000000E+00 0. -1.
        -13    1    4    4    0    0 -0.10915960390E+02  0.38195691809E+02 -0.29178351350E+02  0.49289403034E+02  0.00000000000E+00 0.  1.
         13    1    4    4    0    0 -0.83792817810E+02 -0.29378277210E+02 -0.28274013861E+02  0.93186583521E+02  0.00000000000E+00 0. -1.
         21    1    1    2  503  501  0.10429558770E+03  0.19641179638E+02  0.10445281575E+03  0.14890848287E+03  0.00000000000E+00 0. -1.
          1    1    1    2  501    0 -0.90084079971E+02 -0.14179286741E+03  0.31331318461E+03  0.35550739846E+03  0.00000000000E+00 0. -1.
<scales pt_clust_5="13000.00000" pt_clust_6="13000.00000" pt_clust_7="13000.00000" pt_clust_8="13000.00000" pt_clust_9="106.12891" pt_clust_10="13000.00000"></scales>
<clustering>
<clus scale="   87.305">  5  6 -1 -1</clus>
<clus scale="   89.169">  7  8 -1 -1</clus>
<clus scale="  106.129">  1  9  2 -1</clus>
<clus scale="  140.416">  7 10 -1 -1</clus>
<clus scale="  201.504">  2  5  1 -1</clus>
<clus scale="  106.129">  1  5  2 -1</clus>
</clustering>
</event>
<event>
10    2  0.5692308E-006  0.1130225E+03  0.7546771E-02  0.1265837E+00
          3   -1    0    0  502    0 -0.00000000000E+00  0.00000000000E+00  0.55375297620E+03  0.55375297620E+03  0.00000000000E+00 0. -1.
         21   -1    0    0  503  502  0.00000000000E+00 -0.00000000000E+00 -0.68842614002E+02  0.68842614002E+02  0.00000000000E+00 0. -1.
         23    2    1    2    0    0 -0.54431467864E+01 -0.22958202708E+01  0.15517050653E+03  0.17835925392E+03  0.87745306008E+02 0.  0.
         23    2    1    2    0    0 -0.13317564026E+02 -0.29589358083E+02  0.27124464143E+03  0.28789029335E+03  0.90853056530E+02 0.  0.
        -11    1    4    4    0    0 -0.30662468044E+02 -0.56540319831E+02  0.17463401227E+03  0.18610221104E+03  0.00000000000E+00 0.  1.
         11    1    4    4    0    0  0.17344904019E+02  0.26950961748E+02  0.96610629159E+02  0.10178808231E+03  0.00000000000E+00 0. -1.
        -11    1    3    3    0    0  0.33851619489E+02 -0.55974043579E+01  0.25289990349E+02  0.42624484623E+02  0.00000000000E+00 0. -1.
         11    1    3    3    0    0 -0.39294766275E+02  0.33015840871E+01  0.12988051618E+03  0.13573476930E+03  0.00000000000E+00 0.  1.
         21    1    1    2  503  501  0.69093257382E+01  0.51826038326E+02 -0.33085306415E+02  0.61873374980E+02  0.00000000000E+00 0. -1.
          3    1    1    2  501    0  0.11851385074E+02 -0.19940859972E+02  0.91580520655E+02  0.94472667942E+02  0.00000000000E+00 0. -1.
<scales pt_clust_5="13000.00000" pt_clust_6="13000.00000" pt_clust_7="13000.00000" pt_clust_8="13000.00000" pt_clust_9="52.28458" pt_clust_10="13000.00000"></scales>
<clustering>
<clus scale="   52.285">  2  9  1 -1</clus>
<clus scale="   87.745">  7  8 -1 -1</clus>
<clus scale="   90.853">  5  6 -1 -1</clus>
<clus scale="   20.538">  5 10 -1 -1</clus>
<clus scale="   91.484">  1  7  2 -1</clus>
<clus scale="   52.285">  2  5  1 -1</clus>
</clustering>
</event>
<event>
10    2  0.5692308E-006  0.7028063E+03  0.7546771E-02  0.1026359E+00
         21   -1    0    0  503  502  0.00000000000E+00  0.00000000000E+00  0.40815745338E+03  0.40815745338E+03  0.00000000000E+00 0. -1.
          2   -1    0    0  502    0 -0.00000000000E+00 -0.00000000000E+00 -0.55805987564E+03  0.55805987564E+03  0.00000000000E+00 0. -1.
         23    2    1    2    0    0  0.28612905244E+02  0.86556870337E+02  0.54537445853E+02  0.13936582884E+03  0.90209262826E+02 0.  0.
         23    2    1    2    0    0  0.40839780811E+02  0.11029829988E+03 -0.46489132399E+03  0.48742554699E+03  0.87327647868E+02 0.  0.
        -11    1    4    4    0    0 -0.56480240961E+01  0.87691328961E+02 -0.21538728874E+03  0.23262277082E+03  0.00000000000E+00 0.  1.
         11    1    4    4    0    0  0.46487804907E+02  0.22606970920E+02 -0.24950403525E+03  0.25480277617E+03  0.00000000000E+00 0. -1.
        -13    1    3    3    0    0  0.40703969744E+02  0.12222065854E+00  0.21608523436E+02  0.46084231315E+02  0.00000000000E+00 0.  1.
         13    1    3    3    0    0 -0.12091064500E+02  0.86434649678E+02  0.32928922417E+02  0.93281597527E+02  0.00000000000E+00 0. -1.
         21    1    1    2  503  501 -0.20359091999E+02 -0.20998880000E+02  0.68633976373E+02  0.74606087560E+02  0.00000000000E+00 0. -1.
          2    1    1    2  501    0 -0.49093594056E+02 -0.17585629022E+03  0.19181747950E+03  0.26481986563E+03  0.00000000000E+00 0. -1.
<scales pt_clust_5="13000.00000" pt_clust_6="13000.00000" pt_clust_7="13000.00000" pt_clust_8="13000.00000" pt_clust_9="29.24800" pt_clust_10="13000.00000"></scales>
<clustering>
<clus scale="   29.248">  1  9  2 -1</clus>
<clus scale="   87.328">  5  6 -1 -1</clus>
<clus scale="   90.209">  7  8 -1 -1</clus>
<clus scale="  123.031">  2  7  1 -1</clus>
<clus scale="  192.787">  5 10 -1 -1</clus>
<clus scale="   29.248">  1  5  2 -1</clus>
</clustering>
</event>
<event>
10    2  0.5692308E-006  0.1633826E+03  0.7546771E-02  0.1209950E+00
         21   -1    0    0  503  502  0.00000000000E+00  0.00000000000E+00  0.93451576244E+02  0.93451576244E+02  0.00000000000E+00 0. -1.
          1   -1    0    0  502    0 -0.00000000000E+00 -0.00000000000E+00 -0.51341553726E+03  0.51341553726E+03  0.00000000000E+00 0. -1.
         23    2    1    2    0    0  0.24542770027E+02 -0.20742439071E+02 -0.13299005336E+03  0.16488609210E+03  0.92024305147E+02 0.  0.
         23    2    1    2    0    0 -0.39937005537E+02  0.61433168596E+00 -0.23815831777E+03  0.25810901449E+03  0.91134720173E+02 0.  0.
        -11    1    4    4    0    0 -0.47741799439E+02  0.37362554769E+02 -0.16662321523E+03  0.17730915308E+03  0.00000000000E+00 0.  1.
         11    1    4    4    0    0  0.78047939019E+01 -0.36748223083E+02 -0.71535102539E+02  0.80799861404E+02  0.00000000000E+00 0. -1.
        -13    1    3    3    0    0 -0.15637820803E+02 -0.46249110819E+02 -0.55203325741E+02  0.73694836073E+02  0.00000000000E+00 0.  1.
         13    1    3    3    0    0  0.40180590830E+02  0.25506671747E+02 -0.77786727615E+02  0.91191256029E+02  0.00000000000E+00 0. -1.
         21    1    1    2  503  501 -0.43052371099E+02 -0.19103182927E+01  0.50598383169E+02  0.66463165382E+02  0.00000000000E+00 0. -1.
          1    1    1    2  501    0  0.58446606610E+02  0.22038425678E+02 -0.99413973052E+02  0.11740884153E+03  0.00000000000E+00 0. -1.
<scales pt_clust_5="13000.00000" pt_clust_6="13000.00000" pt_clust_7="13000.00000" pt_clust_8="13000.00000" pt_clust_9="43.09473" pt_clust_10="13000.00000"></scales>
<clustering>
<clus scale="   43.095">  1  9  2 -1</clus>
<clus scale="   91.135">  5  6 -1 -1</clus>
<clus scale="   52.025">  5 10 -1 -1</clus>
<clus scale="   92.024">  7  8 -1 -1</clus>
<clus scale="   94.655">  2  7  1 -1</clus>
<clus scale="   43.095">  1  5  2 -1</clus>
</clustering>
</event>
<event>
10    2  0.5692308E-006  0.1850138E+04  0.7546771E-02  0.9032402E-01
         21   -1    0    0  503  502  0.00000000000E+00  0.00000000000E+00  0.19574736454E+04  0.19574736454E+04  0.00000000000E+00 0. -1.
          1   -1    0    0  502    0 -0.00000000000E+00 -0.00000000000E+00 -0.20477026372E+04  0.20477026372E+04  0.00000000000E+00 0. -1.
         23    2    1    2    0    0 -0.43653305022E+03 -0.39630165351E+01 -0.11708782253E+03  0.46116032370E+03  0.91555865644E+02 0.  0.
         23    2    1    2    0    0  0.64594081881E+02 -0.15488521868E+03 -0.80473581497E+02  0.20719824401E+03  0.91067494880E+02 0.  0.
        -13    1    3    3    0    0 -0.21480830496E+03 -0.34305318508E+02 -0.24254512080E+02  0.21887837745E+03  0.00000000000E+00 0.  1.
         13    1    3    3    0    0 -0.22172474526E+03  0.30342301973E+02 -0.92833310452E+02  0.24228194625E+03  0.00000000000E+00 0. -1.
        -13    1    4    4    0    0  0.37300458029E+02 -0.74825358056E+02 -0.89089071985E+02  0.12217618886E+03  0.00000000000E+00 0.  1.
         13    1    4    4    0    0  0.27293623851E+02 -0.80059860624E+02  0.86154904878E+01  0.85022055153E+02  0.00000000000E+00 0. -1.
         21    1    1    2  503  501  0.17824836351E+04  0.49261665500E+03  0.30372513738E+03  0.18740779166E+04  0.00000000000E+00 0. -1.
          1    1    1    2  501    0 -0.14105446668E+04 -0.33376841979E+03 -0.19639272516E+03  0.14627397983E+04  0.00000000000E+00 0. -1.
<scales pt_clust_5="13000.00000" pt_clust_6="13000.00000" pt_clust_7="13000.00000" pt_clust_8="13000.00000" pt_clust_9="1661.72726" pt_clust_10="13000.00000"></scales>
<clustering>
<clus scale="   91.067">  7  8 -1 -1</clus>
<clus scale="   91.556">  5  6 -1 -1</clus>
<clus scale="  446.049">  2  5  1 -1</clus>
<clus scale=" 1650.947">  7 10 -1 -1</clus>
<clus scale=" 1661.727">  1  9  2 -1</clus>
<clus scale=" 1661.727">  1  5  2 -1</clus>
</clustering>
</event>
<event>
10    2  0.5692308E-006  0.1160306E+04  0.7546771E-02  0.9565524E-01
          2   -1    0    0  502    0 -0.00000000000E+00  0.00000000000E+00  0.12395278723E+04  0.12395278723E+04  0.00000000000E+00 0. -1.
         21   -1    0    0  503  502  0.00000000000E+00 -0.00000000000E+00 -0.86915223581E+03  0.86915223581E+03  0.00000000000E+00 0. -1.
         23    2    1    2    0    0  0.36583261221E+02 -0.23296602034E+03  0.59413133965E+03  0.64516178515E+03  0.87350893646E+02 0.  0.
         23    2    1    2    0    0 -0.28742781017E+03 -0.30621973192E+03  0.19110771682E+03  0.47035773382E+03  0.91263180231E+02 0.  0.
        -11    1    3    3    0    0  0.60072827213E+02 -0.21033201056E+03  0.52342916801E+03  0.56729744681E+03  0.00000000000E+00 0. -1.
         11    1    3    3    0    0 -0.23489565993E+02 -0.22634009780E+02  0.70702171644E+02  0.77864338336E+02  0.00000000000E+00 0.  1.
        -13    1    4    4    0    0 -0.73693210224E+02 -0.10040461130E+03  0.15344098473E+02  0.12548791400E+03  0.00000000000E+00 0.  1.
         13    1    4    4    0    0 -0.21373459994E+03 -0.20581512062E+03  0.17576361834E+03  0.34486981982E+03  0.00000000000E+00 0. -1.
         21    1    1    2  503  501  0.89625331546E+02 -0.14151895871E+03 -0.20102582802E+03  0.26167097520E+03  0.00000000000E+00 0. -1.
          2    1    1    2  501    0  0.16121921740E+03  0.68070471097E+03 -0.21383759194E+03  0.73148961396E+03  0.00000000000E+00 0. -1.
<scales pt_clust_5="13000.00000" pt_clust_6="13000.00000" pt_clust_7="13000.00000" pt_clust_8="13000.00000" pt_clust_9="167.51214" pt_clust_10="13000.00000"></scales>
<clustering>
<clus scale="   87.351">  5  6 -1 -1</clus>
<clus scale="   91.263">  7  8 -1 -1</clus>
<clus scale="  167.512">  2  9  1 -1</clus>
<clus scale="  257.268">  1  5  2 -1</clus>
<clus scale="  541.360">  7 10 -1 -1</clus>
<clus scale="  167.512">  2  5  1 -1</clus>
</clustering>
</event>
<event>
10    2  0.5692308E-006  0.1361867E+03  0.7546771E-02  0.1239390E+00
          1   -1    0    0  503    0 -0.00000000000E+00  0.00000000000E+00  0.28025929878E+03  0.28025929878E+03  0.00000000000E+00 0. -1.
         21   -1    0    0  501  502  0.00000000000E+00 -0.00000000000E+00 -0.13318042411E+03  0.13318042411E+03  0.00000000000E+00 0.  1.
         23    2    1    2    0    0  0.52170600792E+01  0.25421533978E+02  0.15102470019E+03  0.17428716239E+03  0.83030613633E+02 0.  0.
         23    2    1    2    0    0  0.13431923578E+02 -0.21510397140E+02  0.84726533239E+02  0.12692491988E+03  0.91039750092E+02 0.  0.
        -11    1    3    3    0    0 -0.27928519884E+02  0.41516792126E+02  0.82647636660E+02  0.96614067800E+02  0.00000000000E+00 0.  1.
         11    1    3    3    0    0  0.33145579963E+02 -0.16095258148E+02  0.68377063532E+02  0.77673094590E+02  0.00000000000E+00 0. -1.
        -13    1    4    4    0    0 -0.31924846167E+02 -0.26528177320E+02  0.16121472281E+02  0.44529112536E+02  0.00000000000E+00 0.  1.
         13    1    4    4    0    0  0.45356769745E+02  0.50177801797E+01  0.68605060958E+02  0.82395807348E+02  0.00000000000E+00 0. -1.
         21    1    1    2  503  502 -0.84248625663E+01  0.23708870033E+02 -0.76195110674E+02  0.80242032116E+02  0.00000000000E+00 0.  1.
          1    1    1    2  501    0 -0.10224121091E+02 -0.27620006871E+02 -0.12477248089E+02  0.31985608506E+02  0.00000000000E+00 0. -1.
<scales pt_clust_5="13000.00000" pt_clust_6="13000.00000" pt_clust_7="13000.00000" pt_clust_8="13000.00000" pt_clust_9="25.16126" pt_clust_10="13000.00000"></scales>
<clustering>
<clus scale="   25.161">  2  9  1 -1</clus>
<clus scale="   83.031">  5  6 -1 -1</clus>
<clus scale="   88.501">  1  5  2 -1</clus>
<clus scale="   91.040">  7  8 -1 -1</clus>
<clus scale="   20.844">  7 10 -1 -1</clus>
<clus scale="   25.161">  2  5  1 -1</clus>
</clustering>
</event>
<event>
10    2  0.5692308E-006  0.6704601E+03  0.7546771E-02  0.1039217E+00
         21   -1    0    0  501  502  0.00000000000E+00  0.00000000000E+00  0.24095226247E+03  0.24095226247E+03  0.00000000000E+00 0. -1.
          2   -1    0    0  503    0 -0.00000000000E+00 -0.00000000000E+00 -0.70624145846E+03  0.70624145846E+03  0.00000000000E+00 0. -1.
         23    2    1    2    0    0 -0.32484148764E+02 -0.45773150169E+00 -0.94815680612E+02  0.13524429095E+03  0.90805151317E+02 0.  0.
         23    2    1    2    0    0  0.19870751956E+03  0.18944558487E+03 -0.45584191768E+03  0.53961221886E+03  0.89527564864E+02 0.  0.
        -11    1    3    3    0    0 -0.42854070795E+02 -0.36033196177E+02 -0.73827693957E+02  0.92657385056E+02  0.00000000000E+00 0.  1.
         11    1    3    3    0    0  0.10369922031E+02  0.35575464675E+02 -0.20987986655E+02  0.42586905894E+02  0.00000000000E+00 0. -1.
        -11    1    4    4    0    0  0.10883309165E+03  0.43159848186E+02 -0.18641796573E+03  0.22013421424E+03  0.00000000000E+00 0.  1.
         11    1    4    4    0    0  0.89874427919E+02  0.14628573668E+03 -0.26942395196E+03  0.31947800462E+03  0.00000000000E+00 0. -1.
         21    1    1    2  503  502 -0.13425054570E+02 -0.41736500497E+02  0.64924521997E+00  0.43847338383E+02  0.00000000000E+00 0. -1.
          2    1    1    2  501    0 -0.15279831623E+03 -0.14725135287E+03  0.84719157081E+02  0.22848987273E+03  0.00000000000E+00 0. -1.
<scales pt_clust_5="13000.00000" pt_clust_6="13000.00000" pt_clust_7="13000.00000" pt_clust_8="13000.00000" pt_clust_9="43.84253" pt_clust_10="13000.00000"></scales>
<clustering>
<clus scale="   43.843">  1  9  2 -1</clus>
<clus scale="   89.528">  7  8 -1 -1</clus>
<clus scale="   90.805">  5  6 -1 -1</clus>
<clus scale="   96.962">  2  5  1 -1</clus>
<clus scale="  245.211">  7 10 -1 -1</clus>
<clus scale="   43.843">  1  5  2 -1</clus>
</clustering>
</event>
<event>
10    2  0.5692308E-006  0.1737237E+03  0.7546771E-02  0.1195272E+00
          1   -1    0    0  503    0 -0.00000000000E+00  0.00000000000E+00  0.36838722828E+03  0.36838722828E+03  0.00000000000E+00 0. -1.
         21   -1    0    0  501  502  0.00000000000E+00 -0.00000000000E+00 -0.21400402725E+03  0.21400402725E+03  0.00000000000E+00 0.  1.
         23    2    1    2    0    0  0.20305288136E+02  0.47799741047E+02  0.18520500558E+03  0.21201863164E+03  0.89184562014E+02 0.  0.
         23    2    1    2    0    0 -0.12394664409E+02 -0.75580923420E+02  0.13246576274E+03  0.17846149216E+03  0.91843465718E+02 0.  0.
        -11    1    4    4    0    0  0.25116314212E+02  0.66601406880E+01  0.48827659696E+02  0.55311183905E+02  0.00000000000E+00 0.  1.
         11    1    4    4    0    0 -0.37510978621E+02 -0.82241064108E+02  0.83638103041E+02  0.12315030825E+03  0.00000000000E+00 0. -1.
        -13    1    3    3    0    0 -0.31003091326E+02 -0.19619036826E+01  0.45537400210E+02  0.55124364447E+02  0.00000000000E+00 0.  1.
         13    1    3    3    0    0  0.51308379462E+02  0.49761644729E+02  0.13966760537E+03  0.15689426720E+03  0.00000000000E+00 0. -1.
         21    1    1    2  503  502 -0.18764141159E+02  0.58644240812E+02 -0.13607350481E+03  0.14935608017E+03  0.00000000000E+00 0.  1.
          1    1    1    2  501    0  0.10853517432E+02 -0.30863058438E+02 -0.27214062479E+02  0.42555051562E+02  0.00000000000E+00 0. -1.
<scales pt_clust_5="13000.00000" pt_clust_6="13000.00000" pt_clust_7="13000.00000" pt_clust_8="13000.00000" pt_clust_9="61.57305" pt_clust_10="13000.00000"></scales>
<clustering>
<clus scale="   61.573">  2  9  1 -1</clus>
<clus scale="   89.185">  7  8 -1 -1</clus>
<clus scale="   91.843">  5  6 -1 -1</clus>
<clus scale="    2.736">  5 10 -1 -1</clus>
<clus scale="  108.149">  1  7  2 -1</clus>
<clus scale="   61.573">  2  5  1 -1</clus>
</clustering>
</event>
<event>
10    2  0.5692308E-006  0.2143475E+03  0.7546771E-02  0.1173280E+00
         21   -1    0    0  501  502  0.00000000000E+00  0.00000000000E+00  0.48070123874E+03  0.48070123874E+03  0.00000000000E+00 0.  1.
          1   -1    0    0  503    0 -0.00000000000E+00 -0.00000000000E+00 -0.75201181739E+02  0.75201181739E+02  0.00000000000E+00 0. -1.
         23    2    1    2    0    0 -0.35040613426E+02  0.21786044347E+02  0.63055127440E+02  0.11438284655E+03  0.86052368776E+02 0.  0.
         23    2    1    2    0    0  0.39367464236E+02 -0.49444714062E+02  0.22887930677E+02  0.11362065013E+03  0.91603590411E+02 0.  0.
        -13    1    4    4    0    0  0.75293645169E+01 -0.71919635381E+02  0.14256464415E+02  0.73704627134E+02  0.00000000000E+00 0.  1.
         13    1    4    4    0    0  0.31838099719E+02  0.22474921318E+02  0.86314662613E+01  0.39916022996E+02  0.00000000000E+00 0. -1.
        -13    1    3    3    0    0  0.78599961429E+01  0.41770599674E+02  0.10745239530E+02  0.43840879428E+02  0.00000000000E+00 0. -1.
         13    1    3    3    0    0 -0.42900609569E+02 -0.19984555326E+02  0.52309887910E+02  0.70541967127E+02  0.00000000000E+00 0.  1.
         21    1    1    2  503  502  0.26616376744E+01 -0.20041542121E+02  0.15841645773E+03  0.15970135193E+03  0.00000000000E+00 0.  1.
          1    1    1    2  501    0 -0.69884884844E+01  0.47700211835E+02  0.16114054115E+03  0.16819757186E+03  0.00000000000E+00 0. -1.
<scales pt_clust_5="13000.00000" pt_clust_6="13000.00000" pt_clust_7="13000.00000" pt_clust_8="13000.00000" pt_clust_9="20.21751" pt_clust_10="13000.00000"></scales>
<clustering>
<clus scale="   20.218">  1  9  2 -1</clus>
<clus scale="   86.052">  7  8 -1 -1</clus>
<clus scale="   91.604">  5  6 -1 -1</clus>
<clus scale="   37.860">  5 10 -1 -1</clus>
<clus scale="   94.055">  2  7  1 -1</clus>
<clus scale="   20.218">  1  5  2 -1</clus>
</clustering>
</event>
<event>
10    2  0.5692308E-006  0.4128134E+03  0.7546771E-02  0.1080586E+00
          1   -1    0    0  502    0 -0.00000000000E+00  0.00000000000E+00  0.12084981294E+04  0.12084981294E+04  0.00000000000E+00 0. -1.
         21   -1    0    0  503  502  0.00000000000E+00 -0.00000000000E+00 -0.11688297583E+04  0.11688297583E+04  0.00000000000E+00 0. -1.
         23    2    1    2    0    0  0.83741011713E+02 -0.41636007080E+02  0.69751437188E+03  0.70960445924E+03  0.90917960111E+02 0.  0.
         23    2    1    2    0    0  0.17680095446E+03  0.76561575160E+01  0.30571345643E+03  0.36477730184E+03  0.91019603638E+02 0.  0.
        -11    1    3    3    0    0  0.97808256196E+02 -0.13961887698E+02  0.55783874776E+03  0.56652048311E+03  0.00000000000E+00 0. -1.
         11    1    3    3    0    0 -0.14067244484E+02 -0.27674119382E+02  0.13967562412E+03  0.14308397613E+03  0.00000000000E+00 0.  1.
        -11    1    4    4    0    0  0.14757435329E+03  0.12956029125E+02  0.29992378831E+03  0.33451506279E+03  0.00000000000E+00 0.  1.
         11    1    4    4    0    0  0.29226601176E+02 -0.52998716091E+01  0.57896681227E+01  0.30262239050E+02  0.00000000000E+00 0. -1.
         21    1    1    2  503  501 -0.38807506524E+03 -0.11964520682E+02 -0.10650462177E+04  0.11336087737E+04  0.00000000000E+00 0. -1.
          1    1    1    2  501    0  0.12753309906E+03  0.45944370246E+02  0.10148676055E+03  0.16933735288E+03  0.00000000000E+00 0. -1.
<scales pt_clust_5="13000.00000" pt_clust_6="13000.00000" pt_clust_7="13000.00000" pt_clust_8="13000.00000" pt_clust_9="382.67569" pt_clust_10="13000.00000"></scales>
<clustering>
<clus scale="   90.918">  5  6 -1 -1</clus>
<clus scale="   91.020">  7  8 -1 -1</clus>
<clus scale="  130.431">  1  5  2 -1</clus>
<clus scale="  153.970">  7 10 -1 -1</clus>
<clus scale="  382.676">  2  9  1 -1</clus>
<clus scale="  382.676">  2  5  1 -1</clus>
</clustering>
</event>
<event>
10    2  0.5692308E-006  0.1846559E+03  0.7546771E-02  0.1184853E+00
         21   -1    0    0  503  502  0.00000000000E+00  0.00000000000E+00  0.14608172453E+03  0.14608172453E+03  0.00000000000E+00 0. -1.
          1   -1    0    0  502    0 -0.00000000000E+00 -0.00000000000E+00 -0.46190396421E+03  0.46190396421E+03  0.00000000000E+00 0. -1.
         23    2    1    2    0    0  0.19961780398E+02 -0.13009318367E+03 -0.68801570732E+02  0.17443423458E+03  0.91492824549E+02 0.  0.
         23    2    1    2    0    0  0.16622462835E+02 -0.14941359379E+02 -0.25739035258E+03  0.27378016956E+03  0.90588283750E+02 0.  0.
        -11    1    3    3    0    0 -0.22103937734E+02  0.94985235442E-01 -0.20375753314E+01  0.22197855725E+02  0.00000000000E+00 0. -1.
         11    1    3    3    0    0  0.42065718133E+02 -0.13018816890E+03 -0.66763995401E+02  0.15223637885E+03  0.00000000000E+00 0.  1.
        -13    1    4    4    0    0  0.81557077039E+01  0.27087805280E+02 -0.25904948824E+02  0.38357934467E+02  0.00000000000E+00 0.  1.
         13    1    4    4    0    0  0.84667551306E+01 -0.42029164659E+02 -0.23148540376E+03  0.23542223509E+03  0.00000000000E+00 0. -1.
         21    1    1    2  503  501 -0.27894713008E+02  0.93553684876E+02  0.32745533484E+02  0.10296930091E+03  0.00000000000E+00 0. -1.
          1    1    1    2  501    0 -0.86895302251E+01  0.51480858171E+02 -0.22375849858E+02  0.56801983684E+02  0.00000000000E+00 0. -1.
<scales pt_clust_5="13000.00000" pt_clust_6="13000.00000" pt_clust_7="13000.00000" pt_clust_8="13000.00000" pt_clust_9="97.62380" pt_clust_10="13000.00000"></scales>
<clustering>
<clus scale="   90.588">  7  8 -1 -1</clus>
<clus scale="   52.209">  7 10 -1 -1</clus>
<clus scale="   91.493">  5  6 -1 -1</clus>
<clus scale="   97.624">  1  9  2 -1</clus>
<clus scale="  113.364">  2  5  1 -1</clus>
<clus scale="   97.624">  1  5  2 -1</clus>
</clustering>
</event>
<event>
10    2  0.5692308E-006  0.1620966E+03  0.7546771E-02  0.1208829E+00
         21   -1    0    0  503  502  0.00000000000E+00  0.00000000000E+00  0.32758689611E+03  0.32758689611E+03  0.00000000000E+00 0. -1.
         -3   -1    0    0    0  501 -0.00000000000E+00 -0.00000000000E+00 -0.13547339829E+03  0.13547339829E+03  0.00000000000E+00 0.  1.
         23    2    1    2    0    0  0.42857574746E+02  0.27200999565E+02  0.90535260700E+02  0.13863551397E+03  0.91904875897E+02 0.  0.
         23    2    1    2    0    0 -0.22642386937E+02 -0.49956210457E+02 -0.76058823621E+02  0.12955064985E+03  0.89387502348E+02 0.  0.
        -13    1    4    4    0    0 -0.22981066577E+02  0.82717102370E+01 -0.66110533896E+02  0.70478034190E+02  0.00000000000E+00 0.  1.
         13    1    4    4    0    0  0.33867964025E+00 -0.58227920694E+02 -0.99482897249E+01  0.59072615658E+02  0.00000000000E+00 0. -1.
        -13    1    3    3    0    0 -0.23607774043E+02  0.25678061042E+02  0.49338776291E+02  0.60423543921E+02  0.00000000000E+00 0.  1.
         13    1    3    3    0    0  0.66465348790E+02  0.15229385230E+01  0.41196484410E+02  0.78211970050E+02  0.00000000000E+00 0. -1.
         21    1    1    2  503  501 -0.18050526542E+02 -0.88623715528E+01  0.15407900968E+03  0.15538566331E+03  0.00000000000E+00 0. -1.
         -3    1    1    2    0  502 -0.21646612676E+01  0.31617582445E+02  0.23558051052E+02  0.39488467272E+02  0.00000000000E+00 0.  1.
<scales pt_clust_5="13000.00000" pt_clust_6="13000.00000" pt_clust_7="13000.00000" pt_clust_8="13000.00000" pt_clust_9="20.10878" pt_clust_10="13000.00000"></scales>
<clustering>
<clus scale="   20.109">  1  9  2 -1</clus>
<clus scale="   89.388">  5  6 -1 -1</clus>
<clus scale="   30.494">  5 10 -1 -1</clus>
<clus scale="   91.905">  7  8 -1 -1</clus>
<clus scale="   99.276">  2  7  1 -1</clus>
<clus scale="   20.109">  1  5  2 -1</clus>
</clustering>
</event>
<event>
10    2  0.5692308E-006  0.2826622E+03  0.7546771E-02  0.1109965E+00
          2   -1    0    0  502    0 -0.00000000000E+00  0.00000000000E+00  0.27805075059E+03  0.27805075059E+03  0.00000000000E+00 0. -1.
         21   -1    0    0  503  502  0.00000000000E+00 -0.00000000000E+00 -0.29438378138E+03  0.29438378138E+03  0.00000000000E+00 0.  1.
         23    2    1    2    0    0 -0.30911683964E+02 -0.15133823663E+03  0.81182787697E+02  0.19934347054E+03  0.96376242713E+02 0.  0.
         23    2    1    2    0    0 -0.72777589073E+02  0.16844417033E+03  0.47942801947E+01  0.20261697819E+03  0.85794164939E+02 0.  0.
        -11    1    4    4    0    0 -0.89902995621E+02  0.12058174803E+03  0.13617485315E+02  0.15102298662E+03  0.00000000000E+00 0. -1.
         11    1    4    4    0    0  0.17125406548E+02  0.47862422300E+02 -0.88232051201E+01  0.51593991573E+02  0.00000000000E+00 0.  1.
        -13    1    3    3    0    0 -0.65755964568E+02 -0.10584944458E+03  0.51803752934E+02  0.13495028941E+03  0.00000000000E+00 0. -1.
         13    1    3    3    0    0  0.34844280605E+02 -0.45488792043E+02  0.29379034763E+02  0.64393181129E+02  0.00000000000E+00 0.  1.
         21    1    1    2  503  501  0.17290837632E+02 -0.31051849078E+02 -0.67506324218E+02  0.76290852706E+02  0.00000000000E+00 0. -1.
          2    1    1    2  501    0  0.86398435405E+02  0.13945915374E+02 -0.34803774467E+02  0.94183230531E+02  0.00000000000E+00 0. -1.
<scales pt_clust_5="13000.00000" pt_clust_6="13000.00000" pt_clust_7="13000.00000" pt_clust_8="13000.00000" pt_clust_9="35.54139" pt_clust_10="13000.00000"></scales>
<clustering>
<clus scale="   35.541">  2  9  1 -1</clus>
<clus scale="   85.794">  5  6 -1 -1</clus>
<clus scale="   91.544">  5 10 -1 -1</clus>
<clus scale="   96.376">  7  8 -1 -1</clus>
<clus scale="  188.277">  1  7  2 -1</clus>
<clus scale="   35.541">  2  5  1 -1</clus>
</clustering>
</event>
<event>
10    2  0.5692308E-006  0.1534774E+03  0.7546771E-02  0.1211221E+00
         21   -1    0    0  501  502  0.00000000000E+00  0.00000000000E+00  0.18033929833E+03  0.18033929833E+03  0.00000000000E+00 0.  1.
         -1   -1    0    0    0  501 -0.00000000000E+00 -0.00000000000E+00 -0.19033842640E+03  0.19033842640E+03  0.00000000000E+00 0.  1.
         23    2    1    2    0    0 -0.22770297527E+02  0.51404929736E+02 -0.71239190010E+02  0.13383680202E+03  0.98368257748E+02 0.  0.
         23    2    1    2    0    0 -0.33192683092E+02 -0.75673215120E+02 -0.85810753864E+01  0.12134124727E+03  0.88441357614E+02 0.  0.
        -11    1    3    3    0    0 -0.34692178113E+02 -0.91820130462E+01 -0.61669177222E+02  0.71350851467E+02  0.00000000000E+00 0.  1.
         11    1    3    3    0    0  0.11921880586E+02  0.60586942782E+02 -0.95700127880E+01  0.62485950558E+02  0.00000000000E+00 0. -1.
        -13    1    4    4    0    0 -0.50415729356E+02 -0.86888896935E+02 -0.61354919012E+01  0.10064328312E+03  0.00000000000E+00 0.  1.
         13    1    4    4    0    0  0.17223046264E+02  0.11215681815E+02 -0.24455834852E+01  0.20697964145E+02  0.00000000000E+00 0. -1.
         21    1    1    2  503  502  0.38516716141E+02 -0.28004656566E+01  0.73558483118E+02  0.83079663388E+02  0.00000000000E+00 0.  1.
         -1    1    1    2    0  503  0.17446264478E+02  0.27068751041E+02 -0.37373457930E+01  0.32420012041E+02  0.00000000000E+00 0.  1.
<scales pt_clust_5="13000.00000" pt_clust_6="13000.00000" pt_clust_7="13000.00000" pt_clust_8="13000.00000" pt_clust_9="38.61839" pt_clust_10="13000.00000"></scales>
<clustering>
<clus scale="   38.618">  1  9  2 -1</clus>
<clus scale="   88.441">  7  8 -1 -1</clus>
<clus scale="   35.131">  7 10 -1 -1</clus>
<clus scale="   98.368">  5  6 -1 -1</clus>
<clus scale="  111.136">  2  5  1 -1</clus>
<clus scale="   38.618">  1  5  2 -1</clus>
</clustering>
</event>
<event>
10    2  0.5692308E-006  0.2432010E+03  0.7546771E-02  0.1135188E+00
         21   -1    0    0  501  502  0.00000000000E+00  0.00000000000E+00  0.11155066398E+03  0.11155066398E+03  0.00000000000E+00 0. -1.
         -4   -1    0    0    0  501 -0.00000000000E+00 -0.00000000000E+00 -0.50028357104E+03  0.50028357104E+03  0.00000000000E+00 0.  1.
         23    2    1    2    0    0 -0.11670765772E+03  0.35291202126E+02 -0.22947225028E+03  0.27610132987E+03  0.93318188929E+02 0.  0.
         23    2    1    2    0    0  0.15641142327E+03  0.46254724573E+01 -0.12655081683E+03  0.22048038717E+03  0.90058667340E+02 0.  0.
        -11    1    4    4    0    0  0.67250205007E+02  0.80740669938E+01 -0.26378755791E+01  0.67784504268E+02  0.00000000000E+00 0. -1.
         11    1    4    4    0    0  0.89161218259E+02 -0.34485945365E+01 -0.12391294125E+03  0.15269588291E+03  0.00000000000E+00 0.  1.
        -13    1    3    3    0    0 -0.53207468424E+02  0.50453378075E+02 -0.60861434745E+02  0.95292666531E+02  0.00000000000E+00 0.  1.
         13    1    3    3    0    0 -0.63500189298E+02 -0.15162175950E+02 -0.16861081554E+03  0.18080866334E+03  0.00000000000E+00 0. -1.
         21    1    1    2  503  502 -0.12882234570E+02  0.26275569998E+02  0.11291116924E+02  0.31366333347E+02  0.00000000000E+00 0.  1.
         -4    1    1    2    0  503 -0.26821530973E+02 -0.66192244581E+02 -0.44000956874E+02  0.83886184633E+02  0.00000000000E+00 0.  1.
<scales pt_clust_5="13000.00000" pt_clust_6="13000.00000" pt_clust_7="13000.00000" pt_clust_8="13000.00000" pt_clust_9="29.26359" pt_clust_10="13000.00000"></scales>
<clustering>
<clus scale="   29.264">  1  9  2 -1</clus>
<clus scale="   90.059">  5  6 -1 -1</clus>
<clus scale="   67.279">  5 10 -1 -1</clus>
<clus scale="   93.318">  7  8 -1 -1</clus>
<clus scale="  157.759">  2  7  1 -1</clus>
<clus scale="   29.264">  1  5  2 -1</clus>
</clustering>
</event>
<event>
10    2  0.5692308E-006  0.2622220E+03  0.7546771E-02  0.1113831E+00
         21   -1    0    0  503  502  0.00000000000E+00  0.00000000000E+00  0.23311054817E+03  0.23311054817E+03  0.00000000000E+00 0. -1.
          3   -1    0    0  502    0 -0.00000000000E+00 -0.00000000000E+00 -0.37618159840E+03  0.37618159840E+03  0.00000000000E+00 0. -1.
         23    2    1    2    0    0  0.18910693155E+03  0.13120957344E+02 -0.17233086334E+03  0.27197401459E+03  0.91314550170E+02 0.  0.
         23    2    1    2    0    0 -0.96030009445E+02  0.57305791738E+02 -0.53512734193E+02  0.15358681310E+03  0.90661899145E+02 0.  0.
        -13    1    3    3    0    0  0.15649471789E+03  0.11821350952E+02 -0.17962813323E+03  0.23853009729E+03  0.00000000000E+00 0. -1.
         13    1    3    3    0    0  0.32612213658E+02  0.12996063923E+01  0.72972698930E+01  0.33443917299E+02  0.00000000000E+00 0.  1.
        -13    1    4    4    0    0  0.65379795244E+01  0.31000264277E+02  0.58151974732E+01  0.32211458880E+02  0.00000000000E+00 0.  1.
         13    1    4    4    0    0 -0.10256798897E+03  0.26305527461E+02 -0.59327931666E+02  0.12137535422E+03  0.00000000000E+00 0. -1.
         21    1    1    2  503  501  0.14202697859E+02 -0.28160107740E+02  0.57661076206E+02  0.65722964051E+02  0.00000000000E+00 0. -1.
          3    1    1    2  501    0 -0.10727961996E+03 -0.42266641343E+02  0.25111471089E+02  0.11800835483E+03  0.00000000000E+00 0. -1.
<scales pt_clust_5="13000.00000" pt_clust_6="13000.00000" pt_clust_7="13000.00000" pt_clust_8="13000.00000" pt_clust_9="31.53900" pt_clust_10="13000.00000"></scales>
<clustering>
<clus scale="   31.539">  1  9  2 -1</clus>
<clus scale="   90.662">  7  8 -1 -1</clus>
<clus scale="   91.315">  5  6 -1 -1</clus>
<clus scale="  114.849">  7 10 -1 -1</clus>
<clus scale="  213.781">  2  5  1 -1</clus>
<clus scale="   31.539">  1  5  2 -1</clus>
</clustering>
</event>
<event>
10    2  0.4168826E-005  0.4606556E+03  0.7546771E-02  0.1049614E+00
          2   -1    0    0  503    0 -0.00000000000E+00  0.00000000000E+00  0.91106003310E+03  0.91106003310E+03  0.00000000000E+00 0. -1.
         21   -1    0    0  501  502  0.00000000000E+00 -0.00000000000E+00 -0.20144045498E+04  0.20144045498E+04  0.00000000000E+00 0. -1.
         23    2    1    2    0    0  0.14609013769E+03  0.14198742007E+03  0.14666502628E+03  0.26564730352E+03  0.86920102074E+02 0.  0.
         23    2    1    2    0    0 -0.36527567685E+01  0.32261780368E+02  0.39887983065E+03  0.41030638583E+03  0.90509921285E+02 0.  0.
        -13    1    4    4    0    0 -0.14557306445E+01 -0.29816131540E+02  0.79014754347E+02  0.84465686857E+02  0.00000000000E+00 0.  1.
         13    1    4    4    0    0 -0.21970261240E+01  0.62077911908E+02  0.31986507630E+03  0.32584069897E+03  0.00000000000E+00 0. -1.
        -13    1    3    3    0    0  0.10023866838E+03  0.11276119338E+03  0.58001006167E+02  0.16163846722E+03  0.00000000000E+00 0. -1.
         13    1    3    3    0    0  0.45851469315E+02  0.29226226696E+02  0.88664020118E+02  0.10400883630E+03  0.00000000000E+00 0.  1.
         21    1    1    2  503  502 -0.24807227411E+03 -0.32024795030E+03 -0.18987295400E+04  0.19414614261E+04  0.00000000000E+00 0. -1.
          2    1    1    2  501    0  0.10563489319E+03  0.14599874986E+03  0.24984016642E+03  0.30804946742E+03  0.00000000000E+00 0. -1.
<scales pt_clust_5="13000.00000" pt_clust_6="13000.00000" pt_clust_7="13000.00000" pt_clust_8="13000.00000" pt_clust_9="398.97779" pt_clust_10="13000.00000"></scales>
<clustering>
<clus scale="   86.920">  7  8 -1 -1</clus>
<clus scale="   90.510">  5  6 -1 -1</clus>
<clus scale="  180.207">  5 10 -1 -1</clus>
<clus scale="  221.490">  1  7  2 -1</clus>
<clus scale="  398.978">  2  9  1 -1</clus>
<clus scale="  398.978">  2  5  1 -1</clus>
</clustering>
</event>
<event>
10    2  0.5692308E-006  0.2926531E+03  0.7546771E-02  0.1119567E+00
         21   -1    0    0  503  502  0.00000000000E+00  0.00000000000E+00  0.28342560330E+03  0.28342560330E+03  0.00000000000E+00 0.  1.
          1   -1    0    0  502    0 -0.00000000000E+00 -0.00000000000E+00 -0.25155349056E+03  0.25155349056E+03  0.00000000000E+00 0. -1.
         23    2    1    2    0    0  0.38368099117E+02 -0.73017155946E+02  0.35131663081E+02  0.12798080670E+03  0.91330373041E+02 0.  0.
         23    2    1    2    0    0  0.59405354978E+01  0.58942673778E+02 -0.17551344432E+03  0.20313520083E+03  0.83363132884E+02 0.  0.
        -11    1    4    4    0    0  0.25241958169E+02  0.33766987137E+02 -0.24364007367E+02  0.48692614713E+02  0.00000000000E+00 0.  1.
         11    1    4    4    0    0 -0.19301422671E+02  0.25175686640E+02 -0.15114943695E+03  0.15444258611E+03  0.00000000000E+00 0. -1.
        -13    1    3    3    0    0 -0.19224238567E+02  0.93974008548E+01 -0.23146763285E+00  0.21399440847E+02  0.00000000000E+00 0. -1.
         13    1    3    3    0    0  0.57592337684E+02 -0.82414556801E+02  0.35363130714E+02  0.10658136585E+03  0.00000000000E+00 0.  1.
         21    1    1    2  503  501  0.30209311355E+00 -0.37582207083E+02  0.86130530176E+02  0.93973303538E+02  0.00000000000E+00 0.  1.
          1    1    1    2  501    0 -0.44610727729E+02  0.51656689251E+02  0.86123363795E+02  0.10988978280E+03  0.00000000000E+00 0. -1.
<scales pt_clust_5="13000.00000" pt_clust_6="13000.00000" pt_clust_7="13000.00000" pt_clust_8="13000.00000" pt_clust_9="37.58342" pt_clust_10="13000.00000"></scales>
<clustering>
<clus scale="   37.583">  1  9  2 -1</clus>
<clus scale="   83.363">  5  6 -1 -1</clus>
<clus scale="   55.135">  5 10 -1 -1</clus>
<clus scale="   91.330">  7  8 -1 -1</clus>
<clus scale="  133.119">  2  7  1 -1</clus>
<clus scale="   37.583">  1  5  2 -1</clus>
</clustering>
</event>
<event>
10    2  0.5692308E-006  0.1327529E+03  0.7546771E-02  0.1237169E+00
         21   -1    0    0  501  502  0.00000000000E+00  0.00000000000E+00  0.37806913720E+02  0.37806913720E+02  0.00000000000E+00 0.  1.
          1   -1    0    0  503    0 -0.00000000000E+00 -0.00000000000E+00 -0.81329101621E+03  0.81329101621E+03  0.00000000000E+00 0. -1.
         23    2    1    2    0    0 -0.77783927475E+01 -0.40431250869E+02 -0.42963757165E+03  0.44138169006E+03  0.92380538578E+02 0.  0.
         23    2    1    2    0    0  0.57077864053E+02  0.30624534422E+02 -0.28934804576E+03  0.31022420708E+03  0.91219638254E+02 0.  0.
        -11    1    3    3    0    0 -0.44772060007E+01  0.29841124378E+02 -0.10770200455E+03  0.11184927296E+03  0.00000000000E+00 0.  1.
         11    1    3    3    0    0 -0.33011867468E+01 -0.70272375246E+02 -0.32193556709E+03  0.32953241710E+03  0.00000000000E+00 0. -1.
        -11    1    4    4    0    0 -0.51325130664E+01  0.40771400041E+02 -0.62635230784E+02  0.74912094398E+02  0.00000000000E+00 0.  1.
         11    1    4    4    0    0  0.62210377119E+02 -0.10146865619E+02 -0.22671281497E+03  0.23531211268E+03  0.00000000000E+00 0. -1.
         21    1    1    2  503  502 -0.29442644381E+02  0.19709247839E+02  0.34216899739E+01  0.35595389038E+02  0.00000000000E+00 0.  1.
          1    1    1    2  501    0 -0.19856826924E+02 -0.99025313916E+01 -0.59920175063E+02  0.63896643754E+02  0.00000000000E+00 0. -1.
<scales pt_clust_5="13000.00000" pt_clust_6="13000.00000" pt_clust_7="13000.00000" pt_clust_8="13000.00000" pt_clust_9="35.43055" pt_clust_10="13000.00000"></scales>
<clustering>
<clus scale="   35.431">  1  9  2 -1</clus>
<clus scale="   91.220">  7  8 -1 -1</clus>
<clus scale="   24.327">  7 10 -1 -1</clus>
<clus scale="   92.381">  5  6 -1 -1</clus>
<clus scale="   99.971">  2  5  1 -1</clus>
<clus scale="   35.431">  1  5  2 -1</clus>
</clustering>
</event>
<event>
10    2  0.5692308E-006  0.2249632E+03  0.7546771E-02  0.1150808E+00
         21   -1    0    0  501  502  0.00000000000E+00  0.00000000000E+00  0.94409253640E+02  0.94409253640E+02  0.00000000000E+00 0.  1.
          1   -1    0    0  503    0 -0.00000000000E+00 -0.00000000000E+00 -0.49012341896E+03  0.49012341896E+03  0.00000000000E+00 0. -1.
         23    2    1    2    0    0 -0.98570758857E+02  0.10634441059E+02 -0.14317063787E+03  0.19709500322E+03  0.92300178266E+02 0.  0.
         23    2    1    2    0    0  0.61412612312E+02  0.33716521081E+02 -0.22413351855E+03  0.25304081086E+03  0.94262957102E+02 0.  0.
        -13    1    3    3    0    0 -0.97875325823E+02 -0.20887437569E+02 -0.12689870437E+03  0.16161418757E+03  0.00000000000E+00 0. -1.
         13    1    3    3    0    0 -0.69543303359E+00  0.31521878628E+02 -0.16271933499E+02  0.35480815649E+02  0.00000000000E+00 0.  1.
        -13    1    4    4    0    0 -0.13382943091E+02  0.39373912767E+02 -0.65825485902E+02  0.77861433114E+02  0.00000000000E+00 0.  1.
         13    1    4    4    0    0  0.74795555403E+02 -0.56573916858E+01 -0.15830803265E+03  0.17517937775E+03  0.00000000000E+00 0. -1.
         21    1    1    2  503  502  0.73070103681E+00  0.35368807520E+02  0.12699533481E+02  0.37586761234E+02  0.00000000000E+00 0.  1.
          1    1    1    2  501    0  0.36427445508E+02 -0.79719769661E+02 -0.41109542383E+02  0.96810097283E+02  0.00000000000E+00 0. -1.
<scales pt_clust_5="13000.00000" pt_clust_6="13000.00000" pt_clust_7="13000.00000" pt_clust_8="13000.00000" pt_clust_9="35.37635" pt_clust_10="13000.00000"></scales>
<clustering>
<clus scale="   35.376">  1  9  2 -1</clus>
<clus scale="   92.300">  5  6 -1 -1</clus>
<clus scale="   94.263">  7  8 -1 -1</clus>
<clus scale="   75.090">  7 10 -1 -1</clus>
<clus scale="  137.022">  2  5  1 -1</clus>
<clus scale="   35.376">  1  5  2 -1</clus>
</clustering>
</event>
<event>
10    2  0.5692308E-006  0.6570661E+03  0.7546771E-02  0.1007439E+00
          2   -1    0    0  503    0 -0.00000000000E+00  0.00000000000E+00  0.17010724559E+04  0.17010724559E+04  0.00000000000E+00 0. -1.
         21   -1    0    0  501  502  0.00000000000E+00 -0.00000000000E+00 -0.13541577017E+04  0.13541577017E+04  0.00000000000E+00 0.  1.
         23    2    1    2    0    0  0.21418859943E+03 -0.13310469278E+03 -0.32195657092E+02  0.26983547530E+03  0.90448924974E+02 0.  0.
         23    2    1    2    0    0 -0.45851512415E+02 -0.21160466770E+03  0.11187040763E+04  0.11432178065E+04  0.92570223803E+02 0.  0.
        -11    1    3    3    0    0  0.20407309273E+03 -0.10578153539E+03 -0.50614079377E+02  0.23536640678E+03  0.00000000000E+00 0. -1.
         11    1    3    3    0    0  0.10115506692E+02 -0.27323157384E+02  0.18418422285E+02  0.34469068518E+02  0.00000000000E+00 0.  1.
        -11    1    4    4    0    0 -0.46712544109E+02 -0.34540351059E+02  0.25172347817E+03  0.25834048675E+03  0.00000000000E+00 0.  1.
         11    1    4    4    0    0  0.86103169415E+00 -0.17706431664E+03  0.86698059811E+03  0.88487731980E+03  0.00000000000E+00 0. -1.
         21    1    1    2  503  502 -0.30366768386E+03  0.11375306930E+03 -0.11261930092E+04  0.11719490249E+04  0.00000000000E+00 0.  1.
          2    1    1    2  501    0  0.13533059685E+03  0.23095629117E+03  0.38659934416E+03  0.47022785092E+03  0.00000000000E+00 0. -1.
<scales pt_clust_5="13000.00000" pt_clust_6="13000.00000" pt_clust_7="13000.00000" pt_clust_8="13000.00000" pt_clust_9="320.69979" pt_clust_10="13000.00000"></scales>
<clustering>
<clus scale="   90.449">  5  6 -1 -1</clus>
<clus scale="   92.570">  7  8 -1 -1</clus>
<clus scale="  267.685">  7 10 -1 -1</clus>
<clus scale="  267.908">  1  5  2 -1</clus>
<clus scale="  320.700">  2  9  1 -1</clus>
<clus scale="  320.700">  2  5  1 -1</clus>
</clustering>
</event>
<event>
10    2  0.5692308E-006  0.3112305E+03  0.7546771E-02  0.1091479E+00
          1   -1    0    0  503    0 -0.00000000000E+00  0.00000000000E+00  0.31217664989E+03  0.31217664989E+03  0.00000000000E+00 0. -1.
         21   -1    0    0  501  502  0.00000000000E+00 -0.00000000000E+00 -0.51939105652E+03  0.51939105652E+03  0.00000000000E+00 0.  1.
         23    2    1    2    0    0 -0.24921801893E+02 -0.17634711761E+03 -0.46064667684E+01  0.20018011963E+03  0.91276824342E+02 0.  0.
         23    2    1    2    0    0  0.22568521995E+02  0.15296429764E+03  0.13825558167E+03  0.22651493552E+03  0.91032936950E+02 0.  0.
        -11    1    3    3    0    0 -0.29912218267E+01 -0.17778129635E+03 -0.41700209896E+00  0.17780694764E+03  0.00000000000E+00 0.  1.
         11    1    3    3    0    0 -0.21930580066E+02  0.14341787404E+01 -0.41894646695E+01  0.22373171990E+02  0.00000000000E+00 0. -1.
        -13    1    4    4    0    0 -0.15522717966E+02  0.12257502440E+03  0.12556868604E+03  0.17616210232E+03  0.00000000000E+00 0. -1.
         13    1    4    4    0    0  0.38091239961E+02  0.30389273247E+02  0.12686895629E+02  0.50352833197E+02  0.00000000000E+00 0.  1.
         21    1    1    2  503  502  0.22997712295E+02 -0.74926053705E+02 -0.27203793625E+03  0.28310324451E+03  0.00000000000E+00 0.  1.
          1    1    1    2  501    0 -0.20644432398E+02  0.98308873669E+02 -0.68825585290E+02  0.12176940676E+03  0.00000000000E+00 0. -1.
<scales pt_clust_5="13000.00000" pt_clust_6="13000.00000" pt_clust_7="13000.00000" pt_clust_8="13000.00000" pt_clust_9="78.37607" pt_clust_10="13000.00000"></scales>
<clustering>
<clus scale="   78.376">  2  9  1 -1</clus>
<clus scale="   91.033">  7  8 -1 -1</clus>
<clus scale="   69.750">  7 10 -1 -1</clus>
<clus scale="   91.277">  5  6 -1 -1</clus>
<clus scale="  227.720">  1  5  2 -1</clus>
<clus scale="   78.376">  2  5  1 -1</clus>
</clustering>
</event>
<event>
10    2  0.5692308E-006  0.2781529E+03  0.7546771E-02  0.1103166E+00
          2   -1    0    0  503    0 -0.00000000000E+00  0.00000000000E+00  0.15660374879E+04  0.15660374879E+04  0.00000000000E+00 0. -1.
         21   -1    0    0  501  502  0.00000000000E+00 -0.00000000000E+00 -0.10506529948E+03  0.10506529948E+03  0.00000000000E+00 0. -1.
         23    2    1    2    0    0  0.31442578984E+03  0.98525085813E+02  0.60523052898E+03  0.69506639709E+03  0.90788398552E+02 0.  0.
         23    2    1    2    0    0 -0.14494419892E+03 -0.66409994309E+02  0.55270121515E+03  0.58249052464E+03  0.91637710165E+02 0.  0.
        -13    1    4    4    0    0 -0.37054513563E+02  0.19295557515E+02  0.18903054433E+03  0.19359210264E+03  0.00000000000E+00 0.  1.
         13    1    4    4    0    0 -0.10788968536E+03 -0.85705551824E+02  0.36367067082E+03  0.38889842200E+03  0.00000000000E+00 0. -1.
        -13    1    3    3    0    0  0.77631683154E+02  0.37504534053E+02  0.24459437245E+03  0.25934470370E+03  0.00000000000E+00 0.  1.
         13    1    3    3    0    0  0.23679410668E+03  0.61020551759E+02  0.36063615653E+03  0.43572169339E+03  0.00000000000E+00 0. -1.
         21    1    1    2  503  502 -0.19077069289E+03  0.18827647602E+02  0.20250981411E+03  0.27885150599E+03  0.00000000000E+00 0. -1.
          2    1    1    2  501    0  0.21289101983E+02 -0.50942739106E+02  0.10053063021E+03  0.11469435967E+03  0.00000000000E+00 0. -1.
<scales pt_clust_5="13000.00000" pt_clust_6="13000.00000" pt_clust_7="13000.00000" pt_clust_8="13000.00000" pt_clust_9="191.69752" pt_clust_10="13000.00000"></scales>
<clustering>
<clus scale="   90.788">  7  8 -1 -1</clus>
<clus scale="   91.638">  5  6 -1 -1</clus>
<clus scale="   55.212">  5 10 -1 -1</clus>
<clus scale="  191.698">  2  9  1 -1</clus>
<clus scale="  235.200">  1  7  2 -1</clus>
<clus scale="  191.698">  2  5  1 -1</clus>
</clustering>
</event>
<event>
10    2  0.5692308E-006  0.2643295E+03  0.7546771E-02  0.1106167E+00
         21   -1    0    0  501  502  0.00000000000E+00  0.00000000000E+00  0.14161184048E+03  0.14161184048E+03  0.00000000000E+00 0. -1.
          4   -1    0    0  503    0 -0.00000000000E+00 -0.00000000000E+00 -0.14286041356E+04  0.14286041356E+04  0.00000000000E+00 0. -1.
         23    2    1    2    0    0 -0.27040728524E+02 -0.22111058313E+03 -0.27116195605E+03  0.36301323082E+03  0.92890841148E+02 0.  0.
         23    2    1    2    0    0  0.50091777299E+02  0.18754852240E+03 -0.97527192307E+03  0.99856376159E+03  0.91052883637E+02 0.  0.
        -11    1    3    3    0    0  0.33598497186E+02 -0.80804127069E+02 -0.11483135168E+03  0.14437591660E+03  0.00000000000E+00 0.  1.
         11    1    3    3    0    0 -0.60639225711E+02 -0.14030645606E+03 -0.15633060437E+03  0.21863731422E+03  0.00000000000E+00 0. -1.
        -11    1    4    4    0    0  0.49798963349E+02  0.32749128820E+02 -0.27627041652E+03  0.28262658268E+03  0.00000000000E+00 0. -1.
         11    1    4    4    0    0  0.29281395064E+00  0.15479939358E+03 -0.69900150655E+03  0.71593717891E+03  0.00000000000E+00 0.  1.
         21    1    1    2  503  502 -0.27160908880E+02 -0.13856807850E+02  0.76457542202E+02  0.82313315171E+02  0.00000000000E+00 0. -1.
          4    1    1    2  501    0  0.41098601044E+01  0.47418868585E+02 -0.11701595824E+03  0.12632566853E+03  0.00000000000E+00 0. -1.
<scales pt_clust_5="13000.00000" pt_clust_6="13000.00000" pt_clust_7="13000.00000" pt_clust_8="13000.00000" pt_clust_9="30.49141" pt_clust_10="13000.00000"></scales>
<clustering>
<clus scale="   30.491">  1  9  2 -1</clus>
<clus scale="   91.053">  7  8 -1 -1</clus>
<clus scale="   46.429">  7 10 -1 -1</clus>
<clus scale="   92.891">  5  6 -1 -1</clus>
<clus scale="  253.699">  2  5  1 -1</clus>
<clus scale="   30.491">  1  5  2 -1</clus>
</clustering>
</event>
<event>
10    2  0.5692308E-006  0.1460179E+03  0.7546771E-02  0.1214324E+00
         21   -1    0    0  501  502  0.00000000000E+00  0.00000000000E+00  0.15079458405E+03  0.15079458405E+03  0.00000000000E+00 0. -1.
          1   -1    0    0  503    0 -0.00000000000E+00 -0.00000000000E+00 -0.26083418463E+03  0.26083418463E+03  0.00000000000E+00 0. -1.
         23    2    1    2    0    0 -0.21925593069E+02  0.78145131601E+02 -0.18734375423E+03  0.22352163734E+03  0.90977177816E+02 0.  0.
         23    2    1    2    0    0 -0.10662919684E+02 -0.29124725760E+02  0.50325637177E+02  0.10989040527E+03  0.92635219582E+02 0.  0.
        -11    1    3    3    0    0 -0.33297725712E+02 -0.61538363874E+01 -0.32957048186E+02  0.47252251428E+02  0.00000000000E+00 0.  1.
         11    1    3    3    0    0  0.11372132643E+02  0.84298967989E+02 -0.15438670605E+03  0.17626938591E+03  0.00000000000E+00 0. -1.
        -13    1    4    4    0    0  0.24245479577E+02 -0.49857890625E+02  0.18988320873E+02  0.58602123401E+02  0.00000000000E+00 0.  1.
         13    1    4    4    0    0 -0.34908399261E+02  0.20733164865E+02  0.31337316304E+02  0.51288281872E+02  0.00000000000E+00 0. -1.
         21    1    1    2  503  502  0.21040581834E+02 -0.80091940568E+01 -0.71559973863E+01  0.23623326860E+02  0.00000000000E+00 0. -1.
          1    1    1    2  501    0  0.11547930918E+02 -0.41011211784E+02  0.34134513865E+02  0.54593399210E+02  0.00000000000E+00 0. -1.
<scales pt_clust_5="13000.00000" pt_clust_6="13000.00000" pt_clust_7="13000.00000" pt_clust_8="13000.00000" pt_clust_9="22.51341" pt_clust_10="13000.00000"></scales>
<clustering>
<clus scale="   22.513">  1  9  2 -1</clus>
<clus scale="   90.977">  5  6 -1 -1</clus>
<clus scale="   92.635">  7  8 -1 -1</clus>
<clus scale="   47.117">  7 10 -1 -1</clus>
<clus scale="  120.816">  2  5  1 -1</clus>
<clus scale="   22.513">  1  5  2 -1</clus>
</clustering>
</event>
<event>
10    2  0.5692308E-006  0.3207070E+03  0.7546771E-02  0.1103838E+00
          1   -1    0    0  502    0 -0.00000000000E+00  0.00000000000E+00  0.12941568365E+04  0.12941568365E+04  0.00000000000E+00 0. -1.
         21   -1    0    0  503  502  0.00000000000E+00 -0.00000000000E+00 -0.49391091748E+02  0.49391091748E+02  0.00000000000E+00 0.  1.
         23    2    1    2    0    0 -0.30708589564E+02  0.11142994514E+03  0.32226221657E+03  0.35328871914E+03  0.87179886977E+02 0.  0.
         23    2    1    2    0    0  0.36792586089E+02 -0.20439603034E+03  0.48746055107E+03  0.53787846603E+03  0.92542010758E+02 0.  0.
        -11    1    3    3    0    0  0.54739438868E+01  0.63731633262E+02  0.25650264057E+03  0.26435826024E+03  0.00000000000E+00 0.  1.
         11    1    3    3    0    0 -0.36182533451E+02  0.47698311880E+02  0.65759576000E+02  0.88930458893E+02  0.00000000000E+00 0. -1.
        -11    1    4    4    0    0  0.28745490715E+02 -0.14686392292E+03  0.23336220996E+03  0.27722416224E+03  0.00000000000E+00 0.  1.
         11    1    4    4    0    0  0.80470953735E+01 -0.57532107425E+02  0.25409834111E+03  0.26065430379E+03  0.00000000000E+00 0. -1.
         21    1    1    2  503  501 -0.22149662931E+02  0.15738610953E+02  0.33358563386E+02  0.43024472035E+02  0.00000000000E+00 0.  1.
          1    1    1    2  501    0  0.16065666407E+02  0.77227474247E+02  0.40168441368E+03  0.40935627101E+03  0.00000000000E+00 0. -1.
<scales pt_clust_5="13000.00000" pt_clust_6="13000.00000" pt_clust_7="13000.00000" pt_clust_8="13000.00000" pt_clust_9="27.17189" pt_clust_10="13000.00000"></scales>
<clustering>
<clus scale="   27.172">  2  9  1 -1</clus>
<clus scale="   87.180">  5  6 -1 -1</clus>
<clus scale="   92.542">  7  8 -1 -1</clus>
<clus scale="   79.848">  7 10 -1 -1</clus>
<clus scale="  150.812">  1  5  2 -1</clus>
<clus scale="   27.172">  2  5  1 -1</clus>
</clustering>
</event>
<event>
10    2  0.5692308E-006  0.3072807E+03  0.7546771E-02  0.1113727E+00
         21   -1    0    0  501  502  0.00000000000E+00  0.00000000000E+00  0.65950641802E+02  0.65950641802E+02  0.00000000000E+00 0. -1.
          2   -1    0    0  503    0 -0.00000000000E+00 -0.00000000000E+00 -0.93126235747E+03  0.93126235747E+03  0.00000000000E+00 0. -1.
         23    2    1    2    0    0 -0.95516968910E+02  0.36092273257E+02 -0.32795298693E+03  0.35337163235E+03  0.83019307270E+02 0.  0.
         23    2    1    2    0    0  0.13647190202E+03 -0.47681062846E+02 -0.55291972947E+03  0.57892075157E+03  0.92363118011E+02 0.  0.
        -11    1    4    4    0    0 -0.87385973311E+01 -0.21944426399E+02 -0.91969220628E+02  0.94953980834E+02  0.00000000000E+00 0.  1.
         11    1    4    4    0    0  0.14521049935E+03 -0.25736636447E+02 -0.46095050884E+03  0.48396677073E+03  0.00000000000E+00 0. -1.
        -13    1    3    3    0    0 -0.44865047788E+02  0.57064026288E+02 -0.22922625510E+03  0.24044511149E+03  0.00000000000E+00 0.  1.
         13    1    3    3    0    0 -0.50651921122E+02 -0.20971753031E+02 -0.98726731822E+02  0.11292652087E+03  0.00000000000E+00 0. -1.
         21    1    1    2  503  502 -0.81452361745E+00  0.21374442432E+02  0.22236835668E+01  0.21505232075E+02  0.00000000000E+00 0. -1.
          2    1    1    2  501    0 -0.40140409488E+02 -0.97856528432E+01  0.13337317163E+02  0.43415383271E+02  0.00000000000E+00 0. -1.
<scales pt_clust_5="13000.00000" pt_clust_6="13000.00000" pt_clust_7="13000.00000" pt_clust_8="13000.00000" pt_clust_9="21.38996" pt_clust_10="13000.00000"></scales>
<clustering>
<clus scale="   21.390">  1  9  2 -1</clus>
<clus scale="   83.019">  7  8 -1 -1</clus>
<clus scale="   92.363">  5  6 -1 -1</clus>
<clus scale="   40.593">  5 10 -1 -1</clus>
<clus scale="  133.202">  2  7  1 -1</clus>
<clus scale="   21.390">  1  5  2 -1</clus>
</clustering>
</event>
<event>
10    2  0.6357117E-006  0.1837398E+03  0.7546771E-02  0.1187836E+00
         21   -1    0    0  503  502  0.00000000000E+00  0.00000000000E+00  0.47389142003E+03  0.47389142003E+03  0.00000000000E+00 0. -1.
         -3   -1    0    0    0  501 -0.00000000000E+00 -0.00000000000E+00 -0.43569474083E+03  0.43569474083E+03  0.00000000000E+00 0.  1.
         23    2    1    2    0    0 -0.61291321535E+02 -0.51719069894E+02 -0.39991480225E+02  0.12765774963E+03  0.90915863660E+02 0.  0.
         23    2    1    2    0    0 -0.97522643638E+00  0.43360193036E+02 -0.23447420618E+03  0.25476647401E+03  0.89703653804E+02 0.  0.
        -11    1    3    3    0    0 -0.25845796736E+02 -0.30576294658E+02 -0.67201012016E+02  0.78223340634E+02  0.00000000000E+00 0.  1.
         11    1    3    3    0    0 -0.35445524798E+02 -0.21142775236E+02  0.27209531792E+02  0.49434409000E+02  0.00000000000E+00 0. -1.
        -13    1    4    4    0    0  0.38715694049E+02 -0.22023063475E+01 -0.10346947211E+03  0.11049745145E+03  0.00000000000E+00 0.  1.
         13    1    4    4    0    0 -0.39690920485E+02  0.45562499384E+02 -0.13100473408E+03  0.14426902256E+03  0.00000000000E+00 0. -1.
         21    1    1    2  503  501  0.75557741094E+01  0.61042171778E+02  0.40383797303E+03  0.40849522019E+03  0.00000000000E+00 0. -1.
         -3    1    1    2    0  502  0.54710773862E+02 -0.52683294921E+02 -0.91175607427E+02  0.11866671703E+03  0.00000000000E+00 0.  1.
<scales pt_clust_5="13000.00000" pt_clust_6="13000.00000" pt_clust_7="13000.00000" pt_clust_8="13000.00000" pt_clust_9="61.50802" pt_clust_10="13000.00000"></scales>
<clustering>
<clus scale="   61.508">  1  9  2 -1</clus>
<clus scale="   89.704">  7  8 -1 -1</clus>
<clus scale="   69.188">  7 10 -1 -1</clus>
<clus scale="   90.916">  5  6 -1 -1</clus>
<clus scale="  107.684">  2  5  1 -1</clus>
<clus scale="   61.508">  1  5  2 -1</clus>
</clustering>
</event>
<event>
10    2  0.5692308E-006  0.6834715E+03  0.7546771E-02  0.1012848E+00
         21   -1    0    0  501  502  0.00000000000E+00  0.00000000000E+00  0.65038563298E+03  0.65038563298E+03  0.00000000000E+00 0.  1.
          2   -1    0    0  503    0 -0.00000000000E+00 -0.00000000000E+00 -0.14925368448E+04  0.14925368448E+04  0.00000000000E+00 0. -1.
         23    2    1    2    0    0  0.14173969766E+03 -0.10952724425E+03 -0.25681246575E+03  0.32638218986E+03  0.92121290524E+02 0.  0.
         23    2    1    2    0    0 -0.13912294006E+02  0.13270306761E+03 -0.55928136295E+03  0.58194898909E+03  0.89807164979E+02 0.  0.
        -11    1    4    4    0    0  0.36884064035E+02  0.45346631370E+02 -0.24225159895E+03  0.24920390918E+03  0.00000000000E+00 0.  1.
         11    1    4    4    0    0 -0.50796358040E+02  0.87356436241E+02 -0.31702976401E+03  0.33274507992E+03  0.00000000000E+00 0. -1.
        -13    1    3    3    0    0  0.12983300760E+03 -0.74304511288E+02 -0.14414821847E+03  0.20774137563E+03  0.00000000000E+00 0.  1.
         13    1    3    3    0    0  0.11906690054E+02 -0.35222732959E+02 -0.11266424728E+03  0.11864081423E+03  0.00000000000E+00 0. -1.
         21    1    1    2  503  502  0.36705618400E+03  0.97536036696E+02  0.41372866148E+03  0.56161813183E+03  0.00000000000E+00 0.  1.
          2    1    1    2  501    0 -0.49488358766E+03 -0.12071186006E+03 -0.43978604463E+03  0.67297316703E+03  0.00000000000E+00 0. -1.
<scales pt_clust_5="13000.00000" pt_clust_6="13000.00000" pt_clust_7="13000.00000" pt_clust_8="13000.00000" pt_clust_9="386.59593" pt_clust_10="13000.00000"></scales>
<clustering>
<clus scale="   89.807">  5  6 -1 -1</clus>
<clus scale="   92.121">  7  8 -1 -1</clus>
<clus scale="  201.427">  2  7  1 -1</clus>
<clus scale="  386.596">  1  9  2 -1</clus>
<clus scale="  180.365">  5 10 -1 -1</clus>
<clus scale="  386.596">  1  5  2 -1</clus>
</clustering>
</event>
<event>
10    2  0.5692308E-006  0.1747592E+03  0.7546771E-02  0.1187914E+00
         21   -1    0    0  501  502  0.00000000000E+00  0.00000000000E+00  0.16851237993E+03  0.16851237993E+03  0.00000000000E+00 0.  1.
         -3   -1    0    0    0  501 -0.00000000000E+00 -0.00000000000E+00 -0.63045833975E+03  0.63045833975E+03  0.00000000000E+00 0.  1.
         23    2    1    2    0    0  0.94388283543E+02  0.51883423104E+02 -0.33184273819E+03  0.36210693956E+03  0.96957697605E+02 0.  0.
         23    2    1    2    0    0 -0.22214936222E+02  0.19260411436E+02 -0.25228079440E+03  0.26961381269E+03  0.90451876330E+02 0.  0.
        -11    1    3    3    0    0  0.60633356587E+02  0.40620593162E+02 -0.31386605535E+03  0.32223956495E+03  0.00000000000E+00 0.  1.
         11    1    3    3    0    0  0.33754926956E+02  0.11262829942E+02 -0.17976682838E+02  0.39867374606E+02  0.00000000000E+00 0. -1.
        -11    1    4    4    0    0 -0.15103374861E+02 -0.21026063597E+02 -0.17389221978E+02  0.31186412483E+02  0.00000000000E+00 0. -1.
         11    1    4    4    0    0 -0.71115613612E+01  0.40286475033E+02 -0.23489157242E+03  0.23842740021E+03  0.00000000000E+00 0.  1.
         21    1    1    2  503  502 -0.51183992469E+02 -0.73653960263E+02  0.11283022198E+03  0.14413662248E+03  0.00000000000E+00 0.  1.
         -3    1    1    2    0  503 -0.20989354852E+02  0.25101257229E+01  0.93473507827E+01  0.23113344952E+02  0.00000000000E+00 0.  1.
<scales pt_clust_5="13000.00000" pt_clust_6="13000.00000" pt_clust_7="13000.00000" pt_clust_8="13000.00000" pt_clust_9="89.69229" pt_clust_10="13000.00000"></scales>
<clustering>
<clus scale="   89.692">  1  9  2 -1</clus>
<clus scale="   90.452">  7  8 -1 -1</clus>
<clus scale="   49.907">  7 10 -1 -1</clus>
<clus scale="   96.958">  5  6 -1 -1</clus>
<clus scale="  124.938">  2  5  1 -1</clus>
<clus scale="   89.692">  1  5  2 -1</clus>
</clustering>
</event>
<event>
10    2  0.5692308E-006  0.1577603E+03  0.7546771E-02  0.1206940E+00
         -2   -1    0    0    0  501 -0.00000000000E+00  0.00000000000E+00  0.31209387807E+03  0.31209387807E+03  0.00000000000E+00 0.  1.
         21   -1    0    0  503  502  0.00000000000E+00 -0.00000000000E+00 -0.12717805917E+03  0.12717805917E+03  0.00000000000E+00 0. -1.
         23    2    1    2    0    0  0.53143130082E+02  0.40823979890E+02  0.70839968345E+02  0.13686642326E+03  0.96038154360E+02 0.  0.
         23    2    1    2    0    0 -0.21031819883E+02 -0.61299563597E+02  0.18189248076E+03  0.21375920207E+03  0.91695953940E+02 0.  0.
        -11    1    3    3    0    0  0.20689815850E+02  0.53265837708E+02 -0.90041133789E+00  0.57150054131E+02  0.00000000000E+00 0. -1.
         11    1    3    3    0    0  0.32453314232E+02 -0.12441857818E+02  0.71740379683E+02  0.79716369133E+02  0.00000000000E+00 0.  1.
        -11    1    4    4    0    0 -0.90750517195E+01 -0.82244091008E+02  0.10814377143E+03  0.13616725880E+03  0.00000000000E+00 0.  1.
         11    1    4    4    0    0 -0.11956768163E+02  0.20944527411E+02  0.73748709329E+02  0.77591943274E+02  0.00000000000E+00 0. -1.
         21    1    1    2  503  501 -0.24014667213E+02  0.11796578065E+01 -0.62631050546E+02  0.67087586977E+02  0.00000000000E+00 0. -1.
         -2    1    1    2    0  502 -0.80966429867E+01  0.19295925900E+02 -0.51855796623E+01  0.21558724926E+02  0.00000000000E+00 0.  1.
<scales pt_clust_5="13000.00000" pt_clust_6="13000.00000" pt_clust_7="13000.00000" pt_clust_8="13000.00000" pt_clust_9="24.04362" pt_clust_10="13000.00000"></scales>
<clustering>
<clus scale="   24.044">  2  9  1 -1</clus>
<clus scale="   91.696">  7  8 -1 -1</clus>
<clus scale="   23.616">  7 10 -1 -1</clus>
<clus scale="   96.038">  5  6 -1 -1</clus>
<clus scale="  112.139">  1  5  2 -1</clus>
<clus scale="   24.044">  2  5  1 -1</clus>
</clustering>
</event>
<event>
10    2  0.5692308E-006  0.2378668E+03  0.7546771E-02  0.1156817E+00
          1   -1    0    0  503    0 -0.00000000000E+00  0.00000000000E+00  0.51392580106E+03  0.51392580106E+03  0.00000000000E+00 0. -1.
         21   -1    0    0  501  502  0.00000000000E+00 -0.00000000000E+00 -0.99632983030E+02  0.99632983030E+02  0.00000000000E+00 0.  1.
         23    2    1    2    0    0  0.25019330494E+02  0.23059405356E+02  0.21163042685E+03  0.23435065692E+03  0.94736950314E+02 0.  0.
         23    2    1    2    0    0  0.45194629412E+02  0.50888694113E+02  0.48387639541E+02  0.12919571491E+03  0.98579690480E+02 0.  0.
        -11    1    3    3    0    0  0.25175297848E+02  0.58289707304E+02  0.15691057320E+03  0.16927023832E+03  0.00000000000E+00 0.  1.
         11    1    3    3    0    0 -0.15596735360E+00 -0.35230301948E+02  0.54719853654E+02  0.65080418599E+02  0.00000000000E+00 0. -1.
        -13    1    4    4    0    0  0.28044152497E+02 -0.20160324760E+02  0.44051928653E+02  0.55977545514E+02  0.00000000000E+00 0. -1.
         13    1    4    4    0    0  0.17150476915E+02  0.71049018872E+02  0.43357108872E+01  0.73218169398E+02  0.00000000000E+00 0.  1.
         21    1    1    2  503  502 -0.56708795858E+02  0.43683560692E+02  0.27879180168E+02  0.76820503052E+02  0.00000000000E+00 0.  1.
          1    1    1    2  501    0 -0.13505164049E+02 -0.11763166016E+03  0.12639557147E+03  0.17319190921E+03  0.00000000000E+00 0. -1.
<scales pt_clust_5="13000.00000" pt_clust_6="13000.00000" pt_clust_7="13000.00000" pt_clust_8="13000.00000" pt_clust_9="71.58311" pt_clust_10="13000.00000"></scales>
<clustering>
<clus scale="   71.583">  2  9  1 -1</clus>
<clus scale="   94.737">  5  6 -1 -1</clus>
<clus scale="   98.580">  7  8 -1 -1</clus>
<clus scale="  100.625">  1  5  2 -1</clus>
<clus scale="   91.830">  7 10 -1 -1</clus>
<clus scale="   71.583">  2  5  1 -1</clus>
</clustering>
</event>
<event>
10    2  0.5692308E-006  0.1464342E+03  0.7546771E-02  0.1215233E+00
         21   -1    0    0  501  502  0.00000000000E+00  0.00000000000E+00  0.58440683363E+03  0.58440683363E+03  0.00000000000E+00 0. -1.
          2   -1    0    0  503    0 -0.00000000000E+00 -0.00000000000E+00 -0.46633294867E+02  0.46633294867E+02  0.00000000000E+00 0.  1.
         23    2    1    2    0    0 -0.30616911510E+02  0.62797057300E+02  0.18811382514E+03  0.22125951622E+03  0.93209959945E+02 0.  0.
         23    2    1    2    0    0 -0.65333300154E+01 -0.30607524263E+02  0.77681095160E+02  0.12373036936E+03  0.91078794535E+02 0.  0.
        -11    1    4    4    0    0  0.24792047881E+02 -0.28898265562E+02 -0.19670887460E+01  0.38126432153E+02  0.00000000000E+00 0.  1.
         11    1    4    4    0    0 -0.31325377896E+02 -0.17092587003E+01  0.79648183906E+02  0.85603937206E+02  0.00000000000E+00 0. -1.
        -13    1    3    3    0    0 -0.28638398725E+02 -0.16852499763E+01  0.13405895932E+03  0.13709413745E+03  0.00000000000E+00 0. -1.
         13    1    3    3    0    0 -0.19785127845E+01  0.64482307277E+02  0.54054865818E+02  0.84165378768E+02  0.00000000000E+00 0.  1.
         21    1    1    2  503  502  0.22931561752E+02  0.12042403923E+02  0.19052469968E+03  0.19227724048E+03  0.00000000000E+00 0. -1.
          2    1    1    2  501    0  0.14218679773E+02 -0.44231936960E+02  0.81453918780E+02  0.93773002439E+02  0.00000000000E+00 0.  1.
<scales pt_clust_5="13000.00000" pt_clust_6="13000.00000" pt_clust_7="13000.00000" pt_clust_8="13000.00000" pt_clust_9="25.90127" pt_clust_10="13000.00000"></scales>
<clustering>
<clus scale="   25.901">  1  9  2 -1</clus>
<clus scale="   91.079">  5  6 -1 -1</clus>
<clus scale="   45.824">  5 10 -1 -1</clus>
<clus scale="   93.210">  7  8 -1 -1</clus>
<clus scale="  117.505">  2  7  1 -1</clus>
<clus scale="   25.901">  1  5  2 -1</clus>
</clustering>
</event>
<event>
10    2  0.5692308E-006  0.1215847E+03  0.7546771E-02  0.1253635E+00
         21   -1    0    0  503  502  0.00000000000E+00  0.00000000000E+00  0.57838119875E+03  0.57838119875E+03  0.00000000000E+00 0. -1.
         -2   -1    0    0    0  501 -0.00000000000E+00 -0.00000000000E+00 -0.16447425976E+03  0.16447425976E+03  0.00000000000E+00 0.  1.
         23    2    1    2    0    0 -0.36996748610E+02 -0.24948259609E+01 -0.77595584482E+02  0.12557950050E+03  0.91510396405E+02 0.  0.
         23    2    1    2    0    0 -0.27232670654E+02 -0.14667033097E+02 -0.93529722603E+00  0.97286729286E+02  0.92233902137E+02 0.  0.
        -11    1    3    3    0    0 -0.68944837116E+01  0.33610208666E+02 -0.70007951765E+02  0.77963410281E+02  0.00000000000E+00 0.  1.
         11    1    3    3    0    0 -0.30102264899E+02 -0.36105034627E+02 -0.75876327169E+01  0.47616090219E+02  0.00000000000E+00 0. -1.
        -11    1    4    4    0    0  0.60305740429E+01  0.21590835480E+02  0.31273327231E+02  0.38477954677E+02  0.00000000000E+00 0. -1.
         11    1    4    4    0    0 -0.33263244697E+02 -0.36257868578E+02 -0.32208624457E+02  0.58808774609E+02  0.00000000000E+00 0.  1.
         21    1    1    2  503  501  0.70257723435E+02 -0.96365510292E+01  0.48681303411E+03  0.49195115712E+03  0.00000000000E+00 0. -1.
         -2    1    1    2    0  502 -0.60283041709E+01  0.26798410088E+02  0.56247865889E+01  0.28038071591E+02  0.00000000000E+00 0.  1.
<scales pt_clust_5="13000.00000" pt_clust_6="13000.00000" pt_clust_7="13000.00000" pt_clust_8="13000.00000" pt_clust_9="70.91552" pt_clust_10="13000.00000"></scales>
<clustering>
<clus scale="   70.916">  1  9  2 -1</clus>
<clus scale="   91.510">  5  6 -1 -1</clus>
<clus scale="   92.234">  7  8 -1 -1</clus>
<clus scale="   26.009">  7 10 -1 -1</clus>
<clus scale="   93.414">  2  5  1 -1</clus>
<clus scale="   70.916">  1  5  2 -1</clus>
</clustering>
</event>
<event>
10    2  0.5692308E-006  0.2175636E+03  0.7546771E-02  0.1163835E+00
          3   -1    0    0  503    0 -0.00000000000E+00  0.00000000000E+00  0.23336305199E+03  0.23336305199E+03  0.00000000000E+00 0. -1.
         21   -1    0    0  501  502  0.00000000000E+00 -0.00000000000E+00 -0.17162903440E+03  0.17162903440E+03  0.00000000000E+00 0.  1.
         23    2    1    2    0    0 -0.29043700502E+02  0.48032854395E+02  0.41712268114E+02  0.11643823145E+03  0.93098103055E+02 0.  0.
         23    2    1    2    0    0 -0.21483384909E+02 -0.46665221339E+02  0.12044952432E+03  0.15956525868E+03  0.91180069960E+02 0.  0.
        -11    1    3    3    0    0  0.33675863048E+02  0.24115867984E+02  0.19048754739E+02  0.45590502276E+02  0.00000000000E+00 0. -1.
         11    1    3    3    0    0 -0.62719563551E+02  0.23916986411E+02  0.22663513374E+02  0.70847729176E+02  0.00000000000E+00 0.  1.
        -11    1    4    4    0    0 -0.24993902038E+02  0.93393222859E+01  0.93655417184E+02  0.97382006797E+02  0.00000000000E+00 0.  1.
         11    1    4    4    0    0  0.35105171292E+01 -0.56004543624E+02  0.26794107134E+02  0.62183251879E+02  0.00000000000E+00 0. -1.
         21    1    1    2  503  502  0.10927777970E+00  0.20305141478E+02 -0.51902464677E+02  0.55733083098E+02  0.00000000000E+00 0. -1.
          3    1    1    2  501    0  0.50417807632E+02 -0.21672774535E+02 -0.48525310162E+02  0.73255513163E+02  0.00000000000E+00 0. -1.
<scales pt_clust_5="13000.00000" pt_clust_6="13000.00000" pt_clust_7="13000.00000" pt_clust_8="13000.00000" pt_clust_9="20.30544" pt_clust_10="13000.00000"></scales>
<clustering>
<clus scale="   20.305">  2  9  1 -1</clus>
<clus scale="   91.180">  7  8 -1 -1</clus>
<clus scale="   51.697">  7 10 -1 -1</clus>
<clus scale="   93.098">  5  6 -1 -1</clus>
<clus scale="  111.696">  1  5  2 -1</clus>
<clus scale="   20.305">  2  5  1 -1</clus>
</clustering>
</event>
<event>
10    2  0.5692308E-006  0.1714336E+03  0.7546771E-02  0.1176700E+00
          1   -1    0    0  503    0 -0.00000000000E+00  0.00000000000E+00  0.18918519192E+04  0.18918519192E+04  0.00000000000E+00 0. -1.
         21   -1    0    0  501  502  0.00000000000E+00 -0.00000000000E+00 -0.42099341811E+02  0.42099341811E+02  0.00000000000E+00 0. -1.
         23    2    1    2    0    0 -0.45539190477E+02  0.19379982688E+03  0.93994677325E+03  0.96502914445E+03  0.90272489369E+02 0.  0.
         23    2    1    2    0    0  0.72793024375E+02 -0.27972612974E+02  0.17591447481E+03  0.20528065525E+03  0.71504919401E+02 0.  0.
        -13    1    4    4    0    0  0.43151200584E+02 -0.22135034317E+02  0.16682565739E+03  0.17373193667E+03  0.00000000000E+00 0.  1.
         13    1    4    4    0    0  0.29641823791E+02 -0.58375786569E+01  0.90888174275E+01  0.31548718587E+02  0.00000000000E+00 0. -1.
        -13    1    3    3    0    0 -0.15211644998E+02  0.61910896889E+02  0.14155142144E+03  0.15524547726E+03  0.00000000000E+00 0.  1.
         13    1    3    3    0    0 -0.30327545479E+02  0.13188892999E+03  0.79839535181E+03  0.80978366720E+03  0.00000000000E+00 0. -1.
         21    1    1    2  503  502 -0.52194746326E+02 -0.16398652144E+03  0.70370025496E+03  0.72443765749E+03  0.00000000000E+00 0. -1.
          1    1    1    2  501    0  0.24940912428E+02 -0.18406924675E+01  0.30191074348E+02  0.39203803793E+02  0.00000000000E+00 0. -1.
<scales pt_clust_5="13000.00000" pt_clust_6="13000.00000" pt_clust_7="13000.00000" pt_clust_8="13000.00000" pt_clust_9="172.09271" pt_clust_10="13000.00000"></scales>
<clustering>
<clus scale="   71.505">  5  6 -1 -1</clus>
<clus scale="   25.009">  5 10 -1 -1</clus>
<clus scale="   90.272">  7  8 -1 -1</clus>
<clus scale="  172.093">  2  9  1 -1</clus>
<clus scale="  172.093">  2  5  1 -1</clus>
<clus scale="  171.434">  2  5  1 -1</clus>
</clustering>
</event>
<event>
10    2  0.5692308E-006  0.7138196E+03  0.7546771E-02  0.9975628E-01
         21   -1    0    0  503  502  0.00000000000E+00  0.00000000000E+00  0.54705401530E+03  0.54705401530E+03  0.00000000000E+00 0. -1.
          2   -1    0    0  502    0 -0.00000000000E+00 -0.00000000000E+00 -0.59455720199E+03  0.59455720199E+03  0.00000000000E+00 0. -1.
         23    2    1    2    0    0  0.69590978204E+02  0.26996953943E+03 -0.18015820275E+03  0.34064822698E+03  0.76536135629E+02 0.  0.
         23    2    1    2    0    0  0.15920300952E+03  0.11529284935E+03 -0.12739444784E+03  0.25235515448E+03  0.93892168473E+02 0.  0.
        -13    1    3    3    0    0 -0.16552832416E+02  0.44184908631E+02 -0.24137215800E+02  0.52999128278E+02  0.00000000000E+00 0.  1.
         13    1    3    3    0    0  0.86143810619E+02  0.22578463080E+03 -0.15602098695E+03  0.28764909870E+03  0.00000000000E+00 0. -1.
        -13    1    4    4    0    0  0.10770470380E+03  0.85599402621E+02 -0.13460539082E+03  0.19247382208E+03  0.00000000000E+00 0. -1.
         13    1    4    4    0    0  0.51498305725E+02  0.29693446734E+02  0.72109429800E+01  0.59881332401E+02  0.00000000000E+00 0.  1.
         21    1    1    2  503  501 -0.12320491701E+02 -0.23016232944E+02  0.89873091096E+02  0.93588001356E+02  0.00000000000E+00 0.  1.
          2    1    1    2  501    0 -0.21647349602E+03 -0.36224615584E+03  0.17017637280E+03  0.45501983447E+03  0.00000000000E+00 0. -1.
<scales pt_clust_5="13000.00000" pt_clust_6="13000.00000" pt_clust_7="13000.00000" pt_clust_8="13000.00000" pt_clust_9="26.10635" pt_clust_10="13000.00000"></scales>
<clustering>
<clus scale="   26.106">  1  9  2 -1</clus>
<clus scale="   76.536">  5  6 -1 -1</clus>
<clus scale="   93.892">  7  8 -1 -1</clus>
<clus scale="  284.803">  2  5  1 -1</clus>
<clus scale="  321.945">  7 10 -1 -1</clus>
<clus scale="   26.106">  1  5  2 -1</clus>
</clustering>
</event>
<event>
10    2  0.5692308E-006  0.2565678E+03  0.7546771E-02  0.1111115E+00
         21   -1    0    0  503  502  0.00000000000E+00  0.00000000000E+00  0.43569562192E+03  0.43569562192E+03  0.00000000000E+00 0. -1.
          2   -1    0    0  502    0 -0.00000000000E+00 -0.00000000000E+00 -0.10998456446E+04  0.10998456446E+04  0.00000000000E+00 0. -1.
         23    2    1    2    0    0 -0.22476856415E+03  0.42926070651E+02 -0.68334480221E+03  0.72618432964E+03  0.89554491412E+02 0.  0.
         23    2    1    2    0    0  0.18160574974E+03 -0.74289638926E+02 -0.30987459737E+03  0.37877236072E+03  0.94586660579E+02 0.  0.
        -11    1    3    3    0    0 -0.29441962131E+02 -0.48002166241E+01 -0.28850465477E+02  0.41499645444E+02  0.00000000000E+00 0.  1.
         11    1    3    3    0    0 -0.19532660202E+03  0.47726287275E+02 -0.65449433673E+03  0.68468468419E+03  0.00000000000E+00 0. -1.
        -13    1    4    4    0    0  0.12668119958E+02 -0.44048536621E+02 -0.56670774674E+02  0.72885743077E+02  0.00000000000E+00 0. -1.
         13    1    4    4    0    0  0.16893762978E+03 -0.30241102305E+02 -0.25320382270E+03  0.30588661765E+03  0.00000000000E+00 0.  1.
         21    1    1    2  503  501  0.19793036640E+02  0.64759749790E+02  0.36802433426E+03  0.37420248543E+03  0.00000000000E+00 0. -1.
          2    1    1    2  501    0  0.23369777772E+02 -0.33396181515E+02 -0.38954957397E+02  0.56382090762E+02  0.00000000000E+00 0. -1.
<scales pt_clust_5="13000.00000" pt_clust_6="13000.00000" pt_clust_7="13000.00000" pt_clust_8="13000.00000" pt_clust_9="67.71698" pt_clust_10="13000.00000"></scales>
<clustering>
<clus scale="   67.717">  1  9  2 -1</clus>
<clus scale="   89.554">  5  6 -1 -1</clus>
<clus scale="   94.587">  7  8 -1 -1</clus>
<clus scale="   35.863">  7 10 -1 -1</clus>
<clus scale="  244.501">  2  5  1 -1</clus>
<clus scale="   67.717">  1  5  2 -1</clus>
</clustering>
</event>
<event>
10    2  0.5692308E-006  0.3523396E+03  0.7546771E-02  0.1075415E+00
          1   -1    0    0  503    0 -0.00000000000E+00  0.00000000000E+00  0.14829885102E+04  0.14829885102E+04  0.00000000000E+00 0. -1.
         21   -1    0    0  501  502  0.00000000000E+00 -0.00000000000E+00 -0.82259136078E+02  0.82259136078E+02  0.00000000000E+00 0. -1.
         23    2    1    2    0    0  0.16867408395E+03  0.14341705632E+03  0.91674164965E+03  0.94745687780E+03  0.90773809273E+02 0.  0.
         23    2    1    2    0    0 -0.46440615269E+02  0.57671126363E+02  0.11591084684E+03  0.16436710786E+03  0.89991845010E+02 0.  0.
        -11    1    3    3    0    0  0.12893726859E+03  0.14795811061E+03  0.81088143507E+03  0.83429318796E+03  0.00000000000E+00 0. -1.
         11    1    3    3    0    0  0.39736815358E+02 -0.45410542844E+01  0.10586021458E+03  0.11316368984E+03  0.00000000000E+00 0.  1.
        -13    1    4    4    0    0  0.95154899232E+01  0.36895328946E+02  0.50190498845E+01  0.38431766915E+02  0.00000000000E+00 0. -1.
         13    1    4    4    0    0 -0.55956105193E+02  0.20775797417E+02  0.11089179696E+03  0.12593534094E+03  0.00000000000E+00 0.  1.
         21    1    1    2  503  502  0.22364704012E+02 -0.97338612757E+01  0.43110904739E+02  0.49532596826E+02  0.00000000000E+00 0. -1.
          1    1    1    2  501    0 -0.14459817269E+03 -0.19135432141E+03  0.32496597287E+03  0.40389106376E+03  0.00000000000E+00 0. -1.
<scales pt_clust_5="13000.00000" pt_clust_6="13000.00000" pt_clust_7="13000.00000" pt_clust_8="13000.00000" pt_clust_9="24.39115" pt_clust_10="13000.00000"></scales>
<clustering>
<clus scale="   24.391">  2  9  1 -1</clus>
<clus scale="   89.992">  7  8 -1 -1</clus>
<clus scale="   90.774">  5  6 -1 -1</clus>
<clus scale="  237.285">  7 10 -1 -1</clus>
<clus scale="  241.257">  1  5  2 -1</clus>
<clus scale="   24.391">  2  5  1 -1</clus>
</clustering>
</event>
<event>
10    2  0.5692308E-006  0.2296881E+03  0.7546771E-02  0.1153724E+00
         -4   -1    0    0    0  501 -0.00000000000E+00  0.00000000000E+00  0.34726290771E+03  0.34726290771E+03  0.00000000000E+00 0.  1.
         21   -1    0    0  503  502  0.00000000000E+00 -0.00000000000E+00 -0.12632978533E+03  0.12632978533E+03  0.00000000000E+00 0.  1.
         23    2    1    2    0    0 -0.72299895396E+02  0.28741912522E+02  0.13629752297E+03  0.18193935530E+03  0.92040979078E+02 0.  0.
         23    2    1    2    0    0  0.14346333657E+02 -0.71177333937E+02  0.11395024446E+03  0.16229100635E+03  0.89898177811E+02 0.  0.
        -11    1    4    4    0    0  0.12526758116E+02 -0.49904131916E+02  0.12716618218E+03  0.13718082935E+03  0.00000000000E+00 0.  1.
         11    1    4    4    0    0  0.18195755412E+01 -0.21273202022E+02 -0.13215937716E+02  0.25110177003E+02  0.00000000000E+00 0. -1.
        -13    1    3    3    0    0 -0.11909755032E+02 -0.22545612828E+02  0.14508618935E+01  0.25539223225E+02  0.00000000000E+00 0.  1.
         13    1    3    3    0    0 -0.60390140364E+02  0.51287525350E+02  0.13484666107E+03  0.15640013207E+03  0.00000000000E+00 0. -1.
         21    1    1    2  503  501 -0.63717586200E+01 -0.24704381534E+02 -0.25845282046E+02  0.36316447774E+02  0.00000000000E+00 0.  1.
         -4    1    1    2    0  502  0.64325320359E+02  0.67139802950E+02 -0.34693630014E+01  0.93045883622E+02  0.00000000000E+00 0.  1.
<scales pt_clust_5="13000.00000" pt_clust_6="13000.00000" pt_clust_7="13000.00000" pt_clust_8="13000.00000" pt_clust_9="25.51286" pt_clust_10="13000.00000"></scales>
<clustering>
<clus scale="   25.513">  2  9  1 -1</clus>
<clus scale="   89.898">  5  6 -1 -1</clus>
<clus scale="   81.955">  5 10 -1 -1</clus>
<clus scale="   92.041">  7  8 -1 -1</clus>
<clus scale="  120.178">  1  7  2 -1</clus>
<clus scale="   25.513">  2  5  1 -1</clus>
</clustering>
</event>
<event>
10    2  0.5692308E-006  0.2020811E+03  0.7546771E-02  0.1181195E+00
          1   -1    0    0  502    0 -0.00000000000E+00  0.00000000000E+00  0.23425504795E+03  0.23425504795E+03  0.00000000000E+00 0. -1.
         21   -1    0    0  503  502  0.00000000000E+00 -0.00000000000E+00 -0.23551711988E+03  0.23551711988E+03  0.00000000000E+00 0. -1.
         23    2    1    2    0    0  0.18885921405E+02  0.24141224951E+02  0.15622451175E+03  0.18246702537E+03  0.89155148513E+02 0.  0.
         23    2    1    2    0    0  0.26254381707E+02 -0.12523809889E+02  0.19072200659E+02  0.98414531063E+02  0.92062656454E+02 0.  0.
        -13    1    4    4    0    0  0.32767238141E+02 -0.42077920796E+02 -0.12398519739E+02  0.54753690338E+02  0.00000000000E+00 0.  1.
         13    1    4    4    0    0 -0.65128564343E+01  0.29554110907E+02  0.31470720398E+02  0.43660840725E+02  0.00000000000E+00 0. -1.
        -13    1    3    3    0    0 -0.19938167225E+02  0.22534470916E+02  0.10844019604E+02  0.31983208921E+02  0.00000000000E+00 0. -1.
         13    1    3    3    0    0  0.38824088630E+02  0.16067540347E+01  0.14538049214E+03  0.15048381645E+03  0.00000000000E+00 0.  1.
         21    1    1    2  503  501 -0.47710446584E+00 -0.21330019287E+02 -0.60808531177E+02  0.64442802665E+02  0.00000000000E+00 0. -1.
          1    1    1    2  501    0 -0.44663198646E+02  0.97126042255E+01 -0.11575025315E+03  0.12444780874E+03  0.00000000000E+00 0. -1.
<scales pt_clust_5="13000.00000" pt_clust_6="13000.00000" pt_clust_7="13000.00000" pt_clust_8="13000.00000" pt_clust_9="21.33535" pt_clust_10="13000.00000"></scales>
<clustering>
<clus scale="   21.335">  2  9  1 -1</clus>
<clus scale="   89.155">  7  8 -1 -1</clus>
<clus scale="   92.063">  5  6 -1 -1</clus>
<clus scale="   45.283">  5 10 -1 -1</clus>
<clus scale="   93.868">  1  7  2 -1</clus>
<clus scale="   21.335">  2  5  1 -1</clus>
</clustering>
</event>
<event>
10    2  0.5692308E-006  0.2210185E+03  0.7546771E-02  0.1154329E+00
          1   -1    0    0  503    0 -0.00000000000E+00  0.00000000000E+00  0.87887606287E+03  0.87887606287E+03  0.00000000000E+00 0. -1.
         21   -1    0    0  501  502  0.00000000000E+00 -0.00000000000E+00 -0.50554173307E+02  0.50554173307E+02  0.00000000000E+00 0.  1.
         23    2    1    2    0    0 -0.80246560046E+02 -0.60943509868E+02  0.29092156596E+03  0.32178679976E+03  0.93582932008E+02 0.  0.
         23    2    1    2    0    0  0.51251721239E+02 -0.52529829778E+02  0.25439285465E+03  0.28113013871E+03  0.94510890634E+02 0.  0.
        -11    1    4    4    0    0  0.11538097384E+02  0.24996318667E+02  0.31578494713E+02  0.41894450307E+02  0.00000000000E+00 0. -1.
         11    1    4    4    0    0  0.39713623854E+02 -0.77526148445E+02  0.22281435994E+03  0.23923568840E+03  0.00000000000E+00 0.  1.
        -13    1    3    3    0    0 -0.43873011798E+02  0.18058643992E+02  0.13713291996E+03  0.14510821315E+03  0.00000000000E+00 0. -1.
         13    1    3    3    0    0 -0.36373548247E+02 -0.79002153860E+02  0.15378864600E+03  0.17667858660E+03  0.00000000000E+00 0.  1.
         21    1    1    2  503  502  0.27850803561E+01  0.21833540744E+02 -0.54846968400E+01  0.22683519864E+02  0.00000000000E+00 0.  1.
          1    1    1    2  501    0  0.26209758451E+02  0.91639798902E+02  0.28849216579E+03  0.30382977784E+03  0.00000000000E+00 0. -1.
<scales pt_clust_5="13000.00000" pt_clust_6="13000.00000" pt_clust_7="13000.00000" pt_clust_8="13000.00000" pt_clust_9="22.01046" pt_clust_10="13000.00000"></scales>
<clustering>
<clus scale="   22.010">  2  9  1 -1</clus>
<clus scale="   93.583">  7  8 -1 -1</clus>
<clus scale="   94.511">  5  6 -1 -1</clus>
<clus scale="   99.892">  5 10 -1 -1</clus>
<clus scale="  132.977">  1  7  2 -1</clus>
<clus scale="   22.010">  2  5  1 -1</clus>
</clustering>
</event>
<event>
10    2  0.5692308E-006  0.4757945E+03  0.7546771E-02  0.1072292E+00
          1   -1    0    0  503    0 -0.00000000000E+00  0.00000000000E+00  0.28073652288E+03  0.28073652288E+03  0.00000000000E+00 0. -1.
         21   -1    0    0  501  502  0.00000000000E+00 -0.00000000000E+00 -0.35718590390E+03  0.35718590390E+03  0.00000000000E+00 0. -1.
         23    2    1    2    0    0  0.33895452277E+02 -0.36315354825E+02  0.53252482836E+02  0.11942736472E+03  0.94653905544E+02 0.  0.
         23    2    1    2    0    0  0.20535222938E+01  0.12023111121E+03  0.14988442685E+03  0.21274797641E+03  0.91305109375E+02 0.  0.
        -11    1    4    4    0    0 -0.23618813705E+01  0.84914677338E+02  0.33962259384E+02  0.91485058744E+02  0.00000000000E+00 0.  1.
         11    1    4    4    0    0  0.44154036643E+01  0.35316433874E+02  0.11592216746E+03  0.12126291767E+03  0.00000000000E+00 0. -1.
        -13    1    3    3    0    0  0.50724146366E+02 -0.56092579622E+02  0.54830315011E+02  0.93411348119E+02  0.00000000000E+00 0. -1.
         13    1    3    3    0    0 -0.16828694089E+02  0.19777224797E+02 -0.15778321752E+01  0.26016016601E+02  0.00000000000E+00 0.  1.
         21    1    1    2  503  502 -0.22042856771E+02 -0.13059988355E+02 -0.11458883488E+02  0.28067006276E+02  0.00000000000E+00 0. -1.
          1    1    1    2  501    0 -0.13906117799E+02 -0.70855768031E+02 -0.26812740722E+03  0.27768007937E+03  0.00000000000E+00 0. -1.
<scales pt_clust_5="13000.00000" pt_clust_6="13000.00000" pt_clust_7="13000.00000" pt_clust_8="13000.00000" pt_clust_9="25.62130" pt_clust_10="13000.00000"></scales>
<clustering>
<clus scale="   25.621">  2  9  1 -1</clus>
<clus scale="   91.305">  5  6 -1 -1</clus>
<clus scale="   87.384">  5 10 -1 -1</clus>
<clus scale="   94.654">  7  8 -1 -1</clus>
<clus scale="  106.676">  1  7  2 -1</clus>
<clus scale="   25.621">  2  5  1 -1</clus>
</clustering>
</event>
<event>
10    2  0.5692308E-006  0.2179366E+03  0.7546771E-02  0.1164323E+00
         21   -1    0    0  501  502  0.00000000000E+00  0.00000000000E+00  0.11919057324E+03  0.11919057324E+03  0.00000000000E+00 0. -1.
         -2   -1    0    0    0  501 -0.00000000000E+00 -0.00000000000E+00 -0.52843857776E+03  0.52843857776E+03  0.00000000000E+00 0.  1.
         23    2    1    2    0    0 -0.33909611827E+02 -0.92762997952E+01 -0.88514589299E+02  0.13338467014E+03  0.93384828518E+02 0.  0.
         23    2    1    2    0    0  0.85975223609E+02 -0.28973051854E+02 -0.17498720438E+03  0.21714437169E+03  0.91104224113E+02 0.  0.
        -11    1    4    4    0    0  0.45459287411E+02 -0.10510296884E+02 -0.16505852346E+03  0.17152646828E+03  0.00000000000E+00 0.  1.
         11    1    4    4    0    0  0.40515936197E+02 -0.18462754970E+02 -0.99286809212E+01  0.45617903414E+02  0.00000000000E+00 0. -1.
        -11    1    3    3    0    0 -0.80390422091E+01 -0.49600390609E+02 -0.33290600585E+02  0.60275111245E+02  0.00000000000E+00 0.  1.
         11    1    3    3    0    0 -0.25870569618E+02  0.40324090814E+02 -0.55223988713E+02  0.73109558895E+02  0.00000000000E+00 0. -1.
         21    1    1    2  503  502 -0.33177776373E+02 -0.60544391207E+02  0.44333875169E+02  0.82048038607E+02  0.00000000000E+00 0. -1.
         -2    1    1    2    0  503 -0.18887835408E+02  0.98793742857E+02 -0.19008008601E+03  0.21505207056E+03  0.00000000000E+00 0.  1.
<scales pt_clust_5="13000.00000" pt_clust_6="13000.00000" pt_clust_7="13000.00000" pt_clust_8="13000.00000" pt_clust_9="69.03903" pt_clust_10="13000.00000"></scales>
<clustering>
<clus scale="   69.039">  1  9  2 -1</clus>
<clus scale="   91.104">  5  6 -1 -1</clus>
<clus scale="   89.253">  5 10 -1 -1</clus>
<clus scale="   93.385">  7  8 -1 -1</clus>
<clus scale="  109.878">  2  7  1 -1</clus>
<clus scale="   69.039">  1  5  2 -1</clus>
</clustering>
</event>
<event>
10    2  0.5692308E-006  0.3010419E+03  0.7546771E-02  0.1126882E+00
         -1   -1    0    0    0  501 -0.00000000000E+00  0.00000000000E+00  0.77627280729E+03  0.77627280729E+03  0.00000000000E+00 0.  1.
         21   -1    0    0  503  502  0.00000000000E+00 -0.00000000000E+00 -0.67962597179E+02  0.67962597179E+02  0.00000000000E+00 0.  1.
         23    2    1    2    0    0 -0.78504443566E-01  0.40209575664E+02  0.17206799085E+03  0.20137945353E+03  0.96589205868E+02 0.  0.
         23    2    1    2    0    0  0.29349347069E+02 -0.10036068196E+03  0.49654640816E+03  0.51490877233E+03  0.87401703103E+02 0.  0.
        -11    1    3    3    0    0  0.39284760443E+02  0.29423565233E+02  0.40524347792E+02  0.63649519700E+02  0.00000000000E+00 0.  1.
         11    1    3    3    0    0 -0.39363264886E+02  0.10786010431E+02  0.13154364306E+03  0.13772993383E+03  0.00000000000E+00 0. -1.
        -11    1    4    4    0    0  0.57587586906E+02 -0.75659057123E+02  0.29643149556E+03  0.31130733151E+03  0.00000000000E+00 0.  1.
         11    1    4    4    0    0 -0.28238239837E+02 -0.24701624837E+02  0.20011491260E+03  0.20360144082E+03  0.00000000000E+00 0. -1.
         21    1    1    2  503  501 -0.95061156361E+01 -0.28100895432E+02  0.12934757399E+01  0.29693427523E+02  0.00000000000E+00 0.  1.
         -1    1    1    2    0  502 -0.19764726990E+02  0.88252001727E+02  0.38402335359E+02  0.98253751088E+02  0.00000000000E+00 0.  1.
<scales pt_clust_5="13000.00000" pt_clust_6="13000.00000" pt_clust_7="13000.00000" pt_clust_8="13000.00000" pt_clust_9="29.66524" pt_clust_10="13000.00000"></scales>
<clustering>
<clus scale="   29.665">  2  9  1 -1</clus>
<clus scale="   87.402">  7  8 -1 -1</clus>
<clus scale="   76.812">  7 10 -1 -1</clus>
<clus scale="   96.589">  5  6 -1 -1</clus>
<clus scale="  101.961">  1  5  2 -1</clus>
<clus scale="   29.665">  2  5  1 -1</clus>
</clustering>
</event>
<event>
10    2  0.5692308E-006  0.1636135E+03  0.7546771E-02  0.1211772E+00
          1   -1    0    0  502    0 -0.00000000000E+00  0.00000000000E+00  0.49363820770E+03  0.49363820770E+03  0.00000000000E+00 0. -1.
         21   -1    0    0  503  502  0.00000000000E+00 -0.00000000000E+00 -0.27672739162E+03  0.27672739162E+03  0.00000000000E+00 0. -1.
         23    2    1    2    0    0  0.29292913507E+01  0.80715920733E+01  0.29594009850E+03  0.30940567942E+03  0.89875476166E+02 0.  0.
         23    2    1    2    0    0 -0.98835631518E+01  0.27251998273E+02  0.14860644053E+03  0.17839569973E+03  0.94344026227E+02 0.  0.
        -11    1    3    3    0    0 -0.39011721458E+02 -0.10293734411E+02  0.93175160326E+02  0.10153563848E+03  0.00000000000E+00 0. -1.
         11    1    3    3    0    0  0.41941012809E+02  0.18365326484E+02  0.20276493817E+03  0.20787004095E+03  0.00000000000E+00 0.  1.
        -11    1    4    4    0    0 -0.15955554969E+02 -0.31861128574E+02  0.33759474110E+02  0.49085775339E+02  0.00000000000E+00 0. -1.
         11    1    4    4    0    0  0.60719918167E+01  0.59113126847E+02  0.11484696642E+03  0.12930992439E+03  0.00000000000E+00 0.  1.
         21    1    1    2  503  501  0.31984734654E+02  0.58338547524E+01 -0.23193398629E+03  0.23420168895E+03  0.00000000000E+00 0. -1.
          1    1    1    2  501    0 -0.25030462853E+02 -0.41157445098E+02  0.42982633384E+01  0.48362531214E+02  0.00000000000E+00 0. -1.
<scales pt_clust_5="13000.00000" pt_clust_6="13000.00000" pt_clust_7="13000.00000" pt_clust_8="13000.00000" pt_clust_9="32.51241" pt_clust_10="13000.00000"></scales>
<clustering>
<clus scale="   32.512">  2  9  1 -1</clus>
<clus scale="   89.875">  5  6 -1 -1</clus>
<clus scale="   90.664">  1  5  2 -1</clus>
<clus scale="   94.344">  7  8 -1 -1</clus>
<clus scale="   38.064">  7 10 -1 -1</clus>
<clus scale="   32.512">  2  5  1 -1</clus>
</clustering>
</event>
<event>
10    2  0.5692308E-006  0.2281501E+03  0.7546771E-02  0.1165147E+00
          1   -1    0    0  503    0 -0.00000000000E+00  0.00000000000E+00  0.41053301792E+03  0.41053301792E+03  0.00000000000E+00 0. -1.
         21   -1    0    0  501  502  0.00000000000E+00 -0.00000000000E+00 -0.15285851834E+03  0.15285851834E+03  0.00000000000E+00 0. -1.
         23    2    1    2    0    0  0.27553737695E+02 -0.45487381690E+01  0.25656549210E+03  0.27353962325E+03  0.90654146454E+02 0.  0.
         23    2    1    2    0    0  0.61058217811E+02  0.54736106091E+02  0.25117698815E+02  0.12486758628E+03  0.90757192754E+02 0.  0.
        -11    1    3    3    0    0  0.39113596463E+02 -0.21174507624E+02  0.24730540567E+03  0.25127315192E+03  0.00000000000E+00 0.  1.
         11    1    3    3    0    0 -0.11559858768E+02  0.16625769455E+02  0.92600864291E+01  0.22266471327E+02  0.00000000000E+00 0. -1.
        -11    1    4    4    0    0  0.53481488758E+02 -0.12249776966E+02  0.97692596907E+01  0.55729391800E+02  0.00000000000E+00 0.  1.
         11    1    4    4    0    0  0.75767290537E+01  0.66985883056E+02  0.15348439125E+02  0.69138194477E+02  0.00000000000E+00 0. -1.
         21    1    1    2  503  502 -0.39824176447E+02  0.42622215487E+02 -0.10430073381E+02  0.59257106860E+02  0.00000000000E+00 0. -1.
          1    1    1    2  501    0 -0.48787779059E+02 -0.92809583409E+02 -0.13578617954E+02  0.10572721988E+03  0.00000000000E+00 0. -1.
<scales pt_clust_5="13000.00000" pt_clust_6="13000.00000" pt_clust_7="13000.00000" pt_clust_8="13000.00000" pt_clust_9="58.33197" pt_clust_10="13000.00000"></scales>
<clustering>
<clus scale="   58.332">  2  9  1 -1</clus>
<clus scale="   90.654">  5  6 -1 -1</clus>
<clus scale="   90.757">  7  8 -1 -1</clus>
<clus scale="   93.968">  1  5  2 -1</clus>
<clus scale="   93.331">  7 10 -1 -1</clus>
<clus scale="   58.332">  2  5  1 -1</clus>
</clustering>
</event>
<event>
10    2  0.5692308E-006  0.1500379E+03  0.7546771E-02  0.1212092E+00
          1   -1    0    0  502    0 -0.00000000000E+00  0.00000000000E+00  0.43060925774E+03  0.43060925774E+03  0.00000000000E+00 0. -1.
         21   -1    0    0  503  502  0.00000000000E+00 -0.00000000000E+00 -0.11479744806E+03  0.11479744806E+03  0.00000000000E+00 0.  1.
         23    2    1    2    0    0 -0.38907981409E+02  0.54675158723E+02  0.80393603959E+02  0.13937494184E+03  0.91973033309E+02 0.  0.
         23    2    1    2    0    0 -0.14747988138E+02 -0.35907066150E+02  0.18572506561E+03  0.21039252928E+03  0.90908722501E+02 0.  0.
        -13    1    4    4    0    0 -0.52229786003E+02 -0.31193194240E+02  0.10739555191E+03  0.12342921244E+03  0.00000000000E+00 0. -1.
         13    1    4    4    0    0  0.37481797865E+02 -0.47138719107E+01  0.78329513702E+02  0.86963316843E+02  0.00000000000E+00 0.  1.
        -13    1    3    3    0    0 -0.37800474609E+02 -0.10901993564E+02  0.53394153632E+01  0.39701872761E+02  0.00000000000E+00 0.  1.
         13    1    3    3    0    0 -0.11075068002E+01  0.65577152287E+02  0.75054188596E+02  0.99673069077E+02  0.00000000000E+00 0. -1.
         21    1    1    2  503  501  0.15244068159E+02  0.17694658737E+02 -0.65129544673E+02  0.69190607391E+02  0.00000000000E+00 0.  1.
          1    1    1    2  501    0  0.38411901388E+02 -0.36462751309E+02  0.11482268479E+03  0.12644862729E+03  0.00000000000E+00 0. -1.
<scales pt_clust_5="13000.00000" pt_clust_6="13000.00000" pt_clust_7="13000.00000" pt_clust_8="13000.00000" pt_clust_9="23.35557" pt_clust_10="13000.00000"></scales>
<clustering>
<clus scale="   23.356">  2  9  1 -1</clus>
<clus scale="   90.909">  5  6 -1 -1</clus>
<clus scale="   52.902">  5 10 -1 -1</clus>
<clus scale="   91.973">  7  8 -1 -1</clus>
<clus scale="  116.768">  1  7  2 -1</clus>
<clus scale="   23.356">  2  5  1 -1</clus>
</clustering>
</event>
<event>
10    2  0.5692308E-006  0.2594901E+03  0.7546771E-02  0.1142772E+00
         21   -1    0    0  501  502  0.00000000000E+00  0.00000000000E+00  0.13913232370E+03  0.13913232370E+03  0.00000000000E+00 0.  1.
          2   -1    0    0  503    0 -0.00000000000E+00 -0.00000000000E+00 -0.94924813632E+03  0.94924813632E+03  0.00000000000E+00 0. -1.
         23    2    1    2    0    0 -0.11152288166E+01  0.57198567457E+02 -0.29031217906E+03  0.30979396748E+03  0.91750864441E+02 0.  0.
         23    2    1    2    0    0  0.40648408579E+02 -0.10330399615E+03 -0.38686222073E+03  0.41491948074E+03  0.10085528707E+03 0.  0.
        -11    1    3    3    0    0 -0.10660168317E+02  0.80616150151E+02 -0.19718573679E+03  0.21329514211E+03  0.00000000000E+00 0. -1.
         11    1    3    3    0    0  0.95449395008E+01 -0.23417582695E+02 -0.93126442267E+02  0.96498825375E+02  0.00000000000E+00 0.  1.
        -13    1    4    4    0    0  0.47940587242E+02 -0.32628567693E+01 -0.98197911180E+02  0.10932417802E+03  0.00000000000E+00 0.  1.
         13    1    4    4    0    0 -0.72921786625E+01 -0.10004113938E+03 -0.28866430955E+03  0.30559530272E+03  0.00000000000E+00 0. -1.
         21    1    1    2  503  502 -0.85109380381E+02  0.16194064373E+03 -0.19366733517E+01  0.18295389973E+03  0.00000000000E+00 0.  1.
          2    1    1    2  501    0  0.45576200618E+02 -0.11583521504E+03 -0.13100473948E+03  0.18071311206E+03  0.00000000000E+00 0. -1.
<scales pt_clust_5="13000.00000" pt_clust_6="13000.00000" pt_clust_7="13000.00000" pt_clust_8="13000.00000" pt_clust_9="190.26249" pt_clust_10="13000.00000"></scales>
<clustering>
<clus scale="   91.751">  5  6 -1 -1</clus>
<clus scale="  100.855">  7  8 -1 -1</clus>
<clus scale="  108.126">  2  5  1 -1</clus>
<clus scale="  111.704">  7 10 -1 -1</clus>
<clus scale="  190.262">  1  9  2 -1</clus>
<clus scale="  190.262">  1  5  2 -1</clus>
</clustering>
</event>
<event>
10    2  0.5692308E-006  0.2152409E+03  0.7546771E-02  0.1172543E+00
          1   -1    0    0  503    0 -0.00000000000E+00  0.00000000000E+00  0.36040464323E+03  0.36040464323E+03  0.00000000000E+00 0. -1.
         21   -1    0    0  501  502  0.00000000000E+00 -0.00000000000E+00 -0.22564486162E+03  0.22564486162E+03  0.00000000000E+00 0. -1.
         23    2    1    2    0    0  0.28465294137E+02  0.79662264640E+01  0.23237119217E+03  0.25092956527E+03  0.89975230165E+02 0.  0.
         23    2    1    2    0    0 -0.98417425592E+02  0.35545729884E+02  0.33576395951E+02  0.14326431696E+03  0.91911922925E+02 0.  0.
        -11    1    3    3    0    0  0.16984465246E+02 -0.40739524402E+02  0.12218262371E+03  0.12991064023E+03  0.00000000000E+00 0.  1.
         11    1    3    3    0    0  0.11480828891E+02  0.48705750866E+02  0.11018856847E+03  0.12101892505E+03  0.00000000000E+00 0. -1.
        -13    1    4    4    0    0 -0.57246261043E+02 -0.52057125388E+01 -0.23352186182E+02  0.62044809984E+02  0.00000000000E+00 0.  1.
         13    1    4    4    0    0 -0.41171164549E+02  0.40751442423E+02  0.56928582133E+02  0.81219506976E+02  0.00000000000E+00 0. -1.
         21    1    1    2  503  502  0.10538095282E+01 -0.58181827614E+02 -0.98026957716E+02  0.11399789480E+03  0.00000000000E+00 0. -1.
          1    1    1    2  501    0  0.68898321927E+02  0.14669871266E+02 -0.33160848801E+02  0.77857727815E+02  0.00000000000E+00 0. -1.
<scales pt_clust_5="13000.00000" pt_clust_6="13000.00000" pt_clust_7="13000.00000" pt_clust_8="13000.00000" pt_clust_9="58.19137" pt_clust_10="13000.00000"></scales>
<clustering>
<clus scale="   58.191">  2  9  1 -1</clus>
<clus scale="   89.975">  5  6 -1 -1</clus>
<clus scale="   91.912">  7  8 -1 -1</clus>
<clus scale="   70.474">  7 10 -1 -1</clus>
<clus scale="   94.458">  1  5  2 -1</clus>
<clus scale="   58.191">  2  5  1 -1</clus>
</clustering>
</event>
<event>
10    2  0.5692308E-006  0.2276476E+03  0.7546771E-02  0.1136599E+00
         -2   -1    0    0    0  501 -0.00000000000E+00  0.00000000000E+00  0.46588240723E+03  0.46588240723E+03  0.00000000000E+00 0.  1.
         21   -1    0    0  501  502  0.00000000000E+00 -0.00000000000E+00 -0.16493200991E+03  0.16493200991E+03  0.00000000000E+00 0.  1.
         23    2    1    2    0    0 -0.13682725386E+03 -0.88346432138E+02  0.27225077977E+03  0.33018716794E+03  0.91522070106E+02 0.  0.
         23    2    1    2    0    0  0.53187364325E+02  0.72428644334E+02  0.10272153503E+03  0.16382557275E+03  0.90621742882E+02 0.  0.
        -11    1    4    4    0    0 -0.24887621915E+02  0.18663760820E+02  0.14472509352E+02  0.34310103752E+02  0.00000000000E+00 0.  1.
         11    1    4    4    0    0  0.78074986241E+02  0.53764883514E+02  0.88249025678E+02  0.12951546899E+03  0.00000000000E+00 0. -1.
        -13    1    3    3    0    0 -0.11555633446E+03 -0.80635541861E+02  0.27335387059E+03  0.30753486893E+03  0.00000000000E+00 0.  1.
         13    1    3    3    0    0 -0.21270919404E+02 -0.77108902777E+01 -0.11030908132E+01  0.22652299011E+02  0.00000000000E+00 0. -1.
         21    1    1    2  503  502  0.16436416559E+02 -0.17102157384E+02 -0.54474632548E+02  0.59414856457E+02  0.00000000000E+00 0.  1.
         -2    1    1    2    0  503  0.67203472976E+02  0.33019945189E+02 -0.19547284943E+02  0.77386819995E+02  0.00000000000E+00 0.  1.
<scales pt_clust_5="13000.00000" pt_clust_6="13000.00000" pt_clust_7="13000.00000" pt_clust_8="13000.00000" pt_clust_9="23.72002" pt_clust_10="13000.00000"></scales>
<clustering>
<clus scale="   23.720">  2  9  1 -1</clus>
<clus scale="   90.622">  5  6 -1 -1</clus>
<clus scale="   78.769">  5 10 -1 -1</clus>
<clus scale="   91.522">  7  8 -1 -1</clus>
<clus scale="  185.870">  1  7  2 -1</clus>
<clus scale="   23.720">  2  5  1 -1</clus>
</clustering>
</event>
<event>
10    2  0.5692308E-006  0.1640576E+03  0.7546771E-02  0.1209117E+00
         21   -1    0    0  501  502  0.00000000000E+00  0.00000000000E+00  0.15919323283E+03  0.15919323283E+03  0.00000000000E+00 0. -1.
         -1   -1    0    0    0  501 -0.00000000000E+00 -0.00000000000E+00 -0.13627985463E+03  0.13627985463E+03  0.00000000000E+00 0.  1.
         23    2    1    2    0    0 -0.11940711941E+02  0.28420900980E+02  0.21106096555E+01  0.96099610216E+02  0.90996440570E+02 0.  0.
         23    2    1    2    0    0 -0.39078768037E+02  0.16872598576E+02  0.27220558498E+02  0.10385088219E+03  0.90731539351E+02 0.  0.
        -13    1    4    4    0    0 -0.49486845789E+02 -0.24471581878E+02  0.26434781138E+02  0.61209508082E+02  0.00000000000E+00 0. -1.
         13    1    4    4    0    0  0.10408077752E+02  0.41344180454E+02  0.78577736008E+00  0.42641374110E+02  0.00000000000E+00 0.  1.
        -13    1    3    3    0    0  0.36374954048E+02  0.27344104275E+02  0.11341010481E+02  0.46898356467E+02  0.00000000000E+00 0.  1.
         13    1    3    3    0    0 -0.48315665988E+02  0.10767967051E+01 -0.92304008256E+01  0.49201253749E+02  0.00000000000E+00 0. -1.
         21    1    1    2  503  502  0.23786465731E+02 -0.18252273820E+01  0.25649811515E+02  0.35029134128E+02  0.00000000000E+00 0.  1.
         -1    1    1    2    0  503  0.27233014247E+02 -0.43468272175E+02 -0.32067601465E+02  0.60493460924E+02  0.00000000000E+00 0.  1.
<scales pt_clust_5="13000.00000" pt_clust_6="13000.00000" pt_clust_7="13000.00000" pt_clust_8="13000.00000" pt_clust_9="23.85639" pt_clust_10="13000.00000"></scales>
<clustering>
<clus scale="   23.856">  1  9  2 -1</clus>
<clus scale="   90.732">  5  6 -1 -1</clus>
<clus scale="   52.900">  5 10 -1 -1</clus>
<clus scale="   90.996">  7  8 -1 -1</clus>
<clus scale="   95.170">  2  7  1 -1</clus>
<clus scale="   23.856">  1  5  2 -1</clus>
</clustering>
</event>
<event>
10    2  0.5692308E-006  0.2211608E+03  0.7546771E-02  0.1150862E+00
          1   -1    0    0  503    0 -0.00000000000E+00  0.00000000000E+00  0.46915500442E+03  0.46915500442E+03  0.00000000000E+00 0. -1.
         21   -1    0    0  501  502  0.00000000000E+00 -0.00000000000E+00 -0.36444253635E+03  0.36444253635E+03  0.00000000000E+00 0.  1.
         23    2    1    2    0    0  0.11844504190E+03 -0.21134482500E+02 -0.16944790063E+01  0.14403752305E+03  0.79170969978E+02 0.  0.
         23    2    1    2    0    0 -0.10102545677E+01  0.72991726624E+02  0.12899301036E+03  0.17467643203E+03  0.92432929272E+02 0.  0.
        -11    1    3    3    0    0  0.93206050823E+02 -0.11960142633E+02  0.33504033414E+02  0.99764388320E+02  0.00000000000E+00 0.  1.
         11    1    3    3    0    0  0.25238991074E+02 -0.91743398665E+01 -0.35198512420E+02  0.44273134732E+02  0.00000000000E+00 0. -1.
        -13    1    4    4    0    0  0.24665593674E+02  0.41952536266E+02  0.12506833525E+03  0.13420318660E+03  0.00000000000E+00 0. -1.
         13    1    4    4    0    0 -0.25675848242E+02  0.31039190357E+02  0.39246751120E+01  0.40473245431E+02  0.00000000000E+00 0.  1.
         21    1    1    2  503  502 -0.72648773996E+02 -0.14852150394E+03 -0.22908777242E+03  0.28252024523E+03  0.00000000000E+00 0.  1.
          1    1    1    2  501    0 -0.44786013333E+02  0.96664259820E+02  0.20650170913E+03  0.23236334046E+03  0.00000000000E+00 0. -1.
<scales pt_clust_5="13000.00000" pt_clust_6="13000.00000" pt_clust_7="13000.00000" pt_clust_8="13000.00000" pt_clust_9="163.30299" pt_clust_10="13000.00000"></scales>
<clustering>
<clus scale="   79.171">  5  6 -1 -1</clus>
<clus scale="   92.433">  7  8 -1 -1</clus>
<clus scale="  106.535">  7 10 -1 -1</clus>
<clus scale="  144.028">  1  5  2 -1</clus>
<clus scale="  163.303">  2  9  1 -1</clus>
<clus scale="  163.303">  2  5  1 -1</clus>
</clustering>
</event>
<event>
10    2  0.5692308E-006  0.2393896E+03  0.7546771E-02  0.1126743E+00
         21   -1    0    0  503  502  0.00000000000E+00  0.00000000000E+00  0.39877983731E+03  0.39877983731E+03  0.00000000000E+00 0.  1.
         -3   -1    0    0    0  501 -0.00000000000E+00 -0.00000000000E+00 -0.16193077458E+03  0.16193077458E+03  0.00000000000E+00 0.  1.
         23    2    1    2    0    0  0.81734121403E+02  0.15787101241E+03  0.44610504200E+02  0.19533668628E+03  0.67547026269E+02 0.  0.
         23    2    1    2    0    0 -0.69063124145E+02 -0.61757809067E+02  0.85675645324E+02  0.15429192072E+03  0.88780282157E+02 0.  0.
        -11    1    3    3    0    0  0.68883994962E+02  0.12180917426E+03  0.62282489302E+02  0.15317176035E+03  0.00000000000E+00 0.  1.
         11    1    3    3    0    0  0.12850126441E+02  0.36061838157E+02 -0.17671985102E+02  0.42164925925E+02  0.00000000000E+00 0. -1.
        -13    1    4    4    0    0 -0.67609026654E+02 -0.23867059429E+02  0.91161394547E+02  0.11597851899E+03  0.00000000000E+00 0.  1.
         13    1    4    4    0    0 -0.14540974910E+01 -0.37890749638E+02 -0.54857492230E+01  0.38313401730E+02  0.00000000000E+00 0. -1.
         21    1    1    2  503  501  0.37711660624E+02  0.24794468403E+02  0.52884292284E+02  0.69524696193E+02  0.00000000000E+00 0.  1.
         -3    1    1    2    0  502 -0.50382657881E+02 -0.12090767175E+03  0.53678620916E+02  0.14155730870E+03  0.00000000000E+00 0.  1.
<scales pt_clust_5="13000.00000" pt_clust_6="13000.00000" pt_clust_7="13000.00000" pt_clust_8="13000.00000" pt_clust_9="45.13242" pt_clust_10="13000.00000"></scales>
<clustering>
<clus scale="   45.132">  1  9  2 -1</clus>
<clus scale="   67.547">  5  6 -1 -1</clus>
<clus scale="   88.780">  7  8 -1 -1</clus>
<clus scale="  120.394">  7 10 -1 -1</clus>
<clus scale="  203.462">  2  5  1 -1</clus>
<clus scale="   45.132">  1  5  2 -1</clus>
</clustering>
</event>
<event>
10    2  0.5692308E-006  0.3206581E+03  0.7546771E-02  0.1119971E+00
         21   -1    0    0  501  502  0.00000000000E+00  0.00000000000E+00  0.22081139034E+03  0.22081139034E+03  0.00000000000E+00 0. -1.
          2   -1    0    0  503    0 -0.00000000000E+00 -0.00000000000E+00 -0.27441504211E+03  0.27441504211E+03  0.00000000000E+00 0. -1.
         23    2    1    2    0    0 -0.68160819163E+01 -0.30173167338E+02 -0.19550403202E+02  0.97477450284E+02  0.90347972023E+02 0.  0.
         23    2    1    2    0    0  0.79639929638E+02  0.16962738052E+03 -0.52581444297E+02  0.21671888772E+03  0.95322092907E+02 0.  0.
        -13    1    4    4    0    0  0.22992990228E+02  0.13242121122E+03 -0.61056665313E+01  0.13454119794E+03  0.00000000000E+00 0. -1.
         13    1    4    4    0    0  0.56646939410E+02  0.37206169304E+02 -0.46475777766E+02  0.82177689781E+02  0.00000000000E+00 0.  1.
        -13    1    3    3    0    0  0.47339023588E+01 -0.57264035837E+02  0.69262232495E+01  0.57875315985E+02  0.00000000000E+00 0. -1.
         13    1    3    3    0    0 -0.11549984275E+02  0.27090868499E+02 -0.26476626452E+02  0.39602134299E+02  0.00000000000E+00 0.  1.
         21    1    1    2  503  502  0.13677247538E+02 -0.60154098691E+02  0.15656967858E+02  0.63645293087E+02  0.00000000000E+00 0. -1.
          2    1    1    2  501    0 -0.86501095260E+02 -0.79300114492E+02  0.28712278658E+01  0.11738480135E+03  0.00000000000E+00 0. -1.
<scales pt_clust_5="13000.00000" pt_clust_6="13000.00000" pt_clust_7="13000.00000" pt_clust_8="13000.00000" pt_clust_9="61.68941" pt_clust_10="13000.00000"></scales>
<clustering>
<clus scale="   61.689">  1  9  2 -1</clus>
<clus scale="   90.348">  7  8 -1 -1</clus>
<clus scale="   95.322">  5  6 -1 -1</clus>
<clus scale="  100.181">  2  7  1 -1</clus>
<clus scale="  143.208">  5 10 -1 -1</clus>
<clus scale="   61.689">  1  5  2 -1</clus>
</clustering>
</event>
<event>
10    2  0.5692308E-006  0.5850879E+03  0.7546771E-02  0.1054201E+00
         21   -1    0    0  503  502  0.00000000000E+00  0.00000000000E+00  0.10301180834E+04  0.10301180834E+04  0.00000000000E+00 0. -1.
          3   -1    0    0  502    0 -0.00000000000E+00 -0.00000000000E+00 -0.24309576793E+03  0.24309576793E+03  0.00000000000E+00 0. -1.
         23    2    1    2    0    0 -0.20393146250E+02 -0.15649738154E+02 -0.49592062234E+02  0.10706122954E+03  0.91334218752E+02 0.  0.
         23    2    1    2    0    0  0.85431171539E+01 -0.17933154552E+03  0.31412993136E+03  0.37331314493E+03  0.91936403729E+02 0.  0.
        -11    1    4    4    0    0  0.32084299943E+02 -0.17178089698E+03  0.29110464035E+03  0.33952907166E+03  0.00000000000E+00 0. -1.
         11    1    4    4    0    0 -0.23541182789E+02 -0.75506485460E+01  0.23025291010E+02  0.33784073270E+02  0.00000000000E+00 0.  1.
        -11    1    3    3    0    0  0.40640389728E+01 -0.47165669874E+02 -0.47578434882E+02  0.67117987852E+02  0.00000000000E+00 0. -1.
         11    1    3    3    0    0 -0.24457185223E+02  0.31515931720E+02 -0.20136273516E+01  0.39943241685E+02  0.00000000000E+00 0.  1.
         21    1    1    2  503  501  0.31671194022E+02 -0.13316495892E+03  0.43010737939E+03  0.45136274616E+03  0.00000000000E+00 0. -1.
          3    1    1    2  501    0 -0.19821164925E+02  0.32814624260E+03  0.92377066940E+02  0.34147673069E+03  0.00000000000E+00 0. -1.
<scales pt_clust_5="13000.00000" pt_clust_6="13000.00000" pt_clust_7="13000.00000" pt_clust_8="13000.00000" pt_clust_9="137.56540" pt_clust_10="13000.00000"></scales>
<clustering>
<clus scale="   91.334">  7  8 -1 -1</clus>
<clus scale="   91.936">  5  6 -1 -1</clus>
<clus scale="   94.883">  2  7  1 -1</clus>
<clus scale="  137.565">  1  9  2 -1</clus>
<clus scale="  266.712">  5 10 -1 -1</clus>
<clus scale="  137.565">  1  5  2 -1</clus>
</clustering>
</event>
<event>
10    2  0.5692308E-006  0.4036441E+03  0.7546771E-02  0.1075562E+00
         -1   -1    0    0    0  501 -0.00000000000E+00  0.00000000000E+00  0.22754919121E+03  0.22754919121E+03  0.00000000000E+00 0.  1.
         21   -1    0    0  501  502  0.00000000000E+00 -0.00000000000E+00 -0.38507594939E+03  0.38507594939E+03  0.00000000000E+00 0. -1.
         23    2    1    2    0    0 -0.12280003524E+03 -0.52002621450E+02 -0.42613176781E+02  0.16698776534E+03  0.91021479034E+02 0.  0.
         23    2    1    2    0    0  0.15709084942E+03 -0.34331159346E+02 -0.20405898580E+03  0.27598453665E+03  0.93119446472E+02 0.  0.
        -13    1    4    4    0    0  0.13625476342E+03 -0.62691824611E+02 -0.15585960105E+03  0.21630497144E+03  0.00000000000E+00 0. -1.
         13    1    4    4    0    0  0.20836085997E+02  0.28360665265E+02 -0.48199384753E+02  0.59679565217E+02  0.00000000000E+00 0.  1.
        -13    1    3    3    0    0 -0.70526587241E+02  0.14568372709E+02  0.45927521112E+00  0.72016997473E+02  0.00000000000E+00 0.  1.
         13    1    3    3    0    0 -0.52273448003E+02 -0.66570994159E+02 -0.43072451992E+02  0.94970767872E+02  0.00000000000E+00 0. -1.
         21    1    1    2  503  502 -0.11669579005E+01  0.21178632104E+02 -0.25822940006E+02  0.33417367926E+02  0.00000000000E+00 0. -1.
         -1    1    1    2    0  503 -0.33123856276E+02  0.65155148692E+02  0.11496834441E+03  0.13623547068E+03  0.00000000000E+00 0.  1.
<scales pt_clust_5="13000.00000" pt_clust_6="13000.00000" pt_clust_7="13000.00000" pt_clust_8="13000.00000" pt_clust_9="21.21076" pt_clust_10="13000.00000"></scales>
<clustering>
<clus scale="   21.211">  2  9  1 -1</clus>
<clus scale="   91.021">  7  8 -1 -1</clus>
<clus scale="   93.119">  5  6 -1 -1</clus>
<clus scale="   73.673">  5 10 -1 -1</clus>
<clus scale="  159.823">  1  7  2 -1</clus>
<clus scale="   21.211">  2  5  1 -1</clus>
</clustering>
</event>
<event>
10    2  0.5692308E-006  0.1969461E+03  0.7546771E-02  0.1170409E+00
          1   -1    0    0  502    0 -0.00000000000E+00  0.00000000000E+00  0.46115187242E+03  0.46115187242E+03  0.00000000000E+00 0. -1.
         21   -1    0    0  503  502  0.00000000000E+00 -0.00000000000E+00 -0.16037099958E+03  0.16037099958E+03  0.00000000000E+00 0.  1.
         23    2    1    2    0    0  0.91720649129E+02  0.63349374671E+01  0.14832816331E+03  0.19721658271E+03  0.91871255327E+02 0.  0.
         23    2    1    2    0    0  0.13671490767E+02  0.42338072240E+01  0.11738456610E+03  0.14943842052E+03  0.91366680931E+02 0.  0.
        -11    1    3    3    0    0  0.72046484539E+02 -0.32157555809E+02  0.60839137291E+02  0.99630341545E+02  0.00000000000E+00 0.  1.
         11    1    3    3    0    0  0.19674164590E+02  0.38492493276E+02  0.87489026021E+02  0.97586241166E+02  0.00000000000E+00 0. -1.
        -13    1    4    4    0    0  0.37560317761E+02  0.32911372128E+02  0.41735761999E+02  0.65083098538E+02  0.00000000000E+00 0.  1.
         13    1    4    4    0    0 -0.23888826994E+02 -0.28677564904E+02  0.75648804104E+02  0.84355321980E+02  0.00000000000E+00 0. -1.
         21    1    1    2  503  501 -0.13901126543E+01 -0.23512866412E+02 -0.10066383624E+03  0.10338276078E+03  0.00000000000E+00 0.  1.
          1    1    1    2  501    0 -0.10400202724E+03  0.12944121721E+02  0.13573197966E+03  0.17148510798E+03  0.00000000000E+00 0. -1.
<scales pt_clust_5="13000.00000" pt_clust_6="13000.00000" pt_clust_7="13000.00000" pt_clust_8="13000.00000" pt_clust_9="23.55392" pt_clust_10="13000.00000"></scales>
<clustering>
<clus scale="   23.554">  2  9  1 -1</clus>
<clus scale="   91.367">  7  8 -1 -1</clus>
<clus scale="   91.871">  5  6 -1 -1</clus>
<clus scale="  104.586">  7 10 -1 -1</clus>
<clus scale="  129.456">  1  5  2 -1</clus>
<clus scale="   23.554">  2  5  1 -1</clus>
</clustering>
</event>
<event>
10    2  0.5692308E-006  0.1655463E+03  0.7546771E-02  0.1201920E+00
         21   -1    0    0  501  502  0.00000000000E+00  0.00000000000E+00  0.19180249207E+03  0.19180249207E+03  0.00000000000E+00 0.  1.
          2   -1    0    0  503    0 -0.00000000000E+00 -0.00000000000E+00 -0.37593906981E+03  0.37593906981E+03  0.00000000000E+00 0. -1.
         23    2    1    2    0    0 -0.15851018341E+02  0.67498228704E+02 -0.84694139587E+01  0.11542666400E+03  0.91892971049E+02 0.  0.
         23    2    1    2    0    0 -0.27361600516E+01 -0.38674399422E+02 -0.28504885592E+03  0.30027938315E+03  0.86091009666E+02 0.  0.
        -11    1    4    4    0    0  0.34488886760E+02  0.55514432216E+01 -0.13595769851E+03  0.14037377823E+03  0.00000000000E+00 0. -1.
         11    1    4    4    0    0 -0.37225046811E+02 -0.44225842643E+02 -0.14909115741E+03  0.15990560492E+03  0.00000000000E+00 0.  1.
        -13    1    3    3    0    0  0.14637789517E+02  0.78610580858E+02 -0.17266225865E+02  0.81804711725E+02  0.00000000000E+00 0. -1.
         13    1    3    3    0    0 -0.30488807858E+02 -0.11112352153E+02  0.87968119064E+01  0.33621952273E+02  0.00000000000E+00 0.  1.
         21    1    1    2  503  502 -0.14194958887E+02 -0.23510333241E+02  0.11510504697E+03  0.11833598127E+03  0.00000000000E+00 0.  1.
          2    1    1    2  501    0  0.32782137279E+02 -0.53134960417E+01 -0.57233548341E+01  0.33699533459E+02  0.00000000000E+00 0. -1.
<scales pt_clust_5="13000.00000" pt_clust_6="13000.00000" pt_clust_7="13000.00000" pt_clust_8="13000.00000" pt_clust_9="27.46330" pt_clust_10="13000.00000"></scales>
<clustering>
<clus scale="   27.463">  1  9  2 -1</clus>
<clus scale="   86.091">  5  6 -1 -1</clus>
<clus scale="   31.658">  5 10 -1 -1</clus>
<clus scale="   91.893">  7  8 -1 -1</clus>
<clus scale="  108.140">  2  7  1 -1</clus>
<clus scale="   27.463">  1  5  2 -1</clus>
</clustering>
</event>
<event>
10    2  0.5692308E-006  0.3242126E+03  0.7546771E-02  0.1116465E+00
         21   -1    0    0  501  502  0.00000000000E+00  0.00000000000E+00  0.80274477169E+03  0.80274477169E+03  0.00000000000E+00 0.  1.
         -3   -1    0    0    0  501 -0.00000000000E+00 -0.00000000000E+00 -0.63836761781E+02  0.63836761781E+02  0.00000000000E+00 0.  1.
         23    2    1    2    0    0 -0.46941889037E+02 -0.80463184245E+00  0.16488956288E+03  0.19464361436E+03  0.92159537141E+02 0.  0.
         23    2    1    2    0    0 -0.30130967303E+02  0.11955326090E+03  0.36971939904E+03  0.40129914946E+03  0.95643692650E+02 0.  0.
        -11    1    3    3    0    0  0.11152189821E+02 -0.29190383808E+02  0.92234298157E+02  0.97383856984E+02  0.00000000000E+00 0. -1.
         11    1    3    3    0    0 -0.58094078858E+02  0.28385751965E+02  0.72655264720E+02  0.97259757375E+02  0.00000000000E+00 0.  1.
        -13    1    4    4    0    0  0.29763987619E+02  0.33739816414E+02  0.16963685970E+03  0.17550194968E+03  0.00000000000E+00 0. -1.
         13    1    4    4    0    0 -0.59894954922E+02  0.85813444483E+02  0.20008253934E+03  0.22579719978E+03  0.00000000000E+00 0.  1.
         21    1    1    2  503  502 -0.21278848635E+02 -0.21457079612E+01  0.46394494746E+02  0.51086618646E+02  0.00000000000E+00 0.  1.
         -3    1    1    2    0  503  0.98351704975E+02 -0.11660292109E+03  0.15790455325E+03  0.21955215101E+03  0.00000000000E+00 0.  1.
<scales pt_clust_5="13000.00000" pt_clust_6="13000.00000" pt_clust_7="13000.00000" pt_clust_8="13000.00000" pt_clust_9="21.38676" pt_clust_10="13000.00000"></scales>
<clustering>
<clus scale="   21.387">  1  9  2 -1</clus>
<clus scale="   92.160">  5  6 -1 -1</clus>
<clus scale="   95.644">  7  8 -1 -1</clus>
<clus scale="  105.833">  2  5  1 -1</clus>
<clus scale="  132.404">  7 10 -1 -1</clus>
<clus scale="   21.387">  1  5  2 -1</clus>
</clustering>
</event>
<event>
10    2  0.5692308E-006  0.1711986E+03  0.7546771E-02  0.1181517E+00
         21   -1    0    0  503  502  0.00000000000E+00  0.00000000000E+00  0.78864103555E+02  0.78864103555E+02  0.00000000000E+00 0.  1.
          1   -1    0    0  502    0 -0.00000000000E+00 -0.00000000000E+00 -0.76238642836E+03  0.76238642836E+03  0.00000000000E+00 0. -1.
         23    2    1    2    0    0  0.83544742130E+02 -0.49413312025E+02 -0.22518580400E+03  0.26373564049E+03  0.97089867625E+02 0.  0.
         23    2    1    2    0    0 -0.10467745951E+03  0.41710690615E+02 -0.45669120999E+03  0.47900181246E+03  0.90436291487E+02 0.  0.
        -13    1    4    4    0    0 -0.60453643178E+02 -0.18631056393E+02 -0.14056137949E+03  0.15414039263E+03  0.00000000000E+00 0.  1.
         13    1    4    4    0    0 -0.44223816330E+02  0.60341747008E+02 -0.31612983050E+03  0.32486141983E+03  0.00000000000E+00 0. -1.
        -13    1    3    3    0    0  0.23331586727E+02 -0.40805254379E+02 -0.22485534510E+02  0.52105959221E+02  0.00000000000E+00 0.  1.
         13    1    3    3    0    0  0.60213155403E+02 -0.86080576462E+01 -0.20270026949E+03  0.21162968127E+03  0.00000000000E+00 0. -1.
         21    1    1    2  503  501  0.35680037582E+02 -0.18754200648E+02  0.33333485040E+02  0.52305892104E+02  0.00000000000E+00 0.  1.
          1    1    1    2  501    0 -0.14547320204E+02  0.26456822059E+02 -0.34978795847E+02  0.46207186859E+02  0.00000000000E+00 0. -1.
<scales pt_clust_5="13000.00000" pt_clust_6="13000.00000" pt_clust_7="13000.00000" pt_clust_8="13000.00000" pt_clust_9="40.30862" pt_clust_10="13000.00000"></scales>
<clustering>
<clus scale="   40.309">  1  9  2 -1</clus>
<clus scale="   90.436">  5  6 -1 -1</clus>
<clus scale="   25.194">  5 10 -1 -1</clus>
<clus scale="   97.090">  7  8 -1 -1</clus>
<clus scale="  153.270">  2  7  1 -1</clus>
<clus scale="   40.309">  1  5  2 -1</clus>
</clustering>
</event>
<event>
10    2  0.5692308E-006  0.2793569E+03  0.7546771E-02  0.1110068E+00
         21   -1    0    0  503  502  0.00000000000E+00  0.00000000000E+00  0.31011315075E+03  0.31011315075E+03  0.00000000000E+00 0. -1.
         -1   -1    0    0    0  501 -0.00000000000E+00 -0.00000000000E+00 -0.28244033029E+03  0.28244033029E+03  0.00000000000E+00 0.  1.
         23    2    1    2    0    0 -0.14237203633E+03  0.13236295894E+03 -0.65687868955E+02  0.22445428623E+03  0.90967471397E+02 0.  0.
         23    2    1    2    0    0  0.16023244261E+03 -0.79525698362E+02  0.88024341901E+02  0.21703696084E+03  0.85778699231E+02 0.  0.
        -11    1    4    4    0    0  0.45117650201E+02  0.63527816781E+01  0.51666880510E+02  0.68887057829E+02  0.00000000000E+00 0.  1.
         11    1    4    4    0    0  0.11511479241E+03 -0.85878480040E+02  0.36357461391E+02  0.14814990301E+03  0.00000000000E+00 0. -1.
        -13    1    3    3    0    0 -0.91367150731E+02  0.23819701759E+02 -0.34599079165E+02  0.10056058226E+03  0.00000000000E+00 0. -1.
         13    1    3    3    0    0 -0.51004885599E+02  0.10854325718E+03 -0.31088789790E+02  0.12389370398E+03  0.00000000000E+00 0.  1.
         21    1    1    2  503  501  0.15224473386E+02 -0.95562645214E+02  0.67830122173E+01  0.97005221534E+02  0.00000000000E+00 0. -1.
         -1    1    1    2    0  502 -0.33084879662E+02  0.42725384633E+02 -0.14466646998E+01  0.54057012432E+02  0.00000000000E+00 0.  1.
<scales pt_clust_5="13000.00000" pt_clust_6="13000.00000" pt_clust_7="13000.00000" pt_clust_8="13000.00000" pt_clust_9="96.76778" pt_clust_10="13000.00000"></scales>
<clustering>
<clus scale="   85.779">  5  6 -1 -1</clus>
<clus scale="   54.038">  5 10 -1 -1</clus>
<clus scale="   90.967">  7  8 -1 -1</clus>
<clus scale="   96.768">  1  9  2 -1</clus>
<clus scale="  194.525">  2  7  1 -1</clus>
<clus scale="   96.768">  1  5  2 -1</clus>
</clustering>
</event>
<event>
10    2  0.5692308E-006  0.2097607E+03  0.7546771E-02  0.1173243E+00
         -1   -1    0    0    0  501 -0.00000000000E+00  0.00000000000E+00  0.62872979208E+03  0.62872979208E+03  0.00000000000E+00 0.  1.
         21   -1    0    0  501  502  0.00000000000E+00 -0.00000000000E+00 -0.19176783415E+03  0.19176783415E+03  0.00000000000E+00 0.  1.
         23    2    1    2    0    0 -0.35635399995E+02 -0.10417358572E+02  0.34759950790E+03  0.36131446393E+03  0.91347254249E+02 0.  0.
         23    2    1    2    0    0  0.11153825355E+03  0.34675037642E+01  0.10874667515E+03  0.19203839473E+03  0.11225016751E+03 0.  0.
        -11    1    4    4    0    0  0.60316685477E+02 -0.17757321172E+02 -0.74257120621E+01  0.63313238756E+02  0.00000000000E+00 0. -1.
         11    1    4    4    0    0  0.51221568072E+02  0.21224824936E+02  0.11617238721E+03  0.12872515597E+03  0.00000000000E+00 0.  1.
        -11    1    3    3    0    0 -0.24066317310E+00 -0.44990461917E+02  0.11451064968E+03  0.12303206278E+03  0.00000000000E+00 0. -1.
         11    1    3    3    0    0 -0.35394736821E+02  0.34573103345E+02  0.23308885822E+03  0.23828240115E+03  0.00000000000E+00 0.  1.
         21    1    1    2  503  502 -0.41219566034E+02  0.22991314992E+02 -0.13624825871E+03  0.14419168211E+03  0.00000000000E+00 0.  1.
         -1    1    1    2    0  503 -0.34683287520E+02 -0.16041460185E+02  0.11686403359E+03  0.12295308546E+03  0.00000000000E+00 0.  1.
<scales pt_clust_5="13000.00000" pt_clust_6="13000.00000" pt_clust_7="13000.00000" pt_clust_8="13000.00000" pt_clust_9="47.19802" pt_clust_10="13000.00000"></scales>
<clustering>
<clus scale="   47.198">  2  9  1 -1</clus>
<clus scale="   91.347">  7  8 -1 -1</clus>
<clus scale="  100.445">  1  7  2 -1</clus>
<clus scale="  112.250">  5  6 -1 -1</clus>
<clus scale="   61.112">  5 10 -1 -1</clus>
<clus scale="   47.198">  2  5  1 -1</clus>
</clustering>
</event>
<event>
10    2  0.5692308E-006  0.3410597E+03  0.7546771E-02  0.1113460E+00
          3   -1    0    0  503    0 -0.00000000000E+00  0.00000000000E+00  0.70934143485E+03  0.70934143485E+03  0.00000000000E+00 0. -1.
         21   -1    0    0  501  502  0.00000000000E+00 -0.00000000000E+00 -0.86608140923E+02  0.86608140923E+02  0.00000000000E+00 0. -1.
         23    2    1    2    0    0 -0.26403426885E+02  0.21066474439E+02  0.20340668673E+03  0.22584195884E+03  0.92137792844E+02 0.  0.
         23    2    1    2    0    0  0.14983638887E+03 -0.65320997820E+02  0.17222239536E+03  0.25496386095E+03  0.92888324027E+02 0.  0.
        -11    1    4    4    0    0  0.12570163593E+03 -0.66981057220E+02  0.18001402870E+03  0.22954828213E+03  0.00000000000E+00 0. -1.
         11    1    4    4    0    0  0.24134752937E+02  0.16600594002E+01 -0.77916333355E+01  0.25415578817E+02  0.00000000000E+00 0.  1.
        -13    1    3    3    0    0 -0.39972630059E+02  0.51263613813E+02  0.13247058943E+03  0.14756092409E+03  0.00000000000E+00 0.  1.
         13    1    3    3    0    0  0.13569203174E+02 -0.30197139375E+02  0.70936097302E+02  0.78281034750E+02  0.00000000000E+00 0. -1.
         21    1    1    2  503  502  0.16822436383E+02  0.17179351251E+02 -0.57574713499E+01  0.24723934793E+02  0.00000000000E+00 0. -1.
          3    1    1    2  501    0 -0.14025539837E+03  0.27075172130E+02  0.25286168319E+03  0.29041982119E+03  0.00000000000E+00 0. -1.
<scales pt_clust_5="13000.00000" pt_clust_6="13000.00000" pt_clust_7="13000.00000" pt_clust_8="13000.00000" pt_clust_9="24.04422" pt_clust_10="13000.00000"></scales>
<clustering>
<clus scale="   24.044">  2  9  1 -1</clus>
<clus scale="   92.138">  7  8 -1 -1</clus>
<clus scale="   92.888">  5  6 -1 -1</clus>
<clus scale="   98.075">  1  7  2 -1</clus>
<clus scale="  154.939">  5 10 -1 -1</clus>
<clus scale="   24.044">  2  5  1 -1</clus>
</clustering>
</event>
<event>
10    2  0.5692308E-006  0.3872919E+03  0.7546771E-02  0.1089974E+00
         21   -1    0    0  503  502  0.00000000000E+00  0.00000000000E+00  0.93429901274E+03  0.93429901274E+03  0.00000000000E+00 0. -1.
         -2   -1    0    0    0  501 -0.00000000000E+00 -0.00000000000E+00 -0.28436321869E+03  0.28436321869E+03  0.00000000000E+00 0.  1.
         23    2    1    2    0    0  0.80457983402E+02  0.22842209936E+02  0.37201306190E+02  0.12846924418E+03  0.90139646491E+02 0.  0.
         23    2    1    2    0    0  0.19597866299E+03  0.82087869853E+02 -0.52547053091E+02  0.23724338221E+03  0.91526908004E+02 0.  0.
        -11    1    4    4    0    0  0.11877618112E+03  0.13740923139E+02  0.40212734967E+01  0.11963596788E+03  0.00000000000E+00 0.  1.
         11    1    4    4    0    0  0.77202481869E+02  0.68346946714E+02 -0.56568326588E+02  0.11760741433E+03  0.00000000000E+00 0. -1.
        -13    1    3    3    0    0  0.55720209399E+02  0.55779254512E+02  0.37431063297E+02  0.87276293854E+02  0.00000000000E+00 0.  1.
         13    1    3    3    0    0  0.24737774004E+02 -0.32937044576E+02 -0.22975710734E+00  0.41192950324E+02  0.00000000000E+00 0. -1.
         21    1    1    2  503  501 -0.34836359501E+03 -0.16272721199E+03  0.65578403733E+03  0.76019079412E+03  0.00000000000E+00 0. -1.
         -2    1    1    2    0  502  0.71926948619E+02  0.57797132204E+02  0.94975036214E+01  0.92758810922E+02  0.00000000000E+00 0.  1.
<scales pt_clust_5="13000.00000" pt_clust_6="13000.00000" pt_clust_7="13000.00000" pt_clust_8="13000.00000" pt_clust_9="366.45335" pt_clust_10="13000.00000"></scales>
<clustering>
<clus scale="   90.140">  7  8 -1 -1</clus>
<clus scale="   91.527">  5  6 -1 -1</clus>
<clus scale="   92.271">  5 10 -1 -1</clus>
<clus scale="  122.965">  2  7  1 -1</clus>
<clus scale="  366.453">  1  9  2 -1</clus>
<clus scale="  366.453">  1  5  2 -1</clus>
</clustering>
</event>
<event>
10    2  0.5692308E-006  0.1401363E+03  0.7546771E-02  0.1233214E+00
         -1   -1    0    0    0  501 -0.00000000000E+00  0.00000000000E+00  0.36358311757E+02  0.36358311757E+02  0.00000000000E+00 0.  1.
         21   -1    0    0  501  502  0.00000000000E+00 -0.00000000000E+00 -0.71331116892E+03  0.71331116892E+03  0.00000000000E+00 0. -1.
         23    2    1    2    0    0 -0.97742249563E+01  0.29647052605E+01 -0.61163996698E+02  0.11038582536E+03  0.91321799133E+02 0.  0.
         23    2    1    2    0    0  0.41290368946E+02 -0.19346098648E+02 -0.31968139132E+03  0.33824554141E+03  0.10067118868E+03 0.  0.
        -11    1    3    3    0    0  0.15722820942E+02 -0.30118147209E+02 -0.59581631269E+02  0.68587758925E+02  0.00000000000E+00 0. -1.
         11    1    3    3    0    0 -0.25497045898E+02  0.33082852470E+02 -0.15823654286E+01  0.41798066432E+02  0.00000000000E+00 0.  1.
        -11    1    4    4    0    0  0.56747534280E+02 -0.35941046548E+02 -0.30229830529E+03  0.30967128839E+03  0.00000000000E+00 0. -1.
         11    1    4    4    0    0 -0.15457165334E+02  0.16594947900E+02 -0.17383086033E+02  0.28574253026E+02  0.00000000000E+00 0.  1.
         21    1    1    2  503  502 -0.38131586719E+01  0.24862814341E+02 -0.14827530304E+03  0.15039370069E+03  0.00000000000E+00 0.  1.
         -1    1    1    2    0  503 -0.27702985318E+02 -0.84814209537E+01 -0.14783216611E+03  0.15064441321E+03  0.00000000000E+00 0.  1.
<scales pt_clust_5="13000.00000" pt_clust_6="13000.00000" pt_clust_7="13000.00000" pt_clust_8="13000.00000" pt_clust_9="25.15352" pt_clust_10="13000.00000"></scales>
<clustering>
<clus scale="   25.154">  2  9  1 -1</clus>
<clus scale="   91.322">  5  6 -1 -1</clus>
<clus scale="   92.154">  1  5  2 -1</clus>
<clus scale="  100.671">  7  8 -1 -1</clus>
<clus scale="   30.335">  7 10 -1 -1</clus>
<clus scale="   25.154">  2  5  1 -1</clus>
</clustering>
</event>
<event>
10    2  0.5692308E-006  0.1781281E+03  0.7546771E-02  0.1188632E+00
         21   -1    0    0  501  502  0.00000000000E+00  0.00000000000E+00  0.43326847434E+03  0.43326847434E+03  0.00000000000E+00 0. -1.
          2   -1    0    0  503    0 -0.00000000000E+00 -0.00000000000E+00 -0.10502404275E+03  0.10502404275E+03  0.00000000000E+00 0. -1.
         23    2    1    2    0    0  0.63450986166E+02  0.69910792735E+01  0.10089287780E+03  0.15144116682E+03  0.93167330026E+02 0.  0.
         23    2    1    2    0    0 -0.83827701619E+02 -0.52103185377E+02  0.50573224952E+02  0.14442454525E+03  0.92514716152E+02 0.  0.
        -11    1    3    3    0    0  0.26356512436E+02 -0.41097378633E+02  0.26995380192E+02  0.55788984845E+02  0.00000000000E+00 0.  1.
         11    1    3    3    0    0  0.37094473730E+02  0.48088457907E+02  0.73897497606E+02  0.95652181980E+02  0.00000000000E+00 0. -1.
        -13    1    4    4    0    0 -0.49578032485E+02  0.25126989532E+01  0.61503657940E+02  0.79037933305E+02  0.00000000000E+00 0. -1.
         13    1    4    4    0    0 -0.34249669134E+02 -0.54615884330E+02 -0.10930432987E+02  0.65386611950E+02  0.00000000000E+00 0.  1.
         21    1    1    2  503  502 -0.20973144850E+02  0.74987727197E+02  0.17481897388E+03  0.19137582309E+03  0.00000000000E+00 0. -1.
          2    1    1    2  501    0  0.41349860303E+02 -0.29875621093E+02  0.19593549646E+01  0.51050981917E+02  0.00000000000E+00 0. -1.
<scales pt_clust_5="13000.00000" pt_clust_6="13000.00000" pt_clust_7="13000.00000" pt_clust_8="13000.00000" pt_clust_9="77.86547" pt_clust_10="13000.00000"></scales>
<clustering>
<clus scale="   77.865">  1  9  2 -1</clus>
<clus scale="   92.515">  7  8 -1 -1</clus>
<clus scale="   44.855">  7 10 -1 -1</clus>
<clus scale="   93.167">  5  6 -1 -1</clus>
<clus scale="  116.119">  2  5  1 -1</clus>
<clus scale="   77.865">  1  5  2 -1</clus>
</clustering>
</event>
<event>
10    2  0.5692308E-006  0.3289366E+03  0.7546771E-02  0.1117028E+00
         21   -1    0    0  501  502  0.00000000000E+00  0.00000000000E+00  0.96908739096E+02  0.96908739096E+02  0.00000000000E+00 0. -1.
          2   -1    0    0  503    0 -0.00000000000E+00 -0.00000000000E+00 -0.81485692061E+03  0.81485692061E+03  0.00000000000E+00 0. -1.
         23    2    1    2    0    0 -0.38542315436E+02 -0.29330493951E+02 -0.19048424617E+03  0.21580661884E+03  0.89120484412E+02 0.  0.
         23    2    1    2    0    0  0.23448279664E+02  0.14495833433E+03 -0.41204204593E+03  0.44675881321E+03  0.90840789605E+02 0.  0.
        -11    1    3    3    0    0 -0.49654852861E+02  0.17994319754E+02 -0.10017347187E+03  0.11324365069E+03  0.00000000000E+00 0. -1.
         11    1    3    3    0    0  0.11112537426E+02 -0.47324813705E+02 -0.90310774302E+02  0.10256296815E+03  0.00000000000E+00 0.  1.
        -13    1    4    4    0    0  0.78583764576E+00  0.14948641075E+03 -0.36110399009E+03  0.39082335677E+03  0.00000000000E+00 0. -1.
         13    1    4    4    0    0  0.22662442018E+02 -0.45280764175E+01 -0.50938055837E+02  0.55935456436E+02  0.00000000000E+00 0.  1.
         21    1    1    2  503  502  0.22218649191E+01  0.22393522981E+02  0.36915352583E+02  0.43233665257E+02  0.00000000000E+00 0. -1.
          2    1    1    2  501    0  0.12872170852E+02 -0.13802136336E+03 -0.15233724200E+03  0.20596656240E+03  0.00000000000E+00 0. -1.
<scales pt_clust_5="13000.00000" pt_clust_6="13000.00000" pt_clust_7="13000.00000" pt_clust_8="13000.00000" pt_clust_9="22.50348" pt_clust_10="13000.00000"></scales>
<clustering>
<clus scale="   22.503">  1  9  2 -1</clus>
<clus scale="   89.120">  5  6 -1 -1</clus>
<clus scale="   90.841">  7  8 -1 -1</clus>
<clus scale="   99.913">  2  5  1 -1</clus>
<clus scale="  133.686">  7 10 -1 -1</clus>
<clus scale="   22.503">  1  5  2 -1</clus>
</clustering>
</event>
<event>
10    2  0.5692308E-006  0.1709337E+03  0.7546771E-02  0.1193882E+00
         -1   -1    0    0    0  501 -0.00000000000E+00  0.00000000000E+00  0.55503220320E+03  0.55503220320E+03  0.00000000000E+00 0.  1.
         21   -1    0    0  503  502  0.00000000000E+00 -0.00000000000E+00 -0.15959737578E+03  0.15959737578E+03  0.00000000000E+00 0.  1.
         23    2    1    2    0    0 -0.44003578125E+02  0.55873089082E+02  0.38401846695E+03  0.40317562644E+03  0.10011136714E+03 0.  0.
         23    2    1    2    0    0 -0.21803323916E+02 -0.15648642226E+02  0.54325189173E+02  0.10879296389E+03  0.90357168376E+02 0.  0.
        -11    1    4    4    0    0 -0.57269101812E+02 -0.12286933331E+02  0.31865352173E+02  0.66679227816E+02  0.00000000000E+00 0.  1.
         11    1    4    4    0    0  0.35465777896E+02 -0.33617088944E+01  0.22459837000E+02  0.42113736079E+02  0.00000000000E+00 0. -1.
        -13    1    3    3    0    0 -0.71682217343E+02  0.47370153866E+02  0.33845123692E+03  0.34918692921E+03  0.00000000000E+00 0.  1.
         13    1    3    3    0    0  0.27678639218E+02  0.85029352161E+01  0.45567230026E+02  0.53988697229E+02  0.00000000000E+00 0. -1.
         21    1    1    2  503  501  0.50784083536E+01 -0.78380406800E+02 -0.87991402046E+02  0.11794814638E+03  0.00000000000E+00 0.  1.
         -1    1    1    2    0  502  0.60728493688E+02  0.38155959943E+02  0.45082573346E+02  0.84712842263E+02  0.00000000000E+00 0.  1.
<scales pt_clust_5="13000.00000" pt_clust_6="13000.00000" pt_clust_7="13000.00000" pt_clust_8="13000.00000" pt_clust_9="78.54475" pt_clust_10="13000.00000"></scales>
<clustering>
<clus scale="   78.545">  2  9  1 -1</clus>
<clus scale="   90.357">  5  6 -1 -1</clus>
<clus scale="   63.420">  5 10 -1 -1</clus>
<clus scale="  100.111">  7  8 -1 -1</clus>
<clus scale="  117.046">  1  7  2 -1</clus>
<clus scale="   78.545">  2  5  1 -1</clus>
</clustering>
</event>
<event>
10    2  0.5692308E-006  0.5194720E+03  0.7546771E-02  0.1065416E+00
         21   -1    0    0  503  502  0.00000000000E+00  0.00000000000E+00  0.27377034399E+03  0.27377034399E+03  0.00000000000E+00 0. -1.
          2   -1    0    0  502    0 -0.00000000000E+00 -0.00000000000E+00 -0.46322779123E+03  0.46322779123E+03  0.00000000000E+00 0. -1.
         23    2    1    2    0    0 -0.40106391771E+02 -0.11691231930E+01  0.57303331413E+01  0.10020945596E+03  0.91647197647E+02 0.  0.
         23    2    1    2    0    0 -0.16318638894E+03  0.11081973943E+03 -0.26001500450E+03  0.33832718812E+03  0.89144105087E+02 0.  0.
        -11    1    4    4    0    0 -0.14466995110E+03  0.74957589945E+02 -0.15125475491E+03  0.22231967057E+03  0.00000000000E+00 0.  1.
         11    1    4    4    0    0 -0.18516437846E+02  0.35862149483E+02 -0.10876024959E+03  0.11600751754E+03  0.00000000000E+00 0. -1.
        -11    1    3    3    0    0 -0.41495702807E+02  0.40280628820E+02  0.93370819836E+01  0.58579889976E+02  0.00000000000E+00 0. -1.
         11    1    3    3    0    0  0.13893110358E+01 -0.41449752013E+02 -0.36067488423E+01  0.41629565988E+02  0.00000000000E+00 0.  1.
         21    1    1    2  503  501  0.12709486708E+02  0.30648143041E+02  0.51714870225E+02  0.61443205700E+02  0.00000000000E+00 0.  1.
          2    1    1    2  501    0  0.19058329401E+03 -0.14029875928E+03  0.13112353896E+02  0.23701828544E+03  0.00000000000E+00 0. -1.
<scales pt_clust_5="13000.00000" pt_clust_6="13000.00000" pt_clust_7="13000.00000" pt_clust_8="13000.00000" pt_clust_9="33.17890" pt_clust_10="13000.00000"></scales>
<clustering>
<clus scale="   33.179">  1  9  2 -1</clus>
<clus scale="   89.144">  5  6 -1 -1</clus>
<clus scale="   91.647">  7  8 -1 -1</clus>
<clus scale="   99.038">  2  7  1 -1</clus>
<clus scale="  223.515">  5 10 -1 -1</clus>
<clus scale="   33.179">  1  5  2 -1</clus>
</clustering>
</event>
<event>
10    2  0.9515965E-006  0.3623648E+03  0.7546771E-02  0.1093004E+00
          2   -1    0    0  503    0 -0.00000000000E+00  0.00000000000E+00  0.14615617746E+04  0.14615617746E+04  0.00000000000E+00 0. -1.
         21   -1    0    0  501  502  0.00000000000E+00 -0.00000000000E+00 -0.26555573845E+03  0.26555573845E+03  0.00000000000E+00 0. -1.
         23    2    1    2    0    0  0.94374514308E+02  0.43551402817E+02  0.30903673408E+03  0.33869508905E+03  0.91691802776E+02 0.  0.
         23    2    1    2    0    0 -0.13107658438E+01  0.15568949642E+02  0.20795543167E+03  0.22778589361E+03  0.91634281055E+02 0.  0.
        -11    1    3    3    0    0  0.35105506990E+02  0.26564404118E+02  0.30847241905E+02  0.53755153430E+02  0.00000000000E+00 0. -1.
         11    1    3    3    0    0  0.59269007318E+02  0.16986998700E+02  0.27818949218E+03  0.28493993562E+03  0.00000000000E+00 0.  1.
        -13    1    4    4    0    0 -0.42522369163E+02 -0.97119226810E+01  0.82174063878E+02  0.93032521710E+02  0.00000000000E+00 0.  1.
         13    1    4    4    0    0  0.41211603319E+02  0.25280872323E+02  0.12578136780E+03  0.13475337190E+03  0.00000000000E+00 0. -1.
         21    1    1    2  503  502 -0.28206929438E+03  0.19057889553E+02 -0.14070056531E+03  0.31578939036E+03  0.00000000000E+00 0. -1.
          2    1    1    2  501    0  0.18900554592E+03 -0.78178242012E+02  0.81971443574E+03  0.84484714006E+03  0.00000000000E+00 0. -1.
<scales pt_clust_5="13000.00000" pt_clust_6="13000.00000" pt_clust_7="13000.00000" pt_clust_8="13000.00000" pt_clust_9="275.71944" pt_clust_10="13000.00000"></scales>
<clustering>
<clus scale="   91.634">  7  8 -1 -1</clus>
<clus scale="   91.692">  5  6 -1 -1</clus>
<clus scale="  138.603">  1  5  2 -1</clus>
<clus scale="  262.169">  7 10 -1 -1</clus>
<clus scale="  275.719">  2  9  1 -1</clus>
<clus scale="  275.719">  2  5  1 -1</clus>
</clustering>
</event>
<event>
10    2  0.5692308E-006  0.4231435E+03  0.7546771E-02  0.1081442E+00
         21   -1    0    0  503  502  0.00000000000E+00  0.00000000000E+00  0.18453682705E+03  0.18453682705E+03  0.00000000000E+00 0.  1.
         -1   -1    0    0    0  501 -0.00000000000E+00 -0.00000000000E+00 -0.15264280074E+04  0.15264280074E+04  0.00000000000E+00 0.  1.
         23    2    1    2    0    0  0.73636821989E+02  0.19974235846E+01 -0.38522339018E+03  0.40299476539E+03  0.92635572749E+02 0.  0.
         23    2    1    2    0    0  0.68823020294E+02  0.14314494167E+03 -0.57837949907E+02  0.19202832999E+03  0.91118431838E+02 0.  0.
        -11    1    3    3    0    0 -0.18551019166E+02  0.13030998309E+02 -0.45825951533E+02  0.51126950457E+02  0.00000000000E+00 0. -1.
         11    1    3    3    0    0  0.92187841155E+02 -0.11033574725E+02 -0.33939743865E+03  0.35186781494E+03  0.00000000000E+00 0.  1.
        -13    1    4    4    0    0  0.87991813030E+02  0.13279604230E+03 -0.59798198540E+02  0.17015631802E+03  0.00000000000E+00 0. -1.
         13    1    4    4    0    0 -0.19168792736E+02  0.10348899368E+02  0.19602486336E+01  0.21872011974E+02  0.00000000000E+00 0.  1.
         21    1    1    2  503  501 -0.30882225543E+03 -0.28468223892E+03 -0.72465971537E+03  0.83758394545E+03  0.00000000000E+00 0.  1.
         -1    1    1    2    0  502  0.16636241315E+03  0.13953987366E+03 -0.17417012487E+03  0.27835779359E+03  0.00000000000E+00 0.  1.
<scales pt_clust_5="13000.00000" pt_clust_6="13000.00000" pt_clust_7="13000.00000" pt_clust_8="13000.00000" pt_clust_9="383.19460" pt_clust_10="13000.00000"></scales>
<clustering>
<clus scale="   91.118">  7  8 -1 -1</clus>
<clus scale="   92.636">  5  6 -1 -1</clus>
<clus scale="  118.354">  2  5  1 -1</clus>
<clus scale="  228.849">  7 10 -1 -1</clus>
<clus scale="  383.195">  1  9  2 -1</clus>
<clus scale="  383.195">  1  5  2 -1</clus>
</clustering>
</event>
<event>
10    2  0.5692308E-006  0.2067966E+03  0.7546771E-02  0.1164990E+00
         -1   -1    0    0    0  501 -0.00000000000E+00  0.00000000000E+00  0.16528995846E+03  0.16528995846E+03  0.00000000000E+00 0.  1.
         21   -1    0    0  501  502  0.00000000000E+00 -0.00000000000E+00 -0.50708351552E+03  0.50708351552E+03  0.00000000000E+00 0.  1.
         23    2    1    2    0    0  0.34265464859E+02 -0.68756959167E+02 -0.12029822431E+03  0.16840097534E+03  0.89362096023E+02 0.  0.
         23    2    1    2    0    0  0.29164662874E+02  0.31488027187E+01  0.72211802680E+02  0.11735754396E+03  0.87736857466E+02 0.  0.
        -11    1    4    4    0    0  0.16420208315E+02  0.36004166030E+02  0.71952215165E+02  0.82116042767E+02  0.00000000000E+00 0.  1.
         11    1    4    4    0    0  0.12744454558E+02 -0.32855363312E+02  0.25958751465E+00  0.35241501188E+02  0.00000000000E+00 0. -1.
        -11    1    3    3    0    0  0.63354735795E+02 -0.33242883404E+02 -0.79879134215E+02  0.10723613163E+03  0.00000000000E+00 0.  1.
         11    1    3    3    0    0 -0.29089270937E+02 -0.35514075763E+02 -0.40419090097E+02  0.61164843702E+02  0.00000000000E+00 0. -1.
         21    1    1    2  503  502 -0.33305349717E+02 -0.31195919560E+02 -0.28071827723E+03  0.28440320478E+03  0.00000000000E+00 0.  1.
         -1    1    1    2    0  503 -0.30124778015E+02  0.96804076009E+02 -0.12988858189E+02  0.10221174991E+03  0.00000000000E+00 0.  1.
<scales pt_clust_5="13000.00000" pt_clust_6="13000.00000" pt_clust_7="13000.00000" pt_clust_8="13000.00000" pt_clust_9="45.63367" pt_clust_10="13000.00000"></scales>
<clustering>
<clus scale="   45.634">  2  9  1 -1</clus>
<clus scale="   87.737">  5  6 -1 -1</clus>
<clus scale="   89.362">  7  8 -1 -1</clus>
<clus scale="   96.855">  5 10 -1 -1</clus>
<clus scale="  126.644">  1  7  2 -1</clus>
<clus scale="   45.634">  2  5  1 -1</clus>
</clustering>
</event>
<event>
10    2  0.5692308E-006  0.4224494E+03  0.7546771E-02  0.1080885E+00
          2   -1    0    0  503    0 -0.00000000000E+00  0.00000000000E+00  0.84387218231E+03  0.84387218231E+03  0.00000000000E+00 0. -1.
         21   -1    0    0  501  502  0.00000000000E+00 -0.00000000000E+00 -0.26464136209E+03  0.26464136209E+03  0.00000000000E+00 0.  1.
         23    2    1    2    0    0 -0.52143899466E+02  0.57398131068E+02  0.14668764556E+03  0.18998369169E+03  0.92536511959E+02 0.  0.
         23    2    1    2    0    0  0.94582638206E+02 -0.65839662591E+02  0.56179904622E+03  0.57880741234E+03  0.78224776239E+02 0.  0.
        -13    1    3    3    0    0 -0.27168306267E+02  0.80932424023E+02  0.11539487605E+03  0.14354146280E+03  0.00000000000E+00 0.  1.
         13    1    3    3    0    0 -0.24975593199E+02 -0.23534292956E+02  0.31292769512E+02  0.46442228890E+02  0.00000000000E+00 0. -1.
        -13    1    4    4    0    0  0.94518211781E+02 -0.26165765452E+02  0.35846178333E+03  0.37163582947E+03  0.00000000000E+00 0.  1.
         13    1    4    4    0    0  0.64426424314E-01 -0.39673897139E+02  0.20333726290E+03  0.20717158287E+03  0.00000000000E+00 0. -1.
         21    1    1    2  503  502  0.71859599366E+02  0.98573479896E+02 -0.14928946627E+03  0.19278972405E+03  0.00000000000E+00 0.  1.
          2    1    1    2  501    0 -0.11429833811E+03 -0.90131948373E+02  0.20033594706E+02  0.14693271633E+03  0.00000000000E+00 0. -1.
<scales pt_clust_5="13000.00000" pt_clust_6="13000.00000" pt_clust_7="13000.00000" pt_clust_8="13000.00000" pt_clust_9="122.51456" pt_clust_10="13000.00000"></scales>
<clustering>
<clus scale="   78.225">  7  8 -1 -1</clus>
<clus scale="   92.537">  5  6 -1 -1</clus>
<clus scale="  120.733">  1  5  2 -1</clus>
<clus scale="  122.515">  2  9  1 -1</clus>
<clus scale="   70.736">  7 10 -1 -1</clus>
<clus scale="  122.515">  2  5  1 -1</clus>
</clustering>
</event>
<event>
10    2  0.5692308E-006  0.2154861E+03  0.7546771E-02  0.1165727E+00
         21   -1    0    0  501  502  0.00000000000E+00  0.00000000000E+00  0.10769932459E+03  0.10769932459E+03  0.00000000000E+00 0.  1.
         -1   -1    0    0    0  501 -0.00000000000E+00 -0.00000000000E+00 -0.53654736990E+03  0.53654736990E+03  0.00000000000E+00 0.  1.
         23    2    1    2    0    0 -0.46184210009E+02 -0.35369406977E+02 -0.25399753733E+03  0.27498623969E+03  0.87856171327E+02 0.  0.
         23    2    1    2    0    0  0.71396701759E+02 -0.47195310236E+02 -0.17024964853E+03  0.21193795278E+03  0.92778589528E+02 0.  0.
        -11    1    3    3    0    0 -0.71806453657E+02 -0.32738041087E+02 -0.17703747989E+03  0.19383037792E+03  0.00000000000E+00 0.  1.
         11    1    3    3    0    0  0.25622243649E+02 -0.26313658903E+01 -0.76960057447E+02  0.81155861762E+02  0.00000000000E+00 0. -1.
        -11    1    4    4    0    0 -0.47165330054E+00 -0.52575530553E+02 -0.55641228678E+02  0.76552956825E+02  0.00000000000E+00 0.  1.
         11    1    4    4    0    0  0.71868355059E+02  0.53802203169E+01 -0.11460841985E+03  0.13538499596E+03  0.00000000000E+00 0. -1.
         21    1    1    2  503  502 -0.66652397037E+02  0.53005313372E+01  0.12429075899E+02  0.68008231788E+02  0.00000000000E+00 0.  1.
         -1    1    1    2    0  503  0.41439905287E+02  0.77264185877E+02 -0.17029935349E+02  0.89314270234E+02  0.00000000000E+00 0.  1.
<scales pt_clust_5="13000.00000" pt_clust_6="13000.00000" pt_clust_7="13000.00000" pt_clust_8="13000.00000" pt_clust_9="66.86283" pt_clust_10="13000.00000"></scales>
<clustering>
<clus scale="   66.863">  1  9  2 -1</clus>
<clus scale="   87.856">  5  6 -1 -1</clus>
<clus scale="   92.779">  7  8 -1 -1</clus>
<clus scale="   80.309">  7 10 -1 -1</clus>
<clus scale="  110.045">  2  5  1 -1</clus>
<clus scale="   66.863">  1  5  2 -1</clus>
</clustering>
</event>
<event>
10    2  0.5692308E-006  0.2676761E+03  0.7546771E-02  0.1149019E+00
         21   -1    0    0  503  502  0.00000000000E+00  0.00000000000E+00  0.33574787878E+03  0.33574787878E+03  0.00000000000E+00 0.  1.
         -1   -1    0    0    0  501 -0.00000000000E+00 -0.00000000000E+00 -0.12274835134E+03  0.12274835134E+03  0.00000000000E+00 0.  1.
         23    2    1    2    0    0 -0.24073991461E+02  0.38491567045E+02  0.34998696506E+02  0.86716440296E+02  0.65066692416E+02 0.  0.
         23    2    1    2    0    0 -0.37013465067E+02 -0.43243749082E+02 -0.36968045357E+02  0.11453590310E+03  0.92259515984E+02 0.  0.
        -11    1    3    3    0    0  0.19028441179E+02  0.29353428260E+02  0.11774622101E+02  0.36909985775E+02  0.00000000000E+00 0.  1.
         11    1    3    3    0    0 -0.43102432640E+02  0.91381387855E+01  0.23224074406E+02  0.49806454521E+02  0.00000000000E+00 0. -1.
        -11    1    4    4    0    0 -0.60858296189E+02 -0.49545146445E+02 -0.11906481756E+02  0.79373912963E+02  0.00000000000E+00 0.  1.
         11    1    4    4    0    0  0.23844831122E+02  0.63013973627E+01 -0.25061563601E+02  0.35161990133E+02  0.00000000000E+00 0. -1.
         21    1    1    2  503  501 -0.18588008441E+01  0.48769491622E+02  0.30829325792E+02  0.57726647074E+02  0.00000000000E+00 0. -1.
         -1    1    1    2    0  502  0.62946257372E+02 -0.44017309585E+02  0.18413955050E+03  0.19951723966E+03  0.00000000000E+00 0.  1.
<scales pt_clust_5="13000.00000" pt_clust_6="13000.00000" pt_clust_7="13000.00000" pt_clust_8="13000.00000" pt_clust_9="48.80490" pt_clust_10="13000.00000"></scales>
<clustering>
<clus scale="   48.805">  1  9  2 -1</clus>
<clus scale="   65.067">  5  6 -1 -1</clus>
<clus scale="   84.860">  2  5  1 -1</clus>
<clus scale="   92.260">  7  8 -1 -1</clus>
<clus scale="   57.808">  7 10 -1 -1</clus>
<clus scale="   48.805">  1  5  2 -1</clus>
</clustering>
</event>
<event>
10    2  0.5692308E-006  0.3517053E+03  0.7546771E-02  0.1104243E+00
         21   -1    0    0  501  502  0.00000000000E+00  0.00000000000E+00  0.22201443254E+03  0.22201443254E+03  0.00000000000E+00 0.  1.
          3   -1    0    0  503    0 -0.00000000000E+00 -0.00000000000E+00 -0.58066596570E+03  0.58066596570E+03  0.00000000000E+00 0. -1.
         23    2    1    2    0    0  0.59864618018E+02 -0.31189089581E+02 -0.33078717671E+03  0.35009844767E+03  0.92694309359E+02 0.  0.
         23    2    1    2    0    0 -0.16871056993E+03 -0.11891745004E+02 -0.13232680728E+02  0.19223779195E+03  0.90418995832E+02 0.  0.
        -11    1    4    4    0    0 -0.36102757513E+02 -0.28156182356E+02 -0.34005293977E+02  0.57031041752E+02  0.00000000000E+00 0. -1.
         11    1    4    4    0    0 -0.13260781242E+03  0.16264437352E+02  0.20772613249E+02  0.13520675020E+03  0.00000000000E+00 0.  1.
        -13    1    3    3    0    0  0.62325289685E+02 -0.56051073787E+02 -0.19849605102E+03  0.21546890002E+03  0.00000000000E+00 0. -1.
         13    1    3    3    0    0 -0.24606716673E+01  0.24861984206E+02 -0.13229112569E+03  0.13462954765E+03  0.00000000000E+00 0.  1.
         21    1    1    2  503  502 -0.31497030585E+02  0.19209973952E+02  0.80891348827E+02  0.88907234520E+02  0.00000000000E+00 0.  1.
          3    1    1    2  501    0  0.14034298250E+03  0.23870860633E+02 -0.95523024557E+02  0.17143692410E+03  0.00000000000E+00 0. -1.
<scales pt_clust_5="13000.00000" pt_clust_6="13000.00000" pt_clust_7="13000.00000" pt_clust_8="13000.00000" pt_clust_9="36.89290" pt_clust_10="13000.00000"></scales>
<clustering>
<clus scale="   36.893">  1  9  2 -1</clus>
<clus scale="   90.419">  5  6 -1 -1</clus>
<clus scale="   92.694">  7  8 -1 -1</clus>
<clus scale="  113.162">  2  7  1 -1</clus>
<clus scale="  160.646">  5 10 -1 -1</clus>
<clus scale="   36.893">  1  5  2 -1</clus>
</clustering>
</event>
<event>
10    2  0.5692308E-006  0.1877507E+03  0.7546771E-02  0.1190490E+00
         21   -1    0    0  503  502  0.00000000000E+00  0.00000000000E+00  0.81968227275E+02  0.81968227275E+02  0.00000000000E+00 0.  1.
          1   -1    0    0  502    0 -0.00000000000E+00 -0.00000000000E+00 -0.41813818030E+03  0.41813818030E+03  0.00000000000E+00 0. -1.
         23    2    1    2    0    0 -0.26961232156E+02 -0.10589210103E+02 -0.19574523909E+03  0.21851435495E+03  0.92699974555E+02 0.  0.
         23    2    1    2    0    0 -0.73144334508E+02  0.37472275045E+02 -0.76322236725E+02  0.14327042891E+03  0.89146323058E+02 0.  0.
        -13    1    3    3    0    0 -0.82586080362E+01  0.21733932603E+02 -0.45308752614E+01  0.23687491715E+02  0.00000000000E+00 0. -1.
         13    1    3    3    0    0 -0.18702624120E+02 -0.32323142706E+02 -0.19121436383E+03  0.19482686323E+03  0.00000000000E+00 0.  1.
        -13    1    4    4    0    0 -0.87030681297E+02  0.64796900129E+01 -0.55988130475E+02  0.10368701280E+03  0.00000000000E+00 0.  1.
         13    1    4    4    0    0  0.13886346789E+02  0.30992585033E+02 -0.20334106250E+02  0.39583416112E+02  0.00000000000E+00 0. -1.
         21    1    1    2  503  501  0.41956169709E+02 -0.18987847754E+01  0.76015617240E+01  0.42681486630E+02  0.00000000000E+00 0. -1.
          1    1    1    2  501    0  0.58149396956E+02 -0.24984280167E+02 -0.71704038935E+02  0.95640137084E+02  0.00000000000E+00 0. -1.
<scales pt_clust_5="13000.00000" pt_clust_6="13000.00000" pt_clust_7="13000.00000" pt_clust_8="13000.00000" pt_clust_9="41.99911" pt_clust_10="13000.00000"></scales>
<clustering>
<clus scale="   41.999">  1  9  2 -1</clus>
<clus scale="   89.146">  7  8 -1 -1</clus>
<clus scale="   71.634">  7 10 -1 -1</clus>
<clus scale="   92.700">  5  6 -1 -1</clus>
<clus scale="   95.173">  2  5  1 -1</clus>
<clus scale="   41.999">  1  5  2 -1</clus>
</clustering>
</event>
<event>
10    2  0.5692308E-006  0.1922934E+03  0.7546771E-02  0.1175270E+00
         21   -1    0    0  503  502  0.00000000000E+00  0.00000000000E+00  0.30860061786E+03  0.30860061786E+03  0.00000000000E+00 0.  1.
          2   -1    0    0  502    0 -0.00000000000E+00 -0.00000000000E+00 -0.30335013833E+03  0.30335013833E+03  0.00000000000E+00 0. -1.
         23    2    1    2    0    0 -0.88212333549E+02  0.27051843672E+02 -0.86380770839E+01  0.13339330294E+03  0.95947583904E+02 0.  0.
         23    2    1    2    0    0  0.90084008084E+02 -0.68937154320E+02 -0.16804862530E+03  0.22216302751E+03  0.90821861730E+02 0.  0.
        -11    1    4    4    0    0  0.29601471792E+02 -0.63933849249E+02 -0.41382785439E+02  0.81708745816E+02  0.00000000000E+00 0.  1.
         11    1    4    4    0    0  0.60482536292E+02 -0.50033050712E+01 -0.12666583987E+03  0.14045428170E+03  0.00000000000E+00 0. -1.
        -13    1    3    3    0    0 -0.65332050381E+02 -0.29498651150E+02  0.65345735347E+00  0.71685941671E+02  0.00000000000E+00 0. -1.
         13    1    3    3    0    0 -0.22880283168E+02  0.56550494822E+02 -0.92915344374E+01  0.61707361268E+02  0.00000000000E+00 0.  1.
         21    1    1    2  503  501  0.27582188140E+02  0.12916907569E+02  0.20623147159E+03  0.20846832727E+03  0.00000000000E+00 0.  1.
          2    1    1    2  501    0 -0.29453862675E+02  0.28968403080E+02 -0.24294289672E+02  0.47926098466E+02  0.00000000000E+00 0. -1.
<scales pt_clust_5="13000.00000" pt_clust_6="13000.00000" pt_clust_7="13000.00000" pt_clust_8="13000.00000" pt_clust_9="30.45691" pt_clust_10="13000.00000"></scales>
<clustering>
<clus scale="   30.457">  1  9  2 -1</clus>
<clus scale="   90.822">  5  6 -1 -1</clus>
<clus scale="   40.213">  5 10 -1 -1</clus>
<clus scale="   95.948">  7  8 -1 -1</clus>
<clus scale="  124.515">  2  7  1 -1</clus>
<clus scale="   30.457">  1  5  2 -1</clus>
</clustering>
</event>
<event>
10    2  0.5692308E-006  0.3249143E+03  0.7546771E-02  0.1091337E+00
          2   -1    0    0  503    0 -0.00000000000E+00  0.00000000000E+00  0.44747013736E+03  0.44747013736E+03  0.00000000000E+00 0. -1.
         21   -1    0    0  501  502  0.00000000000E+00 -0.00000000000E+00 -0.23631156174E+03  0.23631156174E+03  0.00000000000E+00 0. -1.
         23    2    1    2    0    0 -0.21026005378E+03 -0.25274794705E+02  0.74286786508E+01  0.23040790803E+03  0.90468300256E+02 0.  0.
         23    2    1    2    0    0 -0.25760127579E+02  0.61564915162E+02  0.14480507634E+03  0.18362773507E+03  0.91086837690E+02 0.  0.
        -11    1    3    3    0    0 -0.14975234933E+03 -0.48704816725E+02  0.32597024870E+02  0.16081197509E+03  0.00000000000E+00 0. -1.
         11    1    3    3    0    0 -0.60507704449E+02  0.23430022020E+02 -0.25168346219E+02  0.69595932934E+02  0.00000000000E+00 0.  1.
        -13    1    4    4    0    0 -0.54569430013E+02  0.19948508462E+02  0.52264510314E+02  0.78149502367E+02  0.00000000000E+00 0. -1.
         13    1    4    4    0    0  0.28809302434E+02  0.41616406700E+02  0.92540566024E+02  0.10547823270E+03  0.00000000000E+00 0.  1.
         21    1    1    2  503  502  0.54597578785E+02  0.84117547677E+01 -0.29949079760E+02  0.62837891482E+02  0.00000000000E+00 0. -1.
          2    1    1    2  501    0  0.18142260258E+03 -0.44701875225E+02  0.88873900396E+02  0.20690816452E+03  0.00000000000E+00 0. -1.
<scales pt_clust_5="13000.00000" pt_clust_6="13000.00000" pt_clust_7="13000.00000" pt_clust_8="13000.00000" pt_clust_9="55.24177" pt_clust_10="13000.00000"></scales>
<clustering>
<clus scale="   55.242">  2  9  1 -1</clus>
<clus scale="   90.468">  5  6 -1 -1</clus>
<clus scale="   91.087">  7  8 -1 -1</clus>
<clus scale="  200.890">  1  5  2 -1</clus>
<clus scale="  118.816">  7 10 -1 -1</clus>
<clus scale="   55.242">  2  5  1 -1</clus>
</clustering>
</event>
<event>
10    2  0.5692308E-006  0.1977120E+03  0.7546771E-02  0.1177268E+00
         21   -1    0    0  503  502  0.00000000000E+00  0.00000000000E+00  0.14220454941E+03  0.14220454941E+03  0.00000000000E+00 0. -1.
         -1   -1    0    0    0  501 -0.00000000000E+00 -0.00000000000E+00 -0.40182777598E+03  0.40182777598E+03  0.00000000000E+00 0.  1.
         23    2    1    2    0    0 -0.18676705981E+01  0.32936418829E+02 -0.14068347700E+03  0.18056691148E+03  0.10827868185E+03 0.  0.
         23    2    1    2    0    0  0.23619882122E+02 -0.30833694292E+02  0.12616619646E+02  0.10095164106E+03  0.92322474005E+02 0.  0.
        -11    1    4    4    0    0 -0.13271559356E+02 -0.51150531441E+02  0.22909007875E+02  0.57596300196E+02  0.00000000000E+00 0. -1.
         11    1    4    4    0    0  0.36891441478E+02  0.20316837148E+02 -0.10292388229E+02  0.43355340865E+02  0.00000000000E+00 0.  1.
        -11    1    3    3    0    0  0.82754987631E+01  0.71947532372E+02 -0.98035071796E+02  0.12188439849E+03  0.00000000000E+00 0.  1.
         11    1    3    3    0    0 -0.10143169361E+02 -0.39011113542E+02 -0.42648405199E+02  0.58682512987E+02  0.00000000000E+00 0. -1.
         21    1    1    2  503  501  0.15889086299E+02 -0.10232093415E+03 -0.11403998906E+03  0.15403621566E+03  0.00000000000E+00 0.  1.
         -1    1    1    2    0  502 -0.37641297822E+02  0.10021820962E+03 -0.17516380158E+02  0.10847755719E+03  0.00000000000E+00 0.  1.
<scales pt_clust_5="13000.00000" pt_clust_6="13000.00000" pt_clust_7="13000.00000" pt_clust_8="13000.00000" pt_clust_9="103.54732" pt_clust_10="13000.00000"></scales>
<clustering>
<clus scale="   92.322">  5  6 -1 -1</clus>
<clus scale="  103.547">  1  9  2 -1</clus>
<clus scale="   69.770">  5 10 -1 -1</clus>
<clus scale="  108.279">  7  8 -1 -1</clus>
<clus scale="  109.492">  2  7  1 -1</clus>
<clus scale="  103.547">  1  5  2 -1</clus>
</clustering>
</event>
<event>
10    2  0.5692308E-006  0.3847795E+03  0.7546771E-02  0.1094157E+00
          1   -1    0    0  502    0 -0.00000000000E+00  0.00000000000E+00  0.24094639102E+03  0.24094639102E+03  0.00000000000E+00 0. -1.
         21   -1    0    0  503  502  0.00000000000E+00 -0.00000000000E+00 -0.88696299574E+03  0.88696299574E+03  0.00000000000E+00 0. -1.
         23    2    1    2    0    0  0.12279544024E+02 -0.63336819249E+02  0.88080108403E+02  0.14251322706E+03  0.91594620562E+02 0.  0.
         23    2    1    2    0    0  0.12493121319E+03 -0.10772109288E+03 -0.49831594367E+02  0.19506817487E+03  0.91415333345E+02 0.  0.
        -11    1    4    4    0    0  0.81188887295E+02 -0.11738967007E+03 -0.28925203769E+02  0.14563185596E+03  0.00000000000E+00 0. -1.
         11    1    4    4    0    0  0.43742325892E+02  0.96685771849E+01 -0.20906390598E+02  0.49436318907E+02  0.00000000000E+00 0.  1.
        -13    1    3    3    0    0  0.45001708315E+02 -0.36373645659E+02  0.80971170151E+02  0.99521486350E+02  0.00000000000E+00 0. -1.
         13    1    3    3    0    0 -0.32722164290E+02 -0.26963173590E+02  0.71089382518E+01  0.42991740706E+02  0.00000000000E+00 0.  1.
         21    1    1    2  503  501 -0.81201244589E+02 -0.17603519181E+02 -0.53989835613E+03  0.54625430063E+03  0.00000000000E+00 0. -1.
          1    1    1    2  501    0 -0.56009512622E+02  0.18866143131E+03 -0.14436676263E+03  0.24407368420E+03  0.00000000000E+00 0. -1.
<scales pt_clust_5="13000.00000" pt_clust_6="13000.00000" pt_clust_7="13000.00000" pt_clust_8="13000.00000" pt_clust_9="83.08746" pt_clust_10="13000.00000"></scales>
<clustering>
<clus scale="   83.087">  2  9  1 -1</clus>
<clus scale="   91.415">  5  6 -1 -1</clus>
<clus scale="   91.595">  7  8 -1 -1</clus>
<clus scale="  112.311">  1  7  2 -1</clus>
<clus scale="  178.537">  5 10 -1 -1</clus>
<clus scale="   83.087">  2  5  1 -1</clus>
</clustering>
</event>
<event>
10    2  0.5692308E-006  0.2002843E+03  0.7546771E-02  0.1162236E+00
         21   -1    0    0  503  502  0.00000000000E+00  0.00000000000E+00  0.22900454278E+03  0.22900454278E+03  0.00000000000E+00 0. -1.
          2   -1    0    0  502    0 -0.00000000000E+00 -0.00000000000E+00 -0.17709877740E+03  0.17709877740E+03  0.00000000000E+00 0. -1.
         23    2    1    2    0    0  0.98680905252E+02 -0.26664498051E+02  0.41711328275E+02  0.14414855873E+03  0.92682552621E+02 0.  0.
         23    2    1    2    0    0 -0.12660414741E+03 -0.16201823730E+02 -0.53134761721E+02  0.16510878377E+03  0.90257954450E+02 0.  0.
        -11    1    4    4    0    0 -0.11553130024E+03 -0.45794642492E+02 -0.47326438485E+02  0.13298278985E+03  0.00000000000E+00 0. -1.
         11    1    4    4    0    0 -0.11072847172E+02  0.29592818762E+02 -0.58083232363E+01  0.32125993924E+02  0.00000000000E+00 0.  1.
        -11    1    3    3    0    0 -0.49325806395E+01 -0.25189261385E+02  0.30585948223E+02  0.39929055456E+02  0.00000000000E+00 0.  1.
         11    1    3    3    0    0  0.10361348589E+03 -0.14752366654E+01  0.11125380053E+02  0.10421950328E+03  0.00000000000E+00 0. -1.
         21    1    1    2  503  501  0.28651420619E+02  0.22653729786E+01  0.42234903899E+02  0.51086426041E+02  0.00000000000E+00 0. -1.
          2    1    1    2  501    0 -0.72817845704E+00  0.40600948802E+02  0.21094294928E+02  0.45759551637E+02  0.00000000000E+00 0. -1.
<scales pt_clust_5="13000.00000" pt_clust_6="13000.00000" pt_clust_7="13000.00000" pt_clust_8="13000.00000" pt_clust_9="28.74084" pt_clust_10="13000.00000"></scales>
<clustering>
<clus scale="   28.741">  1  9  2 -1</clus>
<clus scale="   90.258">  5  6 -1 -1</clus>
<clus scale="   41.265">  5 10 -1 -1</clus>
<clus scale="   92.683">  7  8 -1 -1</clus>
<clus scale="  148.573">  2  7  1 -1</clus>
<clus scale="   28.741">  1  5  2 -1</clus>
</clustering>
</event>
<event>
10    2  0.5692308E-006  0.2297195E+03  0.7546771E-02  0.1139015E+00
          2   -1    0    0  502    0 -0.00000000000E+00  0.00000000000E+00  0.46218079750E+03  0.46218079750E+03  0.00000000000E+00 0. -1.
         21   -1    0    0  503  502  0.00000000000E+00 -0.00000000000E+00 -0.17618173758E+03  0.17618173758E+03  0.00000000000E+00 0.  1.
         23    2    1    2    0    0 -0.15641452155E+03 -0.89318780528E+01  0.16577557448E+02  0.18083494010E+03  0.88776005503E+02 0.  0.
         23    2    1    2    0    0  0.43389055980E+02  0.21357403925E+02  0.19599730291E+03  0.23288525179E+03  0.11611136410E+03 0.  0.
        -13    1    4    4    0    0  0.50932758865E+02 -0.14464859794E+02  0.25991234994E+02  0.58982390516E+02  0.00000000000E+00 0.  1.
         13    1    4    4    0    0 -0.75437028851E+01  0.35822263719E+02  0.17000606791E+03  0.17390286127E+03  0.00000000000E+00 0. -1.
        -13    1    3    3    0    0 -0.54453788238E+02 -0.20293560787E+02 -0.33068259276E+02  0.66862197350E+02  0.00000000000E+00 0.  1.
         13    1    3    3    0    0 -0.10196073331E+03  0.11361682734E+02  0.49645816724E+02  0.11397274275E+03  0.00000000000E+00 0. -1.
         21    1    1    2  503  501  0.36013014216E+02 -0.77763171069E+02 -0.18957294068E+02  0.87769168653E+02  0.00000000000E+00 0.  1.
          2    1    1    2  501    0  0.77012451350E+02  0.65337645197E+02  0.92381493639E+02  0.13687317454E+03  0.00000000000E+00 0. -1.
<scales pt_clust_5="13000.00000" pt_clust_6="13000.00000" pt_clust_7="13000.00000" pt_clust_8="13000.00000" pt_clust_9="85.69742" pt_clust_10="13000.00000"></scales>
<clustering>
<clus scale="   85.697">  2  9  1 -1</clus>
<clus scale="   88.776">  7  8 -1 -1</clus>
<clus scale="  116.111">  5  6 -1 -1</clus>
<clus scale="   98.005">  5 10 -1 -1</clus>
<clus scale="  170.604">  1  7  2 -1</clus>
<clus scale="   85.697">  2  5  1 -1</clus>
</clustering>
</event>
<event>
10    2  0.5692308E-006  0.2202436E+03  0.7546771E-02  0.1154490E+00
          3   -1    0    0  503    0 -0.00000000000E+00  0.00000000000E+00  0.91405937452E+02  0.91405937452E+02  0.00000000000E+00 0. -1.
         21   -1    0    0  501  502  0.00000000000E+00 -0.00000000000E+00 -0.58457206171E+03  0.58457206171E+03  0.00000000000E+00 0.  1.
         23    2    1    2    0    0 -0.64388922569E+02 -0.43788844578E+02 -0.18858957918E+03  0.22281555587E+03  0.89539635377E+02 0.  0.
         23    2    1    2    0    0  0.39195900331E+02  0.60340820067E+01 -0.50331967943E+02  0.11149973783E+03  0.91247771427E+02 0.  0.
        -11    1    3    3    0    0 -0.14010270925E+02  0.27244164880E+02 -0.62119792557E+02  0.69263271932E+02  0.00000000000E+00 0. -1.
         11    1    3    3    0    0 -0.50378651644E+02 -0.71033009458E+02 -0.12646978662E+03  0.15355228393E+03  0.00000000000E+00 0.  1.
        -13    1    4    4    0    0  0.67685542393E+02  0.14580233263E+02 -0.29924080568E+02  0.75427889065E+02  0.00000000000E+00 0. -1.
         13    1    4    4    0    0 -0.28489642062E+02 -0.85461512560E+01 -0.20407887374E+02  0.36071848763E+02  0.00000000000E+00 0.  1.
         21    1    1    2  503  502 -0.41389102797E+02 -0.43120183637E+02  0.70185305186E+01  0.60180294432E+02  0.00000000000E+00 0.  1.
          3    1    1    2  501    0  0.66582125035E+02  0.80874946209E+02 -0.26126310766E+03  0.28148241103E+03  0.00000000000E+00 0. -1.
<scales pt_clust_5="13000.00000" pt_clust_6="13000.00000" pt_clust_7="13000.00000" pt_clust_8="13000.00000" pt_clust_9="59.76965" pt_clust_10="13000.00000"></scales>
<clustering>
<clus scale="   59.770">  2  9  1 -1</clus>
<clus scale="   89.540">  5  6 -1 -1</clus>
<clus scale="   91.248">  7  8 -1 -1</clus>
<clus scale="   75.805">  7 10 -1 -1</clus>
<clus scale="  133.878">  1  5  2 -1</clus>
<clus scale="   59.770">  2  5  1 -1</clus>
</clustering>
</event>
<event>
10    2  0.5692308E-006  0.3227992E+03  0.7546771E-02  0.1094847E+00
          2   -1    0    0  503    0 -0.00000000000E+00  0.00000000000E+00  0.90833587346E+03  0.90833587346E+03  0.00000000000E+00 0. -1.
         21   -1    0    0  501  502  0.00000000000E+00 -0.00000000000E+00 -0.83179267308E+02  0.83179267308E+02  0.00000000000E+00 0. -1.
         23    2    1    2    0    0  0.89166282931E+02  0.13427229799E+03  0.18084704611E+03  0.25855821071E+03  0.90371556481E+02 0.  0.
         23    2    1    2    0    0 -0.64177770997E+02  0.52191580414E+01  0.47093988421E+03  0.48374760491E+03  0.89896300360E+02 0.  0.
        -13    1    4    4    0    0  0.22243030549E+02 -0.23265910599E+01  0.13206566220E+03  0.13394590164E+03  0.00000000000E+00 0.  1.
         13    1    4    4    0    0 -0.86420801546E+02  0.75457491012E+01  0.33887422201E+03  0.34980170328E+03  0.00000000000E+00 0. -1.
        -13    1    3    3    0    0  0.42426112402E+02 -0.16732343326E+00  0.39620120737E+02  0.58049607905E+02  0.00000000000E+00 0.  1.
         13    1    3    3    0    0  0.46740170530E+02  0.13443962143E+03  0.14122692537E+03  0.20050860281E+03  0.00000000000E+00 0. -1.
         21    1    1    2  503  502 -0.16863640994E+02  0.15902213139E+02  0.26943755484E+02  0.35541929181E+02  0.00000000000E+00 0.  1.
          2    1    1    2  501    0 -0.81248709404E+01 -0.15539366917E+03  0.14642592035E+03  0.21366739596E+03  0.00000000000E+00 0. -1.
<scales pt_clust_5="13000.00000" pt_clust_6="13000.00000" pt_clust_7="13000.00000" pt_clust_8="13000.00000" pt_clust_9="23.17893" pt_clust_10="13000.00000"></scales>
<clustering>
<clus scale="   23.179">  2  9  1 -1</clus>
<clus scale="   89.896">  5  6 -1 -1</clus>
<clus scale="   90.372">  7  8 -1 -1</clus>
<clus scale="  149.403">  5 10 -1 -1</clus>
<clus scale="  186.814">  1  7  2 -1</clus>
<clus scale="   23.179">  2  5  1 -1</clus>
</clustering>
</event>
<event>
10    2  0.5692308E-006  0.5811784E+03  0.7546771E-02  0.1037108E+00
          1   -1    0    0  503    0 -0.00000000000E+00  0.00000000000E+00  0.61102507913E+03  0.61102507913E+03  0.00000000000E+00 0. -1.
         21   -1    0    0  501  502  0.00000000000E+00 -0.00000000000E+00 -0.37877061583E+03  0.37877061583E+03  0.00000000000E+00 0. -1.
         23    2    1    2    0    0 -0.10424855248E+03  0.75069071194E+02  0.28461763988E+03  0.32532161315E+03  0.91234998269E+02 0.  0.
         23    2    1    2    0    0  0.12671513545E+03 -0.26158912673E+03  0.18356394507E+03  0.35525256481E+03  0.89571569676E+02 0.  0.
        -13    1    4    4    0    0  0.11400153062E+03 -0.17310113959E+03  0.16258361668E+03  0.26342700303E+03  0.00000000000E+00 0. -1.
         13    1    4    4    0    0  0.12713604828E+02 -0.88487987141E+02  0.20980328389E+02  0.91825561775E+02  0.00000000000E+00 0.  1.
        -13    1    3    3    0    0 -0.30936748786E+02 -0.20498092345E+02  0.68288951518E+02  0.77721522853E+02  0.00000000000E+00 0.  1.
         13    1    3    3    0    0 -0.73311803696E+02  0.95567163539E+02  0.21632868836E+03  0.24760009030E+03  0.00000000000E+00 0. -1.
         21    1    1    2  503  502 -0.15613949170E+00  0.23073217633E+02 -0.76141177184E+02  0.79560521708E+02  0.00000000000E+00 0. -1.
          1    1    1    2  501    0 -0.22310443478E+02  0.16344683790E+03 -0.15978594447E+03  0.22966099529E+03  0.00000000000E+00 0. -1.
<scales pt_clust_5="13000.00000" pt_clust_6="13000.00000" pt_clust_7="13000.00000" pt_clust_8="13000.00000" pt_clust_9="23.07375" pt_clust_10="13000.00000"></scales>
<clustering>
<clus scale="   23.074">  2  9  1 -1</clus>
<clus scale="   89.572">  5  6 -1 -1</clus>
<clus scale="   91.235">  7  8 -1 -1</clus>
<clus scale="  158.322">  1  7  2 -1</clus>
<clus scale="  192.909">  5 10 -1 -1</clus>
<clus scale="   23.074">  2  5  1 -1</clus>
</clustering>
</event>
<event>
10    2  0.5692308E-006  0.3274662E+03  0.7546771E-02  0.1088936E+00
          1   -1    0    0  503    0 -0.00000000000E+00  0.00000000000E+00  0.11221979584E+04  0.11221979584E+04  0.00000000000E+00 0. -1.
         21   -1    0    0  501  502  0.00000000000E+00 -0.00000000000E+00 -0.12308503438E+03  0.12308503438E+03  0.00000000000E+00 0. -1.
         23    2    1    2    0    0  0.72061297508E+02 -0.15267440058E+03  0.11805774146E+03  0.22642103072E+03  0.93949718712E+02 0.  0.
         23    2    1    2    0    0  0.91140246856E+02  0.15567558108E+03  0.56465313369E+03  0.59987028994E+03  0.92031365478E+02 0.  0.
        -11    1    3    3    0    0  0.39241770924E+02 -0.15517356291E+03  0.93636395135E+02  0.18543604209E+03  0.00000000000E+00 0. -1.
         11    1    3    3    0    0  0.32819526584E+02  0.24991623294E+01  0.24421346321E+02  0.40984988638E+02  0.00000000000E+00 0.  1.
        -13    1    4    4    0    0  0.61704474398E+02  0.13771677145E+03  0.52967690764E+03  0.55075491626E+03  0.00000000000E+00 0. -1.
         13    1    4    4    0    0  0.29435772458E+02  0.17958809623E+02  0.34976226052E+02  0.49115373684E+02  0.00000000000E+00 0.  1.
         21    1    1    2  503  502 -0.37765146324E+02 -0.43423460244E+02 -0.17395350714E+02  0.60119891907E+02  0.00000000000E+00 0. -1.
          1    1    1    2  501    0 -0.12543639804E+03  0.40422279747E+02  0.33379739963E+03  0.35887178024E+03  0.00000000000E+00 0. -1.
<scales pt_clust_5="13000.00000" pt_clust_6="13000.00000" pt_clust_7="13000.00000" pt_clust_8="13000.00000" pt_clust_9="57.54827" pt_clust_10="13000.00000"></scales>
<clustering>
<clus scale="   57.548">  2  9  1 -1</clus>
<clus scale="   92.031">  7  8 -1 -1</clus>
<clus scale="   93.950">  5  6 -1 -1</clus>
<clus scale="  135.381">  7 10 -1 -1</clus>
<clus scale="  209.089">  1  5  2 -1</clus>
<clus scale="   57.548">  2  5  1 -1</clus>
</clustering>
</event>
<event>
10    2  0.5692308E-006  0.9904726E+03  0.7546771E-02  0.9779029E-01
         21   -1    0    0  503  502  0.00000000000E+00  0.00000000000E+00  0.32328227858E+03  0.32328227858E+03  0.00000000000E+00 0. -1.
          2   -1    0    0  502    0 -0.00000000000E+00 -0.00000000000E+00 -0.12675046662E+04  0.12675046662E+04  0.00000000000E+00 0. -1.
         23    2    1    2    0    0  0.13171360888E+03 -0.91917707247E+02 -0.31687180372E+03  0.37499328641E+03  0.12006200560E+03 0.  0.
         23    2    1    2    0    0  0.21806441342E+03  0.39615443421E+03 -0.44403952809E+03  0.63995113130E+03  0.88746401631E+02 0.  0.
        -11    1    4    4    0    0  0.95835525127E+02  0.10294613618E+03 -0.16804155528E+03  0.21913538995E+03  0.00000000000E+00 0.  1.
         11    1    4    4    0    0  0.12222888829E+03  0.29320829803E+03 -0.27599797281E+03  0.42081574135E+03  0.00000000000E+00 0. -1.
        -13    1    3    3    0    0  0.39269947731E+01 -0.68110947807E+02 -0.83145134747E+02  0.10755294478E+03  0.00000000000E+00 0.  1.
         13    1    3    3    0    0  0.12778661411E+03 -0.23806759440E+02 -0.23372666898E+03  0.26744034163E+03  0.00000000000E+00 0. -1.
         21    1    1    2  503  501  0.29195236133E+02  0.26002180426E+02  0.42343557095E+01  0.39324355914E+02  0.00000000000E+00 0. -1.
          2    1    1    2  501    0 -0.37897325843E+03 -0.33023890739E+03 -0.18754541148E+03  0.53651817111E+03  0.00000000000E+00 0. -1.
<scales pt_clust_5="13000.00000" pt_clust_6="13000.00000" pt_clust_7="13000.00000" pt_clust_8="13000.00000" pt_clust_9="39.09572" pt_clust_10="13000.00000"></scales>
<clustering>
<clus scale="   39.096">  1  9  2 -1</clus>
<clus scale="   88.746">  5  6 -1 -1</clus>
<clus scale="  120.062">  7  8 -1 -1</clus>
<clus scale="  201.263">  2  7  1 -1</clus>
<clus scale="  467.756">  5 10 -1 -1</clus>
<clus scale="   39.096">  1  5  2 -1</clus>
</clustering>
</event>
<event>
10    2  0.5692308E-006  0.4219982E+03  0.7546771E-02  0.1046496E+00
          1   -1    0    0  503    0 -0.00000000000E+00  0.00000000000E+00  0.13597268758E+04  0.13597268758E+04  0.00000000000E+00 0. -1.
         21   -1    0    0  501  502  0.00000000000E+00 -0.00000000000E+00 -0.20996561523E+03  0.20996561523E+03  0.00000000000E+00 0. -1.
         23    2    1    2    0    0  0.29206151068E+03 -0.20664989592E+02  0.93687061846E+03  0.98598045703E+03  0.93294898541E+02 0.  0.
         23    2    1    2    0    0 -0.12846580553E+03  0.14333752239E+03  0.14557571915E+03  0.25845288605E+03  0.92501328569E+02 0.  0.
        -11    1    4    4    0    0 -0.13024401765E+03  0.10763628556E+03  0.14507919350E+03  0.22270394359E+03  0.00000000000E+00 0. -1.
         11    1    4    4    0    0  0.17782121196E+01  0.35701236828E+02  0.49652564655E+00  0.35748942461E+02  0.00000000000E+00 0.  1.
        -13    1    3    3    0    0  0.22069450073E+03 -0.54642183161E+02  0.66093038335E+03  0.69894263174E+03  0.00000000000E+00 0. -1.
         13    1    3    3    0    0  0.71367009948E+02  0.33977193569E+02  0.27594023511E+03  0.28703782529E+03  0.00000000000E+00 0.  1.
         21    1    1    2  503  502  0.58221065584E+02 -0.50997625682E+02  0.48618197455E+02  0.91401200357E+02  0.00000000000E+00 0. -1.
          1    1    1    2  501    0 -0.22181677073E+03 -0.71674907115E+02  0.18696725469E+02  0.23385794755E+03  0.00000000000E+00 0. -1.
<scales pt_clust_5="13000.00000" pt_clust_6="13000.00000" pt_clust_7="13000.00000" pt_clust_8="13000.00000" pt_clust_9="77.39800" pt_clust_10="13000.00000"></scales>
<clustering>
<clus scale="   77.398">  2  9  1 -1</clus>
<clus scale="   92.501">  5  6 -1 -1</clus>
<clus scale="   93.295">  7  8 -1 -1</clus>
<clus scale="  213.834">  5 10 -1 -1</clus>
<clus scale="  315.016">  1  7  2 -1</clus>
<clus scale="   77.398">  2  5  1 -1</clus>
</clustering>
</event>
<event>
10    2  0.5692308E-006  0.2219237E+03  0.7546771E-02  0.1158318E+00
         21   -1    0    0  501  502  0.00000000000E+00  0.00000000000E+00  0.46369994857E+02  0.46369994857E+02  0.00000000000E+00 0. -1.
          1   -1    0    0  503    0 -0.00000000000E+00 -0.00000000000E+00 -0.90060913320E+03  0.90060913320E+03  0.00000000000E+00 0. -1.
         23    2    1    2    0    0  0.14770426159E+02 -0.74508073499E+02 -0.45633072813E+03  0.47178721928E+03  0.92605768350E+02 0.  0.
         23    2    1    2    0    0  0.22756398886E+02  0.38328415694E+02 -0.33802722263E+03  0.35278341118E+03  0.90591450098E+02 0.  0.
        -11    1    3    3    0    0 -0.39291791694E+02 -0.31344022193E+02 -0.20951491235E+03  0.21545948835E+03  0.00000000000E+00 0.  1.
         11    1    3    3    0    0  0.54062217853E+02 -0.43164051306E+02 -0.24681581578E+03  0.25632773093E+03  0.00000000000E+00 0. -1.
        -13    1    4    4    0    0 -0.26862682359E+02  0.21367152261E+01 -0.38308872381E+02  0.46837367118E+02  0.00000000000E+00 0.  1.
         13    1    4    4    0    0  0.49619081244E+02  0.36191700468E+02 -0.29971835024E+03  0.30594604407E+03  0.00000000000E+00 0. -1.
         21    1    1    2  503  502  0.30878938179E+02  0.86033501505E+01 -0.25856825550E+02  0.41183757532E+02  0.00000000000E+00 0.  1.
          1    1    1    2  501    0 -0.68405763224E+02  0.27576307654E+02 -0.34024362033E+02  0.81224740060E+02  0.00000000000E+00 0. -1.
<scales pt_clust_5="13000.00000" pt_clust_6="13000.00000" pt_clust_7="13000.00000" pt_clust_8="13000.00000" pt_clust_9="32.05505" pt_clust_10="13000.00000"></scales>
<clustering>
<clus scale="   32.055">  1  9  2 -1</clus>
<clus scale="   90.591">  7  8 -1 -1</clus>
<clus scale="   59.458">  7 10 -1 -1</clus>
<clus scale="   92.606">  5  6 -1 -1</clus>
<clus scale="  119.635">  2  5  1 -1</clus>
<clus scale="   32.055">  1  5  2 -1</clus>
</clustering>
</event>
<event>
10    2  0.5692308E-006  0.1582887E+03  0.7546771E-02  0.1214260E+00
         21   -1    0    0  503  502  0.00000000000E+00  0.00000000000E+00  0.13849835943E+03  0.13849835943E+03  0.00000000000E+00 0. -1.
          2   -1    0    0  502    0 -0.00000000000E+00 -0.00000000000E+00 -0.36403186779E+03  0.36403186779E+03  0.00000000000E+00 0. -1.
         23    2    1    2    0    0 -0.46189213481E+02  0.47401682629E+01 -0.16478941790E+03  0.19323501367E+03  0.89600812605E+02 0.  0.
         23    2    1    2    0    0 -0.23767953483E+02 -0.67197652733E+02 -0.13501256029E+03  0.17926397846E+03  0.93950744497E+02 0.  0.
        -13    1    3    3    0    0  0.21452199782E+02 -0.19571869929E+02 -0.47288611295E+02  0.55492952041E+02  0.00000000000E+00 0.  1.
         13    1    3    3    0    0 -0.67641413263E+02  0.24312038192E+02 -0.11750080660E+03  0.13774206163E+03  0.00000000000E+00 0. -1.
        -13    1    4    4    0    0  0.25108898720E+02 -0.43955391350E+02 -0.24561036015E+02  0.56265244280E+02  0.00000000000E+00 0.  1.
         13    1    4    4    0    0 -0.48876852203E+02 -0.23242261383E+02 -0.11045152427E+03  0.12299873418E+03  0.00000000000E+00 0. -1.
         21    1    1    2  503  501  0.67899118555E+02  0.35762890085E+02  0.67998034402E+02  0.10253295709E+03  0.00000000000E+00 0. -1.
          2    1    1    2  501    0  0.20580484082E+01  0.26694594385E+02  0.62704354158E+01  0.27498277999E+02  0.00000000000E+00 0. -1.
<scales pt_clust_5="13000.00000" pt_clust_6="13000.00000" pt_clust_7="13000.00000" pt_clust_8="13000.00000" pt_clust_9="76.74161" pt_clust_10="13000.00000"></scales>
<clustering>
<clus scale="   76.742">  1  9  2 -1</clus>
<clus scale="   89.601">  5  6 -1 -1</clus>
<clus scale="   93.951">  7  8 -1 -1</clus>
<clus scale="   44.761">  7 10 -1 -1</clus>
<clus scale="   94.970">  2  5  1 -1</clus>
<clus scale="   76.742">  1  5  2 -1</clus>
</clustering>
</event>
<event>
10    2  0.5692308E-006  0.5382699E+03  0.7546771E-02  0.1061368E+00
         21   -1    0    0  503  502  0.00000000000E+00  0.00000000000E+00  0.52570935100E+03  0.52570935100E+03  0.00000000000E+00 0. -1.
          1   -1    0    0  502    0 -0.00000000000E+00 -0.00000000000E+00 -0.38171035064E+03  0.38171035064E+03  0.00000000000E+00 0. -1.
         23    2    1    2    0    0  0.30588284936E+01 -0.41397441338E+02 -0.33932292888E+02  0.10377106747E+03  0.88847787605E+02 0.  0.
         23    2    1    2    0    0  0.70607392628E+02  0.85551121363E+02 -0.28866127579E+03  0.32853382672E+03  0.11092675466E+03 0.  0.
        -13    1    3    3    0    0  0.39514378349E+02  0.34480748673E+01 -0.81793350068E+01  0.40499096752E+02  0.00000000000E+00 0. -1.
         13    1    3    3    0    0 -0.36455549856E+02 -0.44845516205E+02 -0.25752957881E+02  0.63271970718E+02  0.00000000000E+00 0.  1.
        -13    1    4    4    0    0  0.49215311888E+02  0.64870262275E+02 -0.28744395533E+03  0.29875462391E+03  0.00000000000E+00 0. -1.
         13    1    4    4    0    0  0.21392080740E+02  0.20680859087E+02 -0.12173204590E+01  0.29779202812E+02  0.00000000000E+00 0.  1.
         21    1    1    2  503  501 -0.28058009695E+02 -0.28393461969E+02  0.25376512601E+03  0.25688553826E+03  0.00000000000E+00 0.  1.
          1    1    1    2  501    0 -0.45608211427E+02 -0.15760218056E+02  0.21282744303E+03  0.21822926918E+03  0.00000000000E+00 0. -1.
<scales pt_clust_5="13000.00000" pt_clust_6="13000.00000" pt_clust_7="13000.00000" pt_clust_8="13000.00000" pt_clust_9="39.91792" pt_clust_10="13000.00000"></scales>
<clustering>
<clus scale="   39.918">  1  9  2 -1</clus>
<clus scale="   88.848">  5  6 -1 -1</clus>
<clus scale="   99.625">  2  5  1 -1</clus>
<clus scale="  110.927">  7  8 -1 -1</clus>
<clus scale="   78.771">  7 10 -1 -1</clus>
<clus scale="   39.918">  1  5  2 -1</clus>
</clustering>
</event>
<event>
10    2  0.5692308E-006  0.2646405E+03  0.7546771E-02  0.1110225E+00
         21   -1    0    0  503  502  0.00000000000E+00  0.00000000000E+00  0.22343025392E+03  0.22343025392E+03  0.00000000000E+00 0.  1.
         -1   -1    0    0    0  501 -0.00000000000E+00 -0.00000000000E+00 -0.35119892398E+03  0.35119892398E+03  0.00000000000E+00 0.  1.
         23    2    1    2    0    0 -0.12326205810E+03 -0.13457834215E+03 -0.19424462418E+02  0.20560377594E+03  0.92686233047E+02 0.  0.
         23    2    1    2    0    0  0.14439337734E+03  0.11867145269E+03 -0.31631122130E+02  0.21025399392E+03  0.90960722122E+02 0.  0.
        -11    1    3    3    0    0 -0.25111385820E+01 -0.65281054730E+02 -0.27613816103E+01  0.65387668196E+02  0.00000000000E+00 0.  1.
         11    1    3    3    0    0 -0.12075091952E+03 -0.69297287419E+02 -0.16663080808E+02  0.14021610774E+03  0.00000000000E+00 0. -1.
        -11    1    4    4    0    0  0.87439512252E+02  0.11996640596E+03 -0.82677814681E+01  0.14868074210E+03  0.00000000000E+00 0. -1.
         11    1    4    4    0    0  0.56953865090E+02 -0.12949532698E+01 -0.23363340662E+02  0.61573251819E+02  0.00000000000E+00 0.  1.
         21    1    1    2  503  501 -0.16051674776E+02 -0.60159924162E+02 -0.27768551569E+02  0.68175986935E+02  0.00000000000E+00 0. -1.
         -1    1    1    2    0  502 -0.50796444683E+01  0.76066813620E+02 -0.48944533946E+02  0.90595421106E+02  0.00000000000E+00 0.  1.
<scales pt_clust_5="13000.00000" pt_clust_6="13000.00000" pt_clust_7="13000.00000" pt_clust_8="13000.00000" pt_clust_9="62.26457" pt_clust_10="13000.00000"></scales>
<clustering>
<clus scale="   62.265">  1  9  2 -1</clus>
<clus scale="   90.961">  7  8 -1 -1</clus>
<clus scale="   70.225">  7 10 -1 -1</clus>
<clus scale="   92.686">  5  6 -1 -1</clus>
<clus scale="  227.901">  2  5  1 -1</clus>
<clus scale="   62.265">  1  5  2 -1</clus>
</clustering>
</event>
<event>
10    2  0.5692308E-006  0.4137098E+03  0.7546771E-02  0.1088405E+00
          1   -1    0    0  503    0 -0.00000000000E+00  0.00000000000E+00  0.57568201197E+03  0.57568201197E+03  0.00000000000E+00 0. -1.
         21   -1    0    0  501  502  0.00000000000E+00 -0.00000000000E+00 -0.21506994037E+03  0.21506994037E+03  0.00000000000E+00 0.  1.
         23    2    1    2    0    0  0.10237069744E+02  0.51197441954E+02  0.19748159089E+03  0.22333496318E+03  0.90297017554E+02 0.  0.
         23    2    1    2    0    0  0.12729612823E+02 -0.20864697327E+03  0.12728277191E+03  0.26171394792E+03  0.92723697134E+02 0.  0.
        -11    1    3    3    0    0  0.10708498596E+02  0.71381597428E+02  0.18729251732E+03  0.20071993283E+03  0.00000000000E+00 0. -1.
         11    1    3    3    0    0 -0.47142885224E+00 -0.20184155474E+02  0.10189073573E+02  0.22615030348E+02  0.00000000000E+00 0.  1.
        -11    1    4    4    0    0  0.52750831275E+02 -0.13133283633E+03  0.75269556068E+02  0.16030118580E+03  0.00000000000E+00 0.  1.
         11    1    4    4    0    0 -0.40021218451E+02 -0.77314136946E+02  0.52013215839E+02  0.10141276212E+03  0.00000000000E+00 0. -1.
         21    1    1    2  503  502 -0.40856022965E+02  0.34850632365E+02  0.13610944096E+03  0.14632006392E+03  0.00000000000E+00 0. -1.
          1    1    1    2  501    0  0.17889340398E+02  0.12259889895E+03 -0.10026173215E+03  0.15938297732E+03  0.00000000000E+00 0. -1.
<scales pt_clust_5="13000.00000" pt_clust_6="13000.00000" pt_clust_7="13000.00000" pt_clust_8="13000.00000" pt_clust_9="53.70088" pt_clust_10="13000.00000"></scales>
<clustering>
<clus scale="   53.701">  2  9  1 -1</clus>
<clus scale="   90.297">  5  6 -1 -1</clus>
<clus scale="   92.724">  7  8 -1 -1</clus>
<clus scale="  105.160">  1  5  2 -1</clus>
<clus scale="  165.087">  7 10 -1 -1</clus>
<clus scale="   53.701">  2  5  1 -1</clus>
</clustering>
</event>
<event>
10    2  0.5692308E-006  0.2261927E+03  0.7546771E-02  0.1141593E+00
         21   -1    0    0  501  502  0.00000000000E+00  0.00000000000E+00  0.15316256718E+03  0.15316256718E+03  0.00000000000E+00 0.  1.
         -1   -1    0    0    0  501 -0.00000000000E+00 -0.00000000000E+00 -0.62601420582E+03  0.62601420582E+03  0.00000000000E+00 0.  1.
         23    2    1    2    0    0  0.12226025457E+03 -0.26561478509E+02 -0.29839294245E+03  0.33594084424E+03  0.90359397596E+02 0.  0.
         23    2    1    2    0    0 -0.82230298414E+02  0.49494562771E+02  0.26841583012E+01  0.13210733576E+03  0.90739240322E+02 0.  0.
        -11    1    4    4    0    0 -0.65667595479E+02  0.75443706259E+02  0.98380408557E+01  0.10050260175E+03  0.00000000000E+00 0.  1.
         11    1    4    4    0    0 -0.16562702936E+02 -0.25949143488E+02 -0.71538825544E+01  0.31604734011E+02  0.00000000000E+00 0. -1.
        -13    1    3    3    0    0  0.84887163092E+02 -0.42203077753E+02 -0.27082317446E+03  0.28693574552E+03  0.00000000000E+00 0.  1.
         13    1    3    3    0    0  0.37373091479E+02  0.15641599244E+02 -0.27569767989E+02  0.49005098720E+02  0.00000000000E+00 0. -1.
         21    1    1    2  503  502  0.86995834848E+02 -0.75402899506E+02 -0.56449961897E+02  0.12822039905E+03  0.00000000000E+00 0.  1.
         -1    1    1    2    0  503 -0.12702579101E+03  0.52469815244E+02 -0.12069289259E+03  0.18290819395E+03  0.00000000000E+00 0.  1.
<scales pt_clust_5="13000.00000" pt_clust_6="13000.00000" pt_clust_7="13000.00000" pt_clust_8="13000.00000" pt_clust_9="115.12546" pt_clust_10="13000.00000"></scales>
<clustering>
<clus scale="   90.359">  7  8 -1 -1</clus>
<clus scale="   90.739">  5  6 -1 -1</clus>
<clus scale="  115.125">  1  9  2 -1</clus>
<clus scale="  108.903">  5 10 -1 -1</clus>
<clus scale="  167.941">  2  7  1 -1</clus>
<clus scale="  115.125">  1  5  2 -1</clus>
</clustering>
</event>
<event>
10    2  0.5692308E-006  0.3745559E+03  0.7546771E-02  0.1069502E+00
          3   -1    0    0  502    0 -0.00000000000E+00  0.00000000000E+00  0.85967483337E+03  0.85967483337E+03  0.00000000000E+00 0. -1.
         21   -1    0    0  503  502  0.00000000000E+00 -0.00000000000E+00 -0.54206754851E+03  0.54206754851E+03  0.00000000000E+00 0. -1.
         23    2    1    2    0    0 -0.17706604928E+03  0.78731756817E+02  0.15056857937E+03  0.26267786811E+03  0.93689326836E+02 0.  0.
         23    2    1    2    0    0  0.11682620495E+03  0.19462686738E+01  0.55112702624E+03  0.57044197116E+03  0.89503593731E+02 0.  0.
        -13    1    3    3    0    0 -0.76021090783E+02 -0.45044736876E+01  0.22188947547E+02  0.79321156826E+02  0.00000000000E+00 0.  1.
         13    1    3    3    0    0 -0.10104495850E+03  0.83236230505E+02  0.12837963182E+03  0.18335671129E+03  0.00000000000E+00 0. -1.
        -13    1    4    4    0    0  0.62031336716E+02 -0.43685147020E+02  0.28143656254E+03  0.29148382038E+03  0.00000000000E+00 0.  1.
         13    1    4    4    0    0  0.54794868232E+02  0.45631415694E+02  0.26969046369E+03  0.27895815079E+03  0.00000000000E+00 0. -1.
         21    1    1    2  503  501 -0.70763790603E+02 -0.63830423465E+02 -0.42086175151E+03  0.43151645496E+03  0.00000000000E+00 0. -1.
          3    1    1    2  501    0  0.13100363493E+03 -0.16847602026E+02  0.36773430759E+02  0.13710608765E+03  0.00000000000E+00 0. -1.
<scales pt_clust_5="13000.00000" pt_clust_6="13000.00000" pt_clust_7="13000.00000" pt_clust_8="13000.00000" pt_clust_9="95.29867" pt_clust_10="13000.00000"></scales>
<clustering>
<clus scale="   89.504">  7  8 -1 -1</clus>
<clus scale="   93.689">  5  6 -1 -1</clus>
<clus scale="   95.299">  2  9  1 -1</clus>
<clus scale="  109.783">  7 10 -1 -1</clus>
<clus scale="  236.039">  1  5  2 -1</clus>
<clus scale="   95.299">  2  5  1 -1</clus>
</clustering>
</event>
<event>
10    2  0.5692308E-006  0.2290071E+03  0.7546771E-02  0.1161947E+00
          1   -1    0    0  503    0 -0.00000000000E+00  0.00000000000E+00  0.33284119343E+03  0.33284119343E+03  0.00000000000E+00 0. -1.
         21   -1    0    0  501  502  0.00000000000E+00 -0.00000000000E+00 -0.25290640815E+03  0.25290640815E+03  0.00000000000E+00 0. -1.
         23    2    1    2    0    0  0.74191884973E+02 -0.64474762416E+02  0.13995239668E+02  0.13537003504E+03  0.92020372036E+02 0.  0.
         23    2    1    2    0    0  0.57250008728E+01 -0.82243421241E+02  0.11755985169E+03  0.17528423125E+03  0.10053599865E+03 0.  0.
        -13    1    4    4    0    0  0.12720842218E+02  0.21250870889E+02  0.34108411884E+02  0.42152142312E+02  0.00000000000E+00 0.  1.
         13    1    4    4    0    0 -0.69958413453E+01 -0.10349429213E+03  0.83451439809E+02  0.13313208894E+03  0.00000000000E+00 0. -1.
        -13    1    3    3    0    0  0.57602092791E+02 -0.86730940336E+02  0.22132561912E+02  0.10644297723E+03  0.00000000000E+00 0. -1.
         13    1    3    3    0    0  0.16589792182E+02  0.22256177920E+02 -0.81373222442E+01  0.28927057810E+02  0.00000000000E+00 0.  1.
         21    1    1    2  503  502 -0.11308405610E+03  0.55694822966E+02 -0.10537797547E+03  0.16429983190E+03  0.00000000000E+00 0. -1.
          1    1    1    2  501    0  0.33167170252E+02  0.91023360691E+02  0.53757669392E+02  0.11079350339E+03  0.00000000000E+00 0. -1.
<scales pt_clust_5="13000.00000" pt_clust_6="13000.00000" pt_clust_7="13000.00000" pt_clust_8="13000.00000" pt_clust_9="126.05521" pt_clust_10="13000.00000"></scales>
<clustering>
<clus scale="   92.020">  7  8 -1 -1</clus>
<clus scale="  100.536">  5  6 -1 -1</clus>
<clus scale="   96.878">  5 10 -1 -1</clus>
<clus scale="  126.055">  2  9  1 -1</clus>
<clus scale="  100.055">  1  7  2 -1</clus>
<clus scale="  126.055">  2  5  1 -1</clus>
</clustering>
</event>
<event>
10    2  0.5692308E-006  0.4835834E+03  0.7546771E-02  0.1067967E+00
         -1   -1    0    0    0  501 -0.00000000000E+00  0.00000000000E+00  0.27260131635E+03  0.27260131635E+03  0.00000000000E+00 0.  1.
         21   -1    0    0  501  502  0.00000000000E+00 -0.00000000000E+00 -0.63060104733E+03  0.63060104733E+03  0.00000000000E+00 0.  1.
         23    2    1    2    0    0 -0.11009775642E+02 -0.65471400709E+02  0.95390002617E+02  0.14807722469E+03  0.91759971675E+02 0.  0.
         23    2    1    2    0    0 -0.20166801315E+03  0.47588417994E+02  0.65949523256E+01  0.22680058489E+03  0.91980252533E+02 0.  0.
        -11    1    3    3    0    0 -0.12986928210E+02  0.21078796769E+02  0.33505264664E+02  0.41660277696E+02  0.00000000000E+00 0. -1.
         11    1    3    3    0    0  0.19771525681E+01 -0.86550197478E+02  0.61884737953E+02  0.10641694699E+03  0.00000000000E+00 0.  1.
        -11    1    4    4    0    0 -0.10071031730E+03  0.62348906661E+02  0.29853234323E+02  0.12215224014E+03  0.00000000000E+00 0. -1.
         11    1    4    4    0    0 -0.10095769585E+03 -0.14760488667E+02 -0.23258281997E+02  0.10464834475E+03  0.00000000000E+00 0.  1.
         21    1    1    2  503  502  0.27749852675E+02 -0.36410895295E+02 -0.19716393270E+03  0.20240905112E+03  0.00000000000E+00 0.  1.
         -1    1    1    2    0  503  0.18492793612E+03  0.54293878010E+02 -0.26282075322E+03  0.32591550296E+03  0.00000000000E+00 0.  1.
<scales pt_clust_5="13000.00000" pt_clust_6="13000.00000" pt_clust_7="13000.00000" pt_clust_8="13000.00000" pt_clust_9="45.77999" pt_clust_10="13000.00000"></scales>
<clustering>
<clus scale="   45.780">  2  9  1 -1</clus>
<clus scale="   91.760">  5  6 -1 -1</clus>
<clus scale="   91.980">  7  8 -1 -1</clus>
<clus scale="  114.410">  1  5  2 -1</clus>
<clus scale="  201.808">  7 10 -1 -1</clus>
<clus scale="   45.780">  2  5  1 -1</clus>
</clustering>
</event>
<event>
10    2  0.5692308E-006  0.3502873E+03  0.7546771E-02  0.1104739E+00
          2   -1    0    0  503    0 -0.00000000000E+00  0.00000000000E+00  0.76533079130E+03  0.76533079130E+03  0.00000000000E+00 0. -1.
         21   -1    0    0  501  502  0.00000000000E+00 -0.00000000000E+00 -0.90368690265E+02  0.90368690265E+02  0.00000000000E+00 0. -1.
         23    2    1    2    0    0  0.33461116289E+02  0.53746128413E+02  0.15852813212E+03  0.19255081206E+03  0.89086216274E+02 0.  0.
         23    2    1    2    0    0 -0.41539026359E+02  0.80308847019E+02  0.31747010020E+03  0.34314385860E+03  0.93730686307E+02 0.  0.
        -11    1    4    4    0    0 -0.70045047849E+02  0.69737166047E+02  0.22357332413E+03  0.24444756559E+03  0.00000000000E+00 0. -1.
         11    1    4    4    0    0  0.28506021490E+02  0.10571680972E+02  0.93896776066E+02  0.98696293017E+02  0.00000000000E+00 0.  1.
        -13    1    3    3    0    0 -0.12760903826E+01  0.68564960702E+02  0.12231874285E+03  0.14023072807E+03  0.00000000000E+00 0. -1.
         13    1    3    3    0    0  0.34737206672E+02 -0.14818832289E+02  0.36209389273E+02  0.52320083995E+02  0.00000000000E+00 0.  1.
         21    1    1    2  503  502 -0.29253994817E+02  0.49271320149E+02  0.79606903668E+02  0.98085260430E+02  0.00000000000E+00 0. -1.
          2    1    1    2  501    0  0.37331904887E+02 -0.18332629558E+03  0.11935696504E+03  0.22191955046E+03  0.00000000000E+00 0. -1.
<scales pt_clust_5="13000.00000" pt_clust_6="13000.00000" pt_clust_7="13000.00000" pt_clust_8="13000.00000" pt_clust_9="57.30151" pt_clust_10="13000.00000"></scales>
<clustering>
<clus scale="   57.302">  2  9  1 -1</clus>
<clus scale="   89.086">  7  8 -1 -1</clus>
<clus scale="   93.731">  5  6 -1 -1</clus>
<clus scale="  113.089">  1  7  2 -1</clus>
<clus scale="  135.511">  5 10 -1 -1</clus>
<clus scale="   57.302">  2  5  1 -1</clus>
</clustering>
</event>
<event>
10    2  0.5692308E-006  0.3912854E+03  0.7546771E-02  0.1096360E+00
          1   -1    0    0  502    0 -0.00000000000E+00  0.00000000000E+00  0.13356014593E+04  0.13356014593E+04  0.00000000000E+00 0. -1.
         21   -1    0    0  503  502  0.00000000000E+00 -0.00000000000E+00 -0.59511802126E+02  0.59511802126E+02  0.00000000000E+00 0. -1.
         23    2    1    2    0    0 -0.59611366384E+01  0.36679040413E+02  0.41757056497E+03  0.42953574796E+03  0.93567595312E+02 0.  0.
         23    2    1    2    0    0  0.63296231196E+02  0.15975869381E+03  0.41043367673E+03  0.45432058991E+03  0.91772230497E+02 0.  0.
        -11    1    3    3    0    0  0.34650969291E+02  0.44702394497E+02  0.28839889990E+03  0.29389270017E+03  0.00000000000E+00 0. -1.
         11    1    3    3    0    0 -0.40612105930E+02 -0.80233540838E+01  0.12917166507E+03  0.13564304780E+03  0.00000000000E+00 0.  1.
        -13    1    4    4    0    0  0.22132807522E+02 -0.66380117251E+01  0.41165193760E+02  0.47206965014E+02  0.00000000000E+00 0.  1.
         13    1    4    4    0    0  0.41163423674E+02  0.16639670553E+03  0.36926848297E+03  0.40711362490E+03  0.00000000000E+00 0. -1.
         21    1    1    2  503  501 -0.24720227688E+02 -0.19154303973E+01  0.37030003816E+01  0.25069318746E+02  0.00000000000E+00 0. -1.
          1    1    1    2  501    0 -0.32614866870E+02 -0.19452230382E+03  0.44438241507E+03  0.48618760479E+03  0.00000000000E+00 0. -1.
<scales pt_clust_5="13000.00000" pt_clust_6="13000.00000" pt_clust_7="13000.00000" pt_clust_8="13000.00000" pt_clust_9="24.79432" pt_clust_10="13000.00000"></scales>
<clustering>
<clus scale="   24.794">  2  9  1 -1</clus>
<clus scale="   91.772">  7  8 -1 -1</clus>
<clus scale="   93.568">  5  6 -1 -1</clus>
<clus scale="  100.816">  1  5  2 -1</clus>
<clus scale="  182.321">  7 10 -1 -1</clus>
<clus scale="   24.794">  2  5  1 -1</clus>
</clustering>
</event>
<event>
10    2  0.5692308E-006  0.4488064E+03  0.7546771E-02  0.1075720E+00
         21   -1    0    0  503  502  0.00000000000E+00  0.00000000000E+00  0.19641442540E+03  0.19641442540E+03  0.00000000000E+00 0. -1.
          1   -1    0    0  502    0 -0.00000000000E+00 -0.00000000000E+00 -0.44164444892E+03  0.44164444892E+03  0.00000000000E+00 0. -1.
         23    2    1    2    0    0  0.72136502445E+01  0.57990398838E+02 -0.53967854625E+02  0.12623031853E+03  0.98013472928E+02 0.  0.
         23    2    1    2    0    0  0.91948804615E+01  0.15345737172E+03 -0.19332011665E+03  0.25860675882E+03  0.76622956388E+02 0.  0.
        -13    1    4    4    0    0 -0.17014298408E+02  0.14059533239E+03 -0.16986022377E+03  0.22115385925E+03  0.00000000000E+00 0. -1.
         13    1    4    4    0    0  0.26209178869E+02  0.12862039325E+02 -0.23459892883E+02  0.37452899577E+02  0.00000000000E+00 0.  1.
        -13    1    3    3    0    0  0.26418265002E+02  0.74677529614E+02 -0.60835548561E+02  0.99878036243E+02  0.00000000000E+00 0. -1.
         13    1    3    3    0    0 -0.19204614758E+02 -0.16687130777E+02  0.68676939366E+01  0.26352282284E+02  0.00000000000E+00 0.  1.
         21    1    1    2  503  501 -0.14821418140E+02  0.17922594471E+02 -0.47833902586E+01  0.23743939240E+02  0.00000000000E+00 0.  1.
          1    1    1    2  501    0 -0.15871125659E+01 -0.22937036503E+03  0.68413380154E+01  0.22947785772E+03  0.00000000000E+00 0. -1.
<scales pt_clust_5="13000.00000" pt_clust_6="13000.00000" pt_clust_7="13000.00000" pt_clust_8="13000.00000" pt_clust_9="23.25712" pt_clust_10="13000.00000"></scales>
<clustering>
<clus scale="   23.257">  1  9  2 -1</clus>
<clus scale="   76.623">  5  6 -1 -1</clus>
<clus scale="   98.013">  7  8 -1 -1</clus>
<clus scale="  115.768">  2  7  1 -1</clus>
<clus scale="  198.932">  5 10 -1 -1</clus>
<clus scale="   23.257">  1  5  2 -1</clus>
</clustering>
</event>
<event>
10    2  0.5692308E-006  0.2049270E+03  0.7546771E-02  0.1176533E+00
         21   -1    0    0  501  502  0.00000000000E+00  0.00000000000E+00  0.36150529876E+03  0.36150529876E+03  0.00000000000E+00 0. -1.
          1   -1    0    0  503    0 -0.00000000000E+00 -0.00000000000E+00 -0.17431909378E+03  0.17431909378E+03  0.00000000000E+00 0. -1.
         23    2    1    2    0    0 -0.37028608085E+02  0.20502763773E+01 -0.10285643154E+03  0.14288394669E+03  0.91983994601E+02 0.  0.
         23    2    1    2    0    0 -0.12381431195E+02  0.54816597155E+01  0.99910452434E+01  0.93651441426E+02  0.92127211314E+02 0.  0.
        -13    1    3    3    0    0  0.26407366954E+02  0.39554456955E+01 -0.64612407346E+01  0.27472571993E+02  0.00000000000E+00 0.  1.
         13    1    3    3    0    0 -0.63435975039E+02 -0.19051693182E+01 -0.96395190801E+02  0.11541137469E+03  0.00000000000E+00 0. -1.
        -13    1    4    4    0    0  0.30557507659E+02 -0.24593936485E+02 -0.38983489421E+01  0.39418524968E+02  0.00000000000E+00 0. -1.
         13    1    4    4    0    0 -0.42938938853E+02  0.30075596201E+02  0.13889394185E+02  0.54232916458E+02  0.00000000000E+00 0.  1.
         21    1    1    2  503  502 -0.25306763923E+02 -0.24624016657E+01  0.11887690950E+03  0.12156568321E+03  0.00000000000E+00 0. -1.
          1    1    1    2  501    0  0.74716803202E+02 -0.50695344271E+01  0.16117468177E+03  0.17772332122E+03  0.00000000000E+00 0. -1.
<scales pt_clust_5="13000.00000" pt_clust_6="13000.00000" pt_clust_7="13000.00000" pt_clust_8="13000.00000" pt_clust_9="25.42628" pt_clust_10="13000.00000"></scales>
<clustering>
<clus scale="   25.426">  1  9  2 -1</clus>
<clus scale="   91.984">  5  6 -1 -1</clus>
<clus scale="   92.127">  7  8 -1 -1</clus>
<clus scale="   57.349">  7 10 -1 -1</clus>
<clus scale="   99.977">  2  5  1 -1</clus>
<clus scale="   25.426">  1  5  2 -1</clus>
</clustering>
</event>
<event>
10    2  0.5692308E-006  0.1531942E+03  0.7546771E-02  0.1208873E+00
          2   -1    0    0  503    0 -0.00000000000E+00  0.00000000000E+00  0.25488934735E+03  0.25488934735E+03  0.00000000000E+00 0. -1.
         21   -1    0    0  501  502  0.00000000000E+00 -0.00000000000E+00 -0.94917072791E+02  0.94917072791E+02  0.00000000000E+00 0.  1.
         23    2    1    2    0    0  0.42669670773E+02  0.24751375708E+02  0.65411002789E+02  0.13047024710E+03  0.10154090155E+03 0.  0.
         23    2    1    2    0    0 -0.55200851221E+01  0.83388050544E+01  0.44208548518E+02  0.94687330606E+02  0.83134155470E+02 0.  0.
        -11    1    4    4    0    0  0.10235890816E+02 -0.29632781025E+02 -0.36880234756E+01  0.31567019011E+02  0.00000000000E+00 0.  1.
         11    1    4    4    0    0 -0.15755975938E+02  0.37971586079E+02  0.47896571994E+02  0.63120311596E+02  0.00000000000E+00 0. -1.
        -13    1    3    3    0    0 -0.18661893891E+02 -0.26248859285E+02  0.26561764478E+02  0.41746811011E+02  0.00000000000E+00 0.  1.
         13    1    3    3    0    0  0.61331564664E+02  0.51000234994E+02  0.38849238311E+02  0.88723436086E+02  0.00000000000E+00 0. -1.
         21    1    1    2  503  502  0.14674499429E+02  0.18792370090E+02 -0.13512025457E+02  0.27405636994E+02  0.00000000000E+00 0.  1.
          2    1    1    2  501    0 -0.51824085080E+02 -0.51882550853E+02  0.63864748706E+02  0.97243205442E+02  0.00000000000E+00 0. -1.
<scales pt_clust_5="13000.00000" pt_clust_6="13000.00000" pt_clust_7="13000.00000" pt_clust_8="13000.00000" pt_clust_9="23.84311" pt_clust_10="13000.00000"></scales>
<clustering>
<clus scale="   23.843">  2  9  1 -1</clus>
<clus scale="   83.134">  5  6 -1 -1</clus>
<clus scale="   68.030">  5 10 -1 -1</clus>
<clus scale="  101.541">  7  8 -1 -1</clus>
<clus scale="  117.499">  1  7  2 -1</clus>
<clus scale="   23.843">  2  5  1 -1</clus>
</clustering>
</event>
<event>
10    2  0.5692308E-006  0.1605149E+03  0.7546771E-02  0.1202481E+00
         21   -1    0    0  501  502  0.00000000000E+00  0.00000000000E+00  0.14286097322E+03  0.14286097322E+03  0.00000000000E+00 0.  1.
          1   -1    0    0  503    0 -0.00000000000E+00 -0.00000000000E+00 -0.38387740580E+03  0.38387740580E+03  0.00000000000E+00 0. -1.
         23    2    1    2    0    0 -0.53083435592E+02 -0.87665906027E+02 -0.13902518435E+03  0.19639444512E+03  0.93485902560E+02 0.  0.
         23    2    1    2    0    0 -0.54486761099E+02  0.45248935031E+02 -0.12330759469E+03  0.17089082449E+03  0.94776778444E+02 0.  0.
        -11    1    4    4    0    0 -0.75290004769E+02  0.34982848762E+02 -0.57164920296E+02  0.10079788013E+03  0.00000000000E+00 0.  1.
         11    1    4    4    0    0  0.20803243670E+02  0.10266086268E+02 -0.66142674391E+02  0.70092944367E+02  0.00000000000E+00 0. -1.
        -13    1    3    3    0    0 -0.77779276988E+02 -0.46537914096E+02 -0.94539650000E+02  0.13096999198E+03  0.00000000000E+00 0.  1.
         13    1    3    3    0    0  0.24695841396E+02 -0.41127991931E+02 -0.44485534352E+02  0.65424453144E+02  0.00000000000E+00 0. -1.
         21    1    1    2  503  502  0.72899717717E+02  0.39229440815E+02  0.63806160840E+02  0.10452054358E+03  0.00000000000E+00 0.  1.
          1    1    1    2  501    0  0.34670478974E+02  0.31875301816E+01 -0.42489814382E+02  0.54932565816E+02  0.00000000000E+00 0. -1.
<scales pt_clust_5="13000.00000" pt_clust_6="13000.00000" pt_clust_7="13000.00000" pt_clust_8="13000.00000" pt_clust_9="82.78477" pt_clust_10="13000.00000"></scales>
<clustering>
<clus scale="   82.785">  1  9  2 -1</clus>
<clus scale="   93.486">  7  8 -1 -1</clus>
<clus scale="   94.777">  5  6 -1 -1</clus>
<clus scale="   43.029">  5 10 -1 -1</clus>
<clus scale="  117.201">  2  7  1 -1</clus>
<clus scale="   82.785">  1  5  2 -1</clus>
</clustering>
</event>
<event>
10    2  0.5692308E-006  0.3341045E+03  0.7546771E-02  0.1098260E+00
          1   -1    0    0  503    0 -0.00000000000E+00  0.00000000000E+00  0.29449066130E+03  0.29449066130E+03  0.00000000000E+00 0. -1.
         21   -1    0    0  501  502  0.00000000000E+00 -0.00000000000E+00 -0.59091891829E+03  0.59091891829E+03  0.00000000000E+00 0.  1.
         23    2    1    2    0    0  0.12676938424E+03  0.45304529873E+00  0.19688675144E+03  0.25147571588E+03  0.91678573026E+02 0.  0.
         23    2    1    2    0    0 -0.12557745192E+03 -0.12026149606E+03 -0.14319365451E+03  0.24330084910E+03  0.91969324318E+02 0.  0.
        -11    1    4    4    0    0 -0.59716529920E+02 -0.36541227871E+02 -0.11239640732E+03  0.13241705954E+03  0.00000000000E+00 0. -1.
         11    1    4    4    0    0 -0.65860921997E+02 -0.83720268185E+02 -0.30797247193E+02  0.11088378955E+03  0.00000000000E+00 0.  1.
        -13    1    3    3    0    0  0.67828091785E+02  0.38908995015E+02  0.63776598029E+02  0.10090596803E+03  0.00000000000E+00 0. -1.
         13    1    3    3    0    0  0.58941292459E+02 -0.38455949716E+02  0.13311015341E+03  0.15056974785E+03  0.00000000000E+00 0.  1.
         21    1    1    2  503  502 -0.43527598659E+02  0.12912148129E+02 -0.17758996947E+03  0.18330186216E+03  0.00000000000E+00 0.  1.
          1    1    1    2  501    0  0.42335666332E+02  0.10689630263E+03 -0.17253138446E+03  0.20733115246E+03  0.00000000000E+00 0. -1.
<scales pt_clust_5="13000.00000" pt_clust_6="13000.00000" pt_clust_7="13000.00000" pt_clust_8="13000.00000" pt_clust_9="45.40237" pt_clust_10="13000.00000"></scales>
<clustering>
<clus scale="   45.402">  2  9  1 -1</clus>
<clus scale="   91.679">  7  8 -1 -1</clus>
<clus scale="   91.969">  5  6 -1 -1</clus>
<clus scale="  115.032">  5 10 -1 -1</clus>
<clus scale="  154.116">  1  7  2 -1</clus>
<clus scale="   45.402">  2  5  1 -1</clus>
</clustering>
</event>
<event>
10    2  0.5692308E-006  0.1545391E+03  0.7546771E-02  0.1216161E+00
         21   -1    0    0  503  502  0.00000000000E+00  0.00000000000E+00  0.61068636687E+02  0.61068636687E+02  0.00000000000E+00 0.  1.
         -3   -1    0    0    0  501 -0.00000000000E+00 -0.00000000000E+00 -0.39019373852E+03  0.39019373852E+03  0.00000000000E+00 0.  1.
         23    2    1    2    0    0 -0.24320344759E+01  0.28881371485E+02 -0.14901040628E+03  0.17963595927E+03  0.96046490162E+02 0.  0.
         23    2    1    2    0    0 -0.55917402510E+02  0.11660652539E+02 -0.12473986233E+03  0.16393845999E+03  0.89738836012E+02 0.  0.
        -11    1    3    3    0    0 -0.17915272869E+02 -0.31023558227E+02 -0.35951191548E+02  0.50753387481E+02  0.00000000000E+00 0. -1.
         11    1    3    3    0    0  0.15483238394E+02  0.59904929712E+02 -0.11305921473E+03  0.12888257179E+03  0.00000000000E+00 0.  1.
        -13    1    4    4    0    0 -0.75654406305E+02  0.75561554004E+01 -0.62206949964E+02  0.98236394995E+02  0.00000000000E+00 0.  1.
         13    1    4    4    0    0  0.19737003795E+02  0.41044971381E+01 -0.62532912370E+02  0.65702064998E+02  0.00000000000E+00 0. -1.
         21    1    1    2  503  501  0.13309727516E+02 -0.26386056854E+02  0.61000145885E+01  0.30175868187E+02  0.00000000000E+00 0. -1.
         -3    1    1    2    0  502  0.45039709471E+02 -0.14155967169E+02 -0.61474847808E+02  0.77512087759E+02  0.00000000000E+00 0.  1.
<scales pt_clust_5="13000.00000" pt_clust_6="13000.00000" pt_clust_7="13000.00000" pt_clust_8="13000.00000" pt_clust_9="29.55288" pt_clust_10="13000.00000"></scales>
<clustering>
<clus scale="   29.553">  1  9  2 -1</clus>
<clus scale="   89.739">  7  8 -1 -1</clus>
<clus scale="   51.214">  7 10 -1 -1</clus>
<clus scale="   96.046">  5  6 -1 -1</clus>
<clus scale="   98.027">  2  5  1 -1</clus>
<clus scale="   29.553">  1  5  2 -1</clus>
</clustering>
</event>
<event>
10    2  0.5692308E-006  0.1516811E+03  0.7546771E-02  0.1222570E+00
         21   -1    0    0  503  502  0.00000000000E+00  0.00000000000E+00  0.69459349373E+02  0.69459349373E+02  0.00000000000E+00 0.  1.
          2   -1    0    0  502    0 -0.00000000000E+00 -0.00000000000E+00 -0.60664033485E+03  0.60664033485E+03  0.00000000000E+00 0. -1.
         23    2    1    2    0    0  0.14220299015E+02 -0.13555077711E+02 -0.29949812186E+03  0.31280626133E+03  0.88106044579E+02 0.  0.
         23    2    1    2    0    0 -0.16269083905E+02  0.22893817337E+02 -0.27171175895E+03  0.28657021265E+03  0.86639464814E+02 0.  0.
        -11    1    3    3    0    0 -0.12270272838E+02  0.33754399953E+02 -0.11111118614E+03  0.11677163524E+03  0.00000000000E+00 0.  1.
         11    1    3    3    0    0  0.26490571853E+02 -0.47309477664E+02 -0.18838693573E+03  0.19603462609E+03  0.00000000000E+00 0. -1.
        -13    1    4    4    0    0 -0.31828658323E+01  0.50176025309E+02 -0.96978579580E+02  0.10923648222E+03  0.00000000000E+00 0.  1.
         13    1    4    4    0    0 -0.13086218073E+02 -0.27282207971E+02 -0.17473317937E+03  0.17733373043E+03  0.00000000000E+00 0. -1.
         21    1    1    2  503  501  0.18352128734E+02  0.15722493750E+02  0.39522405323E+02  0.46325133150E+02  0.00000000000E+00 0.  1.
          2    1    1    2  501    0 -0.16303343844E+02 -0.25061233376E+02 -0.54935099834E+01  0.30398077090E+02  0.00000000000E+00 0. -1.
<scales pt_clust_5="13000.00000" pt_clust_6="13000.00000" pt_clust_7="13000.00000" pt_clust_8="13000.00000" pt_clust_9="24.16604" pt_clust_10="13000.00000"></scales>
<clustering>
<clus scale="   24.166">  1  9  2 -1</clus>
<clus scale="   86.639">  7  8 -1 -1</clus>
<clus scale="   19.283">  7 10 -1 -1</clus>
<clus scale="   88.106">  5  6 -1 -1</clus>
<clus scale="   90.605">  2  5  1 -1</clus>
<clus scale="   24.166">  1  5  2 -1</clus>
</clustering>
</event>
<event>
10    2  0.1044944E-005  0.5597147E+03  0.7546771E-02  0.1053518E+00
         -2   -1    0    0    0  501 -0.00000000000E+00  0.00000000000E+00  0.83067086684E+03  0.83067086684E+03  0.00000000000E+00 0.  1.
         21   -1    0    0  503  502  0.00000000000E+00 -0.00000000000E+00 -0.22425252187E+03  0.22425252187E+03  0.00000000000E+00 0.  1.
         23    2    1    2    0    0  0.21939639506E+02 -0.46549077783E+02 -0.63918987260E+02  0.12340895162E+03  0.92173575301E+02 0.  0.
         23    2    1    2    0    0  0.60592699873E+02  0.75424120773E+02  0.75563347029E+03  0.76713153763E+03  0.90269492843E+02 0.  0.
        -11    1    4    4    0    0  0.42886070275E+02  0.95824567769E+02  0.62158710741E+03  0.63039043054E+03  0.00000000000E+00 0.  1.
         11    1    4    4    0    0  0.17706629598E+02 -0.20400446996E+02  0.13404636287E+03  0.13674110709E+03  0.00000000000E+00 0. -1.
        -13    1    3    3    0    0  0.42938224534E+02  0.18330327446E+00 -0.19213594689E+01  0.42981581502E+02  0.00000000000E+00 0.  1.
         13    1    3    3    0    0 -0.20998585028E+02 -0.46732381058E+02 -0.61997627791E+02  0.80427370119E+02  0.00000000000E+00 0. -1.
         21    1    1    2  503  501  0.26941361078E+02 -0.68105674384E+01 -0.25455025856E+02  0.37685263789E+02  0.00000000000E+00 0.  1.
         -2    1    1    2    0  502 -0.10947370046E+03 -0.22064475551E+02 -0.59841112207E+02  0.12669763567E+03  0.00000000000E+00 0.  1.
<scales pt_clust_5="13000.00000" pt_clust_6="13000.00000" pt_clust_7="13000.00000" pt_clust_8="13000.00000" pt_clust_9="27.78886" pt_clust_10="13000.00000"></scales>
<clustering>
<clus scale="   27.789">  2  9  1 -1</clus>
<clus scale="   90.269">  5  6 -1 -1</clus>
<clus scale="   92.174">  7  8 -1 -1</clus>
<clus scale="   99.712">  5 10 -1 -1</clus>
<clus scale="  110.497">  1  7  2 -1</clus>
<clus scale="   27.789">  2  5  1 -1</clus>
</clustering>
</event>
<event>
10    2  0.5692308E-006  0.1296106E+03  0.7546771E-02  0.1239099E+00
         -1   -1    0    0    0  501 -0.00000000000E+00  0.00000000000E+00  0.68376297078E+03  0.68376297078E+03  0.00000000000E+00 0.  1.
         21   -1    0    0  503  502  0.00000000000E+00 -0.00000000000E+00 -0.56406868926E+02  0.56406868926E+02  0.00000000000E+00 0. -1.
         23    2    1    2    0    0  0.68732508110E+01 -0.26657964996E+02  0.30880634264E+03  0.32364499838E+03  0.92880778672E+02 0.  0.
         23    2    1    2    0    0 -0.42122783640E+02  0.33194482479E+02  0.15799436867E+03  0.19000975434E+03  0.90913605393E+02 0.  0.
        -11    1    3    3    0    0  0.43303370408E+02  0.89161518196E+01  0.11340588771E+03  0.12171924671E+03  0.00000000000E+00 0. -1.
         11    1    3    3    0    0 -0.36430119597E+02 -0.35574116815E+02  0.19540045493E+03  0.20192575167E+03  0.00000000000E+00 0.  1.
        -11    1    4    4    0    0 -0.14691091492E+02 -0.31255978920E+02  0.64776440831E+02  0.73408117223E+02  0.00000000000E+00 0.  1.
         11    1    4    4    0    0 -0.27431692147E+02  0.64450461399E+02  0.93217927841E+02  0.11660163712E+03  0.00000000000E+00 0. -1.
         21    1    1    2  503  501  0.79441049159E+02 -0.50100299850E+02  0.71812241872E+02  0.11822824713E+03  0.00000000000E+00 0. -1.
         -1    1    1    2    0  502 -0.44191516330E+02  0.43563782367E+02  0.88743148677E+02  0.10828683986E+03  0.00000000000E+00 0.  1.
<scales pt_clust_5="13000.00000" pt_clust_6="13000.00000" pt_clust_7="13000.00000" pt_clust_8="13000.00000" pt_clust_9="93.91975" pt_clust_10="13000.00000"></scales>
<clustering>
<clus scale="   90.914">  7  8 -1 -1</clus>
<clus scale="   62.054">  7 10 -1 -1</clus>
<clus scale="   92.881">  5  6 -1 -1</clus>
<clus scale="   93.920">  2  9  1 -1</clus>
<clus scale="  103.278">  1  5  2 -1</clus>
<clus scale="   93.920">  2  5  1 -1</clus>
</clustering>
</event>
<event>
10    2  0.5692308E-006  0.1400115E+03  0.7546771E-02  0.1232915E+00
          2   -1    0    0  503    0 -0.00000000000E+00  0.00000000000E+00  0.68990639294E+02  0.68990639294E+02  0.00000000000E+00 0.  1.
         21   -1    0    0  501  502  0.00000000000E+00 -0.00000000000E+00 -0.47904625628E+03  0.47904625628E+03  0.00000000000E+00 0. -1.
         23    2    1    2    0    0 -0.98493968808E+01  0.23363115765E+02 -0.45335802591E+01  0.93455807209E+02  0.89836455595E+02 0.  0.
         23    2    1    2    0    0 -0.34680527866E+01  0.14788262007E+02 -0.11138268100E+03  0.14408820425E+03  0.90136501447E+02 0.  0.
        -11    1    4    4    0    0  0.17624061080E+02 -0.32235290061E+02 -0.65433281516E+02  0.75041560380E+02  0.00000000000E+00 0. -1.
         11    1    4    4    0    0 -0.21092113866E+02  0.47023552068E+02 -0.45949399484E+02  0.69046643868E+02  0.00000000000E+00 0.  1.
        -13    1    3    3    0    0  0.16962547450E+02  0.37878592247E+02  0.27063408458E+02  0.49547389881E+02  0.00000000000E+00 0.  1.
         13    1    3    3    0    0 -0.26811944331E+02 -0.14515476482E+02 -0.31596988717E+02  0.43908417328E+02  0.00000000000E+00 0. -1.
         21    1    1    2  503  502 -0.35429137800E+02 -0.32081797080E+02 -0.17987380098E+03  0.18611568926E+03  0.00000000000E+00 0.  1.
          2    1    1    2  501    0  0.48746587467E+02 -0.60695806913E+01 -0.11426555474E+03  0.12437719485E+03  0.00000000000E+00 0.  1.
<scales pt_clust_5="13000.00000" pt_clust_6="13000.00000" pt_clust_7="13000.00000" pt_clust_8="13000.00000" pt_clust_9="47.79608" pt_clust_10="13000.00000"></scales>
<clustering>
<clus scale="   47.796">  2  9  1 -1</clus>
<clus scale="   89.836">  7  8 -1 -1</clus>
<clus scale="   90.137">  5  6 -1 -1</clus>
<clus scale="   39.357">  5 10 -1 -1</clus>
<clus scale="   92.970">  1  7  2 -1</clus>
<clus scale="   47.796">  2  5  1 -1</clus>
</clustering>
</event>
<event>
10    2  0.5692308E-006  0.1565446E+03  0.7546771E-02  0.1214234E+00
          1   -1    0    0  502    0 -0.00000000000E+00  0.00000000000E+00  0.30871895797E+03  0.30871895797E+03  0.00000000000E+00 0. -1.
         21   -1    0    0  503  502  0.00000000000E+00 -0.00000000000E+00 -0.74817076612E+02  0.74817076612E+02  0.00000000000E+00 0.  1.
         23    2    1    2    0    0  0.87338552473E+01  0.28404938962E+01  0.10905305097E+03  0.14648499856E+03  0.97370109604E+02 0.  0.
         23    2    1    2    0    0  0.25895723734E+02 -0.51971131497E+02  0.12775734155E+03  0.16568410241E+03  0.88077786392E+02 0.  0.
        -11    1    4    4    0    0  0.10969265996E+01 -0.62274406137E+02  0.40271075978E+02  0.74169161166E+02  0.00000000000E+00 0.  1.
         11    1    4    4    0    0  0.24798797135E+02  0.10303274641E+02  0.87486265569E+02  0.91514941244E+02  0.00000000000E+00 0. -1.
        -11    1    3    3    0    0  0.41966706905E+02 -0.26049550517E+02  0.79005577568E+02  0.93175452011E+02  0.00000000000E+00 0. -1.
         11    1    3    3    0    0 -0.33232851658E+02  0.28890044413E+02  0.30047473404E+02  0.53309546551E+02  0.00000000000E+00 0.  1.
         21    1    1    2  503  501 -0.12866151347E+01  0.20752934799E+02 -0.15355214773E+02  0.25848061862E+02  0.00000000000E+00 0.  1.
          1    1    1    2  501    0 -0.33342963847E+02  0.28377702802E+02  0.12446703613E+02  0.45518871748E+02  0.00000000000E+00 0. -1.
<scales pt_clust_5="13000.00000" pt_clust_6="13000.00000" pt_clust_7="13000.00000" pt_clust_8="13000.00000" pt_clust_9="20.79278" pt_clust_10="13000.00000"></scales>
<clustering>
<clus scale="   20.793">  2  9  1 -1</clus>
<clus scale="   88.078">  5  6 -1 -1</clus>
<clus scale="   48.401">  5 10 -1 -1</clus>
<clus scale="   97.370">  7  8 -1 -1</clus>
<clus scale="   98.233">  1  7  2 -1</clus>
<clus scale="   20.793">  2  5  1 -1</clus>
</clustering>
</event>
<event>
10    2  0.5692308E-006  0.3547050E+03  0.7546771E-02  0.1104874E+00
         21   -1    0    0  501  502  0.00000000000E+00  0.00000000000E+00  0.25211789853E+03  0.25211789853E+03  0.00000000000E+00 0. -1.
          1   -1    0    0  503    0 -0.00000000000E+00 -0.00000000000E+00 -0.37661235280E+03  0.37661235280E+03  0.00000000000E+00 0. -1.
         23    2    1    2    0    0  0.56110131769E+02  0.29875367110E+01 -0.15622877983E+03  0.18931746905E+03  0.90974722725E+02 0.  0.
         23    2    1    2    0    0  0.58708862817E+02 -0.76979702544E+02 -0.52024051136E+02  0.14558334515E+03  0.95474621302E+02 0.  0.
        -13    1    4    4    0    0  0.72289572209E+02 -0.27856677785E+02 -0.73666469158E+01  0.77820590040E+02  0.00000000000E+00 0. -1.
         13    1    4    4    0    0 -0.13580709392E+02 -0.49123024759E+02 -0.44657404220E+02  0.67762755115E+02  0.00000000000E+00 0.  1.
        -13    1    3    3    0    0  0.34711578755E+02 -0.22728783583E+02 -0.14955466634E+03  0.15520338117E+03  0.00000000000E+00 0. -1.
         13    1    3    3    0    0  0.21398553014E+02  0.25716320294E+02 -0.66741134931E+01  0.34114087874E+02  0.00000000000E+00 0.  1.
         21    1    1    2  503  502  0.41237744428E+02 -0.55902846332E+02 -0.10002355499E+02  0.70183523060E+02  0.00000000000E+00 0. -1.
          1    1    1    2  501    0 -0.15605673901E+03  0.12989501216E+03  0.93760732206E+02  0.22364591407E+03  0.00000000000E+00 0. -1.
<scales pt_clust_5="13000.00000" pt_clust_6="13000.00000" pt_clust_7="13000.00000" pt_clust_8="13000.00000" pt_clust_9="69.46711" pt_clust_10="13000.00000"></scales>
<clustering>
<clus scale="   69.467">  1  9  2 -1</clus>
<clus scale="   90.975">  7  8 -1 -1</clus>
<clus scale="   95.475">  5  6 -1 -1</clus>
<clus scale="  108.538">  2  7  1 -1</clus>
<clus scale="  138.920">  5 10 -1 -1</clus>
<clus scale="   69.467">  1  5  2 -1</clus>
</clustering>
</event>
<event>
10    2  0.5692308E-006  0.2802190E+03  0.7546771E-02  0.1104729E+00
         21   -1    0    0  501  502  0.00000000000E+00  0.00000000000E+00  0.16723471554E+03  0.16723471554E+03  0.00000000000E+00 0. -1.
          2   -1    0    0  503    0 -0.00000000000E+00 -0.00000000000E+00 -0.11555707528E+04  0.11555707528E+04  0.00000000000E+00 0. -1.
         23    2    1    2    0    0 -0.79726102730E+02 -0.19523049434E+03 -0.66250585225E+03  0.70126538695E+03  0.91585704606E+02 0.  0.
         23    2    1    2    0    0  0.42062471438E+02  0.15719140187E+03 -0.43884118350E+03  0.47718307018E+03  0.92971553753E+02 0.  0.
        -11    1    4    4    0    0 -0.28924838345E+01  0.12897783670E+03 -0.25417940763E+03  0.28504529480E+03  0.00000000000E+00 0.  1.
         11    1    4    4    0    0  0.44954955273E+02  0.28213565175E+02 -0.18466177586E+03  0.19213777538E+03  0.00000000000E+00 0. -1.
        -11    1    3    3    0    0 -0.27969734280E+02 -0.17000999360E+03 -0.50228479089E+03  0.53101385587E+03  0.00000000000E+00 0. -1.
         11    1    3    3    0    0 -0.51756368450E+02 -0.25220500733E+02 -0.16022106136E+03  0.17025153108E+03  0.00000000000E+00 0.  1.
         21    1    1    2  503  502  0.49195578719E+02  0.13057235967E+02  0.10333468893E+03  0.11519007905E+03  0.00000000000E+00 0. -1.
          2    1    1    2  501    0 -0.11531947427E+02  0.24981856497E+02  0.96763095500E+01  0.29166932166E+02  0.00000000000E+00 0. -1.
<scales pt_clust_5="13000.00000" pt_clust_6="13000.00000" pt_clust_7="13000.00000" pt_clust_8="13000.00000" pt_clust_9="50.89888" pt_clust_10="13000.00000"></scales>
<clustering>
<clus scale="   50.899">  1  9  2 -1</clus>
<clus scale="   91.586">  7  8 -1 -1</clus>
<clus scale="   92.972">  5  6 -1 -1</clus>
<clus scale="   29.771">  5 10 -1 -1</clus>
<clus scale="  220.957">  2  7  1 -1</clus>
<clus scale="   50.899">  1  5  2 -1</clus>
</clustering>
</event>
<event>
10    2  0.5692308E-006  0.2972534E+03  0.7546771E-02  0.1130248E+00
          2   -1    0    0  502    0 -0.00000000000E+00  0.00000000000E+00  0.60683344715E+03  0.60683344715E+03  0.00000000000E+00 0. -1.
         21   -1    0    0  503  502  0.00000000000E+00 -0.00000000000E+00 -0.96261446222E+02  0.96261446222E+02  0.00000000000E+00 0. -1.
         23    2    1    2    0    0 -0.26995964696E+02 -0.24371963793E+02  0.26801788783E+03  0.28555012972E+03  0.91556068380E+02 0.  0.
         23    2    1    2    0    0  0.10003754251E+03  0.35316474169E+02  0.25779607264E+03  0.29511327799E+03  0.96841460730E+02 0.  0.
        -11    1    4    4    0    0  0.88150717706E+02  0.17679862453E+02  0.25864751449E+03  0.27382779866E+03  0.00000000000E+00 0. -1.
         11    1    4    4    0    0  0.11886824807E+02  0.17636611716E+02 -0.85144185148E+00  0.21285479324E+02  0.00000000000E+00 0.  1.
        -11    1    3    3    0    0 -0.24894601370E+02  0.28595400083E+02  0.60741871397E+02  0.71603163506E+02  0.00000000000E+00 0. -1.
         11    1    3    3    0    0 -0.21013633263E+01 -0.52967363876E+02  0.20727601643E+03  0.21394696621E+03  0.00000000000E+00 0.  1.
         21    1    1    2  503  501  0.91656468111E+01  0.28646356388E+02 -0.64860068305E+01  0.30768345753E+02  0.00000000000E+00 0.  1.
          2    1    1    2  501    0 -0.82207224628E+02 -0.39590866764E+02 -0.87559527028E+01  0.91663139919E+02  0.00000000000E+00 0. -1.
<scales pt_clust_5="13000.00000" pt_clust_6="13000.00000" pt_clust_7="13000.00000" pt_clust_8="13000.00000" pt_clust_9="30.07695" pt_clust_10="13000.00000"></scales>
<clustering>
<clus scale="   30.077">  2  9  1 -1</clus>
<clus scale="   91.556">  7  8 -1 -1</clus>
<clus scale="   96.841">  5  6 -1 -1</clus>
<clus scale="   79.134">  5 10 -1 -1</clus>
<clus scale="   97.485">  1  7  2 -1</clus>
<clus scale="   30.077">  2  5  1 -1</clus>
</clustering>
</event>
<event>
10    2  0.5692308E-006  0.2158780E+03  0.7546771E-02  0.1154745E+00
         21   -1    0    0  501  502  0.00000000000E+00  0.00000000000E+00  0.44390265985E+03  0.44390265985E+03  0.00000000000E+00 0.  1.
          2   -1    0    0  503    0 -0.00000000000E+00 -0.00000000000E+00 -0.17497322314E+03  0.17497322314E+03  0.00000000000E+00 0. -1.
         23    2    1    2    0    0 -0.29644632409E+02 -0.86853190784E+02  0.27855216003E+03  0.30824911144E+03  0.94889029234E+02 0.  0.
         23    2    1    2    0    0 -0.56758362903E+02  0.18177687040E+02 -0.33323297377E+02  0.11367611658E+03  0.90883866920E+02 0.  0.
        -11    1    3    3    0    0 -0.25420079291E+02 -0.23737328243E+02  0.16180278444E+02  0.38359387297E+02  0.00000000000E+00 0. -1.
         11    1    3    3    0    0 -0.42245531178E+01 -0.63115862541E+02  0.26237188158E+03  0.26988972415E+03  0.00000000000E+00 0.  1.
        -13    1    4    4    0    0 -0.78315773321E+02  0.25445812828E+02 -0.13386783651E+02  0.83426948391E+02  0.00000000000E+00 0. -1.
         13    1    4    4    0    0  0.21557410418E+02 -0.72681257879E+01 -0.19936513726E+02  0.30249168186E+02  0.00000000000E+00 0.  1.
         21    1    1    2  503  502  0.26112090384E+02 -0.22014238810E+02  0.70562975473E+02  0.78393886765E+02  0.00000000000E+00 0. -1.
          2    1    1    2  501    0  0.60290904928E+02  0.90689742554E+02 -0.46862401410E+02  0.11855676821E+03  0.00000000000E+00 0. -1.
<scales pt_clust_5="13000.00000" pt_clust_6="13000.00000" pt_clust_7="13000.00000" pt_clust_8="13000.00000" pt_clust_9="34.15359" pt_clust_10="13000.00000"></scales>
<clustering>
<clus scale="   34.154">  1  9  2 -1</clus>
<clus scale="   90.884">  7  8 -1 -1</clus>
<clus scale="   94.889">  5  6 -1 -1</clus>
<clus scale="  108.576">  7 10 -1 -1</clus>
<clus scale="  141.313">  2  5  1 -1</clus>
<clus scale="   34.154">  1  5  2 -1</clus>
</clustering>
</event>
<event>
10    2  0.5692308E-006  0.2149310E+03  0.7546771E-02  0.1165624E+00
          1   -1    0    0  503    0 -0.00000000000E+00  0.00000000000E+00  0.17752981901E+03  0.17752981901E+03  0.00000000000E+00 0. -1.
         21   -1    0    0  501  502  0.00000000000E+00 -0.00000000000E+00 -0.23770498457E+03  0.23770498457E+03  0.00000000000E+00 0. -1.
         23    2    1    2    0    0  0.57951557162E+02 -0.12874262034E+02  0.74048143225E+02  0.13297184559E+03  0.93135678473E+02 0.  0.
         23    2    1    2    0    0 -0.49644165599E+02 -0.13154850163E+02  0.20052219290E+02  0.10663013821E+03  0.91270486000E+02 0.  0.
        -11    1    3    3    0    0 -0.21126414026E+01  0.27928041686E+02 -0.16775045777E+01  0.28058025371E+02  0.00000000000E+00 0.  1.
         11    1    3    3    0    0  0.60064198565E+02 -0.40802303720E+02  0.75725647803E+02  0.10491382022E+03  0.00000000000E+00 0. -1.
        -11    1    4    4    0    0 -0.73204905272E+02 -0.25598956101E+02  0.19560337261E+02  0.79980444504E+02  0.00000000000E+00 0. -1.
         11    1    4    4    0    0  0.23560739673E+02  0.12444105938E+02  0.49188202884E+00  0.26649693703E+02  0.00000000000E+00 0.  1.
         21    1    1    2  503  502  0.26401422750E+01 -0.26631786659E+02 -0.29913969553E+02  0.40138111394E+02  0.00000000000E+00 0. -1.
          1    1    1    2  501    0 -0.10947533838E+02  0.52660898856E+02 -0.12436155852E+03  0.13549470840E+03  0.00000000000E+00 0. -1.
<scales pt_clust_5="13000.00000" pt_clust_6="13000.00000" pt_clust_7="13000.00000" pt_clust_8="13000.00000" pt_clust_9="26.76233" pt_clust_10="13000.00000"></scales>
<clustering>
<clus scale="   26.762">  2  9  1 -1</clus>
<clus scale="   91.270">  7  8 -1 -1</clus>
<clus scale="   36.772">  7 10 -1 -1</clus>
<clus scale="   93.136">  5  6 -1 -1</clus>
<clus scale="  111.165">  1  5  2 -1</clus>
<clus scale="   26.762">  2  5  1 -1</clus>
</clustering>
</event>
<event>
10    2  0.5692308E-006  0.4470327E+03  0.7546771E-02  0.1062228E+00
         21   -1    0    0  503  502  0.00000000000E+00  0.00000000000E+00  0.40606607181E+03  0.40606607181E+03  0.00000000000E+00 0.  1.
         -1   -1    0    0    0  501 -0.00000000000E+00 -0.00000000000E+00 -0.60132379900E+03  0.60132379900E+03  0.00000000000E+00 0.  1.
         23    2    1    2    0    0 -0.36820555996E+02  0.13926963506E+03  0.10281523764E+03  0.19850182367E+03  0.89890023443E+02 0.  0.
         23    2    1    2    0    0  0.45207481317E+02  0.46623395555E+02 -0.40975683186E+03  0.42480573386E+03  0.91333416034E+02 0.  0.
        -11    1    4    4    0    0  0.48730447787E+02 -0.13390969196E+02 -0.15407838100E+03  0.16215462401E+03  0.00000000000E+00 0.  1.
         11    1    4    4    0    0 -0.35229664695E+01  0.60014364752E+02 -0.25567845086E+03  0.26265110984E+03  0.00000000000E+00 0. -1.
        -11    1    3    3    0    0 -0.44012813602E+01  0.12191650138E+03  0.45094829247E+02  0.13006363140E+03  0.00000000000E+00 0.  1.
         11    1    3    3    0    0 -0.32419274636E+02  0.17353133681E+02  0.57720408396E+02  0.68438192275E+02  0.00000000000E+00 0. -1.
         21    1    1    2  503  501 -0.14103928865E+03 -0.18766179613E+03  0.67785448140E+02  0.24434381033E+03  0.00000000000E+00 0.  1.
         -1    1    1    2    0  502  0.13265236333E+03  0.17687655063E+01  0.43898418874E+02  0.13973850295E+03  0.00000000000E+00 0.  1.
<scales pt_clust_5="13000.00000" pt_clust_6="13000.00000" pt_clust_7="13000.00000" pt_clust_8="13000.00000" pt_clust_9="221.26089" pt_clust_10="13000.00000"></scales>
<clustering>
<clus scale="   89.890">  7  8 -1 -1</clus>
<clus scale="   91.333">  5  6 -1 -1</clus>
<clus scale="  132.664">  5 10 -1 -1</clus>
<clus scale="  169.800">  2  7  1 -1</clus>
<clus scale="  221.261">  1  9  2 -1</clus>
<clus scale="  221.261">  1  5  2 -1</clus>
</clustering>
</event>
<event>
10    2  0.5692308E-006  0.1954755E+03  0.7546771E-02  0.1186968E+00
         21   -1    0    0  501  502  0.00000000000E+00  0.00000000000E+00  0.11067166241E+03  0.11067166241E+03  0.00000000000E+00 0. -1.
          1   -1    0    0  503    0 -0.00000000000E+00 -0.00000000000E+00 -0.34554445534E+03  0.34554445534E+03  0.00000000000E+00 0. -1.
         23    2    1    2    0    0 -0.29295976397E+01 -0.12311142522E+02 -0.73741148155E+02  0.11744276636E+03  0.90525685116E+02 0.  0.
         23    2    1    2    0    0 -0.25311724931E+02 -0.46764047162E+02 -0.21424224786E+03  0.23858851544E+03  0.90538275902E+02 0.  0.
        -11    1    4    4    0    0  0.21331615178E+02 -0.32668609348E+02 -0.16408440425E+03  0.16865932397E+03  0.00000000000E+00 0. -1.
         11    1    4    4    0    0 -0.46643340109E+02 -0.14095437814E+02 -0.50157843608E+02  0.69929191466E+02  0.00000000000E+00 0.  1.
        -13    1    3    3    0    0 -0.10344557619E+02 -0.48575312059E+02 -0.60169043641E+02  0.78018489006E+02  0.00000000000E+00 0.  1.
         13    1    3    3    0    0  0.74149599796E+01  0.36264169537E+02 -0.13572104514E+02  0.39424277351E+02  0.00000000000E+00 0. -1.
         21    1    1    2  503  502  0.32321138275E+02  0.15873552903E+02  0.42133041734E+02  0.55423991799E+02  0.00000000000E+00 0.  1.
          1    1    1    2  501    0 -0.40798157049E+01  0.43201636781E+02  0.10977561349E+02  0.44760844160E+02  0.00000000000E+00 0. -1.
<scales pt_clust_5="13000.00000" pt_clust_6="13000.00000" pt_clust_7="13000.00000" pt_clust_8="13000.00000" pt_clust_9="36.00869" pt_clust_10="13000.00000"></scales>
<clustering>
<clus scale="   36.009">  1  9  2 -1</clus>
<clus scale="   90.526">  7  8 -1 -1</clus>
<clus scale="   90.538">  5  6 -1 -1</clus>
<clus scale="   51.427">  5 10 -1 -1</clus>
<clus scale="   91.169">  2  7  1 -1</clus>
<clus scale="   36.009">  1  5  2 -1</clus>
</clustering>
</event>
<event>
10    2  0.5692308E-006  0.2257535E+03  0.7546771E-02  0.1147968E+00
          1   -1    0    0  502    0 -0.00000000000E+00  0.00000000000E+00  0.27046606727E+03  0.27046606727E+03  0.00000000000E+00 0. -1.
         21   -1    0    0  503  502  0.00000000000E+00 -0.00000000000E+00 -0.18255270824E+03  0.18255270824E+03  0.00000000000E+00 0. -1.
         23    2    1    2    0    0  0.61576845058E+02  0.69082837248E+02  0.51157289870E+02  0.14906969785E+03  0.10507407036E+03 0.  0.
         23    2    1    2    0    0  0.24586975256E+01 -0.22785212988E+02  0.98735667449E+02  0.13611595907E+03  0.90849387243E+02 0.  0.
        -11    1    4    4    0    0 -0.55454031028E+01 -0.41603616850E+02  0.75248591344E+01  0.42640777849E+02  0.00000000000E+00 0.  1.
         11    1    4    4    0    0  0.80041006284E+01  0.18818403863E+02  0.91210808314E+02  0.93475181220E+02  0.00000000000E+00 0. -1.
        -13    1    3    3    0    0 -0.25429468200E+02  0.24372929987E+02 -0.60632347482E+01  0.35741577815E+02  0.00000000000E+00 0.  1.
         13    1    3    3    0    0  0.87006313258E+02  0.44709907261E+02  0.57220524618E+02  0.11332812004E+03  0.00000000000E+00 0. -1.
         21    1    1    2  503  501  0.38027542600E+02 -0.99855359534E+01 -0.42263099326E+02  0.57723257783E+02  0.00000000000E+00 0. -1.
          1    1    1    2  501    0 -0.10206308518E+03 -0.36312088307E+02 -0.19716498959E+02  0.11010986080E+03  0.00000000000E+00 0. -1.
<scales pt_clust_5="13000.00000" pt_clust_6="13000.00000" pt_clust_7="13000.00000" pt_clust_8="13000.00000" pt_clust_9="39.31673" pt_clust_10="13000.00000"></scales>
<clustering>
<clus scale="   39.317">  2  9  1 -1</clus>
<clus scale="   90.849">  5  6 -1 -1</clus>
<clus scale="   93.059">  5 10 -1 -1</clus>
<clus scale="  105.074">  7  8 -1 -1</clus>
<clus scale="  145.037">  1  7  2 -1</clus>
<clus scale="   39.317">  2  5  1 -1</clus>
</clustering>
</event>
<event>
10    2  0.5692308E-006  0.3372627E+03  0.7546771E-02  0.1115406E+00
          1   -1    0    0  503    0 -0.00000000000E+00  0.00000000000E+00  0.34735800355E+03  0.34735800355E+03  0.00000000000E+00 0. -1.
         21   -1    0    0  501  502  0.00000000000E+00 -0.00000000000E+00 -0.17861339824E+03  0.17861339824E+03  0.00000000000E+00 0.  1.
         23    2    1    2    0    0  0.24942297379E+02  0.23602766742E+02  0.90384359231E+02  0.13232421506E+03  0.90339120542E+02 0.  0.
         23    2    1    2    0    0 -0.69612422073E+01  0.48898251008E+02  0.19156542828E+03  0.21777736547E+03  0.91050369318E+02 0.  0.
        -11    1    3    3    0    0 -0.20796896246E+02  0.39115454601E+02  0.24472041498E+02  0.50610379343E+02  0.00000000000E+00 0.  1.
         11    1    3    3    0    0  0.45739193625E+02 -0.15512687859E+02  0.65912317733E+02  0.81713835714E+02  0.00000000000E+00 0. -1.
        -13    1    4    4    0    0 -0.12838992633E+02  0.70899233760E+02  0.98951784975E+02  0.12240505230E+03  0.00000000000E+00 0.  1.
         13    1    4    4    0    0  0.58777504254E+01 -0.22000982752E+02  0.92613643303E+02  0.95372313162E+02  0.00000000000E+00 0. -1.
         21    1    1    2  503  502  0.26847272457E+02 -0.36876702453E+02  0.36292706636E+01  0.45758483670E+02  0.00000000000E+00 0. -1.
          1    1    1    2  501    0 -0.44828327628E+02 -0.35624315297E+02 -0.11683445286E+03  0.13011133760E+03  0.00000000000E+00 0. -1.
<scales pt_clust_5="13000.00000" pt_clust_6="13000.00000" pt_clust_7="13000.00000" pt_clust_8="13000.00000" pt_clust_9="45.61433" pt_clust_10="13000.00000"></scales>
<clustering>
<clus scale="   45.614">  2  9  1 -1</clus>
<clus scale="   90.339">  5  6 -1 -1</clus>
<clus scale="   91.050">  7  8 -1 -1</clus>
<clus scale="   68.770">  7 10 -1 -1</clus>
<clus scale="   96.560">  1  5  2 -1</clus>
<clus scale="   45.614">  2  5  1 -1</clus>
</clustering>
</event>
<event>
10    2  0.5692308E-006  0.4669557E+03  0.7546771E-02  0.1076188E+00
         21   -1    0    0  501  502  0.00000000000E+00  0.00000000000E+00  0.10466236999E+03  0.10466236999E+03  0.00000000000E+00 0. -1.
          2   -1    0    0  503    0 -0.00000000000E+00 -0.00000000000E+00 -0.88661940299E+03  0.88661940299E+03  0.00000000000E+00 0. -1.
         23    2    1    2    0    0 -0.34548893613E+02  0.30209044125E+02 -0.99200259755E+02  0.14284945511E+03  0.91973163980E+02 0.  0.
         23    2    1    2    0    0 -0.19894481150E+03  0.57583115018E+02 -0.40941738472E+03  0.47013030691E+03  0.10249418227E+03 0.  0.
        -11    1    4    4    0    0 -0.89406731671E+02  0.12403363190E+02 -0.28217982444E+03  0.29626484842E+03  0.00000000000E+00 0.  1.
         11    1    4    4    0    0 -0.10953807983E+03  0.45179751828E+02 -0.12723756028E+03  0.17386545849E+03  0.00000000000E+00 0. -1.
        -11    1    3    3    0    0 -0.49629294501E+02 -0.15340220950E+02 -0.34739172886E+02  0.62491594509E+02  0.00000000000E+00 0. -1.
         11    1    3    3    0    0  0.15080400888E+02  0.45549265075E+02 -0.64461086869E+02  0.80357860600E+02  0.00000000000E+00 0.  1.
         21    1    1    2  503  502  0.33827973121E+02  0.13956069235E+02 -0.49560845618E+02  0.61606664025E+02  0.00000000000E+00 0. -1.
          2    1    1    2  501    0  0.19966573200E+03 -0.10174822838E+03 -0.22377854290E+03  0.31669534694E+03  0.00000000000E+00 0. -1.
<scales pt_clust_5="13000.00000" pt_clust_6="13000.00000" pt_clust_7="13000.00000" pt_clust_8="13000.00000" pt_clust_9="36.59378" pt_clust_10="13000.00000"></scales>
<clustering>
<clus scale="   36.594">  1  9  2 -1</clus>
<clus scale="   91.973">  7  8 -1 -1</clus>
<clus scale="  101.490">  2  7  1 -1</clus>
<clus scale="  102.494">  5  6 -1 -1</clus>
<clus scale="  219.478">  5 10 -1 -1</clus>
<clus scale="   36.594">  1  5  2 -1</clus>
</clustering>
</event>
<event>
10    2  0.5692308E-006  0.2113314E+03  0.7546771E-02  0.1171702E+00
          1   -1    0    0  503    0 -0.00000000000E+00  0.00000000000E+00  0.18725906902E+03  0.18725906902E+03  0.00000000000E+00 0. -1.
         21   -1    0    0  501  502  0.00000000000E+00 -0.00000000000E+00 -0.64086840657E+03  0.64086840657E+03  0.00000000000E+00 0.  1.
         23    2    1    2    0    0 -0.44902815025E+02  0.15456389775E+02  0.12409243685E+03  0.16046171950E+03  0.89965925546E+02 0.  0.
         23    2    1    2    0    0 -0.31635172820E+02 -0.25465329171E+02 -0.11595143740E+03  0.15493769219E+03  0.94401723910E+02 0.  0.
        -11    1    3    3    0    0  0.14105373866E+02  0.28608116710E+02  0.13940359673E+02  0.34809762157E+02  0.00000000000E+00 0.  1.
         11    1    3    3    0    0 -0.59008188890E+02 -0.13151726935E+02  0.11015207718E+03  0.12565195735E+03  0.00000000000E+00 0. -1.
        -11    1    4    4    0    0 -0.22483404895E+02  0.34993057110E+02 -0.45240331692E+02  0.61454903410E+02  0.00000000000E+00 0. -1.
         11    1    4    4    0    0 -0.91517679251E+01 -0.60458386281E+02 -0.70711105710E+02  0.93482788783E+02  0.00000000000E+00 0.  1.
         21    1    1    2  503  502  0.75155162897E+02  0.95136619365E+02 -0.16996949479E+03  0.20877955842E+03  0.00000000000E+00 0.  1.
          1    1    1    2  501    0  0.13828249474E+01 -0.85127679968E+02 -0.29178084221E+03  0.30394850548E+03  0.00000000000E+00 0. -1.
<scales pt_clust_5="13000.00000" pt_clust_6="13000.00000" pt_clust_7="13000.00000" pt_clust_8="13000.00000" pt_clust_9="116.08636" pt_clust_10="13000.00000"></scales>
<clustering>
<clus scale="   89.966">  5  6 -1 -1</clus>
<clus scale="   94.402">  7  8 -1 -1</clus>
<clus scale="   85.139">  7 10 -1 -1</clus>
<clus scale="  101.730">  1  5  2 -1</clus>
<clus scale="  116.086">  2  9  1 -1</clus>
<clus scale="  116.086">  2  5  1 -1</clus>
</clustering>
</event>
<event>
10    2  0.5692308E-006  0.3314487E+03  0.7546771E-02  0.1118638E+00
          1   -1    0    0  503    0 -0.00000000000E+00  0.00000000000E+00  0.48294980149E+03  0.48294980149E+03  0.00000000000E+00 0. -1.
         21   -1    0    0  501  502  0.00000000000E+00 -0.00000000000E+00 -0.39775332925E+03  0.39775332925E+03  0.00000000000E+00 0. -1.
         23    2    1    2    0    0  0.32312586197E+02 -0.44230692006E+01  0.14880213536E+03  0.17589400425E+03  0.87937241692E+02 0.  0.
         23    2    1    2    0    0 -0.38322938235E+02 -0.13379390740E+03  0.13158588457E+03  0.21200987006E+03  0.90905900419E+02 0.  0.
        -11    1    3    3    0    0  0.24436108317E+02 -0.36839817730E+02  0.13062606061E+03  0.13790381891E+03  0.00000000000E+00 0. -1.
         11    1    3    3    0    0  0.78764778809E+01  0.32416748529E+02  0.18176074755E+02  0.37990185345E+02  0.00000000000E+00 0.  1.
        -13    1    4    4    0    0 -0.31547063441E+02  0.48071738129E+00  0.20686080410E+02  0.37727473063E+02  0.00000000000E+00 0.  1.
         13    1    4    4    0    0 -0.67758747936E+01 -0.13427462478E+03  0.11089980417E+03  0.17428239699E+03  0.00000000000E+00 0. -1.
         21    1    1    2  503  502 -0.16461915249E+02  0.28146593686E+03 -0.20325777191E+03  0.34757415052E+03  0.00000000000E+00 0. -1.
          1    1    1    2  501    0  0.22472267287E+02 -0.14324896027E+03  0.80662242062E+01  0.14522510591E+03  0.00000000000E+00 0. -1.
<scales pt_clust_5="13000.00000" pt_clust_6="13000.00000" pt_clust_7="13000.00000" pt_clust_8="13000.00000" pt_clust_9="280.62093" pt_clust_10="13000.00000"></scales>
<clustering>
<clus scale="   87.937">  5  6 -1 -1</clus>
<clus scale="   90.906">  7  8 -1 -1</clus>
<clus scale="   93.790">  1  5  2 -1</clus>
<clus scale="  147.432">  7 10 -1 -1</clus>
<clus scale="  280.621">  2  9  1 -1</clus>
<clus scale="  280.621">  2  5  1 -1</clus>
</clustering>
</event>
<event>
10    2  0.5692308E-006  0.2045726E+03  0.7546771E-02  0.1172378E+00
         -2   -1    0    0    0  501 -0.00000000000E+00  0.00000000000E+00  0.56421681873E+03  0.56421681873E+03  0.00000000000E+00 0.  1.
         21   -1    0    0  501  502  0.00000000000E+00 -0.00000000000E+00 -0.11474599805E+03  0.11474599805E+03  0.00000000000E+00 0.  1.
         23    2    1    2    0    0  0.71425021048E+02 -0.10936424884E+02  0.16083704203E+03  0.19867594876E+03  0.91555663420E+02 0.  0.
         23    2    1    2    0    0  0.16773795963E+02 -0.11159466221E+02  0.31018230330E+03  0.32465027168E+03  0.93695483908E+02 0.  0.
        -11    1    3    3    0    0  0.34742241505E+02 -0.22929353072E+02  0.97710658104E+01  0.42758067124E+02  0.00000000000E+00 0. -1.
         11    1    3    3    0    0  0.36682779543E+02  0.11992928188E+02  0.15106597622E+03  0.15591788163E+03  0.00000000000E+00 0.  1.
        -13    1    4    4    0    0 -0.15237521286E+02 -0.40969669928E+02  0.22144058716E+03  0.22571360072E+03  0.00000000000E+00 0.  1.
         13    1    4    4    0    0  0.32011317249E+02  0.29810203706E+02  0.88741716136E+02  0.98936670955E+02  0.00000000000E+00 0. -1.
         21    1    1    2  503  502 -0.29321372269E+02 -0.15632139352E+02 -0.65216512490E+02  0.73193580004E+02  0.00000000000E+00 0.  1.
         -2    1    1    2    0  503 -0.58877444742E+02  0.37728030457E+02  0.43667987840E+02  0.82443016342E+02  0.00000000000E+00 0.  1.
<scales pt_clust_5="13000.00000" pt_clust_6="13000.00000" pt_clust_7="13000.00000" pt_clust_8="13000.00000" pt_clust_9="33.22810" pt_clust_10="13000.00000"></scales>
<clustering>
<clus scale="   33.228">  2  9  1 -1</clus>
<clus scale="   91.556">  5  6 -1 -1</clus>
<clus scale="   93.695">  7  8 -1 -1</clus>
<clus scale="   77.832">  7 10 -1 -1</clus>
<clus scale="  110.436">  1  5  2 -1</clus>
<clus scale="   33.228">  2  5  1 -1</clus>
</clustering>
</event>
<event>
10    2  0.5692308E-006  0.3187200E+03  0.7546771E-02  0.1087857E+00
         21   -1    0    0  501  502  0.00000000000E+00  0.00000000000E+00  0.35836941920E+03  0.35836941920E+03  0.00000000000E+00 0.  1.
          2   -1    0    0  503    0 -0.00000000000E+00 -0.00000000000E+00 -0.35875815610E+03  0.35875815610E+03  0.00000000000E+00 0. -1.
         23    2    1    2    0    0  0.12647624232E+03  0.17020201422E+03  0.14758630627E+03  0.27372219495E+03  0.90427632363E+02 0.  0.
         23    2    1    2    0    0 -0.79837301135E+02 -0.84148036705E+02 -0.23113978712E+03  0.27428674907E+03  0.91393286368E+02 0.  0.
        -11    1    4    4    0    0  0.75883933872E+01 -0.27293303106E+02 -0.10445196912E+02  0.30192884049E+02  0.00000000000E+00 0.  1.
         11    1    4    4    0    0 -0.87425694522E+02 -0.56854733598E+02 -0.22069459021E+03  0.24409386502E+03  0.00000000000E+00 0. -1.
        -11    1    3    3    0    0  0.33105207466E+02  0.97793885695E+02  0.10725063161E+03  0.14887006691E+03  0.00000000000E+00 0.  1.
         11    1    3    3    0    0  0.93371034858E+02  0.72408128524E+02  0.40335674660E+02  0.12485212804E+03  0.00000000000E+00 0. -1.
         21    1    1    2  503  502  0.27440215937E+02 -0.17083992716E+02  0.55439510065E+02  0.64174508444E+02  0.00000000000E+00 0.  1.
          2    1    1    2  501    0 -0.74079157127E+02 -0.68969984799E+02  0.27725233888E+02  0.10494412284E+03  0.00000000000E+00 0. -1.
<scales pt_clust_5="13000.00000" pt_clust_6="13000.00000" pt_clust_7="13000.00000" pt_clust_8="13000.00000" pt_clust_9="32.32380" pt_clust_10="13000.00000"></scales>
<clustering>
<clus scale="   32.324">  1  9  2 -1</clus>
<clus scale="   90.428">  7  8 -1 -1</clus>
<clus scale="   91.393">  5  6 -1 -1</clus>
<clus scale="   99.582">  5 10 -1 -1</clus>
<clus scale="  233.359">  2  7  1 -1</clus>
<clus scale="   32.324">  1  5  2 -1</clus>
</clustering>
</event>
<event>
10    2  0.5692308E-006  0.4919205E+03  0.7546771E-02  0.1056051E+00
          2   -1    0    0  503    0 -0.00000000000E+00  0.00000000000E+00  0.42554395135E+03  0.42554395135E+03  0.00000000000E+00 0. -1.
         21   -1    0    0  501  502  0.00000000000E+00 -0.00000000000E+00 -0.31382170213E+03  0.31382170213E+03  0.00000000000E+00 0. -1.
         23    2    1    2    0    0 -0.48074149453E+02  0.11252042649E+03  0.14485484000E+03  0.21086964483E+03  0.92255689354E+02 0.  0.
         23    2    1    2    0    0  0.16092484821E+03 -0.22938351233E+03  0.64580125512E+02  0.30127194155E+03  0.89892088934E+02 0.  0.
        -11    1    4    4    0    0  0.24383136697E+02 -0.94962016791E+02  0.47394408944E+02  0.10889697878E+03  0.00000000000E+00 0.  1.
         11    1    4    4    0    0  0.13654171152E+03 -0.13442149554E+03  0.17185716567E+02  0.19237496277E+03  0.00000000000E+00 0. -1.
        -11    1    3    3    0    0 -0.68299058022E+02  0.44353918504E+02  0.67238487667E+02  0.10560798093E+03  0.00000000000E+00 0.  1.
         11    1    3    3    0    0  0.20224908569E+02  0.68166507982E+02  0.77616352333E+02  0.10526166390E+03  0.00000000000E+00 0. -1.
         21    1    1    2  503  502 -0.74373335209E+01 -0.23109847138E+02 -0.31806446165E+02  0.40012860212E+02  0.00000000000E+00 0. -1.
          2    1    1    2  501    0 -0.10541336524E+03  0.13997293298E+03 -0.65906270129E+02  0.18721120688E+03  0.00000000000E+00 0. -1.
<scales pt_clust_5="13000.00000" pt_clust_6="13000.00000" pt_clust_7="13000.00000" pt_clust_8="13000.00000" pt_clust_9="24.27713" pt_clust_10="13000.00000"></scales>
<clustering>
<clus scale="   24.277">  2  9  1 -1</clus>
<clus scale="   89.892">  5  6 -1 -1</clus>
<clus scale="   92.256">  7  8 -1 -1</clus>
<clus scale="  151.521">  1  7  2 -1</clus>
<clus scale="  196.566">  5 10 -1 -1</clus>
<clus scale="   24.277">  2  5  1 -1</clus>
</clustering>
</event>
<event>
10    2  0.5692308E-006  0.4570192E+03  0.7546771E-02  0.1032788E+00
          2   -1    0    0  502    0 -0.00000000000E+00  0.00000000000E+00  0.11174019515E+04  0.11174019515E+04  0.00000000000E+00 0. -1.
         21   -1    0    0  503  502  0.00000000000E+00 -0.00000000000E+00 -0.20076428929E+03  0.20076428929E+03  0.00000000000E+00 0.  1.
         23    2    1    2    0    0  0.19748578951E+03  0.36060018625E+03  0.35199313926E+03  0.54792264834E+03  0.85363499776E+02 0.  0.
         23    2    1    2    0    0 -0.39915983737E+02 -0.13618634492E+03  0.41220921101E+03  0.44521831423E+03  0.90348809543E+02 0.  0.
        -11    1    3    3    0    0  0.69522905244E+02  0.16626621979E+03  0.10492085535E+03  0.20853363298E+03  0.00000000000E+00 0. -1.
         11    1    3    3    0    0  0.12796288426E+03  0.19433396646E+03  0.24707228391E+03  0.33938901536E+03  0.00000000000E+00 0.  1.
        -13    1    4    4    0    0 -0.17209860731E+02 -0.93449811177E+02  0.14298527173E+03  0.17167945260E+03  0.00000000000E+00 0.  1.
         13    1    4    4    0    0 -0.22706123007E+02 -0.42736533746E+02  0.26922393928E+03  0.27353886163E+03  0.00000000000E+00 0. -1.
         21    1    1    2  503  501 -0.70339782270E+02 -0.70013814243E+02  0.98110524645E+02  0.13955391145E+03  0.00000000000E+00 0.  1.
          2    1    1    2  501    0 -0.87230023502E+02 -0.15440002708E+03  0.54324787251E+02  0.18547136672E+03  0.00000000000E+00 0. -1.
<scales pt_clust_5="13000.00000" pt_clust_6="13000.00000" pt_clust_7="13000.00000" pt_clust_8="13000.00000" pt_clust_9="99.24530" pt_clust_10="13000.00000"></scales>
<clustering>
<clus scale="   85.363">  5  6 -1 -1</clus>
<clus scale="   90.349">  7  8 -1 -1</clus>
<clus scale="   99.245">  2  9  1 -1</clus>
<clus scale="  212.365">  7 10 -1 -1</clus>
<clus scale="  369.655">  1  5  2 -1</clus>
<clus scale="   99.245">  2  5  1 -1</clus>
</clustering>
</event>
<event>
10    2  0.5692308E-006  0.1453117E+03  0.7546771E-02  0.1218442E+00
         21   -1    0    0  501  502  0.00000000000E+00  0.00000000000E+00  0.20820778738E+03  0.20820778738E+03  0.00000000000E+00 0. -1.
         -3   -1    0    0    0  501 -0.00000000000E+00 -0.00000000000E+00 -0.14605161235E+03  0.14605161235E+03  0.00000000000E+00 0.  1.
         23    2    1    2    0    0 -0.31690692382E+02 -0.78426414997E+02  0.11691517677E+03  0.17109333155E+03  0.91917174615E+02 0.  0.
         23    2    1    2    0    0  0.15389570361E+02  0.23260337968E+01 -0.49303521723E+02  0.10218031837E+03  0.88134731509E+02 0.  0.
        -11    1    4    4    0    0  0.59665439310E+01  0.30533308171E+02 -0.62368614722E+02  0.69697393471E+02  0.00000000000E+00 0.  1.
         11    1    4    4    0    0  0.94230264304E+01 -0.28207274374E+02  0.13065092999E+02  0.32482924896E+02  0.00000000000E+00 0. -1.
        -13    1    3    3    0    0 -0.55500253427E+02 -0.63847591991E+02  0.49237250645E+02  0.97883093456E+02  0.00000000000E+00 0. -1.
         13    1    3    3    0    0  0.23809561045E+02 -0.14578823005E+02  0.67677926122E+02  0.73210238093E+02  0.00000000000E+00 0.  1.
         21    1    1    2  503  502  0.91543747578E+01  0.24775256318E+02  0.77184580725E+01  0.27517094648E+02  0.00000000000E+00 0. -1.
         -3    1    1    2    0  503  0.71467472625E+01  0.51325124882E+02 -0.13173938091E+02  0.53468655167E+02  0.00000000000E+00 0.  1.
<scales pt_clust_5="13000.00000" pt_clust_6="13000.00000" pt_clust_7="13000.00000" pt_clust_8="13000.00000" pt_clust_9="26.41242" pt_clust_10="13000.00000"></scales>
<clustering>
<clus scale="   26.412">  1  9  2 -1</clus>
<clus scale="   88.135">  5  6 -1 -1</clus>
<clus scale="   54.551">  5 10 -1 -1</clus>
<clus scale="   91.917">  7  8 -1 -1</clus>
<clus scale="  112.372">  2  7  1 -1</clus>
<clus scale="   26.412">  1  5  2 -1</clus>
</clustering>
</event>
<event>
10    2  0.5692308E-006  0.2795136E+03  0.7546771E-02  0.1137018E+00
         -4   -1    0    0    0  501 -0.00000000000E+00  0.00000000000E+00  0.96776380731E+03  0.96776380731E+03  0.00000000000E+00 0.  1.
         21   -1    0    0  503  502  0.00000000000E+00 -0.00000000000E+00 -0.10602174188E+03  0.10602174188E+03  0.00000000000E+00 0. -1.
         23    2    1    2    0    0  0.44582615552E+02  0.28783663852E+02  0.38456305291E+03  0.39720059156E+03  0.84044389188E+02 0.  0.
         23    2    1    2    0    0 -0.69612665342E+02 -0.10354965090E+03  0.38676734517E+03  0.41688167053E+03  0.92913371229E+02 0.  0.
        -11    1    3    3    0    0  0.34482457827E+02  0.58546389276E+02  0.26659185068E+03  0.27511440247E+03  0.00000000000E+00 0.  1.
         11    1    3    3    0    0  0.10100157725E+02 -0.29762725424E+02  0.11797120223E+03  0.12208618909E+03  0.00000000000E+00 0. -1.
        -13    1    4    4    0    0 -0.79491195360E+02 -0.35937995349E+02  0.21623623984E+03  0.23317054075E+03  0.00000000000E+00 0. -1.
         13    1    4    4    0    0  0.98785300185E+01 -0.67611655549E+02  0.17053110533E+03  0.18371112978E+03  0.00000000000E+00 0.  1.
         21    1    1    2  503  501 -0.79131983503E+02  0.85194487724E+02 -0.72994625568E+01  0.11650430767E+03  0.00000000000E+00 0. -1.
         -4    1    1    2    0  502  0.10416203329E+03 -0.10428500678E+02  0.97711129903E+02  0.14319897944E+03  0.00000000000E+00 0.  1.
<scales pt_clust_5="13000.00000" pt_clust_6="13000.00000" pt_clust_7="13000.00000" pt_clust_8="13000.00000" pt_clust_9="115.50571" pt_clust_10="13000.00000"></scales>
<clustering>
<clus scale="   84.044">  5  6 -1 -1</clus>
<clus scale="   92.913">  7  8 -1 -1</clus>
<clus scale="   99.396">  1  5  2 -1</clus>
<clus scale="  113.557">  7 10 -1 -1</clus>
<clus scale="  115.506">  2  9  1 -1</clus>
<clus scale="  115.506">  2  5  1 -1</clus>
</clustering>
</event>
<event>
10    2  0.5692308E-006  0.2611105E+03  0.7546771E-02  0.1135366E+00
         21   -1    0    0  503  502  0.00000000000E+00  0.00000000000E+00  0.89284868298E+02  0.89284868298E+02  0.00000000000E+00 0. -1.
          2   -1    0    0  502    0 -0.00000000000E+00 -0.00000000000E+00 -0.60254688115E+03  0.60254688115E+03  0.00000000000E+00 0. -1.
         23    2    1    2    0    0  0.48440283227E+02 -0.70637975635E+02 -0.24868939397E+03  0.27835735515E+03  0.91105531396E+02 0.  0.
         23    2    1    2    0    0 -0.44739672394E+02  0.16170527278E+03 -0.21528119280E+03  0.28897485198E+03  0.94922281746E+02 0.  0.
        -13    1    3    3    0    0 -0.95237513719E+01 -0.39984297875E+02 -0.32371012941E+02  0.52319483900E+02  0.00000000000E+00 0.  1.
         13    1    3    3    0    0  0.57964034599E+02 -0.30653677760E+02 -0.21631838103E+03  0.22603787125E+03  0.00000000000E+00 0. -1.
        -13    1    4    4    0    0 -0.40967552404E+02  0.14823540290E+02 -0.69279996761E+02  0.81840061388E+02  0.00000000000E+00 0.  1.
         13    1    4    4    0    0 -0.37721199902E+01  0.14688173249E+03 -0.14600119604E+03  0.20713479059E+03  0.00000000000E+00 0. -1.
         21    1    1    2  503  501 -0.72042159099E+01 -0.19463595511E+02  0.17022795956E+02  0.26842277460E+02  0.00000000000E+00 0. -1.
          2    1    1    2  501    0  0.35036050772E+01 -0.71603701633E+02 -0.66314222041E+02  0.97657264866E+02  0.00000000000E+00 0. -1.
<scales pt_clust_5="13000.00000" pt_clust_6="13000.00000" pt_clust_7="13000.00000" pt_clust_8="13000.00000" pt_clust_9="20.75409" pt_clust_10="13000.00000"></scales>
<clustering>
<clus scale="   20.754">  1  9  2 -1</clus>
<clus scale="   91.106">  5  6 -1 -1</clus>
<clus scale="   94.922">  7  8 -1 -1</clus>
<clus scale="   76.154">  7 10 -1 -1</clus>
<clus scale="  126.922">  2  5  1 -1</clus>
<clus scale="   20.754">  1  5  2 -1</clus>
</clustering>
</event>
<event>
10    2  0.5692308E-006  0.1465895E+03  0.7546771E-02  0.1214975E+00
         -3   -1    0    0    0  501 -0.00000000000E+00  0.00000000000E+00  0.22604861582E+03  0.22604861582E+03  0.00000000000E+00 0.  1.
         21   -1    0    0  501  502  0.00000000000E+00 -0.00000000000E+00 -0.16865620652E+03  0.16865620652E+03  0.00000000000E+00 0. -1.
         23    2    1    2    0    0 -0.70942192389E+02 -0.44994938498E+02  0.13329232687E+03  0.18168729274E+03  0.90477006969E+02 0.  0.
         23    2    1    2    0    0  0.27607945233E+02 -0.24798184526E+02 -0.88927337552E+01  0.98401143642E+02  0.90700362517E+02 0.  0.
        -11    1    4    4    0    0 -0.61237436925E+00  0.22553530447E+02  0.25012965583E+02  0.33685088470E+02  0.00000000000E+00 0.  1.
         11    1    4    4    0    0  0.28220319602E+02 -0.47351714974E+02 -0.33905699338E+02  0.64716055172E+02  0.00000000000E+00 0. -1.
        -11    1    3    3    0    0 -0.37041505583E+02 -0.39580682604E+02  0.13682796394E+03  0.14717538955E+03  0.00000000000E+00 0. -1.
         11    1    3    3    0    0 -0.33900686806E+02 -0.54142558937E+01 -0.35356370708E+01  0.34511903197E+02  0.00000000000E+00 0.  1.
         21    1    1    2  503  502  0.17471746216E+02  0.41129307628E+02 -0.60890023750E+02  0.75527987224E+02  0.00000000000E+00 0.  1.
         -3    1    1    2    0  503  0.25862500940E+02  0.28663815396E+02 -0.61171600690E+01  0.39088398730E+02  0.00000000000E+00 0.  1.
<scales pt_clust_5="13000.00000" pt_clust_6="13000.00000" pt_clust_7="13000.00000" pt_clust_8="13000.00000" pt_clust_9="44.68648" pt_clust_10="13000.00000"></scales>
<clustering>
<clus scale="   44.686">  2  9  1 -1</clus>
<clus scale="   90.477">  7  8 -1 -1</clus>
<clus scale="   90.700">  5  6 -1 -1</clus>
<clus scale="   48.224">  5 10 -1 -1</clus>
<clus scale="  117.773">  1  7  2 -1</clus>
<clus scale="   44.686">  2  5  1 -1</clus>
</clustering>
</event>
<event>
10    2  0.5692308E-006  0.2553879E+03  0.7546771E-02  0.1148611E+00
         21   -1    0    0  501  502  0.00000000000E+00  0.00000000000E+00  0.62977243567E+03  0.62977243567E+03  0.00000000000E+00 0. -1.
          1   -1    0    0  503    0 -0.00000000000E+00 -0.00000000000E+00 -0.33336742657E+03  0.33336742657E+03  0.00000000000E+00 0. -1.
         23    2    1    2    0    0 -0.33633051398E+02  0.18992263501E+02 -0.16006044323E+03  0.18799875047E+03  0.90732003570E+02 0.  0.
         23    2    1    2    0    0  0.77860563123E+02 -0.72675853816E+02 -0.61480711898E+02  0.15303641195E+03  0.91083579354E+02 0.  0.
        -11    1    4    4    0    0 -0.56645499887E+01 -0.36443225503E+02 -0.48714061430E+02  0.61100373098E+02  0.00000000000E+00 0.  1.
         11    1    4    4    0    0  0.83525113112E+02 -0.36232628313E+02 -0.12766650468E+02  0.91936038848E+02  0.00000000000E+00 0. -1.
        -11    1    3    3    0    0  0.25982558814E+02  0.71539048792E+01 -0.15284488276E+02  0.30982048018E+02  0.00000000000E+00 0.  1.
         11    1    3    3    0    0 -0.59615610211E+02  0.11838358622E+02 -0.14477595496E+03  0.15701670245E+03  0.00000000000E+00 0. -1.
         21    1    1    2  503  502 -0.27171883662E+02 -0.58028329912E+02  0.50421173770E+03  0.50826673585E+03  0.00000000000E+00 0. -1.
          1    1    1    2  501    0 -0.17055628063E+02  0.11171192023E+03  0.13734426532E+02  0.11383796397E+03  0.00000000000E+00 0. -1.
<scales pt_clust_5="13000.00000" pt_clust_6="13000.00000" pt_clust_7="13000.00000" pt_clust_8="13000.00000" pt_clust_9="64.07494" pt_clust_10="13000.00000"></scales>
<clustering>
<clus scale="   64.075">  1  9  2 -1</clus>
<clus scale="   90.732">  7  8 -1 -1</clus>
<clus scale="   91.084">  5  6 -1 -1</clus>
<clus scale="   87.460">  5 10 -1 -1</clus>
<clus scale="   98.662">  2  7  1 -1</clus>
<clus scale="   64.075">  1  5  2 -1</clus>
</clustering>
</event>
<event>
10    2  0.5692308E-006  0.2733635E+03  0.7546771E-02  0.1129790E+00
         -2   -1    0    0    0  501 -0.00000000000E+00  0.00000000000E+00  0.27880703865E+03  0.27880703865E+03  0.00000000000E+00 0.  1.
         21   -1    0    0  503  502  0.00000000000E+00 -0.00000000000E+00 -0.21714779018E+03  0.21714779018E+03  0.00000000000E+00 0. -1.
         23    2    1    2    0    0  0.86143859997E+02  0.93952160182E+01 -0.47843736665E+02  0.13560380314E+03  0.92684052500E+02 0.  0.
         23    2    1    2    0    0  0.59367139475E+02  0.64616228348E+02  0.76531504844E+02  0.14716428495E+03  0.90003007260E+02 0.  0.
        -11    1    4    4    0    0  0.63537204956E+02  0.73381339211E+01  0.21108474524E+02  0.67352745451E+02  0.00000000000E+00 0.  1.
         11    1    4    4    0    0 -0.41700654813E+01  0.57278094427E+02  0.55423030320E+02  0.79811539499E+02  0.00000000000E+00 0. -1.
        -13    1    3    3    0    0  0.30168660639E+02  0.49495853714E+02 -0.19776671724E+02  0.61246260001E+02  0.00000000000E+00 0.  1.
         13    1    3    3    0    0  0.55975199359E+02 -0.40100637696E+02 -0.28067064941E+02  0.74357543136E+02  0.00000000000E+00 0. -1.
         21    1    1    2  503  501 -0.97344831218E+00 -0.41009195464E+02 -0.31299157312E+02  0.51597858120E+02  0.00000000000E+00 0. -1.
         -2    1    1    2    0  502 -0.14453755116E+03 -0.33002248902E+02  0.64270637604E+02  0.16158888262E+03  0.00000000000E+00 0.  1.
<scales pt_clust_5="13000.00000" pt_clust_6="13000.00000" pt_clust_7="13000.00000" pt_clust_8="13000.00000" pt_clust_9="41.02075" pt_clust_10="13000.00000"></scales>
<clustering>
<clus scale="   41.021">  2  9  1 -1</clus>
<clus scale="   90.003">  5  6 -1 -1</clus>
<clus scale="   92.684">  7  8 -1 -1</clus>
<clus scale="  126.760">  1  7  2 -1</clus>
<clus scale="  111.927">  5 10 -1 -1</clus>
<clus scale="   41.021">  2  5  1 -1</clus>
</clustering>
</event>
<event>
10    2  0.5692308E-006  0.1520628E+03  0.7546771E-02  0.1214053E+00
         21   -1    0    0  501  502  0.00000000000E+00  0.00000000000E+00  0.19725342831E+03  0.19725342831E+03  0.00000000000E+00 0. -1.
         -4   -1    0    0    0  501 -0.00000000000E+00 -0.00000000000E+00 -0.39797100680E+03  0.39797100680E+03  0.00000000000E+00 0.  1.
         23    2    1    2    0    0 -0.60311129368E+02  0.14805790583E+02 -0.17476030401E+03  0.20750051143E+03  0.93051892106E+02 0.  0.
         23    2    1    2    0    0 -0.77495300476E+01 -0.18437326950E+02 -0.15588289236E+03  0.18520434622E+03  0.97985628987E+02 0.  0.
        -11    1    4    4    0    0  0.10259491631E+02 -0.54273751573E+02 -0.61553877110E+02  0.82702944721E+02  0.00000000000E+00 0. -1.
         11    1    4    4    0    0 -0.18009021678E+02  0.35836424622E+02 -0.94329015250E+02  0.10250140150E+03  0.00000000000E+00 0.  1.
        -13    1    3    3    0    0  0.11616506304E+02  0.34039448716E+02 -0.73341440091E+02  0.81685948132E+02  0.00000000000E+00 0. -1.
         13    1    3    3    0    0 -0.71927635672E+02 -0.19233658134E+02 -0.10141886392E+03  0.12581456330E+03  0.00000000000E+00 0.  1.
         21    1    1    2  503  502  0.30814811444E+02  0.22321239922E+02  0.15107140636E+03  0.15578947389E+03  0.00000000000E+00 0. -1.
         -4    1    1    2    0  503  0.37245847971E+02 -0.18689703554E+02 -0.21145788470E+02  0.46730103574E+02  0.00000000000E+00 0.  1.
<scales pt_clust_5="13000.00000" pt_clust_6="13000.00000" pt_clust_7="13000.00000" pt_clust_8="13000.00000" pt_clust_9="38.04984" pt_clust_10="13000.00000"></scales>
<clustering>
<clus scale="   38.050">  1  9  2 -1</clus>
<clus scale="   93.052">  7  8 -1 -1</clus>
<clus scale="   97.986">  5  6 -1 -1</clus>
<clus scale="   47.817">  5 10 -1 -1</clus>
<clus scale="  107.591">  2  7  1 -1</clus>
<clus scale="   38.050">  1  5  2 -1</clus>
</clustering>
</event>
<event>
10    2  0.5692308E-006  0.2748003E+03  0.7546771E-02  0.1117469E+00
         21   -1    0    0  503  502  0.00000000000E+00  0.00000000000E+00  0.11137854816E+03  0.11137854816E+03  0.00000000000E+00 0. -1.
          1   -1    0    0  502    0 -0.00000000000E+00 -0.00000000000E+00 -0.11906494506E+04  0.11906494506E+04  0.00000000000E+00 0. -1.
         23    2    1    2    0    0 -0.13039896715E+03 -0.34189386245E+02 -0.23810461296E+03  0.28821556072E+03  0.90562674211E+02 0.  0.
         23    2    1    2    0    0  0.14932048704E+03  0.24300041320E+02 -0.86519457804E+03  0.88346078447E+03  0.95153559918E+02 0.  0.
        -11    1    4    4    0    0  0.14971290740E+03 -0.43454867515E+01 -0.74402218239E+03  0.75894785446E+03  0.00000000000E+00 0. -1.
         11    1    4    4    0    0 -0.39242036011E+00  0.28645528071E+02 -0.12117239565E+03  0.12451293001E+03  0.00000000000E+00 0.  1.
        -13    1    3    3    0    0 -0.12944616659E+03 -0.13822527902E+02 -0.23346154540E+03  0.26730444348E+03  0.00000000000E+00 0.  1.
         13    1    3    3    0    0 -0.95280055407E+00 -0.20366858343E+02 -0.46430675604E+01  0.20911117235E+02  0.00000000000E+00 0. -1.
         21    1    1    2  503  501 -0.44222866243E+01 -0.35998467344E+02  0.60109329916E+02  0.70203830473E+02  0.00000000000E+00 0. -1.
          1    1    1    2  501    0 -0.14499233272E+02  0.45887812270E+02 -0.36081041407E+02  0.60147823147E+02  0.00000000000E+00 0. -1.
<scales pt_clust_5="13000.00000" pt_clust_6="13000.00000" pt_clust_7="13000.00000" pt_clust_8="13000.00000" pt_clust_9="36.26908" pt_clust_10="13000.00000"></scales>
<clustering>
<clus scale="   36.269">  1  9  2 -1</clus>
<clus scale="   90.563">  7  8 -1 -1</clus>
<clus scale="   95.154">  5  6 -1 -1</clus>
<clus scale="   39.729">  5 10 -1 -1</clus>
<clus scale="  169.471">  2  7  1 -1</clus>
<clus scale="   36.269">  1  5  2 -1</clus>
</clustering>
</event>
<event>
10    2  0.5692308E-006  0.3180621E+03  0.7546771E-02  0.1107530E+00
         -3   -1    0    0    0  501 -0.00000000000E+00  0.00000000000E+00  0.30276860482E+03  0.30276860482E+03  0.00000000000E+00 0.  1.
         21   -1    0    0  503  502  0.00000000000E+00 -0.00000000000E+00 -0.44174204271E+03  0.44174204271E+03  0.00000000000E+00 0. -1.
         23    2    1    2    0    0  0.96079976792E+02 -0.12499988969E+02 -0.19152239970E+03  0.23327407013E+03  0.91369308554E+02 0.  0.
         23    2    1    2    0    0 -0.18249118700E+03  0.33366670154E+02  0.55562916827E+02  0.21473272002E+03  0.92771414294E+02 0.  0.
        -13    1    3    3    0    0  0.19830648852E+02 -0.34868595022E+02 -0.11941300977E+03  0.12597039516E+03  0.00000000000E+00 0. -1.
         13    1    3    3    0    0  0.76249327940E+02  0.22368606053E+02 -0.72109389923E+02  0.10730367497E+03  0.00000000000E+00 0.  1.
        -13    1    4    4    0    0 -0.87658195677E+02  0.60333412882E+02  0.12501292468E+02  0.10714645254E+03  0.00000000000E+00 0.  1.
         13    1    4    4    0    0 -0.94832991323E+02 -0.26966742728E+02  0.43061624359E+02  0.10758626747E+03  0.00000000000E+00 0. -1.
         21    1    1    2  503  501  0.44489970955E+01 -0.39180351647E+02 -0.13467986094E+03  0.14033373961E+03  0.00000000000E+00 0. -1.
         -3    1    1    2    0  502  0.81962213113E+02  0.18313670462E+02  0.13166590592E+03  0.15617011778E+03  0.00000000000E+00 0.  1.
<scales pt_clust_5="13000.00000" pt_clust_6="13000.00000" pt_clust_7="13000.00000" pt_clust_8="13000.00000" pt_clust_9="39.43214" pt_clust_10="13000.00000"></scales>
<clustering>
<clus scale="   39.432">  2  9  1 -1</clus>
<clus scale="   91.369">  5  6 -1 -1</clus>
<clus scale="   92.771">  7  8 -1 -1</clus>
<clus scale="   83.829">  7 10 -1 -1</clus>
<clus scale="  140.622">  1  5  2 -1</clus>
<clus scale="   39.432">  2  5  1 -1</clus>
</clustering>
</event>
<event>
10    2  0.5692308E-006  0.3747218E+03  0.7546771E-02  0.1085466E+00
         -3   -1    0    0    0  501 -0.00000000000E+00  0.00000000000E+00  0.31317428697E+03  0.31317428697E+03  0.00000000000E+00 0.  1.
         21   -1    0    0  503  502  0.00000000000E+00 -0.00000000000E+00 -0.43596496439E+03  0.43596496439E+03  0.00000000000E+00 0.  1.
         23    2    1    2    0    0 -0.12661004050E+03 -0.23949465581E+02  0.43444157225E+02  0.16400435293E+03  0.91686169766E+02 0.  0.
         23    2    1    2    0    0  0.19529485284E+03  0.20106231978E+02  0.10673254000E+03  0.24154100669E+03  0.91683601092E+02 0.  0.
        -11    1    3    3    0    0 -0.94925252580E+02  0.15792441060E+02  0.56416619826E+02  0.11154837410E+03  0.00000000000E+00 0.  1.
         11    1    3    3    0    0 -0.31684787917E+02 -0.39741906642E+02 -0.12972462602E+02  0.52455978828E+02  0.00000000000E+00 0. -1.
        -11    1    4    4    0    0  0.70853246158E+02 -0.35681343837E+02  0.28339460701E+02  0.84240523633E+02  0.00000000000E+00 0.  1.
         11    1    4    4    0    0  0.12444160668E+03  0.55787575815E+02  0.78393079298E+02  0.15730048306E+03  0.00000000000E+00 0. -1.
         21    1    1    2  503  501  0.34738102440E+02 -0.41515217679E+02 -0.20446563217E+03  0.21150991419E+03  0.00000000000E+00 0.  1.
         -3    1    1    2    0  502 -0.10342291478E+03  0.45358451282E+02 -0.68501742476E+02  0.13208397756E+03  0.00000000000E+00 0.  1.
<scales pt_clust_5="13000.00000" pt_clust_6="13000.00000" pt_clust_7="13000.00000" pt_clust_8="13000.00000" pt_clust_9="54.13177" pt_clust_10="13000.00000"></scales>
<clustering>
<clus scale="   54.132">  2  9  1 -1</clus>
<clus scale="   91.684">  7  8 -1 -1</clus>
<clus scale="   91.686">  5  6 -1 -1</clus>
<clus scale="   92.211">  7 10 -1 -1</clus>
<clus scale="  153.019">  1  5  2 -1</clus>
<clus scale="   54.132">  2  5  1 -1</clus>
</clustering>
</event>
<event>
10    2  0.5692308E-006  0.5443184E+03  0.7546771E-02  0.1055587E+00
         21   -1    0    0  503  502  0.00000000000E+00  0.00000000000E+00  0.16581962553E+03  0.16581962553E+03  0.00000000000E+00 0. -1.
          2   -1    0    0  502    0 -0.00000000000E+00 -0.00000000000E+00 -0.12294330456E+04  0.12294330456E+04  0.00000000000E+00 0. -1.
         23    2    1    2    0    0 -0.46628576971E+02  0.57717437819E+02 -0.54782983306E+03  0.55976615637E+03  0.87835624966E+02 0.  0.
         23    2    1    2    0    0 -0.83667838628E+02  0.21579281912E+03 -0.13064150968E+03  0.28120360020E+03  0.91877160994E+02 0.  0.
        -11    1    4    4    0    0 -0.10040453695E+03  0.16055985275E+03 -0.11442852928E+03  0.22125647034E+03  0.00000000000E+00 0. -1.
         11    1    4    4    0    0  0.16736698325E+02  0.55232966371E+02 -0.16212980392E+02  0.59947129857E+02  0.00000000000E+00 0.  1.
        -13    1    3    3    0    0  0.22671734325E+02  0.35247524957E+02 -0.18369430163E+03  0.18841441559E+03  0.00000000000E+00 0.  1.
         13    1    3    3    0    0 -0.69300311297E+02  0.22469912862E+02 -0.36413553143E+03  0.37135174078E+03  0.00000000000E+00 0. -1.
         21    1    1    2  503  501  0.26972812720E+02 -0.43497272073E+02  0.36591517545E+02  0.62916487982E+02  0.00000000000E+00 0. -1.
          2    1    1    2  501    0  0.10332360288E+03 -0.23001298486E+03 -0.42173359485E+03  0.49136642655E+03  0.00000000000E+00 0. -1.
<scales pt_clust_5="13000.00000" pt_clust_6="13000.00000" pt_clust_7="13000.00000" pt_clust_8="13000.00000" pt_clust_9="51.18149" pt_clust_10="13000.00000"></scales>
<clustering>
<clus scale="   51.181">  1  9  2 -1</clus>
<clus scale="   87.836">  7  8 -1 -1</clus>
<clus scale="   91.877">  5  6 -1 -1</clus>
<clus scale="  113.314">  2  7  1 -1</clus>
<clus scale="  215.906">  5 10 -1 -1</clus>
<clus scale="   51.181">  1  5  2 -1</clus>
</clustering>
</event>
<event>
10    2  0.5692308E-006  0.4906331E+03  0.7546771E-02  0.1061721E+00
          2   -1    0    0  503    0 -0.00000000000E+00  0.00000000000E+00  0.10954799908E+04  0.10954799908E+04  0.00000000000E+00 0. -1.
         21   -1    0    0  501  502  0.00000000000E+00 -0.00000000000E+00 -0.15067562141E+03  0.15067562141E+03  0.00000000000E+00 0. -1.
         23    2    1    2    0    0 -0.91949796562E+02  0.31144582026E+02  0.19243553211E+03  0.23388302076E+03  0.90802441051E+02 0.  0.
         23    2    1    2    0    0  0.15536942264E+03 -0.55843485849E+02  0.82889050862E+03  0.85007159141E+03  0.91126740460E+02 0.  0.
        -11    1    3    3    0    0 -0.42656757087E+02 -0.30504476537E+02  0.59798615704E+02  0.79536133010E+02  0.00000000000E+00 0.  1.
         11    1    3    3    0    0 -0.49293039475E+02  0.61649058563E+02  0.13263691641E+03  0.15434688775E+03  0.00000000000E+00 0. -1.
        -11    1    4    4    0    0  0.23838125964E+02 -0.17136293480E+02  0.41510411388E+02  0.50843122025E+02  0.00000000000E+00 0.  1.
         11    1    4    4    0    0  0.13153129668E+03 -0.38707192370E+02  0.78738009724E+03  0.79922846938E+03  0.00000000000E+00 0. -1.
         21    1    1    2  503  502  0.28125369795E+02  0.28602964862E+02 -0.55007778636E+02  0.68080993937E+02  0.00000000000E+00 0. -1.
          2    1    1    2  501    0 -0.91544995877E+02 -0.39040610382E+01 -0.21513892740E+02  0.94120006075E+02  0.00000000000E+00 0. -1.
<scales pt_clust_5="13000.00000" pt_clust_6="13000.00000" pt_clust_7="13000.00000" pt_clust_8="13000.00000" pt_clust_9="40.11441" pt_clust_10="13000.00000"></scales>
<clustering>
<clus scale="   40.114">  2  9  1 -1</clus>
<clus scale="   90.802">  5  6 -1 -1</clus>
<clus scale="   91.127">  7  8 -1 -1</clus>
<clus scale="   74.751">  7 10 -1 -1</clus>
<clus scale="  130.263">  1  5  2 -1</clus>
<clus scale="   40.114">  2  5  1 -1</clus>
</clustering>
</event>
<event>
10    2  0.5692308E-006  0.6887003E+03  0.7546771E-02  0.1018919E+00
         21   -1    0    0  501  502  0.00000000000E+00  0.00000000000E+00  0.17282691345E+03  0.17282691345E+03  0.00000000000E+00 0. -1.
          1   -1    0    0  503    0 -0.00000000000E+00 -0.00000000000E+00 -0.12406625866E+04  0.12406625866E+04  0.00000000000E+00 0. -1.
         23    2    1    2    0    0  0.20917780901E+01  0.13290079923E+03 -0.22891029234E+03  0.28039925268E+03  0.92503086396E+02 0.  0.
         23    2    1    2    0    0  0.30337526003E+03  0.15601524660E+01 -0.38108106419E+03  0.49583123493E+03  0.92665277056E+02 0.  0.
        -11    1    3    3    0    0  0.24892987526E+02  0.26781054138E+02 -0.13115618811E+02  0.38844628271E+02  0.00000000000E+00 0.  1.
         11    1    3    3    0    0 -0.22801209436E+02  0.10611974509E+03 -0.21579467353E+03  0.24155462441E+03  0.00000000000E+00 0. -1.
        -13    1    4    4    0    0  0.89684810909E+02 -0.41396640218E+02 -0.13159244981E+03  0.16454063321E+03  0.00000000000E+00 0.  1.
         13    1    4    4    0    0  0.21369044912E+03  0.42956792684E+02 -0.24948861438E+03  0.33129060172E+03  0.00000000000E+00 0. -1.
         21    1    1    2  503  502  0.39874025148E+02  0.99063477429E+01  0.56791987301E+01  0.41476823713E+02  0.00000000000E+00 0. -1.
          1    1    1    2  501    0 -0.34534106326E+03 -0.14436729944E+03 -0.46352351534E+03  0.59578218872E+03  0.00000000000E+00 0. -1.
<scales pt_clust_5="13000.00000" pt_clust_6="13000.00000" pt_clust_7="13000.00000" pt_clust_8="13000.00000" pt_clust_9="41.08617" pt_clust_10="13000.00000"></scales>
<clustering>
<clus scale="   41.086">  1  9  2 -1</clus>
<clus scale="   92.503">  5  6 -1 -1</clus>
<clus scale="   92.665">  7  8 -1 -1</clus>
<clus scale="  163.576">  2  5  1 -1</clus>
<clus scale="  331.273">  7 10 -1 -1</clus>
<clus scale="   41.086">  1  5  2 -1</clus>
</clustering>
</event>
<event>
10    2  0.5692308E-006  0.2091703E+03  0.7546771E-02  0.1172073E+00
          1   -1    0    0  502    0 -0.00000000000E+00  0.00000000000E+00  0.12278683046E+04  0.12278683046E+04  0.00000000000E+00 0. -1.
         21   -1    0    0  503  502  0.00000000000E+00 -0.00000000000E+00 -0.32350689218E+02  0.32350689218E+02  0.00000000000E+00 0. -1.
         23    2    1    2    0    0  0.23220480065E+02  0.41231412739E+02  0.57903276386E+03  0.58806964262E+03  0.91146820330E+02 0.  0.
         23    2    1    2    0    0 -0.10458382716E+03  0.88884399512E+01  0.21419983960E+03  0.25568248425E+03  0.92060741892E+02 0.  0.
        -11    1    3    3    0    0 -0.26580233213E+02  0.45516907648E+02  0.29457581661E+03  0.29925442254E+03  0.00000000000E+00 0.  1.
         11    1    3    3    0    0  0.49800713278E+02 -0.42854949089E+01  0.28445694725E+03  0.28881522007E+03  0.00000000000E+00 0. -1.
        -13    1    4    4    0    0  0.24480401211E+01  0.22212788219E+02  0.82392992112E+02  0.85369819082E+02  0.00000000000E+00 0.  1.
         13    1    4    4    0    0 -0.10703186729E+03 -0.13324348268E+02  0.13180684749E+03  0.17031266516E+03  0.00000000000E+00 0. -1.
         21    1    1    2  503  501  0.48761323661E+02 -0.12141969366E+02  0.12538568899E+03  0.13508021731E+03  0.00000000000E+00 0. -1.
          1    1    1    2  501    0  0.32602023439E+02 -0.37977883324E+02  0.27689932292E+03  0.28138664963E+03  0.00000000000E+00 0. -1.
<scales pt_clust_5="13000.00000" pt_clust_6="13000.00000" pt_clust_7="13000.00000" pt_clust_8="13000.00000" pt_clust_9="50.25031" pt_clust_10="13000.00000"></scales>
<clustering>
<clus scale="   50.250">  2  9  1 -1</clus>
<clus scale="   91.147">  5  6 -1 -1</clus>
<clus scale="   92.061">  7  8 -1 -1</clus>
<clus scale="   53.447">  7 10 -1 -1</clus>
<clus scale="  104.032">  1  5  2 -1</clus>
<clus scale="   50.250">  2  5  1 -1</clus>
</clustering>
</event>
<event>
10    2  0.5692308E-006  0.5216258E+03  0.7546771E-02  0.1048440E+00
          2   -1    0    0  503    0 -0.00000000000E+00  0.00000000000E+00  0.10445176485E+04  0.10445176485E+04  0.00000000000E+00 0. -1.
         21   -1    0    0  501  502  0.00000000000E+00 -0.00000000000E+00 -0.15281969291E+03  0.15281969291E+03  0.00000000000E+00 0.  1.
         23    2    1    2    0    0  0.11673560274E+03  0.81795912311E+02  0.27694188698E+03  0.32292592124E+03  0.85244176517E+02 0.  0.
         23    2    1    2    0    0 -0.12345937495E+03 -0.71754423981E+02  0.69805242363E+03  0.71889927218E+03  0.95645505782E+02 0.  0.
        -11    1    3    3    0    0  0.58523893763E+02  0.24301657095E+02  0.47100540419E+02  0.78956175101E+02  0.00000000000E+00 0.  1.
         11    1    3    3    0    0  0.58211708976E+02  0.57494255217E+02  0.22984134656E+03  0.24396974614E+03  0.00000000000E+00 0. -1.
        -13    1    4    4    0    0 -0.43893800230E+02 -0.76168961121E+02  0.44484486011E+03  0.45344826155E+03  0.00000000000E+00 0.  1.
         13    1    4    4    0    0 -0.79565574719E+02  0.44145371395E+01  0.25320756352E+03  0.26545101063E+03  0.00000000000E+00 0. -1.
         21    1    1    2  503  502 -0.19072829892E+02 -0.60170380187E+02 -0.11390735608E+02  0.64140442387E+02  0.00000000000E+00 0.  1.
          2    1    1    2  501    0  0.25796602102E+02  0.50128891857E+02 -0.71905619422E+02  0.91371705595E+02  0.00000000000E+00 0. -1.
<scales pt_clust_5="13000.00000" pt_clust_6="13000.00000" pt_clust_7="13000.00000" pt_clust_8="13000.00000" pt_clust_9="63.12090" pt_clust_10="13000.00000"></scales>
<clustering>
<clus scale="   63.121">  2  9  1 -1</clus>
<clus scale="   85.244">  5  6 -1 -1</clus>
<clus scale="   95.646">  7  8 -1 -1</clus>
<clus scale="   14.340">  7 10 -1 -1</clus>
<clus scale="  157.755">  1  5  2 -1</clus>
<clus scale="   63.121">  2  5  1 -1</clus>
</clustering>
</event>
<event>
10    2  0.5692308E-006  0.2704138E+03  0.7546771E-02  0.1141952E+00
         21   -1    0    0  501  502  0.00000000000E+00  0.00000000000E+00  0.37695538705E+03  0.37695538705E+03  0.00000000000E+00 0. -1.
          2   -1    0    0  503    0 -0.00000000000E+00 -0.00000000000E+00 -0.22067127841E+03  0.22067127841E+03  0.00000000000E+00 0. -1.
         23    2    1    2    0    0  0.25998696270E+02  0.20913140357E+02 -0.26458495921E+02  0.10097350727E+03  0.91554931690E+02 0.  0.
         23    2    1    2    0    0 -0.98980012724E+02 -0.87329389714E+02  0.67456263178E+02  0.17319705810E+03  0.89573479711E+02 0.  0.
        -11    1    4    4    0    0  0.70878759304E+01 -0.18901310227E+02  0.38834160809E+02  0.43767448626E+02  0.00000000000E+00 0. -1.
         11    1    4    4    0    0 -0.10606788865E+03 -0.68428079486E+02  0.28622102369E+02  0.12942960948E+03  0.00000000000E+00 0.  1.
        -13    1    3    3    0    0 -0.34442820843E+02  0.47236054948E+01 -0.11735364702E+02  0.36692494344E+02  0.00000000000E+00 0.  1.
         13    1    3    3    0    0  0.60441517113E+02  0.16189534862E+02 -0.14723131219E+02  0.64281012927E+02  0.00000000000E+00 0. -1.
         21    1    1    2  503  502  0.17664077100E+03  0.21425494048E+01  0.92396055966E+02  0.19935792850E+03  0.00000000000E+00 0. -1.
          2    1    1    2  501    0 -0.10365945455E+03  0.64273699952E+02  0.22890285414E+02  0.12409817158E+03  0.00000000000E+00 0. -1.
<scales pt_clust_5="13000.00000" pt_clust_6="13000.00000" pt_clust_7="13000.00000" pt_clust_8="13000.00000" pt_clust_9="185.73097" pt_clust_10="13000.00000"></scales>
<clustering>
<clus scale="   89.573">  5  6 -1 -1</clus>
<clus scale="   91.555">  7  8 -1 -1</clus>
<clus scale="   97.445">  2  7  1 -1</clus>
<clus scale="  118.832">  5 10 -1 -1</clus>
<clus scale="  185.731">  1  9  2 -1</clus>
<clus scale="  185.731">  1  5  2 -1</clus>
</clustering>
</event>
<event>
10    2  0.5692308E-006  0.2633189E+03  0.7546771E-02  0.1125517E+00
         21   -1    0    0  501  502  0.00000000000E+00  0.00000000000E+00  0.59838144679E+02  0.59838144679E+02  0.00000000000E+00 0. -1.
          2   -1    0    0  503    0 -0.00000000000E+00 -0.00000000000E+00 -0.88116195992E+03  0.88116195992E+03  0.00000000000E+00 0. -1.
         23    2    1    2    0    0 -0.28243706973E+02  0.13099850370E+03 -0.42062519189E+03  0.45109157132E+03  0.92734776201E+02 0.  0.
         23    2    1    2    0    0 -0.12268169202E+02 -0.10946535055E+03 -0.95202810680E+02  0.17178414516E+03  0.91175909214E+02 0.  0.
        -13    1    4    4    0    0 -0.25967176601E+02  0.33926497742E+01 -0.33212830080E+02  0.42295347440E+02  0.00000000000E+00 0.  1.
         13    1    4    4    0    0  0.13699007399E+02 -0.11285800032E+03 -0.61989980600E+02  0.12948879772E+03  0.00000000000E+00 0. -1.
        -13    1    3    3    0    0  0.16552388847E+02  0.52894544551E+02 -0.71068931094E+02  0.90125509078E+02  0.00000000000E+00 0.  1.
         13    1    3    3    0    0 -0.44796095819E+02  0.78103959146E+02 -0.34955626079E+03  0.36096606225E+03  0.00000000000E+00 0. -1.
         21    1    1    2  503  502 -0.51911339488E+01 -0.25805192812E+02 -0.35171205958E+02  0.43930280858E+02  0.00000000000E+00 0.  1.
          2    1    1    2  501    0  0.45703010123E+02  0.42720396622E+01 -0.27032460672E+03  0.27419410726E+03  0.00000000000E+00 0. -1.
<scales pt_clust_5="13000.00000" pt_clust_6="13000.00000" pt_clust_7="13000.00000" pt_clust_8="13000.00000" pt_clust_9="26.32216" pt_clust_10="13000.00000"></scales>
<clustering>
<clus scale="   26.322">  1  9  2 -1</clus>
<clus scale="   91.176">  5  6 -1 -1</clus>
<clus scale="   45.647">  5 10 -1 -1</clus>
<clus scale="   92.735">  7  8 -1 -1</clus>
<clus scale="  157.587">  2  7  1 -1</clus>
<clus scale="   26.322">  1  5  2 -1</clus>
</clustering>
</event>
<event>
10    2  0.5692308E-006  0.4133381E+03  0.7546771E-02  0.1093650E+00
         21   -1    0    0  503  502  0.00000000000E+00  0.00000000000E+00  0.10278418875E+03  0.10278418875E+03  0.00000000000E+00 0.  1.
         -3   -1    0    0    0  501 -0.00000000000E+00 -0.00000000000E+00 -0.75552020910E+03  0.75552020910E+03  0.00000000000E+00 0.  1.
         23    2    1    2    0    0  0.20788080495E+02 -0.37213645776E+01 -0.20216387932E+03  0.22236300942E+03  0.90161416422E+02 0.  0.
         23    2    1    2    0    0  0.75067130289E+02  0.13143414693E+03 -0.42768859505E+02  0.18398377814E+03  0.95450752979E+02 0.  0.
        -11    1    3    3    0    0 -0.24878850103E+02 -0.28773387548E+02 -0.11140292084E+03  0.11771778025E+03  0.00000000000E+00 0.  1.
         11    1    3    3    0    0  0.45666930599E+02  0.25052022971E+02 -0.90760958480E+02  0.10464522918E+03  0.00000000000E+00 0. -1.
        -13    1    4    4    0    0  0.26811352408E+02 -0.90448540224E+01  0.32509302082E+01  0.28482039068E+02  0.00000000000E+00 0. -1.
         13    1    4    4    0    0  0.48255777881E+02  0.14047900095E+03 -0.46019789713E+02  0.15550173907E+03  0.00000000000E+00 0.  1.
         21    1    1    2  503  501 -0.34718383594E+02  0.58424774144E+01 -0.28794736258E+02  0.45482277184E+02  0.00000000000E+00 0.  1.
         -3    1    1    2    0  502 -0.61136827191E+02 -0.13355525977E+03 -0.37900854526E+03  0.40647533311E+03  0.00000000000E+00 0.  1.
<scales pt_clust_5="13000.00000" pt_clust_6="13000.00000" pt_clust_7="13000.00000" pt_clust_8="13000.00000" pt_clust_9="35.20654" pt_clust_10="13000.00000"></scales>
<clustering>
<clus scale="   35.207">  1  9  2 -1</clus>
<clus scale="   90.161">  5  6 -1 -1</clus>
<clus scale="   91.816">  2  5  1 -1</clus>
<clus scale="   95.451">  7  8 -1 -1</clus>
<clus scale="  145.202">  7 10 -1 -1</clus>
<clus scale="   35.207">  1  5  2 -1</clus>
</clustering>
</event>
<event>
10    2  0.5692308E-006  0.2817379E+03  0.7546771E-02  0.1132380E+00
          2   -1    0    0  503    0 -0.00000000000E+00  0.00000000000E+00  0.36804590551E+03  0.36804590551E+03  0.00000000000E+00 0. -1.
         21   -1    0    0  501  502  0.00000000000E+00 -0.00000000000E+00 -0.24063449731E+03  0.24063449731E+03  0.00000000000E+00 0. -1.
         23    2    1    2    0    0  0.53587863847E+02  0.28873558454E+02  0.36692901881E+02  0.11469437491E+03  0.90017159793E+02 0.  0.
         23    2    1    2    0    0  0.57133532292E+02  0.12473678784E+02  0.10282995969E+03  0.14810062023E+03  0.89106452795E+02 0.  0.
        -11    1    4    4    0    0 -0.21077094520E+02 -0.79170423130E+01  0.89693231411E+01  0.24235763450E+02  0.00000000000E+00 0.  1.
         11    1    4    4    0    0  0.78210626812E+02  0.20390721097E+02  0.93860636545E+02  0.12386485678E+03  0.00000000000E+00 0. -1.
        -13    1    3    3    0    0  0.48094134250E+02 -0.24232407605E+02  0.27674766666E+02  0.60548724492E+02  0.00000000000E+00 0.  1.
         13    1    3    3    0    0  0.54937295964E+01  0.53105966059E+02  0.90181352145E+01  0.54145650414E+02  0.00000000000E+00 0. -1.
         21    1    1    2  503  502 -0.10685465599E+03 -0.17766734047E+03 -0.25352306293E+02  0.20886919546E+03  0.00000000000E+00 0. -1.
          2    1    1    2  501    0 -0.38667401464E+01  0.13632010323E+03  0.13240852929E+02  0.13701621222E+03  0.00000000000E+00 0. -1.
<scales pt_clust_5="13000.00000" pt_clust_6="13000.00000" pt_clust_7="13000.00000" pt_clust_8="13000.00000" pt_clust_9="191.13877" pt_clust_10="13000.00000"></scales>
<clustering>
<clus scale="   89.106">  5  6 -1 -1</clus>
<clus scale="   90.017">  7  8 -1 -1</clus>
<clus scale="  108.667">  1  7  2 -1</clus>
<clus scale="  144.081">  5 10 -1 -1</clus>
<clus scale="  191.139">  2  9  1 -1</clus>
<clus scale="  191.139">  2  5  1 -1</clus>
</clustering>
</event>
<event>
10    2  0.5692308E-006  0.3225847E+03  0.7546771E-02  0.1089862E+00
         -1   -1    0    0    0  501 -0.00000000000E+00  0.00000000000E+00  0.72089642390E+03  0.72089642390E+03  0.00000000000E+00 0.  1.
         21   -1    0    0  501  502  0.00000000000E+00 -0.00000000000E+00 -0.24734355729E+03  0.24734355729E+03  0.00000000000E+00 0.  1.
         23    2    1    2    0    0  0.15483168740E+03  0.61210884247E+02  0.11109129083E+03  0.21924556029E+03  0.89485848244E+02 0.  0.
         23    2    1    2    0    0 -0.13050585721E+03 -0.85411778391E+02  0.47335255473E+03  0.50679896237E+03  0.91954317657E+02 0.  0.
        -13    1    3    3    0    0  0.12535621638E+03  0.74228169384E+01  0.58865777432E+02  0.13868835188E+03  0.00000000000E+00 0.  1.
         13    1    3    3    0    0  0.29475471023E+02  0.53788067308E+02  0.52225513395E+02  0.80557208406E+02  0.00000000000E+00 0. -1.
        -13    1    4    4    0    0 -0.80024791488E+02 -0.91407293843E+02  0.25297794059E+03  0.28063695239E+03  0.00000000000E+00 0.  1.
         13    1    4    4    0    0 -0.50481065727E+02  0.59955154515E+01  0.22037461414E+03  0.22616200998E+03  0.00000000000E+00 0. -1.
         21    1    1    2  503  502  0.60658348425E+02 -0.10855739278E+02 -0.13392592337E+03  0.14742264161E+03  0.00000000000E+00 0.  1.
         -1    1    1    2    0  503 -0.84984178610E+02  0.35056633422E+02  0.23034944438E+02  0.94772816916E+02  0.00000000000E+00 0.  1.
<scales pt_clust_5="13000.00000" pt_clust_6="13000.00000" pt_clust_7="13000.00000" pt_clust_8="13000.00000" pt_clust_9="61.62209" pt_clust_10="13000.00000"></scales>
<clustering>
<clus scale="   61.622">  2  9  1 -1</clus>
<clus scale="   89.486">  5  6 -1 -1</clus>
<clus scale="   91.954">  7  8 -1 -1</clus>
<clus scale="   71.818">  7 10 -1 -1</clus>
<clus scale="  213.430">  1  5  2 -1</clus>
<clus scale="   61.622">  2  5  1 -1</clus>
</clustering>
</event>
<event>
10    2  0.5692308E-006  0.4467607E+03  0.7546771E-02  0.1078338E+00
         -2   -1    0    0    0  501 -0.00000000000E+00  0.00000000000E+00  0.89981121128E+02  0.89981121128E+02  0.00000000000E+00 0.  1.
         21   -1    0    0  501  502  0.00000000000E+00 -0.00000000000E+00 -0.11637005727E+04  0.11637005727E+04  0.00000000000E+00 0.  1.
         23    2    1    2    0    0 -0.42691813362E+02 -0.39925830792E+02 -0.87653884537E+02  0.14080706682E+03  0.93417148854E+02 0.  0.
         23    2    1    2    0    0  0.13497490987E+03 -0.13566860673E+03 -0.38400819763E+03  0.43879917105E+03  0.91968579012E+02 0.  0.
        -11    1    4    4    0    0  0.12423952406E+03 -0.65063457930E+02 -0.27045644701E+03  0.30465620399E+03  0.00000000000E+00 0.  1.
         11    1    4    4    0    0  0.10735385804E+02 -0.70605148799E+02 -0.11355175062E+03  0.13414296707E+03  0.00000000000E+00 0. -1.
        -13    1    3    3    0    0  0.57557495632E+01 -0.51995237048E+02 -0.18447261269E+02  0.55470125086E+02  0.00000000000E+00 0.  1.
         13    1    3    3    0    0 -0.48447562925E+02  0.12069406256E+02 -0.69206623268E+02  0.85336941736E+02  0.00000000000E+00 0. -1.
         21    1    1    2  503  502  0.38016969313E+02 -0.18570175760E+02 -0.23560590773E+03  0.23937477967E+03  0.00000000000E+00 0.  1.
         -2    1    1    2    0  503 -0.13030006582E+03  0.19416461328E+03 -0.36645146171E+03  0.43470067632E+03  0.00000000000E+00 0.  1.
<scales pt_clust_5="13000.00000" pt_clust_6="13000.00000" pt_clust_7="13000.00000" pt_clust_8="13000.00000" pt_clust_9="42.31006" pt_clust_10="13000.00000"></scales>
<clustering>
<clus scale="   42.310">  2  9  1 -1</clus>
<clus scale="   91.969">  5  6 -1 -1</clus>
<clus scale="   93.417">  7  8 -1 -1</clus>
<clus scale="  109.331">  1  7  2 -1</clus>
<clus scale="  212.015">  5 10 -1 -1</clus>
<clus scale="   42.310">  2  5  1 -1</clus>
</clustering>
</event>
<event>
10    2  0.5692308E-006  0.2407882E+03  0.7546771E-02  0.1142572E+00
         21   -1    0    0  501  502  0.00000000000E+00  0.00000000000E+00  0.13081196498E+03  0.13081196498E+03  0.00000000000E+00 0. -1.
          2   -1    0    0  503    0 -0.00000000000E+00 -0.00000000000E+00 -0.60336756071E+03  0.60336756071E+03  0.00000000000E+00 0. -1.
         23    2    1    2    0    0 -0.58952040105E+02 -0.79691361103E+02 -0.11868890563E+03  0.17511453962E+03  0.82170491056E+02 0.  0.
         23    2    1    2    0    0  0.48588839927E+02  0.19247323030E+01 -0.34610290756E+03  0.36078804158E+03  0.89533280783E+02 0.  0.
        -11    1    4    4    0    0  0.71744922867E+02  0.16154397028E+02 -0.22666061356E+03  0.23829253501E+03  0.00000000000E+00 0.  1.
         11    1    4    4    0    0 -0.23156082941E+02 -0.14229664725E+02 -0.11944229399E+03  0.12249550657E+03  0.00000000000E+00 0. -1.
        -11    1    3    3    0    0  0.16256085488E+02 -0.16222769033E+02 -0.28890912324E+01  0.23147038658E+02  0.00000000000E+00 0.  1.
         11    1    3    3    0    0 -0.75208125593E+02 -0.63468592070E+02 -0.11579981440E+03  0.15196750097E+03  0.00000000000E+00 0. -1.
         21    1    1    2  503  502 -0.61722182920E+00 -0.24043274351E+02  0.67197094010E+02  0.71371629151E+02  0.00000000000E+00 0. -1.
          2    1    1    2  501    0  0.10980422007E+02  0.10180990315E+03 -0.74960876555E+02  0.12690531534E+03  0.00000000000E+00 0. -1.
<scales pt_clust_5="13000.00000" pt_clust_6="13000.00000" pt_clust_7="13000.00000" pt_clust_8="13000.00000" pt_clust_9="24.05120" pt_clust_10="13000.00000"></scales>
<clustering>
<clus scale="   24.051">  1  9  2 -1</clus>
<clus scale="   82.170">  7  8 -1 -1</clus>
<clus scale="   89.533">  5  6 -1 -1</clus>
<clus scale="   92.285">  5 10 -1 -1</clus>
<clus scale="  135.979">  2  7  1 -1</clus>
<clus scale="   24.051">  1  5  2 -1</clus>
</clustering>
</event>
<event>
10    2  0.5692308E-006  0.2693714E+03  0.7546771E-02  0.1120073E+00
         21   -1    0    0  503  502  0.00000000000E+00  0.00000000000E+00  0.56228047356E+03  0.56228047356E+03  0.00000000000E+00 0. -1.
          2   -1    0    0  502    0 -0.00000000000E+00 -0.00000000000E+00 -0.15289881628E+03  0.15289881628E+03  0.00000000000E+00 0. -1.
         23    2    1    2    0    0  0.81819560300E+01  0.15032669448E+03  0.15918616758E+03  0.23790620753E+03  0.92704197082E+02 0.  0.
         23    2    1    2    0    0  0.49164554870E+02 -0.59485797791E+02 -0.47813121284E+02  0.12574141352E+03  0.87000545472E+02 0.  0.
        -11    1    4    4    0    0  0.53773993006E+01  0.21826228000E+02 -0.17675822579E+02  0.28596072384E+02  0.00000000000E+00 0. -1.
         11    1    4    4    0    0  0.43787155570E+02 -0.81312025791E+02 -0.30137298705E+02  0.97145341136E+02  0.00000000000E+00 0.  1.
        -13    1    3    3    0    0  0.44445570723E+02  0.71551828697E+02  0.48168604390E+02  0.97032403844E+02  0.00000000000E+00 0.  1.
         13    1    3    3    0    0 -0.36263614693E+02  0.78774865783E+02  0.11101756319E+03  0.14087380369E+03  0.00000000000E+00 0. -1.
         21    1    1    2  503  501  0.27083663775E+02 -0.20619572965E+02  0.20445377916E+03  0.20726803768E+03  0.00000000000E+00 0. -1.
          2    1    1    2  501    0 -0.84430174675E+02 -0.70221323723E+02  0.93554831826E+02  0.14426363110E+03  0.00000000000E+00 0. -1.
<scales pt_clust_5="13000.00000" pt_clust_6="13000.00000" pt_clust_7="13000.00000" pt_clust_8="13000.00000" pt_clust_9="34.03956" pt_clust_10="13000.00000"></scales>
<clustering>
<clus scale="   34.040">  1  9  2 -1</clus>
<clus scale="   87.001">  5  6 -1 -1</clus>
<clus scale="   92.704">  7  8 -1 -1</clus>
<clus scale="  107.837">  5 10 -1 -1</clus>
<clus scale="  168.559">  2  7  1 -1</clus>
<clus scale="   34.040">  1  5  2 -1</clus>
</clustering>
</event>
<event>
10    2  0.5692308E-006  0.2178251E+03  0.7546771E-02  0.1167938E+00
         21   -1    0    0  501  502  0.00000000000E+00  0.00000000000E+00  0.14398330804E+03  0.14398330804E+03  0.00000000000E+00 0.  1.
         -1   -1    0    0    0  501 -0.00000000000E+00 -0.00000000000E+00 -0.58883323450E+03  0.58883323450E+03  0.00000000000E+00 0.  1.
         23    2    1    2    0    0  0.29760797436E+02  0.13419867288E+02 -0.29850451716E+03  0.31576509743E+03  0.97656807695E+02 0.  0.
         23    2    1    2    0    0 -0.15202763808E+02  0.50237644804E+02 -0.25948900609E+03  0.28009099495E+03  0.91441107749E+02 0.  0.
        -11    1    4    4    0    0 -0.49692416528E+02  0.36266968896E+02 -0.10994001264E+03  0.12598188629E+03  0.00000000000E+00 0. -1.
         11    1    4    4    0    0  0.34489652720E+02  0.13970675908E+02 -0.14954899345E+03  0.15410910866E+03  0.00000000000E+00 0.  1.
        -11    1    3    3    0    0  0.63298349260E+02  0.22283348234E+02 -0.17313979332E+03  0.18568957068E+03  0.00000000000E+00 0.  1.
         11    1    3    3    0    0 -0.33537551824E+02 -0.88634809459E+01 -0.12536472384E+03  0.13007552675E+03  0.00000000000E+00 0. -1.
         21    1    1    2  503  502 -0.24250088287E+02 -0.35201814199E+02  0.87756401852E+02  0.97613629022E+02  0.00000000000E+00 0.  1.
         -1    1    1    2    0  503  0.96920546593E+01 -0.28455697893E+02  0.25387194946E+02  0.39346821134E+02  0.00000000000E+00 0.  1.
<scales pt_clust_5="13000.00000" pt_clust_6="13000.00000" pt_clust_7="13000.00000" pt_clust_8="13000.00000" pt_clust_9="42.74616" pt_clust_10="13000.00000"></scales>
<clustering>
<clus scale="   42.746">  1  9  2 -1</clus>
<clus scale="   91.441">  5  6 -1 -1</clus>
<clus scale="   50.976">  5 10 -1 -1</clus>
<clus scale="   97.657">  7  8 -1 -1</clus>
<clus scale="  101.255">  2  7  1 -1</clus>
<clus scale="   42.746">  1  5  2 -1</clus>
</clustering>
</event>
<event>
10    2  0.5692308E-006  0.1982906E+03  0.7546771E-02  0.1183846E+00
         21   -1    0    0  503  502  0.00000000000E+00  0.00000000000E+00  0.46889104825E+03  0.46889104825E+03  0.00000000000E+00 0.  1.
         -1   -1    0    0    0  501 -0.00000000000E+00 -0.00000000000E+00 -0.64777123771E+02  0.64777123771E+02  0.00000000000E+00 0.  1.
         23    2    1    2    0    0 -0.21905901455E+02 -0.28279337057E+02  0.11051647691E+03  0.14697713051E+03  0.90048852304E+02 0.  0.
         23    2    1    2    0    0  0.21170484137E+02 -0.85987246133E+01  0.60836797793E+01  0.93882339121E+02  0.90855682132E+02 0.  0.
        -11    1    4    4    0    0 -0.24196077302E+02 -0.26163909606E+02 -0.17632968912E+02  0.39760808787E+02  0.00000000000E+00 0.  1.
         11    1    4    4    0    0  0.45366561439E+02  0.17565184993E+02  0.23716648691E+02  0.54121530335E+02  0.00000000000E+00 0. -1.
        -13    1    3    3    0    0  0.19100829941E+02 -0.97721950089E+01  0.97940255996E+02  0.10026281087E+03  0.00000000000E+00 0. -1.
         13    1    3    3    0    0 -0.41006731396E+02 -0.18507142048E+02  0.12576220914E+02  0.46714319636E+02  0.00000000000E+00 0.  1.
         21    1    1    2  503  501  0.20642381679E+02  0.18442936490E+02  0.12334098626E+03  0.12640905315E+03  0.00000000000E+00 0.  1.
         -1    1    1    2    0  502 -0.19906964361E+02  0.18435125180E+02  0.16417278154E+03  0.16639964924E+03  0.00000000000E+00 0.  1.
<scales pt_clust_5="13000.00000" pt_clust_6="13000.00000" pt_clust_7="13000.00000" pt_clust_8="13000.00000" pt_clust_9="27.68122" pt_clust_10="13000.00000"></scales>
<clustering>
<clus scale="   27.681">  1  9  2 -1</clus>
<clus scale="   90.049">  7  8 -1 -1</clus>
<clus scale="   90.856">  5  6 -1 -1</clus>
<clus scale="   29.067">  5 10 -1 -1</clus>
<clus scale="   93.632">  2  7  1 -1</clus>
<clus scale="   27.681">  1  5  2 -1</clus>
</clustering>
</event>
<event>
10    2  0.5692308E-006  0.1154043E+03  0.7546771E-02  0.1259531E+00
         21   -1    0    0  501  502  0.00000000000E+00  0.00000000000E+00  0.29977051488E+03  0.29977051488E+03  0.00000000000E+00 0.  1.
         -1   -1    0    0    0  501 -0.00000000000E+00 -0.00000000000E+00 -0.13800432123E+03  0.13800432123E+03  0.00000000000E+00 0.  1.
         23    2    1    2    0    0 -0.22300051156E+02 -0.30808474909E+02 -0.84629323330E+02  0.12847632884E+03  0.88868387504E+02 0.  0.
         23    2    1    2    0    0  0.72572127640E+01  0.22479134488E+02  0.71757475100E+02  0.11711207603E+03  0.89488124887E+02 0.  0.
        -13    1    3    3    0    0 -0.97050977780E+01 -0.54420923672E+02 -0.20449858804E+02  0.58940839673E+02  0.00000000000E+00 0.  1.
         13    1    3    3    0    0 -0.12594953378E+02  0.23612448763E+02 -0.64179464526E+02  0.69535489169E+02  0.00000000000E+00 0. -1.
        -13    1    4    4    0    0 -0.35908663677E+00  0.42993098121E+02  0.82276422308E+02  0.92832888014E+02  0.00000000000E+00 0. -1.
         13    1    4    4    0    0  0.76162994008E+01 -0.20513963633E+02 -0.10518947208E+02  0.24279188019E+02  0.00000000000E+00 0.  1.
         21    1    1    2  503  502  0.10195091396E+02 -0.17360646545E+02  0.16182397021E+03  0.16307154648E+03  0.00000000000E+00 0.  1.
         -1    1    1    2    0  503  0.48477469953E+01  0.25689986967E+02  0.12814071670E+02  0.29114884751E+02  0.00000000000E+00 0.  1.
<scales pt_clust_5="13000.00000" pt_clust_6="13000.00000" pt_clust_7="13000.00000" pt_clust_8="13000.00000" pt_clust_9="20.13286" pt_clust_10="13000.00000"></scales>
<clustering>
<clus scale="   20.133">  1  9  2 -1</clus>
<clus scale="   88.868">  5  6 -1 -1</clus>
<clus scale="   89.488">  7  8 -1 -1</clus>
<clus scale="   23.913">  7 10 -1 -1</clus>
<clus scale="   97.224">  2  5  1 -1</clus>
<clus scale="   20.133">  1  5  2 -1</clus>
</clustering>
</event>
<event>
10    2  0.5692308E-006  0.1956298E+03  0.7546771E-02  0.1158451E+00
          1   -1    0    0  503    0 -0.00000000000E+00  0.00000000000E+00  0.80771278828E+03  0.80771278828E+03  0.00000000000E+00 0. -1.
         21   -1    0    0  501  502  0.00000000000E+00 -0.00000000000E+00 -0.37857414779E+03  0.37857414779E+03  0.00000000000E+00 0.  1.
         23    2    1    2    0    0 -0.96275043852E+02  0.12920748878E+03  0.60708414262E+03  0.63433666401E+03  0.88703933715E+02 0.  0.
         23    2    1    2    0    0  0.12548191317E+03  0.40217070055E+01  0.83610383665E+02  0.17652046838E+03  0.91689120616E+02 0.  0.
        -11    1    3    3    0    0 -0.16750156099E+02  0.64122744083E+02  0.37075691365E+03  0.37663375188E+03  0.00000000000E+00 0.  1.
         11    1    3    3    0    0 -0.79524887753E+02  0.65084744696E+02  0.23632722897E+03  0.25770291213E+03  0.00000000000E+00 0. -1.
        -13    1    4    4    0    0  0.45068890484E+02 -0.22067971980E+01 -0.16426450305E+02  0.48019820002E+02  0.00000000000E+00 0.  1.
         13    1    4    4    0    0  0.80413022685E+02  0.62285042035E+01  0.10003683397E+03  0.12850064837E+03  0.00000000000E+00 0. -1.
         21    1    1    2  503  502 -0.76256559087E+02 -0.16363922649E+03 -0.26345411300E+03  0.31937584271E+03  0.00000000000E+00 0.  1.
          1    1    1    2  501    0  0.47049689770E+02  0.30410030705E+02  0.18982271975E+01  0.56053960979E+02  0.00000000000E+00 0. -1.
<scales pt_clust_5="13000.00000" pt_clust_6="13000.00000" pt_clust_7="13000.00000" pt_clust_8="13000.00000" pt_clust_9="180.53493" pt_clust_10="13000.00000"></scales>
<clustering>
<clus scale="   88.704">  5  6 -1 -1</clus>
<clus scale="   91.689">  7  8 -1 -1</clus>
<clus scale="   56.022">  7 10 -1 -1</clus>
<clus scale="  180.535">  2  9  1 -1</clus>
<clus scale="  174.106">  1  5  2 -1</clus>
<clus scale="  180.535">  2  5  1 -1</clus>
</clustering>
</event>
<event>
10    2  0.5692308E-006  0.2969710E+03  0.7546771E-02  0.1131040E+00
          3   -1    0    0  502    0 -0.00000000000E+00  0.00000000000E+00  0.24922545027E+03  0.24922545027E+03  0.00000000000E+00 0. -1.
         21   -1    0    0  503  502  0.00000000000E+00 -0.00000000000E+00 -0.67406808666E+03  0.67406808666E+03  0.00000000000E+00 0. -1.
         23    2    1    2    0    0 -0.20485743561E+02 -0.25046029942E+02 -0.27126932194E+02  0.99646292216E+02  0.90258206259E+02 0.  0.
         23    2    1    2    0    0 -0.64381481101E+02  0.16929818750E+03  0.12603479492E+03  0.23972638665E+03  0.93686282494E+02 0.  0.
        -11    1    4    4    0    0 -0.48755353243E+02  0.13033345530E+03  0.13809595247E+03  0.19604689778E+03  0.00000000000E+00 0. -1.
         11    1    4    4    0    0 -0.15626127858E+02  0.38964732194E+02 -0.12061157545E+02  0.43679488872E+02  0.00000000000E+00 0.  1.
        -11    1    3    3    0    0  0.36804249798E+01 -0.32713218187E+02  0.25228591251E+02  0.41475076717E+02  0.00000000000E+00 0. -1.
         11    1    3    3    0    0 -0.24166168540E+02  0.76671882443E+01 -0.52355523445E+02  0.58171215499E+02  0.00000000000E+00 0.  1.
         21    1    1    2  503  501  0.13254932461E+03 -0.11105140411E+03 -0.48281313719E+03  0.51284526249E+03  0.00000000000E+00 0. -1.
          3    1    1    2  501    0 -0.47682099944E+02 -0.33200753449E+02 -0.40937361926E+02  0.71075595574E+02  0.00000000000E+00 0. -1.
<scales pt_clust_5="13000.00000" pt_clust_6="13000.00000" pt_clust_7="13000.00000" pt_clust_8="13000.00000" pt_clust_9="172.96316" pt_clust_10="13000.00000"></scales>
<clustering>
<clus scale="   90.258">  7  8 -1 -1</clus>
<clus scale="   93.686">  5  6 -1 -1</clus>
<clus scale="   58.102">  5 10 -1 -1</clus>
<clus scale="   95.883">  1  7  2 -1</clus>
<clus scale="  172.963">  2  9  1 -1</clus>
<clus scale="  172.963">  2  5  1 -1</clus>
</clustering>
</event>
<event>
10    2  0.5692308E-006  0.2734405E+03  0.7546771E-02  0.1133226E+00
         21   -1    0    0  501  502  0.00000000000E+00  0.00000000000E+00  0.37089258747E+03  0.37089258747E+03  0.00000000000E+00 0.  1.
         -1   -1    0    0    0  501 -0.00000000000E+00 -0.00000000000E+00 -0.49189422102E+03  0.49189422102E+03  0.00000000000E+00 0.  1.
         23    2    1    2    0    0 -0.61393380934E+02 -0.20700655528E+02 -0.23264585032E+03  0.25796306730E+03  0.90681795641E+02 0.  0.
         23    2    1    2    0    0  0.96186796631E+02  0.83934714308E+02 -0.12577412978E+03  0.20100368079E+03  0.91029730609E+02 0.  0.
        -13    1    4    4    0    0  0.10224814006E+03  0.60428962594E+02 -0.13030316079E+03  0.17631011139E+03  0.00000000000E+00 0.  1.
         13    1    4    4    0    0 -0.60613434282E+01  0.23505751714E+02  0.45290310061E+01  0.24693569399E+02  0.00000000000E+00 0. -1.
        -13    1    3    3    0    0 -0.26848562623E+02  0.34669615594E+02 -0.12022358144E+03  0.12797084470E+03  0.00000000000E+00 0.  1.
         13    1    3    3    0    0 -0.34544818311E+02 -0.55370271123E+02 -0.11242226888E+03  0.12999222260E+03  0.00000000000E+00 0. -1.
         21    1    1    2  503  502 -0.91257351682E+02  0.58247345398E+02  0.24682882726E+03  0.26952760053E+03  0.00000000000E+00 0.  1.
         -1    1    1    2    0  503  0.56463935985E+02 -0.12148140418E+03 -0.94104807087E+01  0.13429245986E+03  0.00000000000E+00 0.  1.
<scales pt_clust_5="13000.00000" pt_clust_6="13000.00000" pt_clust_7="13000.00000" pt_clust_8="13000.00000" pt_clust_9="108.26199" pt_clust_10="13000.00000"></scales>
<clustering>
<clus scale="   90.682">  7  8 -1 -1</clus>
<clus scale="   91.030">  5  6 -1 -1</clus>
<clus scale="  108.262">  1  9  2 -1</clus>
<clus scale="   89.409">  5 10 -1 -1</clus>
<clus scale="  116.431">  2  7  1 -1</clus>
<clus scale="  108.262">  1  5  2 -1</clus>
</clustering>
</event>
<event>
10    2  0.5692308E-006  0.1841939E+03  0.7546771E-02  0.1181274E+00
          1   -1    0    0  502    0 -0.00000000000E+00  0.00000000000E+00  0.74805832212E+03  0.74805832212E+03  0.00000000000E+00 0. -1.
         21   -1    0    0  503  502  0.00000000000E+00 -0.00000000000E+00 -0.49242964358E+02  0.49242964358E+02  0.00000000000E+00 0.  1.
         23    2    1    2    0    0 -0.93080983268E+02 -0.21054092054E+02  0.38911933366E+03  0.41055207719E+03  0.89620354963E+02 0.  0.
         23    2    1    2    0    0  0.30514124665E+02  0.27744636000E+02  0.28383709048E+03  0.30096609985E+03  0.91193325963E+02 0.  0.
        -11    1    3    3    0    0 -0.43900628765E+02 -0.51613364986E+02  0.26604183310E+03  0.27453499159E+03  0.00000000000E+00 0. -1.
         11    1    3    3    0    0 -0.49180354504E+02  0.30559272932E+02  0.12307750056E+03  0.13601708560E+03  0.00000000000E+00 0.  1.
        -13    1    4    4    0    0 -0.15433509692E+02  0.46521530245E+02  0.11566407821E+03  0.12562095759E+03  0.00000000000E+00 0.  1.
         13    1    4    4    0    0  0.45947634357E+02 -0.18776894245E+02  0.16817301227E+03  0.17534514226E+03  0.00000000000E+00 0. -1.
         21    1    1    2  503  501  0.28586918095E+02  0.22682548415E+02  0.74721785829E+01  0.37249742839E+02  0.00000000000E+00 0.  1.
          1    1    1    2  501    0  0.33979940508E+02 -0.29373092360E+02  0.18386755047E+02  0.48533366594E+02  0.00000000000E+00 0. -1.
<scales pt_clust_5="13000.00000" pt_clust_6="13000.00000" pt_clust_7="13000.00000" pt_clust_8="13000.00000" pt_clust_9="36.49260" pt_clust_10="13000.00000"></scales>
<clustering>
<clus scale="   36.493">  2  9  1 -1</clus>
<clus scale="   89.620">  5  6 -1 -1</clus>
<clus scale="   91.193">  7  8 -1 -1</clus>
<clus scale="   50.414">  7 10 -1 -1</clus>
<clus scale="  123.737">  1  5  2 -1</clus>
<clus scale="   36.493">  2  5  1 -1</clus>
</clustering>
</event>
<event>
10    2  0.5692308E-006  0.2068422E+03  0.7546771E-02  0.1177255E+00
          2   -1    0    0  503    0 -0.00000000000E+00  0.00000000000E+00  0.12954411712E+04  0.12954411712E+04  0.00000000000E+00 0. -1.
         21   -1    0    0  501  502  0.00000000000E+00 -0.00000000000E+00 -0.56771449686E+02  0.56771449686E+02  0.00000000000E+00 0.  1.
         23    2    1    2    0    0  0.35695749659E+02  0.55261692350E+02  0.67123636250E+02  0.12988142973E+03  0.89641296620E+02 0.  0.
         23    2    1    2    0    0  0.44603405258E+02 -0.10215969230E+02  0.29675305176E+03  0.31344285112E+03  0.89945635801E+02 0.  0.
        -13    1    4    4    0    0 -0.84560877328E+01 -0.26521647827E+02  0.29797419870E+02  0.40777315435E+02  0.00000000000E+00 0. -1.
         13    1    4    4    0    0  0.53059492991E+02  0.16305678597E+02  0.26695563189E+03  0.27266553568E+03  0.00000000000E+00 0.  1.
        -13    1    3    3    0    0 -0.73346699697E+01  0.51961996319E+02  0.68994871548E+02  0.86684132026E+02  0.00000000000E+00 0. -1.
         13    1    3    3    0    0  0.43030419628E+02  0.32996960309E+01 -0.18712352981E+01  0.43197297703E+02  0.00000000000E+00 0.  1.
         21    1    1    2  503  502 -0.15291333131E+02 -0.10586671815E+03  0.18759391581E+03  0.21594690118E+03  0.00000000000E+00 0.  1.
          2    1    1    2  501    0 -0.65007821785E+02  0.60820995031E+02  0.68719911769E+03  0.69294143886E+03  0.00000000000E+00 0. -1.
<scales pt_clust_5="13000.00000" pt_clust_6="13000.00000" pt_clust_7="13000.00000" pt_clust_8="13000.00000" pt_clust_9="106.96535" pt_clust_10="13000.00000"></scales>
<clustering>
<clus scale="   89.641">  7  8 -1 -1</clus>
<clus scale="   89.946">  5  6 -1 -1</clus>
<clus scale="   89.024">  5 10 -1 -1</clus>
<clus scale="  106.965">  2  9  1 -1</clus>
<clus scale="   95.650">  1  7  2 -1</clus>
<clus scale="  106.965">  2  5  1 -1</clus>
</clustering>
</event>
<event>
10    2  0.5692308E-006  0.3910744E+03  0.7546771E-02  0.1085504E+00
         21   -1    0    0  501  502  0.00000000000E+00  0.00000000000E+00  0.19154879661E+03  0.19154879661E+03  0.00000000000E+00 0. -1.
          1   -1    0    0  503    0 -0.00000000000E+00 -0.00000000000E+00 -0.95901528086E+03  0.95901528086E+03  0.00000000000E+00 0. -1.
         23    2    1    2    0    0  0.99216735618E+02  0.63275887432E+01 -0.63009881193E+02  0.14850970074E+03  0.90558749325E+02 0.  0.
         23    2    1    2    0    0  0.70032381630E+01  0.14676888092E+02 -0.32904654911E+03  0.34229547045E+03  0.92898338086E+02 0.  0.
        -11    1    4    4    0    0 -0.19761699824E+02  0.47170677208E+02 -0.20571789855E+03  0.21197983714E+03  0.00000000000E+00 0.  1.
         11    1    4    4    0    0  0.26764937987E+02 -0.32493789117E+02 -0.12332865056E+03  0.13031563331E+03  0.00000000000E+00 0. -1.
        -13    1    3    3    0    0  0.80534453141E+02  0.44008526908E+02 -0.36333454684E+02  0.98704956880E+02  0.00000000000E+00 0. -1.
         13    1    3    3    0    0  0.18682282477E+02 -0.37680938164E+02 -0.26676426509E+02  0.49804743858E+02  0.00000000000E+00 0.  1.
         21    1    1    2  503  502 -0.31285474629E+03  0.32519672183E+02 -0.14719781877E+03  0.34727916610E+03  0.00000000000E+00 0. -1.
          1    1    1    2  501    0  0.20663477251E+03 -0.53524149018E+02 -0.22821223518E+03  0.31247974018E+03  0.00000000000E+00 0. -1.
<scales pt_clust_5="13000.00000" pt_clust_6="13000.00000" pt_clust_7="13000.00000" pt_clust_8="13000.00000" pt_clust_9="286.17520" pt_clust_10="13000.00000"></scales>
<clustering>
<clus scale="   90.559">  7  8 -1 -1</clus>
<clus scale="   92.898">  5  6 -1 -1</clus>
<clus scale="  134.480">  2  7  1 -1</clus>
<clus scale="  243.581">  5 10 -1 -1</clus>
<clus scale="  286.175">  1  9  2 -1</clus>
<clus scale="  286.175">  1  5  2 -1</clus>
</clustering>
</event>
<event>
10    2  0.5692308E-006  0.1789331E+03  0.7546771E-02  0.1199573E+00
          2   -1    0    0  503    0 -0.00000000000E+00  0.00000000000E+00  0.71595886723E+03  0.71595886723E+03  0.00000000000E+00 0. -1.
         21   -1    0    0  501  502  0.00000000000E+00 -0.00000000000E+00 -0.89331727270E+02  0.89331727270E+02  0.00000000000E+00 0. -1.
         23    2    1    2    0    0  0.88779141130E+01  0.73029746469E+00  0.34357404777E+03  0.35510812900E+03  0.89326962798E+02 0.  0.
         23    2    1    2    0    0  0.68253092477E+01 -0.92149132473E+01  0.34354646095E+03  0.35571921027E+03  0.91544995767E+02 0.  0.
        -11    1    3    3    0    0  0.91175937902E+01 -0.43889782139E+02  0.15714367179E+03  0.16341229169E+03  0.00000000000E+00 0. -1.
         11    1    3    3    0    0 -0.23967967719E+00  0.44620079604E+02  0.18643037598E+03  0.19169583730E+03  0.00000000000E+00 0.  1.
        -13    1    4    4    0    0 -0.35758653159E+02  0.17569749866E+02  0.11514626210E+03  0.12184432306E+03  0.00000000000E+00 0.  1.
         13    1    4    4    0    0  0.42583962407E+02 -0.26784663113E+02  0.22840019885E+03  0.23387488721E+03  0.00000000000E+00 0. -1.
         21    1    1    2  503  502  0.37407865510E+01  0.30684117239E+02 -0.56873847169E+02  0.64731314111E+02  0.00000000000E+00 0. -1.
          2    1    1    2  501    0 -0.19444009912E+02 -0.22199501456E+02 -0.36195215948E+01  0.29731941123E+02  0.00000000000E+00 0. -1.
<scales pt_clust_5="13000.00000" pt_clust_6="13000.00000" pt_clust_7="13000.00000" pt_clust_8="13000.00000" pt_clust_9="30.91130" pt_clust_10="13000.00000"></scales>
<clustering>
<clus scale="   30.911">  2  9  1 -1</clus>
<clus scale="   89.327">  5  6 -1 -1</clus>
<clus scale="   90.112">  1  5  2 -1</clus>
<clus scale="   91.545">  7  8 -1 -1</clus>
<clus scale="   17.417">  7 10 -1 -1</clus>
<clus scale="   30.911">  2  5  1 -1</clus>
</clustering>
</event>
<event>
10    2  0.5692308E-006  0.1405294E+03  0.7546771E-02  0.1226020E+00
          1   -1    0    0  503    0 -0.00000000000E+00  0.00000000000E+00  0.71643385377E+03  0.71643385377E+03  0.00000000000E+00 0. -1.
         21   -1    0    0  501  502  0.00000000000E+00 -0.00000000000E+00 -0.12847568154E+03  0.12847568154E+03  0.00000000000E+00 0. -1.
         23    2    1    2    0    0 -0.24528466768E+02 -0.23462445814E+02  0.17915628907E+03  0.20369055404E+03  0.90778487797E+02 0.  0.
         23    2    1    2    0    0  0.23905286807E+02  0.44157086935E+02  0.42556845380E+03  0.43820706535E+03  0.91627573307E+02 0.  0.
        -13    1    4    4    0    0  0.24029896341E+02  0.66904062626E+02  0.38663012833E+03  0.39311123826E+03  0.00000000000E+00 0. -1.
         13    1    4    4    0    0 -0.12460953408E+00 -0.22746975692E+02  0.38938325473E+02  0.45095827094E+02  0.00000000000E+00 0.  1.
        -13    1    3    3    0    0  0.17947125843E+02 -0.44529249679E+02  0.72308557463E+02  0.86795627110E+02  0.00000000000E+00 0.  1.
         13    1    3    3    0    0 -0.42475592610E+02  0.21066803865E+02  0.10684773161E+03  0.11689492693E+03  0.00000000000E+00 0. -1.
         21    1    1    2  503  502  0.20039871129E+02 -0.56416816408E+02 -0.96469467225E+02  0.11353771054E+03  0.00000000000E+00 0. -1.
          1    1    1    2  501    0 -0.19416691168E+02  0.35722175288E+02  0.79702896586E+02  0.89474205375E+02  0.00000000000E+00 0. -1.
<scales pt_clust_5="13000.00000" pt_clust_6="13000.00000" pt_clust_7="13000.00000" pt_clust_8="13000.00000" pt_clust_9="59.87031" pt_clust_10="13000.00000"></scales>
<clustering>
<clus scale="   59.870">  2  9  1 -1</clus>
<clus scale="   90.778">  7  8 -1 -1</clus>
<clus scale="   91.628">  5  6 -1 -1</clus>
<clus scale="   28.415">  5 10 -1 -1</clus>
<clus scale="  106.027">  1  7  2 -1</clus>
<clus scale="   59.870">  2  5  1 -1</clus>
</clustering>
</event>
<event>
10    2  0.5692308E-006  0.2483394E+03  0.7546771E-02  0.1127103E+00
         -1   -1    0    0    0  501 -0.00000000000E+00  0.00000000000E+00  0.30722322780E+03  0.30722322780E+03  0.00000000000E+00 0.  1.
         21   -1    0    0  503  502  0.00000000000E+00 -0.00000000000E+00 -0.29173405158E+03  0.29173405158E+03  0.00000000000E+00 0. -1.
         23    2    1    2    0    0 -0.10334825969E+03  0.12987760804E+03  0.12081833158E+03  0.22377185392E+03  0.89037730819E+02 0.  0.
         23    2    1    2    0    0  0.57354387574E+02 -0.16832695453E+03 -0.83414098361E+01  0.20044311286E+03  0.92110656164E+02 0.  0.
        -11    1    4    4    0    0  0.47736361156E+02 -0.13911314125E+03 -0.43843373258E+02  0.15347139025E+03  0.00000000000E+00 0. -1.
         11    1    4    4    0    0  0.96180264179E+01 -0.29213813280E+02  0.35501963422E+02  0.46971722614E+02  0.00000000000E+00 0.  1.
        -11    1    3    3    0    0 -0.61301865966E+02  0.52381468127E+02  0.10784285033E+03  0.13465443677E+03  0.00000000000E+00 0.  1.
         11    1    3    3    0    0 -0.42046393724E+02  0.77496139911E+02  0.12975481256E+02  0.89117417154E+02  0.00000000000E+00 0. -1.
         21    1    1    2  503  501  0.88618769542E+02  0.22676164787E+02 -0.90774109863E+02  0.12886983272E+03  0.00000000000E+00 0. -1.
         -1    1    1    2    0  502 -0.42624897426E+02  0.15773181709E+02 -0.62136356659E+01  0.45872479876E+02  0.00000000000E+00 0.  1.
<scales pt_clust_5="13000.00000" pt_clust_6="13000.00000" pt_clust_7="13000.00000" pt_clust_8="13000.00000" pt_clust_9="91.47401" pt_clust_10="13000.00000"></scales>
<clustering>
<clus scale="   89.038">  7  8 -1 -1</clus>
<clus scale="   91.474">  2  9  1 -1</clus>
<clus scale="   92.111">  5  6 -1 -1</clus>
<clus scale="   35.469">  5 10 -1 -1</clus>
<clus scale="  180.639">  1  7  2 -1</clus>
<clus scale="   91.474">  2  5  1 -1</clus>
</clustering>
</event>
<event>
10    2  0.5692308E-006  0.2784097E+03  0.7546771E-02  0.1106615E+00
          1   -1    0    0  503    0 -0.00000000000E+00  0.00000000000E+00  0.35768145541E+03  0.35768145541E+03  0.00000000000E+00 0. -1.
         21   -1    0    0  501  502  0.00000000000E+00 -0.00000000000E+00 -0.20494002970E+03  0.20494002970E+03  0.00000000000E+00 0. -1.
         23    2    1    2    0    0  0.11858693053E+03 -0.12835970344E+03  0.32705322787E+02  0.19977784331E+03  0.91117917992E+02 0.  0.
         23    2    1    2    0    0 -0.88115378765E+02 -0.89244977223E+01  0.44975795228E+02  0.11892639983E+03  0.65396481455E+02 0.  0.
        -11    1    3    3    0    0  0.42777120215E+02 -0.11145626124E+03  0.21453244921E+02  0.12129559720E+03  0.00000000000E+00 0. -1.
         11    1    3    3    0    0  0.75809810314E+02 -0.16903442208E+02  0.11252077866E+02  0.78482246111E+02  0.00000000000E+00 0.  1.
        -11    1    4    4    0    0 -0.67850982248E+02  0.21973963979E+02  0.39628748670E+02  0.81590738482E+02  0.00000000000E+00 0.  1.
         11    1    4    4    0    0 -0.20264396518E+02 -0.30898461701E+02  0.53470465579E+01  0.37335661352E+02  0.00000000000E+00 0. -1.
         21    1    1    2  503  502  0.18422946448E+02 -0.41734022963E+02  0.64903140983E+01  0.46078821660E+02  0.00000000000E+00 0. -1.
          1    1    1    2  501    0 -0.48894498211E+02  0.17901822413E+03  0.68569993607E+02  0.19783842030E+03  0.00000000000E+00 0. -1.
<scales pt_clust_5="13000.00000" pt_clust_6="13000.00000" pt_clust_7="13000.00000" pt_clust_8="13000.00000" pt_clust_9="45.61944" pt_clust_10="13000.00000"></scales>
<clustering>
<clus scale="   45.619">  2  9  1 -1</clus>
<clus scale="   65.396">  7  8 -1 -1</clus>
<clus scale="   91.118">  5  6 -1 -1</clus>
<clus scale="  169.843">  7 10 -1 -1</clus>
<clus scale="  214.641">  1  5  2 -1</clus>
<clus scale="   45.619">  2  5  1 -1</clus>
</clustering>
</event>
<event>
10    2  0.5692308E-006  0.4012170E+03  0.7546771E-02  0.1052229E+00
          1   -1    0    0  503    0 -0.00000000000E+00  0.00000000000E+00  0.89683272612E+03  0.89683272612E+03  0.00000000000E+00 0. -1.
         21   -1    0    0  501  502  0.00000000000E+00 -0.00000000000E+00 -0.22794966638E+03  0.22794966638E+03  0.00000000000E+00 0.  1.
         23    2    1    2    0    0  0.69213549082E+02  0.28060794710E+03  0.66045754642E+02  0.30992830591E+03  0.90344771535E+02 0.  0.
         23    2    1    2    0    0 -0.20673684845E+02  0.12910594434E+02  0.12259730147E+03  0.15441961743E+03  0.90671027498E+02 0.  0.
        -13    1    3    3    0    0  0.70268287167E+02  0.23877603958E+03  0.23105581675E+02  0.24997099264E+03  0.00000000000E+00 0.  1.
         13    1    3    3    0    0 -0.10547380848E+01  0.41831907518E+02  0.42940172967E+02  0.59957313261E+02  0.00000000000E+00 0. -1.
        -13    1    4    4    0    0  0.19951840117E+02 -0.81266545129E+01 -0.20510407500E+01  0.21640822669E+02  0.00000000000E+00 0.  1.
         13    1    4    4    0    0 -0.40625524962E+02  0.21037248947E+02  0.12464834222E+03  0.13277879477E+03  0.00000000000E+00 0. -1.
         21    1    1    2  503  502  0.25198704977E+02  0.64622298968E+01 -0.44484441396E+02  0.51532520548E+02  0.00000000000E+00 0. -1.
          1    1    1    2  501    0 -0.73738569214E+02 -0.29998077143E+03  0.52472444503E+03  0.60890194862E+03  0.00000000000E+00 0. -1.
<scales pt_clust_5="13000.00000" pt_clust_6="13000.00000" pt_clust_7="13000.00000" pt_clust_8="13000.00000" pt_clust_9="26.01413" pt_clust_10="13000.00000"></scales>
<clustering>
<clus scale="   26.014">  2  9  1 -1</clus>
<clus scale="   90.345">  5  6 -1 -1</clus>
<clus scale="   90.671">  7  8 -1 -1</clus>
<clus scale="  306.083">  7 10 -1 -1</clus>
<clus scale="  311.169">  1  5  2 -1</clus>
<clus scale="   26.014">  2  5  1 -1</clus>
</clustering>
</event>
<event>
10    2  0.5692308E-006  0.3245367E+03  0.7546771E-02  0.1115688E+00
         21   -1    0    0  501  502  0.00000000000E+00  0.00000000000E+00  0.12881037928E+03  0.12881037928E+03  0.00000000000E+00 0. -1.
          2   -1    0    0  503    0 -0.00000000000E+00 -0.00000000000E+00 -0.13142262453E+04  0.13142262453E+04  0.00000000000E+00 0. -1.
         23    2    1    2    0    0 -0.22882469881E+02 -0.53287042936E+02 -0.36661864453E+03  0.38208284416E+03  0.90636377423E+02 0.  0.
         23    2    1    2    0    0 -0.16013946208E+03  0.80847208042E+02 -0.83289481782E+03  0.85659563493E+03  0.88664456631E+02 0.  0.
        -13    1    4    4    0    0 -0.72488016303E+02  0.85190722730E+02 -0.49620646469E+03  0.50865786866E+03  0.00000000000E+00 0. -1.
         13    1    4    4    0    0 -0.87651445781E+02 -0.43435146881E+01 -0.33668835313E+03  0.34793776627E+03  0.00000000000E+00 0.  1.
        -13    1    3    3    0    0  0.22073218148E+02 -0.12823225284E+02 -0.27143853355E+02  0.37261922133E+02  0.00000000000E+00 0.  1.
         13    1    3    3    0    0 -0.44955688028E+02 -0.40463817652E+02 -0.33947479117E+03  0.34482092202E+03  0.00000000000E+00 0. -1.
         21    1    1    2  503  502  0.13739174419E+03  0.24926913335E+01  0.41076680939E+02  0.14342244803E+03  0.00000000000E+00 0. -1.
          2    1    1    2  501    0  0.45630187776E+02 -0.30052856440E+02 -0.26979084574E+02  0.60935697429E+02  0.00000000000E+00 0. -1.
<scales pt_clust_5="13000.00000" pt_clust_6="13000.00000" pt_clust_7="13000.00000" pt_clust_8="13000.00000" pt_clust_9="136.14649" pt_clust_10="13000.00000"></scales>
<clustering>
<clus scale="   88.664">  5  6 -1 -1</clus>
<clus scale="   54.638">  5 10 -1 -1</clus>
<clus scale="   90.636">  7  8 -1 -1</clus>
<clus scale="  107.601">  2  7  1 -1</clus>
<clus scale="  136.146">  1  9  2 -1</clus>
<clus scale="  136.146">  1  5  2 -1</clus>
</clustering>
</event>
<event>
10    2  0.5692308E-006  0.6427412E+03  0.7546771E-02  0.1043811E+00
          1   -1    0    0  502    0 -0.00000000000E+00  0.00000000000E+00  0.12384504772E+04  0.12384504772E+04  0.00000000000E+00 0. -1.
         21   -1    0    0  503  502  0.00000000000E+00 -0.00000000000E+00 -0.18897334764E+03  0.18897334764E+03  0.00000000000E+00 0. -1.
         23    2    1    2    0    0 -0.26681085426E+02 -0.23495172132E+02  0.32415097499E+03  0.33816031232E+03  0.89524515127E+02 0.  0.
         23    2    1    2    0    0  0.12956282258E+03  0.33566711348E+03  0.38239226642E+03  0.53286630177E+03  0.90904972796E+02 0.  0.
        -11    1    3    3    0    0 -0.29300161231E+01 -0.55374286611E+02  0.16282394453E+03  0.17200736474E+03  0.00000000000E+00 0.  1.
         11    1    3    3    0    0 -0.23751069303E+02  0.31879114479E+02  0.16132703046E+03  0.16615294759E+03  0.00000000000E+00 0. -1.
        -13    1    4    4    0    0  0.39670053810E+02  0.22510658632E+03  0.23941089236E+03  0.33100493011E+03  0.00000000000E+00 0. -1.
         13    1    4    4    0    0  0.89892768766E+02  0.11056052716E+03  0.14298137405E+03  0.20186137166E+03  0.00000000000E+00 0.  1.
         21    1    1    2  503  501  0.50096337146E+02 -0.88964610459E+02 -0.19646012934E+02  0.10397264416E+03  0.00000000000E+00 0. -1.
          1    1    1    2  501    0 -0.15297807430E+03 -0.22320733089E+03  0.36257990109E+03  0.45242456659E+03  0.00000000000E+00 0. -1.
<scales pt_clust_5="13000.00000" pt_clust_6="13000.00000" pt_clust_7="13000.00000" pt_clust_8="13000.00000" pt_clust_9="102.45544" pt_clust_10="13000.00000"></scales>
<clustering>
<clus scale="   89.525">  5  6 -1 -1</clus>
<clus scale="   90.905">  7  8 -1 -1</clus>
<clus scale="   96.325">  1  5  2 -1</clus>
<clus scale="  102.455">  2  9  1 -1</clus>
<clus scale="  308.053">  7 10 -1 -1</clus>
<clus scale="  102.455">  2  5  1 -1</clus>
</clustering>
</event>
<event>
10    2  0.5692308E-006  0.6953924E+03  0.7546771E-02  0.1019317E+00
         21   -1    0    0  501  502  0.00000000000E+00  0.00000000000E+00  0.23912845731E+03  0.23912845731E+03  0.00000000000E+00 0. -1.
          1   -1    0    0  503    0 -0.00000000000E+00 -0.00000000000E+00 -0.10905385066E+04  0.10905385066E+04  0.00000000000E+00 0. -1.
         23    2    1    2    0    0  0.66278820883E+02  0.10652212118E+03 -0.36167510863E+03  0.39370151837E+03  0.91935613155E+02 0.  0.
         23    2    1    2    0    0  0.74963940881E+02  0.79593507365E+02 -0.60339352836E+03  0.61983199359E+03  0.90295245562E+02 0.  0.
        -11    1    4    4    0    0  0.90192371622E+01 -0.19932573239E+02 -0.11451317802E+03  0.11658439885E+03  0.00000000000E+00 0.  1.
         11    1    4    4    0    0  0.65944703719E+02  0.99526080605E+02 -0.48888035034E+03  0.50324759474E+03  0.00000000000E+00 0. -1.
        -13    1    3    3    0    0 -0.22595823587E+02  0.18963057168E+02 -0.90898683493E+02  0.95565367375E+02  0.00000000000E+00 0.  1.
         13    1    3    3    0    0  0.88874644470E+02  0.87559064010E+02 -0.27077642514E+03  0.29813615099E+03  0.00000000000E+00 0. -1.
         21    1    1    2  503  502  0.28876021862E+00  0.24651426710E+02  0.47908910949E+02  0.53879866087E+02  0.00000000000E+00 0. -1.
          1    1    1    2  501    0 -0.14153152198E+03 -0.21076705525E+03  0.65749676757E+02  0.26225358584E+03  0.00000000000E+00 0. -1.
<scales pt_clust_5="13000.00000" pt_clust_6="13000.00000" pt_clust_7="13000.00000" pt_clust_8="13000.00000" pt_clust_9="24.65312" pt_clust_10="13000.00000"></scales>
<clustering>
<clus scale="   24.653">  1  9  2 -1</clus>
<clus scale="   90.295">  5  6 -1 -1</clus>
<clus scale="   91.936">  7  8 -1 -1</clus>
<clus scale="  156.992">  2  7  1 -1</clus>
<clus scale="  220.408">  5 10 -1 -1</clus>
<clus scale="   24.653">  1  5  2 -1</clus>
</clustering>
</event>
<event>
10    2  0.5692308E-006  0.1678021E+03  0.7546771E-02  0.1205669E+00
         21   -1    0    0  501  502  0.00000000000E+00  0.00000000000E+00  0.14780458464E+03  0.14780458464E+03  0.00000000000E+00 0. -1.
          1   -1    0    0  503    0 -0.00000000000E+00 -0.00000000000E+00 -0.48711779437E+03  0.48711779437E+03  0.00000000000E+00 0. -1.
         23    2    1    2    0    0 -0.12736748337E+02 -0.20590530964E+02 -0.30923889600E+03  0.32338230717E+03  0.91439745569E+02 0.  0.
         23    2    1    2    0    0  0.66128967979E+01  0.50398954273E+02 -0.14439318246E+03  0.17843278234E+03  0.91679232524E+02 0.  0.
        -11    1    3    3    0    0 -0.26230374963E+02 -0.52361632835E+02 -0.22111767160E+03  0.22874177113E+03  0.00000000000E+00 0.  1.
         11    1    3    3    0    0  0.13493626626E+02  0.31771101871E+02 -0.88121224401E+02  0.94640536048E+02  0.00000000000E+00 0. -1.
        -13    1    4    4    0    0  0.28332528696E+02  0.14622397675E+02 -0.42402839646E+01  0.32164059199E+02  0.00000000000E+00 0.  1.
         13    1    4    4    0    0 -0.21719631898E+02  0.35776556598E+02 -0.14015289850E+03  0.14626872314E+03  0.00000000000E+00 0. -1.
         21    1    1    2  503  502 -0.20875552885E+02 -0.24005766745E+02  0.92787255765E+02  0.98089450899E+02  0.00000000000E+00 0. -1.
          1    1    1    2  501    0  0.26999404424E+02 -0.58026565630E+01  0.21531612969E+02  0.35017838589E+02  0.00000000000E+00 0. -1.
<scales pt_clust_5="13000.00000" pt_clust_6="13000.00000" pt_clust_7="13000.00000" pt_clust_8="13000.00000" pt_clust_9="31.81298" pt_clust_10="13000.00000"></scales>
<clustering>
<clus scale="   31.813">  1  9  2 -1</clus>
<clus scale="   91.440">  5  6 -1 -1</clus>
<clus scale="   91.679">  7  8 -1 -1</clus>
<clus scale="   24.484">  7 10 -1 -1</clus>
<clus scale="   95.766">  2  5  1 -1</clus>
<clus scale="   31.813">  1  5  2 -1</clus>
</clustering>
</event>
<event>
10    2  0.5692308E-006  0.5397244E+03  0.7546771E-02  0.1048956E+00
         -1   -1    0    0    0  501 -0.00000000000E+00  0.00000000000E+00  0.85899028490E+03  0.85899028490E+03  0.00000000000E+00 0.  1.
         21   -1    0    0  503  502  0.00000000000E+00 -0.00000000000E+00 -0.35651847232E+03  0.35651847232E+03  0.00000000000E+00 0.  1.
         23    2    1    2    0    0  0.36626720114E+01  0.97916732491E+02  0.21598746332E+03  0.25756711204E+03  0.10044466749E+03 0.  0.
         23    2    1    2    0    0  0.38880028205E+02  0.80284116454E+01  0.49555940346E+03  0.50554210168E+03  0.91747382638E+02 0.  0.
        -11    1    4    4    0    0  0.63421682623E+02 -0.15700682825E+02  0.34859016348E+03  0.35466029288E+03  0.00000000000E+00 0.  1.
         11    1    4    4    0    0 -0.24541654417E+02  0.23729094471E+02  0.14696923998E+03  0.15088180880E+03  0.00000000000E+00 0. -1.
        -13    1    3    3    0    0 -0.31037725973E+02  0.96970694470E+02  0.18435750151E+03  0.21060471120E+03  0.00000000000E+00 0. -1.
         13    1    3    3    0    0  0.34700397985E+02  0.94603802094E+00  0.31629961811E+02  0.46962400837E+02  0.00000000000E+00 0.  1.
         21    1    1    2  503  501 -0.11090125352E+03  0.10288242985E+03 -0.17285775210E+03  0.22970347160E+03  0.00000000000E+00 0.  1.
         -1    1    1    2    0  502  0.68358553304E+02 -0.20882757399E+03 -0.36217302104E+02  0.22269607190E+03  0.00000000000E+00 0.  1.
<scales pt_clust_5="13000.00000" pt_clust_6="13000.00000" pt_clust_7="13000.00000" pt_clust_8="13000.00000" pt_clust_9="154.23088" pt_clust_10="13000.00000"></scales>
<clustering>
<clus scale="   91.747">  5  6 -1 -1</clus>
<clus scale="  100.445">  7  8 -1 -1</clus>
<clus scale="  140.322">  1  7  2 -1</clus>
<clus scale="  154.231">  2  9  1 -1</clus>
<clus scale="  110.485">  5 10 -1 -1</clus>
<clus scale="  154.231">  2  5  1 -1</clus>
</clustering>
</event>
<event>
10    2  0.5692308E-006  0.3881446E+03  0.7546771E-02  0.1078604E+00
          1   -1    0    0  503    0 -0.00000000000E+00  0.00000000000E+00  0.39998697313E+03  0.39998697313E+03  0.00000000000E+00 0. -1.
         21   -1    0    0  501  502  0.00000000000E+00 -0.00000000000E+00 -0.43025900315E+03  0.43025900315E+03  0.00000000000E+00 0. -1.
         23    2    1    2    0    0 -0.14631756369E+02  0.12625757742E+03  0.65743231229E+02  0.17047882348E+03  0.92659552408E+02 0.  0.
         23    2    1    2    0    0  0.25325812000E+02 -0.41819939403E+02  0.23844950269E+03  0.25932458949E+03  0.89447041827E+02 0.  0.
        -11    1    4    4    0    0  0.49923610139E+02 -0.16632380598E+01  0.82731904520E+02  0.96642129715E+02  0.00000000000E+00 0. -1.
         11    1    4    4    0    0 -0.24597798140E+02 -0.40156701344E+02  0.15571759817E+03  0.16268245977E+03  0.00000000000E+00 0.  1.
        -13    1    3    3    0    0 -0.41499069323E+02  0.20630975332E+02  0.32240191485E+02  0.56455644933E+02  0.00000000000E+00 0. -1.
         13    1    3    3    0    0  0.26867312954E+02  0.10562660209E+03  0.33503039744E+02  0.11402317855E+03  0.00000000000E+00 0.  1.
         21    1    1    2  503  502  0.20416171039E+02  0.39404584251E+02 -0.23344078198E+03  0.23762184241E+03  0.00000000000E+00 0. -1.
          1    1    1    2  501    0 -0.31110226670E+02 -0.12384222227E+03 -0.10102398197E+03  0.16282072089E+03  0.00000000000E+00 0. -1.
<scales pt_clust_5="13000.00000" pt_clust_6="13000.00000" pt_clust_7="13000.00000" pt_clust_8="13000.00000" pt_clust_9="44.37951" pt_clust_10="13000.00000"></scales>
<clustering>
<clus scale="   44.380">  2  9  1 -1</clus>
<clus scale="   89.447">  5  6 -1 -1</clus>
<clus scale="   92.660">  7  8 -1 -1</clus>
<clus scale="   98.671">  5 10 -1 -1</clus>
<clus scale="  165.525">  1  7  2 -1</clus>
<clus scale="   44.380">  2  5  1 -1</clus>
</clustering>
</event>
<event>
10    2  0.5692308E-006  0.3266115E+03  0.7546771E-02  0.1120897E+00
         -1   -1    0    0    0  501 -0.00000000000E+00  0.00000000000E+00  0.35198563540E+03  0.35198563540E+03  0.00000000000E+00 0.  1.
         21   -1    0    0  503  502  0.00000000000E+00 -0.00000000000E+00 -0.27920218812E+03  0.27920218812E+03  0.00000000000E+00 0.  1.
         23    2    1    2    0    0 -0.11130907616E+02  0.50654426523E+02 -0.13362616027E+03  0.17020712658E+03  0.91786421650E+02 0.  0.
         23    2    1    2    0    0 -0.37553291330E+02  0.41942395694E+02 -0.74313952737E+02  0.13059945851E+03  0.91456223107E+02 0.  0.
        -11    1    4    4    0    0 -0.36374166582E+01  0.61084187220E+02 -0.21248307390E+02  0.64776533523E+02  0.00000000000E+00 0. -1.
         11    1    4    4    0    0 -0.33915874672E+02 -0.19141791526E+02 -0.53065645347E+02  0.65822924986E+02  0.00000000000E+00 0.  1.
        -11    1    3    3    0    0 -0.30291311877E+02  0.18483604641E+02 -0.12739872875E+03  0.13224841512E+03  0.00000000000E+00 0.  1.
         11    1    3    3    0    0  0.19160404261E+02  0.32170821882E+02 -0.62274315195E+01  0.37958711455E+02  0.00000000000E+00 0. -1.
         21    1    1    2  503  501 -0.20802289927E+01 -0.82709183735E+02  0.56296579663E+02  0.10007218049E+03  0.00000000000E+00 0.  1.
         -1    1    1    2    0  502  0.50764427939E+02 -0.98876384823E+01  0.22442698062E+03  0.23030905794E+03  0.00000000000E+00 0.  1.
<scales pt_clust_5="13000.00000" pt_clust_6="13000.00000" pt_clust_7="13000.00000" pt_clust_8="13000.00000" pt_clust_9="82.73538" pt_clust_10="13000.00000"></scales>
<clustering>
<clus scale="   82.735">  2  9  1 -1</clus>
<clus scale="   91.456">  5  6 -1 -1</clus>
<clus scale="   51.884">  5 10 -1 -1</clus>
<clus scale="   91.786">  7  8 -1 -1</clus>
<clus scale="   92.633">  1  7  2 -1</clus>
<clus scale="   82.735">  2  5  1 -1</clus>
</clustering>
</event>
<event>
10    2  0.5692308E-006  0.2689270E+03  0.7546771E-02  0.1107984E+00
          1   -1    0    0  503    0 -0.00000000000E+00  0.00000000000E+00  0.12302385163E+04  0.12302385163E+04  0.00000000000E+00 0. -1.
         21   -1    0    0  501  502  0.00000000000E+00 -0.00000000000E+00 -0.14490842812E+03  0.14490842812E+03  0.00000000000E+00 0. -1.
         23    2    1    2    0    0 -0.14247228620E+03  0.18378218553E+03  0.69438548893E+03  0.73762305018E+03  0.88556834050E+02 0.  0.
         23    2    1    2    0    0  0.67039402450E+02 -0.37702100649E+02  0.12068338345E+03  0.16890553820E+03  0.89715505462E+02 0.  0.
        -11    1    4    4    0    0 -0.76968658187E+01  0.18853084248E+02  0.69191401728E+01  0.21507092547E+02  0.00000000000E+00 0. -1.
         11    1    4    4    0    0  0.74736268269E+02 -0.56555184897E+02  0.11376424327E+03  0.14739844565E+03  0.00000000000E+00 0.  1.
        -13    1    3    3    0    0 -0.91272824360E+02  0.91166587359E+02  0.25627638531E+03  0.28691403031E+03  0.00000000000E+00 0.  1.
         13    1    3    3    0    0 -0.51199461841E+02  0.92615598168E+02  0.43810910362E+03  0.45070901987E+03  0.00000000000E+00 0. -1.
         21    1    1    2  503  502 -0.58032649623E+02 -0.13458479779E+03 -0.20969070052E+02  0.14805592902E+03  0.00000000000E+00 0. -1.
          1    1    1    2  501    0  0.13346553337E+03 -0.11495287090E+02  0.29123028581E+03  0.32056242699E+03  0.00000000000E+00 0. -1.
<scales pt_clust_5="13000.00000" pt_clust_6="13000.00000" pt_clust_7="13000.00000" pt_clust_8="13000.00000" pt_clust_9="146.56349" pt_clust_10="13000.00000"></scales>
<clustering>
<clus scale="   88.557">  7  8 -1 -1</clus>
<clus scale="   89.716">  5  6 -1 -1</clus>
<clus scale="  133.960">  5 10 -1 -1</clus>
<clus scale="  146.563">  2  9  1 -1</clus>
<clus scale="  229.958">  1  7  2 -1</clus>
<clus scale="  146.563">  2  5  1 -1</clus>
</clustering>
</event>
<event>
10    2  0.5692308E-006  0.2317368E+03  0.7546771E-02  0.1148517E+00
         21   -1    0    0  501  502  0.00000000000E+00  0.00000000000E+00  0.69724532012E+02  0.69724532012E+02  0.00000000000E+00 0.  1.
          2   -1    0    0  503    0 -0.00000000000E+00 -0.00000000000E+00 -0.90896086015E+03  0.90896086015E+03  0.00000000000E+00 0. -1.
         23    2    1    2    0    0 -0.75057814728E+02  0.58493804253E+02 -0.30401569033E+03  0.33210805152E+03  0.93888323194E+02 0.  0.
         23    2    1    2    0    0  0.65237339410E+02 -0.92769205672E+01 -0.51728184114E+03  0.52914881459E+03  0.89866529346E+02 0.  0.
        -11    1    3    3    0    0 -0.82950705836E+02  0.28328068561E+02 -0.27802429408E+03  0.29151467745E+03  0.00000000000E+00 0. -1.
         11    1    3    3    0    0  0.78928911076E+01  0.30165735693E+02 -0.25991396243E+02  0.40593374072E+02  0.00000000000E+00 0.  1.
        -13    1    4    4    0    0  0.62398570700E+02  0.31843600058E+02 -0.33930037572E+03  0.34645683924E+03  0.00000000000E+00 0.  1.
         13    1    4    4    0    0  0.28387687103E+01 -0.41120520625E+02 -0.17798146542E+03  0.18269197535E+03  0.00000000000E+00 0. -1.
         21    1    1    2  503  502  0.19639505648E+02  0.15263895019E+02  0.28149258071E+02  0.37564310231E+02  0.00000000000E+00 0.  1.
          2    1    1    2  501    0 -0.98190303292E+01 -0.64480778705E+02 -0.46088054738E+02  0.79864215820E+02  0.00000000000E+00 0. -1.
<scales pt_clust_5="13000.00000" pt_clust_6="13000.00000" pt_clust_7="13000.00000" pt_clust_8="13000.00000" pt_clust_9="24.87361" pt_clust_10="13000.00000"></scales>
<clustering>
<clus scale="   24.874">  1  9  2 -1</clus>
<clus scale="   89.867">  7  8 -1 -1</clus>
<clus scale="   57.495">  7 10 -1 -1</clus>
<clus scale="   93.888">  5  6 -1 -1</clus>
<clus scale="  132.352">  2  5  1 -1</clus>
<clus scale="   24.874">  1  5  2 -1</clus>
</clustering>
</event>
<event>
10    2  0.5692308E-006  0.5337966E+03  0.7546771E-02  0.1055040E+00
         21   -1    0    0  503  502  0.00000000000E+00  0.00000000000E+00  0.51489763908E+03  0.51489763908E+03  0.00000000000E+00 0.  1.
         -1   -1    0    0    0  501 -0.00000000000E+00 -0.00000000000E+00 -0.49276990347E+03  0.49276990347E+03  0.00000000000E+00 0.  1.
         23    2    1    2    0    0 -0.85353882295E+01  0.82498139593E+02  0.43266744158E+02  0.13279337700E+03  0.94251121672E+02 0.  0.
         23    2    1    2    0    0 -0.85271445091E+02 -0.77510673202E+02 -0.40633482535E+03  0.43223833310E+03  0.91885050436E+02 0.  0.
        -13    1    4    4    0    0 -0.76247169124E+02 -0.79176117459E+01 -0.23071975761E+03  0.24312121653E+03  0.00000000000E+00 0.  1.
         13    1    4    4    0    0 -0.90242759669E+01 -0.69593061456E+02 -0.17561506774E+03  0.18911711657E+03  0.00000000000E+00 0. -1.
        -13    1    3    3    0    0 -0.33588600383E+02  0.75394457385E+02  0.28500797502E+00  0.82538472906E+02  0.00000000000E+00 0.  1.
         13    1    3    3    0    0  0.25053212154E+02  0.71036822076E+01  0.42981736182E+02  0.50254904093E+02  0.00000000000E+00 0. -1.
         21    1    1    2  503  501 -0.31626865877E+02 -0.21282294576E+02  0.26638460281E+03  0.26909840453E+03  0.00000000000E+00 0.  1.
         -1    1    1    2    0  502  0.12543369920E+03  0.16294828185E+02  0.11881121400E+03  0.17353742792E+03  0.00000000000E+00 0.  1.
<scales pt_clust_5="13000.00000" pt_clust_6="13000.00000" pt_clust_7="13000.00000" pt_clust_8="13000.00000" pt_clust_9="38.12079" pt_clust_10="13000.00000"></scales>
<clustering>
<clus scale="   38.121">  1  9  2 -1</clus>
<clus scale="   91.885">  5  6 -1 -1</clus>
<clus scale="   94.251">  7  8 -1 -1</clus>
<clus scale="  106.793">  5 10 -1 -1</clus>
<clus scale="  122.017">  2  7  1 -1</clus>
<clus scale="   38.121">  1  5  2 -1</clus>
</clustering>
</event>
<event>
10    2  0.5692308E-006  0.1585138E+03  0.7546771E-02  0.1206017E+00
         -1   -1    0    0    0  501 -0.00000000000E+00  0.00000000000E+00  0.10617223354E+03  0.10617223354E+03  0.00000000000E+00 0.  1.
         21   -1    0    0  503  502  0.00000000000E+00 -0.00000000000E+00 -0.22604090277E+03  0.22604090277E+03  0.00000000000E+00 0. -1.
         23    2    1    2    0    0 -0.64577873021E+02 -0.37102947800E+02  0.45810864169E+01  0.11453733157E+03  0.86895820095E+02 0.  0.
         23    2    1    2    0    0  0.38250277062E+02  0.15333199010E+02 -0.34587821445E+02  0.10613709510E+03  0.91490845865E+02 0.  0.
        -11    1    4    4    0    0 -0.16743796619E+02 -0.19013245987E+02 -0.32575145255E+02  0.41267400410E+02  0.00000000000E+00 0. -1.
         11    1    4    4    0    0  0.54994073681E+02  0.34346444997E+02 -0.20126761895E+01  0.64869694692E+02  0.00000000000E+00 0.  1.
        -11    1    3    3    0    0 -0.33100162451E+02 -0.49083020457E+02 -0.29911416825E+02  0.66328398955E+02  0.00000000000E+00 0.  1.
         11    1    3    3    0    0 -0.31477710570E+02  0.11980072656E+02  0.34492503242E+02  0.48208932611E+02  0.00000000000E+00 0. -1.
         21    1    1    2  503  501  0.18412039936E+02 -0.10652516136E+02 -0.73050114588E+01  0.22490942778E+02  0.00000000000E+00 0. -1.
         -1    1    1    2    0  502  0.79155560237E+01  0.32422264926E+02 -0.82556922747E+02  0.89047766865E+02  0.00000000000E+00 0.  1.
<scales pt_clust_5="13000.00000" pt_clust_6="13000.00000" pt_clust_7="13000.00000" pt_clust_8="13000.00000" pt_clust_9="21.27157" pt_clust_10="13000.00000"></scales>
<clustering>
<clus scale="   21.272">  2  9  1 -1</clus>
<clus scale="   86.896">  7  8 -1 -1</clus>
<clus scale="   91.491">  5  6 -1 -1</clus>
<clus scale="   32.036">  5 10 -1 -1</clus>
<clus scale="  112.761">  1  7  2 -1</clus>
<clus scale="   21.272">  2  5  1 -1</clus>
</clustering>
</event>
<event>
10    2  0.5692308E-006  0.7110091E+03  0.7546771E-02  0.1025279E+00
         21   -1    0    0  503  502  0.00000000000E+00  0.00000000000E+00  0.38988677632E+03  0.38988677632E+03  0.00000000000E+00 0.  1.
          1   -1    0    0  502    0 -0.00000000000E+00 -0.00000000000E+00 -0.19120962700E+04  0.19120962700E+04  0.00000000000E+00 0. -1.
         23    2    1    2    0    0  0.15443040938E+02  0.80355240830E+02 -0.19274309189E+03  0.22849735396E+03  0.91464140795E+02 0.  0.
         23    2    1    2    0    0 -0.22458724807E+02 -0.18058702531E+03 -0.19919064065E+03  0.28406108799E+03  0.88869130517E+02 0.  0.
        -13    1    3    3    0    0 -0.23532063477E+02  0.59916128332E+02 -0.16334754148E+03  0.17557368753E+03  0.00000000000E+00 0. -1.
         13    1    3    3    0    0  0.38975104415E+02  0.20439112497E+02 -0.29395550408E+02  0.52923666423E+02  0.00000000000E+00 0.  1.
        -13    1    4    4    0    0  0.24428613889E+02 -0.91140859502E+02 -0.59010033280E+02  0.11129059922E+03  0.00000000000E+00 0.  1.
         13    1    4    4    0    0 -0.46887338696E+02 -0.89446165805E+02 -0.14018060737E+03  0.17277048877E+03  0.00000000000E+00 0. -1.
         21    1    1    2  503  501  0.43541626783E+03 -0.73165778506E+02  0.11910511873E+03  0.45730360456E+03  0.00000000000E+00 0.  1.
          1    1    1    2  501    0 -0.42840058396E+03  0.17339756298E+03 -0.12493808798E+04  0.13321209998E+04  0.00000000000E+00 0. -1.
<scales pt_clust_5="13000.00000" pt_clust_6="13000.00000" pt_clust_7="13000.00000" pt_clust_8="13000.00000" pt_clust_9="441.78573" pt_clust_10="13000.00000"></scales>
<clustering>
<clus scale="   88.869">  7  8 -1 -1</clus>
<clus scale="   91.464">  5  6 -1 -1</clus>
<clus scale="  122.724">  2  5  1 -1</clus>
<clus scale="  441.786">  1  9  2 -1</clus>
<clus scale="  271.179">  7 10 -1 -1</clus>
<clus scale="  441.786">  1  5  2 -1</clus>
</clustering>
</event>
<event>
10    2  0.5692308E-006  0.3548647E+03  0.7546771E-02  0.1101362E+00
         21   -1    0    0  501  502  0.00000000000E+00  0.00000000000E+00  0.35729133618E+03  0.35729133618E+03  0.00000000000E+00 0.  1.
         -4   -1    0    0    0  501 -0.00000000000E+00 -0.00000000000E+00 -0.35939125180E+03  0.35939125180E+03  0.00000000000E+00 0.  1.
         23    2    1    2    0    0  0.51322471968E+02  0.32219081305E+02 -0.66926923509E+02  0.13371794521E+03  0.98636760143E+02 0.  0.
         23    2    1    2    0    0  0.72456909782E+02  0.46517526131E+02 -0.16386766024E+03  0.20668637865E+03  0.91938920130E+02 0.  0.
        -13    1    3    3    0    0  0.37284360197E+00  0.42473889320E+02  0.73070595554E+01  0.43099459459E+02  0.00000000000E+00 0.  1.
         13    1    3    3    0    0  0.50949628366E+02 -0.10254808015E+02 -0.74233983065E+02  0.90618485751E+02  0.00000000000E+00 0. -1.
        -13    1    4    4    0    0 -0.21849263604E+02  0.72511217744E+01 -0.39759388427E+02  0.45943204668E+02  0.00000000000E+00 0. -1.
         13    1    4    4    0    0  0.94306173387E+02  0.39266404357E+02 -0.12410827182E+03  0.16074317399E+03  0.00000000000E+00 0.  1.
         21    1    1    2  503  502  0.58515780744E+01  0.36631540164E+02  0.19626530487E+03  0.19974028286E+03  0.00000000000E+00 0.  1.
         -4    1    1    2    0  503 -0.12963095983E+03 -0.11536814760E+03  0.32429363265E+02  0.17653798126E+03  0.00000000000E+00 0.  1.
<scales pt_clust_5="13000.00000" pt_clust_6="13000.00000" pt_clust_7="13000.00000" pt_clust_8="13000.00000" pt_clust_9="37.09597" pt_clust_10="13000.00000"></scales>
<clustering>
<clus scale="   37.096">  1  9  2 -1</clus>
<clus scale="   91.939">  7  8 -1 -1</clus>
<clus scale="   98.637">  5  6 -1 -1</clus>
<clus scale="  118.670">  2  5  1 -1</clus>
<clus scale="  139.840">  7 10 -1 -1</clus>
<clus scale="   37.096">  1  5  2 -1</clus>
</clustering>
</event>
<event>
10    2  0.5692308E-006  0.2727395E+03  0.7546771E-02  0.1117689E+00
          2   -1    0    0  502    0 -0.00000000000E+00  0.00000000000E+00  0.11556585291E+04  0.11556585291E+04  0.00000000000E+00 0. -1.
         21   -1    0    0  503  502  0.00000000000E+00 -0.00000000000E+00 -0.89331572060E+02  0.89331572060E+02  0.00000000000E+00 0.  1.
         23    2    1    2    0    0 -0.48572750832E+01 -0.10476725280E+03  0.99133801001E+02  0.16999586305E+03  0.89840484044E+02 0.  0.
         23    2    1    2    0    0  0.26784343943E+02 -0.11020921006E+02  0.46853325786E+03  0.47833328591E+03  0.91871959329E+02 0.  0.
        -13    1    3    3    0    0 -0.57824408561E+01 -0.40093448005E+02 -0.11264485926E+02  0.42045330756E+02  0.00000000000E+00 0.  1.
         13    1    3    3    0    0  0.92516577288E+00 -0.64673804799E+02  0.11039828693E+03  0.12795053230E+03  0.00000000000E+00 0. -1.
        -13    1    4    4    0    0 -0.19084834969E+02 -0.37558150557E+02  0.17066477494E+03  0.17578768730E+03  0.00000000000E+00 0.  1.
         13    1    4    4    0    0  0.45869178912E+02  0.26537229551E+02  0.29786848292E+03  0.30254559861E+03  0.00000000000E+00 0. -1.
         21    1    1    2  503  501 -0.23504384996E+02 -0.65297202512E+02  0.35696723526E+01  0.69490454961E+02  0.00000000000E+00 0.  1.
          2    1    1    2  501    0  0.15773161365E+01  0.18108537632E+03  0.49509022584E+03  0.52717049724E+03  0.00000000000E+00 0. -1.
<scales pt_clust_5="13000.00000" pt_clust_6="13000.00000" pt_clust_7="13000.00000" pt_clust_8="13000.00000" pt_clust_9="69.39871" pt_clust_10="13000.00000"></scales>
<clustering>
<clus scale="   69.399">  2  9  1 -1</clus>
<clus scale="   89.840">  5  6 -1 -1</clus>
<clus scale="   91.872">  7  8 -1 -1</clus>
<clus scale="  162.586">  7 10 -1 -1</clus>
<clus scale="  172.386">  1  5  2 -1</clus>
<clus scale="   69.399">  2  5  1 -1</clus>
</clustering>
</event>
<event>
10    2  0.5692308E-006  0.3041705E+03  0.7546771E-02  0.1115611E+00
         21   -1    0    0  501  502  0.00000000000E+00  0.00000000000E+00  0.17811758623E+03  0.17811758623E+03  0.00000000000E+00 0. -1.
          1   -1    0    0  503    0 -0.00000000000E+00 -0.00000000000E+00 -0.73481165968E+03  0.73481165968E+03  0.00000000000E+00 0. -1.
         23    2    1    2    0    0 -0.88925633348E+02 -0.35908603988E+02 -0.49347674942E+03  0.50988099720E+03  0.85218149368E+02 0.  0.
         23    2    1    2    0    0  0.58657093915E+02  0.14071444039E+02 -0.14047270653E+03  0.18832672741E+03  0.10998051997E+03 0.  0.
        -11    1    3    3    0    0 -0.22163403055E+02  0.27824734719E+02 -0.11947144972E+03  0.12465496217E+03  0.00000000000E+00 0.  1.
         11    1    3    3    0    0 -0.66762230293E+02 -0.63733338707E+02 -0.37400529971E+03  0.38522603503E+03  0.00000000000E+00 0. -1.
        -11    1    4    4    0    0  0.91565920401E+02  0.10900364522E+02 -0.10754630712E+03  0.14166631181E+03  0.00000000000E+00 0.  1.
         11    1    4    4    0    0 -0.32908826485E+02  0.31710795171E+01 -0.32926399407E+02  0.46660415599E+02  0.00000000000E+00 0. -1.
         21    1    1    2  503  502 -0.61536907161E+02 -0.25147458365E+02 -0.23533521901E+02  0.70519587763E+02  0.00000000000E+00 0. -1.
          1    1    1    2  501    0  0.91805446594E+02  0.46984618314E+02  0.10078890441E+03  0.14420193353E+03  0.00000000000E+00 0. -1.
<scales pt_clust_5="13000.00000" pt_clust_6="13000.00000" pt_clust_7="13000.00000" pt_clust_8="13000.00000" pt_clust_9="66.47696" pt_clust_10="13000.00000"></scales>
<clustering>
<clus scale="   66.477">  1  9  2 -1</clus>
<clus scale="   85.218">  5  6 -1 -1</clus>
<clus scale="  109.981">  7  8 -1 -1</clus>
<clus scale="   50.854">  7 10 -1 -1</clus>
<clus scale="  130.951">  2  5  1 -1</clus>
<clus scale="   66.477">  1  5  2 -1</clus>
</clustering>
</event>
<event>
10    2  0.5692308E-006  0.3588665E+03  0.7546771E-02  0.1096095E+00
          1   -1    0    0  503    0 -0.00000000000E+00  0.00000000000E+00  0.86797591662E+03  0.86797591662E+03  0.00000000000E+00 0. -1.
         21   -1    0    0  501  502  0.00000000000E+00 -0.00000000000E+00 -0.26505687063E+03  0.26505687063E+03  0.00000000000E+00 0.  1.
         23    2    1    2    0    0  0.41737176553E+01 -0.11028396353E+03  0.16706134076E+03  0.22016891576E+03  0.91569030576E+02 0.  0.
         23    2    1    2    0    0  0.37252892848E+02  0.12779432098E+03  0.63155231094E+03  0.65144325672E+03  0.88322300531E+02 0.  0.
        -11    1    4    4    0    0  0.23460904931E+02  0.17483069468E+01  0.39585138492E+02  0.46048385713E+02  0.00000000000E+00 0. -1.
         11    1    4    4    0    0  0.13791987917E+02  0.12604601403E+03  0.59196717245E+03  0.60539487100E+03  0.00000000000E+00 0.  1.
        -13    1    3    3    0    0  0.45815842245E+02 -0.54009233382E+02  0.63236388068E+02  0.94946982401E+02  0.00000000000E+00 0.  1.
         13    1    3    3    0    0 -0.41642124589E+02 -0.56274730149E+02  0.10382495269E+03  0.12522193336E+03  0.00000000000E+00 0. -1.
         21    1    1    2  503  502 -0.15366796269E+02  0.43343669756E+02 -0.18942268331E+03  0.19492502427E+03  0.00000000000E+00 0.  1.
          1    1    1    2  501    0 -0.26059814234E+02 -0.60854027202E+02 -0.62719223927E+01  0.66495590493E+02  0.00000000000E+00 0. -1.
<scales pt_clust_5="13000.00000" pt_clust_6="13000.00000" pt_clust_7="13000.00000" pt_clust_8="13000.00000" pt_clust_9="45.98709" pt_clust_10="13000.00000"></scales>
<clustering>
<clus scale="   45.987">  2  9  1 -1</clus>
<clus scale="   88.322">  5  6 -1 -1</clus>
<clus scale="   51.727">  5 10 -1 -1</clus>
<clus scale="   91.569">  7  8 -1 -1</clus>
<clus scale="  131.589">  1  7  2 -1</clus>
<clus scale="   45.987">  2  5  1 -1</clus>
</clustering>
</event>
<event>
10    2  0.5692308E-006  0.2923489E+03  0.7546771E-02  0.1093050E+00
         21   -1    0    0  501  502  0.00000000000E+00  0.00000000000E+00  0.13066353715E+03  0.13066353715E+03  0.00000000000E+00 0.  1.
          1   -1    0    0  503    0 -0.00000000000E+00 -0.00000000000E+00 -0.96465664778E+03  0.96465664778E+03  0.00000000000E+00 0. -1.
         23    2    1    2    0    0 -0.17711935963E+03 -0.15483860071E+03 -0.32965853222E+03  0.41687003306E+03  0.98790772713E+02 0.  0.
         23    2    1    2    0    0  0.13655949402E+03  0.55238354882E+02 -0.40528261430E+03  0.44142321776E+03  0.94343460102E+02 0.  0.
        -11    1    4    4    0    0  0.17698143749E+02  0.41050972712E+02 -0.52875387368E+02  0.69240257380E+02  0.00000000000E+00 0. -1.
         11    1    4    4    0    0  0.11886135027E+03  0.14187382170E+02 -0.35240722693E+03  0.37218296038E+03  0.00000000000E+00 0.  1.
        -13    1    3    3    0    0 -0.14194668315E+03 -0.16370867241E+03 -0.26101702585E+03  0.33923336815E+03  0.00000000000E+00 0.  1.
         13    1    3    3    0    0 -0.35172676478E+02  0.88700716986E+01 -0.68641506366E+02  0.77636664913E+02  0.00000000000E+00 0. -1.
         21    1    1    2  503  502 -0.61224514149E+02  0.53077644322E+02  0.89222304149E+01  0.81518609257E+02  0.00000000000E+00 0.  1.
          1    1    1    2  501    0  0.10178437976E+03  0.46522601504E+02 -0.10797419453E+03  0.15550832485E+03  0.00000000000E+00 0. -1.
<scales pt_clust_5="13000.00000" pt_clust_6="13000.00000" pt_clust_7="13000.00000" pt_clust_8="13000.00000" pt_clust_9="81.02887" pt_clust_10="13000.00000"></scales>
<clustering>
<clus scale="   81.029">  1  9  2 -1</clus>
<clus scale="   94.343">  5  6 -1 -1</clus>
<clus scale="   98.791">  7  8 -1 -1</clus>
<clus scale="  104.591">  5 10 -1 -1</clus>
<clus scale="  263.621">  2  7  1 -1</clus>
<clus scale="   81.029">  1  5  2 -1</clus>
</clustering>
</event>
<event>
10    2  0.5692308E-006  0.3819587E+03  0.7546771E-02  0.1056839E+00
         21   -1    0    0  501  502  0.00000000000E+00  0.00000000000E+00  0.11074644489E+03  0.11074644489E+03  0.00000000000E+00 0. -1.
          2   -1    0    0  503    0 -0.00000000000E+00 -0.00000000000E+00 -0.20006251851E+04  0.20006251851E+04  0.00000000000E+00 0. -1.
         23    2    1    2    0    0 -0.23295070232E+03  0.16491318052E+03 -0.11598123078E+04  0.11980189304E+04  0.92856779290E+02 0.  0.
         23    2    1    2    0    0  0.64183113747E+02 -0.55949792747E+01 -0.13666988747E+03  0.17618243378E+03  0.90613552795E+02 0.  0.
        -11    1    3    3    0    0 -0.14810633474E+03  0.10147634346E+03 -0.89447879663E+03  0.91231861336E+03  0.00000000000E+00 0. -1.
         11    1    3    3    0    0 -0.84844367582E+02  0.63436837053E+02 -0.26533351117E+03  0.28570031704E+03  0.00000000000E+00 0.  1.
        -11    1    4    4    0    0 -0.10775058612E+02 -0.28558997227E+02 -0.23554732131E+02  0.38555720930E+02  0.00000000000E+00 0.  1.
         11    1    4    4    0    0  0.74958172359E+02  0.22964017952E+02 -0.11311515533E+03  0.13762671285E+03  0.00000000000E+00 0. -1.
         21    1    1    2  503  502 -0.19834908503E+02  0.10054261559E+03 -0.73499978294E+02  0.12611299677E+03  0.00000000000E+00 0. -1.
          2    1    1    2  501    0  0.18860249708E+03 -0.25986081684E+03 -0.51989656667E+03  0.61105726906E+03  0.00000000000E+00 0. -1.
<scales pt_clust_5="13000.00000" pt_clust_6="13000.00000" pt_clust_7="13000.00000" pt_clust_8="13000.00000" pt_clust_9="102.48044" pt_clust_10="13000.00000"></scales>
<clustering>
<clus scale="   90.614">  7  8 -1 -1</clus>
<clus scale="   92.857">  5  6 -1 -1</clus>
<clus scale="  102.480">  1  9  2 -1</clus>
<clus scale="  271.870">  7 10 -1 -1</clus>
<clus scale="  316.568">  2  5  1 -1</clus>
<clus scale="  102.480">  1  5  2 -1</clus>
</clustering>
</event>
<event>
10    2  0.5692308E-006  0.2703602E+03  0.7546771E-02  0.1117795E+00
          1   -1    0    0  503    0 -0.00000000000E+00  0.00000000000E+00  0.43007677467E+03  0.43007677467E+03  0.00000000000E+00 0. -1.
         21   -1    0    0  501  502  0.00000000000E+00 -0.00000000000E+00 -0.32954427220E+03  0.32954427220E+03  0.00000000000E+00 0.  1.
         23    2    1    2    0    0  0.24338742716E+02  0.14541235834E+03  0.27165461643E+03  0.32211561480E+03  0.90692393906E+02 0.  0.
         23    2    1    2    0    0 -0.46458999517E+02 -0.18929847719E+03 -0.94993592802E+01  0.21493809525E+03  0.90087706491E+02 0.  0.
        -11    1    4    4    0    0 -0.30101893106E+02 -0.14787594152E+03 -0.45557819329E+02  0.15763544320E+03  0.00000000000E+00 0.  1.
         11    1    4    4    0    0 -0.16357106412E+02 -0.41422535662E+02  0.36058460049E+02  0.57302652050E+02  0.00000000000E+00 0. -1.
        -13    1    3    3    0    0 -0.30373733310E+02  0.23007540058E+02  0.74688231113E+02  0.83846541023E+02  0.00000000000E+00 0.  1.
         13    1    3    3    0    0  0.54712476026E+02  0.12240481829E+03  0.19696638532E+03  0.23826907378E+03  0.00000000000E+00 0. -1.
         21    1    1    2  503  502 -0.49391566464E+02  0.37816202437E+02 -0.13004771401E+03  0.14415963348E+03  0.00000000000E+00 0.  1.
          1    1    1    2  501    0  0.71511823265E+02  0.60699164047E+01 -0.31575040664E+02  0.78407703351E+02  0.00000000000E+00 0. -1.
<scales pt_clust_5="13000.00000" pt_clust_6="13000.00000" pt_clust_7="13000.00000" pt_clust_8="13000.00000" pt_clust_9="62.20604" pt_clust_10="13000.00000"></scales>
<clustering>
<clus scale="   62.206">  2  9  1 -1</clus>
<clus scale="   90.088">  5  6 -1 -1</clus>
<clus scale="   59.827">  5 10 -1 -1</clus>
<clus scale="   90.692">  7  8 -1 -1</clus>
<clus scale="  176.509">  1  7  2 -1</clus>
<clus scale="   62.206">  2  5  1 -1</clus>
</clustering>
</event>
<event>
10    2  0.5692308E-006  0.6234601E+03  0.7546771E-02  0.1009995E+00
          1   -1    0    0  502    0 -0.00000000000E+00  0.00000000000E+00  0.38245466802E+03  0.38245466802E+03  0.00000000000E+00 0. -1.
         21   -1    0    0  503  502  0.00000000000E+00 -0.00000000000E+00 -0.10304635281E+04  0.10304635281E+04  0.00000000000E+00 0. -1.
         23    2    1    2    0    0  0.21513543027E+03 -0.13308757526E+03  0.18455161673E+02  0.27022056396E+03  0.93182638677E+02 0.  0.
         23    2    1    2    0    0 -0.28929609569E+03  0.11274823643E+03 -0.56814165104E+03  0.65424370358E+03  0.94050477028E+02 0.  0.
        -11    1    3    3    0    0  0.13297093859E+03 -0.10784210739E+03  0.50481621366E+02  0.17849253411E+03  0.00000000000E+00 0. -1.
         11    1    3    3    0    0  0.82164491679E+02 -0.25245467866E+02 -0.32026459693E+02  0.91728029855E+02  0.00000000000E+00 0.  1.
        -13    1    4    4    0    0 -0.77446340694E+02  0.48004690659E+02 -0.25402520626E+03  0.26987254663E+03  0.00000000000E+00 0.  1.
         13    1    4    4    0    0 -0.21184975499E+03  0.64743545775E+02 -0.31411644479E+03  0.38437115695E+03  0.00000000000E+00 0. -1.
         21    1    1    2  503  501  0.20295836017E+03  0.97942369891E+02 -0.20455203775E+03  0.30434575721E+03  0.00000000000E+00 0. -1.
          1    1    1    2  501    0 -0.12879769475E+03 -0.77603031064E+02  0.10622966704E+03  0.18410817137E+03  0.00000000000E+00 0. -1.
<scales pt_clust_5="13000.00000" pt_clust_6="13000.00000" pt_clust_7="13000.00000" pt_clust_8="13000.00000" pt_clust_9="225.35484" pt_clust_10="13000.00000"></scales>
<clustering>
<clus scale="   93.183">  5  6 -1 -1</clus>
<clus scale="   94.050">  7  8 -1 -1</clus>
<clus scale="  150.370">  7 10 -1 -1</clus>
<clus scale="  225.355">  2  9  1 -1</clus>
<clus scale="  289.745">  1  5  2 -1</clus>
<clus scale="  225.355">  2  5  1 -1</clus>
</clustering>
</event>
<event>
10    2  0.5692308E-006  0.1453248E+03  0.7546771E-02  0.1226380E+00
          1   -1    0    0  502    0 -0.00000000000E+00  0.00000000000E+00  0.66060612848E+03  0.66060612848E+03  0.00000000000E+00 0. -1.
         21   -1    0    0  503  502  0.00000000000E+00 -0.00000000000E+00 -0.33900678350E+02  0.33900678350E+02  0.00000000000E+00 0. -1.
         23    2    1    2    0    0 -0.30803792652E+02 -0.29881563659E+01  0.24124998854E+03  0.25996841939E+03  0.91783546409E+02 0.  0.
         23    2    1    2    0    0  0.14066456862E+02  0.49429721511E+02  0.35243328667E+03  0.36773351018E+03  0.91528959208E+02 0.  0.
        -11    1    3    3    0    0 -0.42131169806E+02 -0.40034298437E+02  0.14376333469E+03  0.15506668540E+03  0.00000000000E+00 0.  1.
         11    1    3    3    0    0  0.11327377155E+02  0.37046142071E+02  0.97486653850E+02  0.10490173399E+03  0.00000000000E+00 0. -1.
        -13    1    4    4    0    0  0.76058699753E+01  0.72855832254E+02  0.31264183227E+03  0.32110860598E+03  0.00000000000E+00 0. -1.
         13    1    4    4    0    0  0.64605868865E+01 -0.23426110743E+02  0.39791454407E+02  0.46624904197E+02  0.00000000000E+00 0.  1.
         21    1    1    2  503  501  0.19779695626E+02 -0.19026149476E+02  0.58016014896E+01  0.28051547244E+02  0.00000000000E+00 0. -1.
          1    1    1    2  501    0 -0.30423598362E+01 -0.27415415669E+02  0.27220573432E+02  0.38753330020E+02  0.00000000000E+00 0. -1.
<scales pt_clust_5="13000.00000" pt_clust_6="13000.00000" pt_clust_7="13000.00000" pt_clust_8="13000.00000" pt_clust_9="27.44505" pt_clust_10="13000.00000"></scales>
<clustering>
<clus scale="   27.445">  2  9  1 -1</clus>
<clus scale="   91.529">  7  8 -1 -1</clus>
<clus scale="   32.292">  7 10 -1 -1</clus>
<clus scale="   91.784">  5  6 -1 -1</clus>
<clus scale="   95.159">  1  5  2 -1</clus>
<clus scale="   27.445">  2  5  1 -1</clus>
</clustering>
</event>
<event>
10    2  0.5692308E-006  0.1540968E+03  0.7546771E-02  0.1212936E+00
          1   -1    0    0  503    0 -0.00000000000E+00  0.00000000000E+00  0.22794609431E+03  0.22794609431E+03  0.00000000000E+00 0. -1.
         21   -1    0    0  501  502  0.00000000000E+00 -0.00000000000E+00 -0.23935573402E+03  0.23935573402E+03  0.00000000000E+00 0.  1.
         23    2    1    2    0    0 -0.75374920272E+02  0.65556796464E+01 -0.15656689991E+03  0.19523659478E+03  0.88768115070E+02 0.  0.
         23    2    1    2    0    0  0.11677269915E+02 -0.27661680900E+01  0.16045985756E+03  0.18427531373E+03  0.89810996231E+02 0.  0.
        -11    1    4    4    0    0 -0.92843359003E+00  0.29087525986E+02  0.11278891842E+02  0.31211529250E+02  0.00000000000E+00 0.  1.
         11    1    4    4    0    0  0.12605703505E+02 -0.31853694076E+02  0.14918096572E+03  0.15306378448E+03  0.00000000000E+00 0. -1.
        -13    1    3    3    0    0 -0.69865418966E+02  0.41323724429E+02 -0.11509237022E+03  0.14083707130E+03  0.00000000000E+00 0.  1.
         13    1    3    3    0    0 -0.55095013061E+01 -0.34768044783E+02 -0.41474529688E+02  0.54399523486E+02  0.00000000000E+00 0. -1.
         21    1    1    2  503  502  0.26746279675E+02  0.20373538748E+02 -0.25833892925E+02  0.42400879486E+02  0.00000000000E+00 0.  1.
          1    1    1    2  501    0  0.36951370682E+02 -0.24163050304E+02  0.10531295568E+02  0.45389040325E+02  0.00000000000E+00 0. -1.
<scales pt_clust_5="13000.00000" pt_clust_6="13000.00000" pt_clust_7="13000.00000" pt_clust_8="13000.00000" pt_clust_9="33.62208" pt_clust_10="13000.00000"></scales>
<clustering>
<clus scale="   33.622">  2  9  1 -1</clus>
<clus scale="   88.768">  7  8 -1 -1</clus>
<clus scale="   89.811">  5  6 -1 -1</clus>
<clus scale="   45.185">  5 10 -1 -1</clus>
<clus scale="  105.867">  1  7  2 -1</clus>
<clus scale="   33.622">  2  5  1 -1</clus>
</clustering>
</event>
<event>
10    2  0.5692308E-006  0.1698529E+03  0.7546771E-02  0.1202837E+00
          1   -1    0    0  503    0 -0.00000000000E+00  0.00000000000E+00  0.33457562179E+03  0.33457562179E+03  0.00000000000E+00 0. -1.
         21   -1    0    0  501  502  0.00000000000E+00 -0.00000000000E+00 -0.16504552494E+03  0.16504552494E+03  0.00000000000E+00 0.  1.
         23    2    1    2    0    0 -0.12027307119E+02  0.35778323594E+02  0.17706861723E+03  0.20224971751E+03  0.90149367528E+02 0.  0.
         23    2    1    2    0    0  0.52970546992E+02 -0.61811235966E+02  0.31430515959E+02  0.12706964987E+03  0.92370508517E+02 0.  0.
        -11    1    4    4    0    0  0.42135345414E+02 -0.85847202711E+02  0.17388718432E+02  0.97198235967E+02  0.00000000000E+00 0.  1.
         11    1    4    4    0    0  0.10835201579E+02  0.24035966745E+02  0.14041797527E+02  0.29871413900E+02  0.00000000000E+00 0. -1.
        -11    1    3    3    0    0 -0.25871667069E+02 -0.14740062778E+02  0.18035474229E+02  0.34812223978E+02  0.00000000000E+00 0.  1.
         11    1    3    3    0    0  0.13844359951E+02  0.50518386373E+02  0.15903314301E+03  0.16743749353E+03  0.00000000000E+00 0. -1.
         21    1    1    2  503  502 -0.29778761990E+02 -0.65472082397E+01 -0.97628805240E+02  0.10227914848E+03  0.00000000000E+00 0.  1.
          1    1    1    2  501    0 -0.11164477884E+02  0.32580120612E+02  0.58659768895E+02  0.68022630884E+02  0.00000000000E+00 0. -1.
<scales pt_clust_5="13000.00000" pt_clust_6="13000.00000" pt_clust_7="13000.00000" pt_clust_8="13000.00000" pt_clust_9="30.49001" pt_clust_10="13000.00000"></scales>
<clustering>
<clus scale="   30.490">  2  9  1 -1</clus>
<clus scale="   90.149">  7  8 -1 -1</clus>
<clus scale="   92.371">  5  6 -1 -1</clus>
<clus scale="   34.757">  5 10 -1 -1</clus>
<clus scale="   98.155">  1  7  2 -1</clus>
<clus scale="   30.490">  2  5  1 -1</clus>
</clustering>
</event>
<event>
10    2  0.5692308E-006  0.2110485E+03  0.7546771E-02  0.1171075E+00
          1   -1    0    0  502    0 -0.00000000000E+00  0.00000000000E+00  0.19736310794E+03  0.19736310794E+03  0.00000000000E+00 0. -1.
         21   -1    0    0  503  502  0.00000000000E+00 -0.00000000000E+00 -0.19874827396E+03  0.19874827396E+03  0.00000000000E+00 0. -1.
         23    2    1    2    0    0  0.46545972094E+02  0.88624428353E+01  0.79758488743E+02  0.13149431484E+03  0.93189419450E+02 0.  0.
         23    2    1    2    0    0 -0.55947946265E+02  0.57392025918E+02  0.23292887559E+01  0.12196539649E+03  0.91902747648E+02 0.  0.
        -11    1    3    3    0    0 -0.25161900817E+02  0.11768162630E+02  0.42124251750E+02  0.50458532379E+02  0.00000000000E+00 0.  1.
         11    1    3    3    0    0  0.71707872911E+02 -0.29057197942E+01  0.37634236993E+02  0.81035782460E+02  0.00000000000E+00 0. -1.
        -11    1    4    4    0    0  0.11513995804E+02  0.51018469902E+02  0.11597959626E+02  0.53572091970E+02  0.00000000000E+00 0.  1.
         11    1    4    4    0    0 -0.67461942068E+02  0.63735560165E+01 -0.92686708704E+01  0.68393304523E+02  0.00000000000E+00 0. -1.
         21    1    1    2  503  501 -0.15212924548E+02  0.13159634966E+02 -0.48403451767E+02  0.52416631031E+02  0.00000000000E+00 0. -1.
          1    1    1    2  501    0  0.24614898719E+02 -0.79414103720E+02 -0.35069491757E+02  0.90235039539E+02  0.00000000000E+00 0. -1.
<scales pt_clust_5="13000.00000" pt_clust_6="13000.00000" pt_clust_7="13000.00000" pt_clust_8="13000.00000" pt_clust_9="20.11490" pt_clust_10="13000.00000"></scales>
<clustering>
<clus scale="   20.115">  2  9  1 -1</clus>
<clus scale="   91.903">  7  8 -1 -1</clus>
<clus scale="   76.063">  7 10 -1 -1</clus>
<clus scale="   93.189">  5  6 -1 -1</clus>
<clus scale="  103.612">  1  5  2 -1</clus>
<clus scale="   20.115">  2  5  1 -1</clus>
</clustering>
</event>
<event>
10    2  0.5692308E-006  0.3251596E+03  0.7546771E-02  0.1100442E+00
         21   -1    0    0  501  502  0.00000000000E+00  0.00000000000E+00  0.23971566855E+03  0.23971566855E+03  0.00000000000E+00 0.  1.
          1   -1    0    0  503    0 -0.00000000000E+00 -0.00000000000E+00 -0.27329175517E+03  0.27329175517E+03  0.00000000000E+00 0. -1.
         23    2    1    2    0    0 -0.32370760400E+02 -0.12578980715E+03 -0.43602504041E+02  0.16541200269E+03  0.92676914950E+02 0.  0.
         23    2    1    2    0    0  0.11641239102E+03  0.10689384984E+03  0.73997565757E+02  0.19817046007E+03  0.93902883822E+02 0.  0.
        -13    1    4    4    0    0 -0.12948418495E+02  0.28625538999E+02  0.21708700097E+02  0.38188357970E+02  0.00000000000E+00 0. -1.
         13    1    4    4    0    0  0.12936080952E+03  0.78268310837E+02  0.52288865661E+02  0.15998210210E+03  0.00000000000E+00 0.  1.
        -13    1    3    3    0    0 -0.57603398071E+02 -0.11490058602E+03 -0.48724404738E+02  0.13745677049E+03  0.00000000000E+00 0. -1.
         13    1    3    3    0    0  0.25232637671E+02 -0.10889221129E+02  0.51219006968E+01  0.27955232201E+02  0.00000000000E+00 0.  1.
         21    1    1    2  503  502  0.23613020135E+02  0.20291952266E+01 -0.13349168623E+01  0.23737614795E+02  0.00000000000E+00 0. -1.
          1    1    1    2  501    0 -0.10765465076E+03  0.16866762086E+02 -0.62636231466E+02  0.12568734616E+03  0.00000000000E+00 0. -1.
<scales pt_clust_5="13000.00000" pt_clust_6="13000.00000" pt_clust_7="13000.00000" pt_clust_8="13000.00000" pt_clust_9="23.70005" pt_clust_10="13000.00000"></scales>
<clustering>
<clus scale="   23.700">  1  9  2 -1</clus>
<clus scale="   92.677">  7  8 -1 -1</clus>
<clus scale="   93.903">  5  6 -1 -1</clus>
<clus scale="  105.796">  5 10 -1 -1</clus>
<clus scale="  157.976">  2  7  1 -1</clus>
<clus scale="   23.700">  1  5  2 -1</clus>
</clustering>
</event>
<event>
10    2  0.5692308E-006  0.1947477E+03  0.7546771E-02  0.1186406E+00
          3   -1    0    0  503    0 -0.00000000000E+00  0.00000000000E+00  0.21549247619E+03  0.21549247619E+03  0.00000000000E+00 0. -1.
         21   -1    0    0  501  502  0.00000000000E+00 -0.00000000000E+00 -0.20505546357E+03  0.20505546357E+03  0.00000000000E+00 0.  1.
         23    2    1    2    0    0  0.15516029791E+02 -0.27331880622E+02 -0.62838755813E+01  0.94180637133E+02  0.88559169145E+02 0.  0.
         23    2    1    2    0    0  0.24138156056E+01  0.29318960658E+02  0.14557775417E+03  0.17434740475E+03  0.91316521358E+02 0.  0.
        -13    1    4    4    0    0  0.12069867239E+02  0.51198772519E+02  0.14032677245E+03  0.14986193336E+03  0.00000000000E+00 0. -1.
         13    1    4    4    0    0 -0.96560516337E+01 -0.21879811861E+02  0.52509817195E+01  0.24485471391E+02  0.00000000000E+00 0.  1.
        -13    1    3    3    0    0  0.12839399997E+02 -0.59848468725E+02 -0.64910130512E+01  0.61553412996E+02  0.00000000000E+00 0.  1.
         13    1    3    3    0    0  0.26766297941E+01  0.32516588103E+02  0.20713746996E+00  0.32627224137E+02  0.00000000000E+00 0. -1.
         21    1    1    2  503  502 -0.48808147321E+02 -0.30142702118E+01 -0.89466318320E+02  0.10195853659E+03  0.00000000000E+00 0.  1.
          3    1    1    2  501    0  0.30878301924E+02  0.10271901762E+01 -0.39390547653E+02  0.50061361285E+02  0.00000000000E+00 0. -1.
<scales pt_clust_5="13000.00000" pt_clust_6="13000.00000" pt_clust_7="13000.00000" pt_clust_8="13000.00000" pt_clust_9="48.90114" pt_clust_10="13000.00000"></scales>
<clustering>
<clus scale="   48.901">  2  9  1 -1</clus>
<clus scale="   88.559">  7  8 -1 -1</clus>
<clus scale="   91.317">  5  6 -1 -1</clus>
<clus scale="   10.916">  5 10 -1 -1</clus>
<clus scale="   93.355">  1  7  2 -1</clus>
<clus scale="   48.901">  2  5  1 -1</clus>
</clustering>
</event>
<event>
10    2  0.5692308E-006  0.2209332E+03  0.7546771E-02  0.1143904E+00
         21   -1    0    0  501  502  0.00000000000E+00  0.00000000000E+00  0.44363205626E+03  0.44363205626E+03  0.00000000000E+00 0.  1.
          1   -1    0    0  503    0 -0.00000000000E+00 -0.00000000000E+00 -0.27383136046E+03  0.27383136046E+03  0.00000000000E+00 0. -1.
         23    2    1    2    0    0  0.10975211266E+03 -0.35884678739E+02  0.16900562962E+03  0.22249702026E+03  0.87228348479E+02 0.  0.
         23    2    1    2    0    0 -0.13572250868E+03  0.24950017235E+02 -0.20158617450E+03  0.26072553904E+03  0.91091812117E+02 0.  0.
        -11    1    4    4    0    0 -0.61836830843E+00 -0.20862720672E+02 -0.40412120173E+02  0.45483787771E+02  0.00000000000E+00 0.  1.
         11    1    4    4    0    0 -0.13510414037E+03  0.45812737906E+02 -0.16117405433E+03  0.21524175127E+03  0.00000000000E+00 0. -1.
        -13    1    3    3    0    0  0.93955345056E+02  0.10058884144E+02  0.12683524161E+03  0.15816436554E+03  0.00000000000E+00 0.  1.
         13    1    3    3    0    0  0.15796767603E+02 -0.45943562882E+02  0.42170388014E+02  0.64332654712E+02  0.00000000000E+00 0. -1.
         21    1    1    2  503  502  0.46542901682E+02  0.36689878750E+02  0.19000112586E+03  0.19902968806E+03  0.00000000000E+00 0.  1.
          1    1    1    2  501    0 -0.20572505658E+02 -0.25755217246E+02  0.12380114819E+02  0.35211169355E+02  0.00000000000E+00 0. -1.
<scales pt_clust_5="13000.00000" pt_clust_6="13000.00000" pt_clust_7="13000.00000" pt_clust_8="13000.00000" pt_clust_9="59.26541" pt_clust_10="13000.00000"></scales>
<clustering>
<clus scale="   59.265">  1  9  2 -1</clus>
<clus scale="   87.228">  7  8 -1 -1</clus>
<clus scale="   91.092">  5  6 -1 -1</clus>
<clus scale="   27.480">  5 10 -1 -1</clus>
<clus scale="  170.498">  2  7  1 -1</clus>
<clus scale="   59.265">  1  5  2 -1</clus>
</clustering>
</event>
<event>
10    2  0.5692308E-006  0.5473529E+03  0.7546771E-02  0.1057745E+00
         -1   -1    0    0    0  501 -0.00000000000E+00  0.00000000000E+00  0.63820850142E+03  0.63820850142E+03  0.00000000000E+00 0.  1.
         21   -1    0    0  503  502  0.00000000000E+00 -0.00000000000E+00 -0.14535813021E+04  0.14535813021E+04  0.00000000000E+00 0.  1.
         23    2    1    2    0    0 -0.34635327557E+02  0.29637916873E+02  0.28991996373E+03  0.30830298112E+03  0.94441149767E+02 0.  0.
         23    2    1    2    0    0 -0.95363159271E+01  0.15201699626E+03 -0.84974519609E+01  0.16961001425E+03  0.74129897959E+02 0.  0.
        -13    1    3    3    0    0  0.25981077295E+02  0.35249565428E+02  0.11195562554E+03  0.12021485071E+03  0.00000000000E+00 0. -1.
         13    1    3    3    0    0 -0.60616404852E+02 -0.56116485553E+01  0.17796433818E+03  0.18808813041E+03  0.00000000000E+00 0.  1.
        -13    1    4    4    0    0 -0.72027713913E+01  0.11946211201E+03 -0.38048053648E+02  0.12558156915E+03  0.00000000000E+00 0.  1.
         13    1    4    4    0    0 -0.23335445358E+01  0.32554884241E+02  0.29550601687E+02  0.44028445102E+02  0.00000000000E+00 0. -1.
         21    1    1    2  503  501  0.68483606243E+02  0.19741391356E+03 -0.12017620548E+04  0.12197927258E+04  0.00000000000E+00 0.  1.
         -1    1    1    2    0  502 -0.24311962759E+02 -0.37906882669E+03  0.10496674241E+03  0.39408408229E+03  0.00000000000E+00 0.  1.
<scales pt_clust_5="13000.00000" pt_clust_6="13000.00000" pt_clust_7="13000.00000" pt_clust_8="13000.00000" pt_clust_9="209.40084" pt_clust_10="13000.00000"></scales>
<clustering>
<clus scale="   74.130">  7  8 -1 -1</clus>
<clus scale="   94.441">  5  6 -1 -1</clus>
<clus scale="  104.867">  1  5  2 -1</clus>
<clus scale="  209.401">  2  9  1 -1</clus>
<clus scale="  244.831">  7 10 -1 -1</clus>
<clus scale="  209.401">  2  5  1 -1</clus>
</clustering>
</event>
<event>
10    2  0.5692308E-006  0.2929545E+03  0.7546771E-02  0.1126178E+00
          1   -1    0    0  503    0 -0.00000000000E+00  0.00000000000E+00  0.21497784830E+03  0.21497784830E+03  0.00000000000E+00 0. -1.
         21   -1    0    0  501  502  0.00000000000E+00 -0.00000000000E+00 -0.40762126342E+03  0.40762126342E+03  0.00000000000E+00 0. -1.
         23    2    1    2    0    0 -0.63304600785E+02 -0.18592157218E+01  0.92530751314E+02  0.14429058715E+03  0.90812468516E+02 0.  0.
         23    2    1    2    0    0 -0.47277414950E+02  0.19710798998E+02  0.24207567614E+02  0.11097880077E+03  0.95428603303E+02 0.  0.
        -13    1    3    3    0    0 -0.63253224153E+02  0.26055835357E+02  0.94091607999E+02  0.11633188565E+03  0.00000000000E+00 0.  1.
         13    1    3    3    0    0 -0.51376631901E-01 -0.27915051079E+02 -0.15608566851E+01  0.27958701506E+02  0.00000000000E+00 0. -1.
        -13    1    4    4    0    0  0.13305681630E+02 -0.27347905593E+02  0.14373171316E+02  0.33638328699E+02  0.00000000000E+00 0.  1.
         13    1    4    4    0    0 -0.60583096581E+02  0.47058704591E+02  0.98343962981E+01  0.77340472068E+02  0.00000000000E+00 0. -1.
         21    1    1    2  503  502 -0.33098962639E+02  0.56791796343E+01 -0.14000838094E+03  0.14397965531E+03  0.00000000000E+00 0. -1.
          1    1    1    2  501    0  0.14368097837E+03 -0.23530762911E+02 -0.16937335311E+03  0.22335006849E+03  0.00000000000E+00 0. -1.
<scales pt_clust_5="13000.00000" pt_clust_6="13000.00000" pt_clust_7="13000.00000" pt_clust_8="13000.00000" pt_clust_9="33.58265" pt_clust_10="13000.00000"></scales>
<clustering>
<clus scale="   33.583">  2  9  1 -1</clus>
<clus scale="   90.812">  5  6 -1 -1</clus>
<clus scale="   95.429">  7  8 -1 -1</clus>
<clus scale="  112.582">  1  5  2 -1</clus>
<clus scale="  106.332">  7 10 -1 -1</clus>
<clus scale="   33.583">  2  5  1 -1</clus>
</clustering>
</event>
<event>
10    2  0.5692308E-006  0.3172318E+03  0.7546771E-02  0.1112168E+00
          2   -1    0    0  502    0 -0.00000000000E+00  0.00000000000E+00  0.70994452878E+03  0.70994452878E+03  0.00000000000E+00 0. -1.
         21   -1    0    0  503  502  0.00000000000E+00 -0.00000000000E+00 -0.13200265450E+03  0.13200265450E+03  0.00000000000E+00 0. -1.
         23    2    1    2    0    0 -0.81794315539E+02 -0.33387517136E+02  0.12107779834E+03  0.17551936105E+03  0.91335516092E+02 0.  0.
         23    2    1    2    0    0  0.10152875376E+03 -0.55584840132E+02  0.52045206971E+03  0.54107389448E+03  0.92156606562E+02 0.  0.
        -11    1    4    4    0    0  0.85429710111E+02 -0.40708737627E+02  0.50610467790E+03  0.51487608381E+03  0.00000000000E+00 0. -1.
         11    1    4    4    0    0  0.16099043652E+02 -0.14876102506E+02  0.14347391810E+02  0.26197810672E+02  0.00000000000E+00 0.  1.
        -13    1    3    3    0    0 -0.33475402814E+02 -0.59495644636E+02  0.88114497373E+02  0.11146523661E+03  0.00000000000E+00 0. -1.
         13    1    3    3    0    0 -0.48318912724E+02  0.26108127500E+02  0.32963300964E+02  0.64054124449E+02  0.00000000000E+00 0.  1.
         21    1    1    2  503  501 -0.52038831306E+01  0.29164253349E+02 -0.55982634678E+02  0.63337899069E+02  0.00000000000E+00 0. -1.
          2    1    1    2  501    0 -0.14530555094E+02  0.59808103919E+02 -0.76053590932E+01  0.62016028675E+02  0.00000000000E+00 0. -1.
<scales pt_clust_5="13000.00000" pt_clust_6="13000.00000" pt_clust_7="13000.00000" pt_clust_8="13000.00000" pt_clust_9="29.62489" pt_clust_10="13000.00000"></scales>
<clustering>
<clus scale="   29.625">  2  9  1 -1</clus>
<clus scale="   91.336">  7  8 -1 -1</clus>
<clus scale="   92.157">  5  6 -1 -1</clus>
<clus scale="   75.781">  5 10 -1 -1</clus>
<clus scale="  125.933">  1  7  2 -1</clus>
<clus scale="   29.625">  2  5  1 -1</clus>
</clustering>
</event>
<event>
10    2  0.5692308E-006  0.3614974E+03  0.7546771E-02  0.1073778E+00
          1   -1    0    0  502    0 -0.00000000000E+00  0.00000000000E+00  0.14919673367E+04  0.14919673367E+04  0.00000000000E+00 0. -1.
         21   -1    0    0  503  502  0.00000000000E+00 -0.00000000000E+00 -0.93894536974E+02  0.93894536974E+02  0.00000000000E+00 0. -1.
         23    2    1    2    0    0 -0.15336045220E+03  0.16188840001E+03  0.82893183605E+03  0.86323673315E+03  0.91227113820E+02 0.  0.
         23    2    1    2    0    0  0.86946266022E+02 -0.11195219532E+02  0.50626708670E+03  0.52143301475E+03  0.88887792625E+02 0.  0.
        -13    1    3    3    0    0 -0.11948716597E+02  0.64578098103E+02  0.16809526116E+03  0.18046916470E+03  0.00000000000E+00 0.  1.
         13    1    3    3    0    0 -0.14141173561E+03  0.97310301906E+02  0.66083657489E+03  0.68276756845E+03  0.00000000000E+00 0. -1.
        -13    1    4    4    0    0 -0.91548969774E+01 -0.25593086652E+02  0.92682034347E+02  0.96585597859E+02  0.00000000000E+00 0. -1.
         13    1    4    4    0    0  0.96101163000E+02  0.14397867120E+02  0.41358505236E+03  0.42484741689E+03  0.00000000000E+00 0.  1.
         21    1    1    2  503  501  0.27851885353E+02 -0.15328674660E+02 -0.20284503092E+02  0.37711494935E+02  0.00000000000E+00 0. -1.
          1    1    1    2  501    0  0.38562300829E+02 -0.13536450582E+03  0.83158380053E+02  0.16348063082E+03  0.00000000000E+00 0. -1.
<scales pt_clust_5="13000.00000" pt_clust_6="13000.00000" pt_clust_7="13000.00000" pt_clust_8="13000.00000" pt_clust_9="31.79144" pt_clust_10="13000.00000"></scales>
<clustering>
<clus scale="   31.791">  2  9  1 -1</clus>
<clus scale="   88.888">  7  8 -1 -1</clus>
<clus scale="   91.227">  5  6 -1 -1</clus>
<clus scale="  155.226">  7 10 -1 -1</clus>
<clus scale="  233.561">  1  5  2 -1</clus>
<clus scale="   31.791">  2  5  1 -1</clus>
</clustering>
</event>
<event>
10    2  0.5692308E-006  0.1543005E+03  0.7546771E-02  0.1197404E+00
         21   -1    0    0  501  502  0.00000000000E+00  0.00000000000E+00  0.60013132680E+02  0.60013132680E+02  0.00000000000E+00 0.  1.
          2   -1    0    0  503    0 -0.00000000000E+00 -0.00000000000E+00 -0.10625102360E+04  0.10625102360E+04  0.00000000000E+00 0. -1.
         23    2    1    2    0    0  0.85705078582E+01  0.11086438533E+03 -0.76386008101E+03  0.77725456605E+03  0.90983908124E+02 0.  0.
         23    2    1    2    0    0 -0.27219353930E+02 -0.10654987016E+03 -0.23159837215E+03  0.27224993184E+03  0.91588489151E+02 0.  0.
        -11    1    3    3    0    0 -0.40801579905E+02  0.39935505194E+02 -0.32207309174E+03  0.32709431350E+03  0.00000000000E+00 0.  1.
         11    1    3    3    0    0  0.49372087763E+02  0.70928880132E+02 -0.44178698927E+03  0.45016025255E+03  0.00000000000E+00 0. -1.
        -13    1    4    4    0    0 -0.35911847813E+02 -0.76446866985E+02 -0.76299613841E+02  0.11382185799E+03  0.00000000000E+00 0.  1.
         13    1    4    4    0    0  0.86924938824E+01 -0.30103003175E+02 -0.15529875831E+03  0.15842807384E+03  0.00000000000E+00 0. -1.
         21    1    1    2  503  502  0.20762145974E+02  0.20232599089E+02  0.20922478620E+02  0.35751571755E+02  0.00000000000E+00 0.  1.
          2    1    1    2  501    0 -0.21132999014E+01 -0.24547114256E+02 -0.27961128758E+02  0.37267299019E+02  0.00000000000E+00 0. -1.
<scales pt_clust_5="13000.00000" pt_clust_6="13000.00000" pt_clust_7="13000.00000" pt_clust_8="13000.00000" pt_clust_9="28.99008" pt_clust_10="13000.00000"></scales>
<clustering>
<clus scale="   28.990">  1  9  2 -1</clus>
<clus scale="   90.984">  5  6 -1 -1</clus>
<clus scale="   91.588">  7  8 -1 -1</clus>
<clus scale="   21.595">  7 10 -1 -1</clus>
<clus scale="  147.322">  2  5  1 -1</clus>
<clus scale="   28.990">  1  5  2 -1</clus>
</clustering>
</event>
<event>
10    2  0.5692308E-006  0.5512466E+03  0.7546771E-02  0.1061285E+00
         21   -1    0    0  503  502  0.00000000000E+00  0.00000000000E+00  0.10269718162E+04  0.10269718162E+04  0.00000000000E+00 0. -1.
          1   -1    0    0  502    0 -0.00000000000E+00 -0.00000000000E+00 -0.32602389448E+03  0.32602389448E+03  0.00000000000E+00 0. -1.
         23    2    1    2    0    0  0.26887037138E+02 -0.64695177522E+00  0.13208872487E+02  0.93904030273E+02  0.88995287945E+02 0.  0.
         23    2    1    2    0    0  0.58086831108E+02 -0.11205899776E+03  0.16712942245E+03  0.23101999167E+03  0.97502275758E+02 0.  0.
        -11    1    3    3    0    0 -0.31882163237E+02  0.30939727383E+01 -0.46494034264E+01  0.32367606526E+02  0.00000000000E+00 0. -1.
         11    1    3    3    0    0  0.58769200375E+02 -0.37409245135E+01  0.17858275913E+02  0.61536423747E+02  0.00000000000E+00 0.  1.
        -13    1    4    4    0    0  0.44902347834E+02 -0.46247594686E+02  0.14768762489E+03  0.16114184869E+03  0.00000000000E+00 0.  1.
         13    1    4    4    0    0  0.13184483274E+02 -0.65811403077E+02  0.19441797559E+02  0.69878142981E+02  0.00000000000E+00 0. -1.
         21    1    1    2  503  501  0.21582962228E+03  0.85794526215E+02  0.65689102690E+03  0.69674166504E+03  0.00000000000E+00 0. -1.
          1    1    1    2  501    0 -0.30080349053E+03  0.26911423323E+02 -0.13628140008E+03  0.33133002373E+03  0.00000000000E+00 0. -1.
<scales pt_clust_5="13000.00000" pt_clust_6="13000.00000" pt_clust_7="13000.00000" pt_clust_8="13000.00000" pt_clust_9="233.98376" pt_clust_10="13000.00000"></scales>
<clustering>
<clus scale="   88.995">  5  6 -1 -1</clus>
<clus scale="   92.970">  2  5  1 -1</clus>
<clus scale="   97.502">  7  8 -1 -1</clus>
<clus scale="  233.984">  1  9  2 -1</clus>
<clus scale="  210.789">  7 10 -1 -1</clus>
<clus scale="  233.984">  1  5  2 -1</clus>
</clustering>
</event>
<event>
10    2  0.5692308E-006  0.1433727E+03  0.7546771E-02  0.1225010E+00
         21   -1    0    0  503  502  0.00000000000E+00  0.00000000000E+00  0.90537008591E+02  0.90537008591E+02  0.00000000000E+00 0. -1.
         -1   -1    0    0    0  501 -0.00000000000E+00 -0.00000000000E+00 -0.28729625676E+03  0.28729625676E+03  0.00000000000E+00 0.  1.
         23    2    1    2    0    0 -0.56464095017E+02  0.10133398943E+02 -0.11613875689E+03  0.15834672384E+03  0.91074663306E+02 0.  0.
         23    2    1    2    0    0  0.48900700918E+02 -0.12097604537E+02 -0.10665502592E+03  0.14910822371E+03  0.91215882596E+02 0.  0.
        -13    1    4    4    0    0 -0.15185450972E+02 -0.32137069177E+02 -0.49444180122E+02  0.60894302562E+02  0.00000000000E+00 0.  1.
         13    1    4    4    0    0  0.64086151890E+02  0.20039464640E+02 -0.57210845794E+02  0.88213921144E+02  0.00000000000E+00 0. -1.
        -13    1    3    3    0    0 -0.12241524271E+02  0.32837232637E+02 -0.10018768334E+03  0.10614005208E+03  0.00000000000E+00 0.  1.
         13    1    3    3    0    0 -0.44222570747E+02 -0.22703833695E+02 -0.15951073558E+02  0.52206671753E+02  0.00000000000E+00 0. -1.
         21    1    1    2  503  501  0.33250434539E+02  0.91812096113E+01  0.26805622688E+02  0.43685551555E+02  0.00000000000E+00 0. -1.
         -1    1    1    2    0  502 -0.25687040440E+02 -0.72170040166E+01 -0.77108804631E+00  0.26692766254E+02  0.00000000000E+00 0.  1.
<scales pt_clust_5="13000.00000" pt_clust_6="13000.00000" pt_clust_7="13000.00000" pt_clust_8="13000.00000" pt_clust_9="34.49472" pt_clust_10="13000.00000"></scales>
<clustering>
<clus scale="   34.495">  1  9  2 -1</clus>
<clus scale="   91.075">  7  8 -1 -1</clus>
<clus scale="   91.216">  5  6 -1 -1</clus>
<clus scale="   18.596">  5 10 -1 -1</clus>
<clus scale="  101.964">  2  7  1 -1</clus>
<clus scale="   34.495">  1  5  2 -1</clus>
</clustering>
</event>
<event>
10    2  0.5692308E-006  0.1470779E+03  0.7546771E-02  0.1221952E+00
         -1   -1    0    0    0  501 -0.00000000000E+00  0.00000000000E+00  0.13165522211E+03  0.13165522211E+03  0.00000000000E+00 0.  1.
         21   -1    0    0  503  502  0.00000000000E+00 -0.00000000000E+00 -0.19903913106E+03  0.19903913106E+03  0.00000000000E+00 0.  1.
         23    2    1    2    0    0 -0.15230419812E+02 -0.36713389444E+02  0.42316084653E+02  0.10825644456E+03  0.91372688022E+02 0.  0.
         23    2    1    2    0    0  0.42538576143E+02  0.62776813287E+02 -0.30226658999E+02  0.12461616844E+03  0.94154552601E+02 0.  0.
        -13    1    4    4    0    0  0.58144685582E+02  0.34166516707E+02  0.14788305148E+02  0.69042373181E+02  0.00000000000E+00 0.  1.
         13    1    4    4    0    0 -0.15606109439E+02  0.28610296580E+02 -0.45014964147E+02  0.55573795258E+02  0.00000000000E+00 0. -1.
        -13    1    3    3    0    0 -0.38170122249E+02  0.15538027170E+02  0.26658154853E+02  0.49082030734E+02  0.00000000000E+00 0. -1.
         13    1    3    3    0    0  0.22939702437E+02 -0.52251416614E+02  0.15657929800E+02  0.59174413826E+02  0.00000000000E+00 0.  1.
         21    1    1    2  503  501 -0.26033984396E+02  0.10665289515E+01 -0.56614725227E+02  0.62322812357E+02  0.00000000000E+00 0.  1.
         -1    1    1    2    0  502 -0.12741719351E+01 -0.27129952794E+02 -0.22858609378E+02  0.35498927806E+02  0.00000000000E+00 0.  1.
<scales pt_clust_5="13000.00000" pt_clust_6="13000.00000" pt_clust_7="13000.00000" pt_clust_8="13000.00000" pt_clust_9="26.05582" pt_clust_10="13000.00000"></scales>
<clustering>
<clus scale="   26.056">  2  9  1 -1</clus>
<clus scale="   91.373">  7  8 -1 -1</clus>
<clus scale="   94.155">  5  6 -1 -1</clus>
<clus scale="   27.733">  5 10 -1 -1</clus>
<clus scale="  100.675">  1  7  2 -1</clus>
<clus scale="   26.056">  2  5  1 -1</clus>
</clustering>
</event>
<event>
10    2  0.5692308E-006  0.5602956E+03  0.7546771E-02  0.1038328E+00
         21   -1    0    0  503  502  0.00000000000E+00  0.00000000000E+00  0.77059144251E+03  0.77059144251E+03  0.00000000000E+00 0. -1.
          4   -1    0    0  502    0 -0.00000000000E+00 -0.00000000000E+00 -0.63160347234E+03  0.63160347234E+03  0.00000000000E+00 0. -1.
         23    2    1    2    0    0 -0.17183411491E+03 -0.64590675567E+02  0.16024998025E+03  0.26071967368E+03  0.92713395236E+02 0.  0.
         23    2    1    2    0    0  0.15692755713E+03 -0.14093946628E+03 -0.47042880857E+03  0.52366763396E+03  0.91838638825E+02 0.  0.
        -11    1    3    3    0    0 -0.18414214064E+02  0.16235150939E+02  0.48680398004E+02  0.54520129819E+02  0.00000000000E+00 0.  1.
         11    1    3    3    0    0 -0.15341990084E+03 -0.80825826506E+02  0.11156958225E+03  0.20619954386E+03  0.00000000000E+00 0. -1.
        -13    1    4    4    0    0  0.70760274191E+02 -0.28376525788E+02 -0.25192649947E+03  0.26320943136E+03  0.00000000000E+00 0.  1.
         13    1    4    4    0    0  0.86167282934E+02 -0.11256294049E+03 -0.21850230910E+03  0.26045820260E+03  0.00000000000E+00 0. -1.
         21    1    1    2  503  501  0.61105456978E+02  0.25063675449E+02  0.42483623998E+03  0.42993940911E+03  0.00000000000E+00 0. -1.
          4    1    1    2  501    0 -0.46198899195E+02  0.18046646640E+03  0.24330558506E+02  0.18786819810E+03  0.00000000000E+00 0. -1.
<scales pt_clust_5="13000.00000" pt_clust_6="13000.00000" pt_clust_7="13000.00000" pt_clust_8="13000.00000" pt_clust_9="66.04593" pt_clust_10="13000.00000"></scales>
<clustering>
<clus scale="   66.046">  1  9  2 -1</clus>
<clus scale="   91.839">  7  8 -1 -1</clus>
<clus scale="   92.713">  5  6 -1 -1</clus>
<clus scale="  170.501">  2  5  1 -1</clus>
<clus scale="  187.005">  7 10 -1 -1</clus>
<clus scale="   66.046">  1  5  2 -1</clus>
</clustering>
</event>
<event>
10    2  0.5692308E-006  0.1239020E+03  0.7546771E-02  0.1250070E+00
         21   -1    0    0  503  502  0.00000000000E+00  0.00000000000E+00  0.48083230133E+03  0.48083230133E+03  0.00000000000E+00 0. -1.
         -2   -1    0    0    0  501 -0.00000000000E+00 -0.00000000000E+00 -0.36711334093E+02  0.36711334093E+02  0.00000000000E+00 0.  1.
         23    2    1    2    0    0 -0.18642579973E+02 -0.17718108111E+02  0.24313538580E+03  0.25968969345E+03  0.87535386619E+02 0.  0.
         23    2    1    2    0    0  0.27823960929E+02  0.14819058717E+02  0.87102998845E+02  0.12980299483E+03  0.90929135909E+02 0.  0.
        -11    1    4    4    0    0 -0.29346380391E+02  0.23676936985E+02  0.26971887416E+02  0.46360436774E+02  0.00000000000E+00 0. -1.
         11    1    4    4    0    0  0.57170341320E+02 -0.88578782677E+01  0.60131111428E+02  0.83442558061E+02  0.00000000000E+00 0.  1.
        -11    1    3    3    0    0 -0.62135823976E+01 -0.51599668651E+02  0.17542622801E+03  0.18296309979E+03  0.00000000000E+00 0. -1.
         11    1    3    3    0    0 -0.12428997575E+02  0.33881560540E+02  0.67709157798E+02  0.76726593662E+02  0.00000000000E+00 0.  1.
         21    1    1    2  503  501  0.39392769815E+01 -0.23585757821E+02  0.77888853766E+02  0.81476864300E+02  0.00000000000E+00 0. -1.
         -2    1    1    2    0  502 -0.13120657938E+02  0.26484807215E+02  0.35993728825E+02  0.46574082844E+02  0.00000000000E+00 0.  1.
<scales pt_clust_5="13000.00000" pt_clust_6="13000.00000" pt_clust_7="13000.00000" pt_clust_8="13000.00000" pt_clust_9="23.91246" pt_clust_10="13000.00000"></scales>
<clustering>
<clus scale="   23.912">  1  9  2 -1</clus>
<clus scale="   87.535">  7  8 -1 -1</clus>
<clus scale="   90.929">  5  6 -1 -1</clus>
<clus scale="   27.211">  5 10 -1 -1</clus>
<clus scale="   94.764">  2  7  1 -1</clus>
<clus scale="   23.912">  1  5  2 -1</clus>
</clustering>
</event>
<event>
10    2  0.5692308E-006  0.3572622E+03  0.7546771E-02  0.1095102E+00
         21   -1    0    0  503  502  0.00000000000E+00  0.00000000000E+00  0.47823225476E+03  0.47823225476E+03  0.00000000000E+00 0. -1.
          1   -1    0    0  502    0 -0.00000000000E+00 -0.00000000000E+00 -0.23478053973E+03  0.23478053973E+03  0.00000000000E+00 0. -1.
         23    2    1    2    0    0 -0.29177944832E+02  0.96024086351E+02 -0.93319321735E+02  0.16548697695E+03  0.92765651542E+02 0.  0.
         23    2    1    2    0    0 -0.78320892431E+02  0.62803475458E+02  0.57759385376E+02  0.15107183374E+03  0.96995430978E+02 0.  0.
        -11    1    3    3    0    0 -0.45972434741E+02  0.13535489958E+02 -0.14255755278E+02  0.49999008020E+02  0.00000000000E+00 0. -1.
         11    1    3    3    0    0  0.16794489909E+02  0.82488596393E+02 -0.79063566457E+02  0.11548796893E+03  0.00000000000E+00 0.  1.
        -13    1    4    4    0    0 -0.88537650763E+02  0.15219546232E+02  0.28329727924E+02  0.94197259378E+02  0.00000000000E+00 0.  1.
         13    1    4    4    0    0  0.10216758332E+02  0.47583929226E+02  0.29429657453E+02  0.56874574365E+02  0.00000000000E+00 0. -1.
         21    1    1    2  503  501 -0.55642676970E+02 -0.15429645857E+02  0.97843160284E+02  0.11361102713E+03  0.00000000000E+00 0. -1.
          1    1    1    2  501    0  0.16314151423E+03 -0.14339791595E+03  0.18116849111E+03  0.28284295667E+03  0.00000000000E+00 0. -1.
<scales pt_clust_5="13000.00000" pt_clust_6="13000.00000" pt_clust_7="13000.00000" pt_clust_8="13000.00000" pt_clust_9="57.74237" pt_clust_10="13000.00000"></scales>
<clustering>
<clus scale="   57.742">  1  9  2 -1</clus>
<clus scale="   92.766">  5  6 -1 -1</clus>
<clus scale="   96.995">  7  8 -1 -1</clus>
<clus scale="  136.880">  2  5  1 -1</clus>
<clus scale="  157.413">  7 10 -1 -1</clus>
<clus scale="   57.742">  1  5  2 -1</clus>
</clustering>
</event>
<event>
10    2  0.5692308E-006  0.2234465E+03  0.7546771E-02  0.1165719E+00
         21   -1    0    0  501  502  0.00000000000E+00  0.00000000000E+00  0.19457299618E+03  0.19457299618E+03  0.00000000000E+00 0. -1.
          2   -1    0    0  503    0 -0.00000000000E+00 -0.00000000000E+00 -0.29259076605E+03  0.29259076605E+03  0.00000000000E+00 0. -1.
         23    2    1    2    0    0  0.45175748247E+02  0.77697511888E+01 -0.64349727563E+02  0.12208344440E+03  0.93071277498E+02 0.  0.
         23    2    1    2    0    0 -0.17014170703E+00  0.10022524169E+03 -0.12494803108E+03  0.18402914112E+03  0.90606767344E+02 0.  0.
        -13    1    3    3    0    0  0.59728199998E+02  0.36924700012E+02 -0.51388092208E+02  0.87015098499E+02  0.00000000000E+00 0. -1.
         13    1    3    3    0    0 -0.14552451751E+02 -0.29154948824E+02 -0.12961635354E+02  0.35068345897E+02  0.00000000000E+00 0.  1.
        -13    1    4    4    0    0 -0.40337214503E+02  0.62015247334E+02 -0.44509500383E+02  0.86336999022E+02  0.00000000000E+00 0.  1.
         13    1    4    4    0    0  0.40167072796E+02  0.38209994353E+02 -0.80438530701E+02  0.97692142094E+02  0.00000000000E+00 0. -1.
         21    1    1    2  503  502 -0.40196134838E+02 -0.35421653250E+02  0.94078939825E+02  0.10826481281E+03  0.00000000000E+00 0. -1.
          2    1    1    2  501    0 -0.48094717020E+01 -0.72573339626E+02 -0.27989510462E+01  0.72786363898E+02  0.00000000000E+00 0. -1.
<scales pt_clust_5="13000.00000" pt_clust_6="13000.00000" pt_clust_7="13000.00000" pt_clust_8="13000.00000" pt_clust_9="53.57633" pt_clust_10="13000.00000"></scales>
<clustering>
<clus scale="   53.576">  1  9  2 -1</clus>
<clus scale="   90.607">  7  8 -1 -1</clus>
<clus scale="   88.114">  7 10 -1 -1</clus>
<clus scale="   93.071">  5  6 -1 -1</clus>
<clus scale="   98.717">  2  5  1 -1</clus>
<clus scale="   53.576">  1  5  2 -1</clus>
</clustering>
</event>
<event>
10    2  0.5692308E-006  0.1024755E+04  0.7546771E-02  0.9876436E-01
          1   -1    0    0  503    0 -0.00000000000E+00  0.00000000000E+00  0.12968546165E+04  0.12968546165E+04  0.00000000000E+00 0. -1.
         21   -1    0    0  501  502  0.00000000000E+00 -0.00000000000E+00 -0.82791671902E+03  0.82791671902E+03  0.00000000000E+00 0.  1.
         23    2    1    2    0    0  0.28796484861E+02 -0.91718663293E+02  0.35878314318E+03  0.38237069963E+03  0.90776964950E+02 0.  0.
         23    2    1    2    0    0  0.98817779931E+02  0.27343869995E+02  0.54502306170E+03  0.56193929236E+03  0.90625546371E+02 0.  0.
        -13    1    3    3    0    0  0.59686467723E+02 -0.56871239466E+02  0.18658825169E+03  0.20399016637E+03  0.00000000000E+00 0. -1.
         13    1    3    3    0    0 -0.30889982862E+02 -0.34847423827E+02  0.17219489150E+03  0.17838053326E+03  0.00000000000E+00 0.  1.
        -13    1    4    4    0    0 -0.14508185409E+02  0.15130908023E+02  0.12402933595E+03  0.12578834603E+03  0.00000000000E+00 0.  1.
         13    1    4    4    0    0  0.11332596534E+03  0.12212961971E+02  0.42099372575E+03  0.43615094633E+03  0.00000000000E+00 0. -1.
         21    1    1    2  503  502 -0.55252280073E+03 -0.20935189411E+03 -0.26118680667E+03  0.64600944952E+03  0.00000000000E+00 0.  1.
          1    1    1    2  501    0  0.42490853594E+03  0.27372668740E+03 -0.17368150072E+03  0.53445189401E+03  0.00000000000E+00 0. -1.
<scales pt_clust_5="13000.00000" pt_clust_6="13000.00000" pt_clust_7="13000.00000" pt_clust_8="13000.00000" pt_clust_9="592.34752" pt_clust_10="13000.00000"></scales>
<clustering>
<clus scale="   90.626">  7  8 -1 -1</clus>
<clus scale="   90.777">  5  6 -1 -1</clus>
<clus scale="  132.220">  1  5  2 -1</clus>
<clus scale="  500.811">  7 10 -1 -1</clus>
<clus scale="  592.348">  2  9  1 -1</clus>
<clus scale="  592.348">  2  5  1 -1</clus>
</clustering>
</event>
<event>
10    2  0.5692308E-006  0.2604614E+03  0.7546771E-02  0.1113867E+00
         21   -1    0    0  503  502  0.00000000000E+00  0.00000000000E+00  0.41476473724E+03  0.41476473724E+03  0.00000000000E+00 0. -1.
          1   -1    0    0  502    0 -0.00000000000E+00 -0.00000000000E+00 -0.35926171422E+03  0.35926171422E+03  0.00000000000E+00 0. -1.
         23    2    1    2    0    0  0.19946685056E+03 -0.13109995866E+03  0.24934821079E+03  0.35993847691E+03  0.10201447596E+03 0.  0.
         23    2    1    2    0    0 -0.89004729952E+02  0.88695792336E+02 -0.23525530246E+03  0.28109492717E+03  0.88772266008E+02 0.  0.
        -13    1    3    3    0    0  0.12350170322E+03 -0.71365772180E+02  0.76370703081E+02  0.16179687397E+03  0.00000000000E+00 0. -1.
         13    1    3    3    0    0  0.75965147342E+02 -0.59734186482E+02  0.17297750771E+03  0.19814160294E+03  0.00000000000E+00 0.  1.
        -13    1    4    4    0    0 -0.26377128147E+02  0.83066814903E+02 -0.10501507826E+03  0.13646983289E+03  0.00000000000E+00 0. -1.
         13    1    4    4    0    0 -0.62627601805E+02  0.56289774330E+01 -0.13024022421E+03  0.14462509428E+03  0.00000000000E+00 0.  1.
         21    1    1    2  503  501 -0.47437430172E+02  0.27132803937E+02  0.40702034442E+02  0.68140695906E+02  0.00000000000E+00 0. -1.
          1    1    1    2  501    0 -0.63024690433E+02  0.15271362389E+02  0.70808025674E+00  0.64852351469E+02  0.00000000000E+00 0. -1.
<scales pt_clust_5="13000.00000" pt_clust_6="13000.00000" pt_clust_7="13000.00000" pt_clust_8="13000.00000" pt_clust_9="54.64887" pt_clust_10="13000.00000"></scales>
<clustering>
<clus scale="   54.649">  1  9  2 -1</clus>
<clus scale="   88.772">  7  8 -1 -1</clus>
<clus scale="   69.637">  7 10 -1 -1</clus>
<clus scale="  102.014">  5  6 -1 -1</clus>
<clus scale="  217.950">  2  5  1 -1</clus>
<clus scale="   54.649">  1  5  2 -1</clus>
</clustering>
</event>
<event>
10    2  0.5692308E-006  0.2623176E+03  0.7546771E-02  0.1141937E+00
         -3   -1    0    0    0  501 -0.00000000000E+00  0.00000000000E+00  0.14290317244E+03  0.14290317244E+03  0.00000000000E+00 0.  1.
         21   -1    0    0  501  502  0.00000000000E+00 -0.00000000000E+00 -0.34611271133E+03  0.34611271133E+03  0.00000000000E+00 0.  1.
         23    2    1    2    0    0 -0.25347534123E+02  0.65649302355E+02 -0.38965243512E+02  0.11940620402E+03  0.88245243329E+02 0.  0.
         23    2    1    2    0    0  0.23200306384E+02  0.75537098776E+02  0.30988600606E+02  0.12297258804E+03  0.88982338322E+02 0.  0.
        -13    1    3    3    0    0  0.22036562208E+02  0.17321781608E+02 -0.43306031469E+02  0.51585526591E+02  0.00000000000E+00 0. -1.
         13    1    3    3    0    0 -0.47384096331E+02  0.48327520746E+02  0.43407879569E+01  0.67820677427E+02  0.00000000000E+00 0.  1.
        -13    1    4    4    0    0  0.47861570643E+02  0.71664131977E+02  0.41786732470E+02  0.95773737355E+02  0.00000000000E+00 0.  1.
         13    1    4    4    0    0 -0.24661264259E+02  0.38729667985E+01 -0.10798131864E+02  0.27198850682E+02  0.00000000000E+00 0. -1.
         21    1    1    2  503  502 -0.49030028531E+01 -0.37180120323E+02 -0.94522431867E+02  0.10169017116E+03  0.00000000000E+00 0.  1.
         -3    1    1    2    0  503  0.70502305915E+01 -0.10400628081E+03 -0.10071046412E+03  0.14494692057E+03  0.00000000000E+00 0.  1.
<scales pt_clust_5="13000.00000" pt_clust_6="13000.00000" pt_clust_7="13000.00000" pt_clust_8="13000.00000" pt_clust_9="37.50201" pt_clust_10="13000.00000"></scales>
<clustering>
<clus scale="   37.502">  2  9  1 -1</clus>
<clus scale="   88.245">  5  6 -1 -1</clus>
<clus scale="   88.982">  7  8 -1 -1</clus>
<clus scale="  106.788">  1  5  2 -1</clus>
<clus scale="  105.893">  7 10 -1 -1</clus>
<clus scale="   37.502">  2  5  1 -1</clus>
</clustering>
</event>
<event>
10    2  0.5692308E-006  0.2802054E+03  0.7546771E-02  0.1132697E+00
         -4   -1    0    0    0  501 -0.00000000000E+00  0.00000000000E+00  0.48374388378E+03  0.48374388378E+03  0.00000000000E+00 0.  1.
         21   -1    0    0  503  502  0.00000000000E+00 -0.00000000000E+00 -0.15684215779E+03  0.15684215779E+03  0.00000000000E+00 0.  1.
         23    2    1    2    0    0  0.52505581291E+02 -0.44143489600E+02  0.16207544393E+02  0.11718152854E+03  0.93612725599E+02 0.  0.
         23    2    1    2    0    0  0.72219409341E+02  0.65550311527E+02  0.33309332492E+03  0.35897308656E+03  0.91640751552E+02 0.  0.
        -11    1    4    4    0    0  0.50923631902E+02 -0.34335079267E+01  0.21141364581E+03  0.21748732123E+03  0.00000000000E+00 0. -1.
         11    1    4    4    0    0  0.21295777439E+02  0.68983819454E+02  0.12167967911E+03  0.14148576533E+03  0.00000000000E+00 0.  1.
        -13    1    3    3    0    0  0.12583882961E+02  0.21079460084E+02 -0.20846156552E+02  0.32206520936E+02  0.00000000000E+00 0.  1.
         13    1    3    3    0    0  0.39921698330E+02 -0.65222949684E+02  0.37053700945E+02  0.84975007600E+02  0.00000000000E+00 0. -1.
         21    1    1    2  503  501 -0.31745914139E+02 -0.92519683497E-02 -0.55085360006E+02  0.63578298476E+02  0.00000000000E+00 0.  1.
         -4    1    1    2    0  502 -0.92979076493E+02 -0.21397569959E+02  0.32686216681E+02  0.10085312800E+03  0.00000000000E+00 0.  1.
<scales pt_clust_5="13000.00000" pt_clust_6="13000.00000" pt_clust_7="13000.00000" pt_clust_8="13000.00000" pt_clust_9="31.74592" pt_clust_10="13000.00000"></scales>
<clustering>
<clus scale="   31.746">  2  9  1 -1</clus>
<clus scale="   91.641">  5  6 -1 -1</clus>
<clus scale="   93.613">  7  8 -1 -1</clus>
<clus scale="  106.253">  5 10 -1 -1</clus>
<clus scale="  109.606">  1  7  2 -1</clus>
<clus scale="   31.746">  2  5  1 -1</clus>
</clustering>
</event>
<event>
10    2  0.5692308E-006  0.5974582E+03  0.7546771E-02  0.1000678E+00
          4   -1    0    0  502    0 -0.00000000000E+00  0.00000000000E+00  0.22869385661E+04  0.22869385661E+04  0.00000000000E+00 0. -1.
         21   -1    0    0  503  502  0.00000000000E+00 -0.00000000000E+00 -0.15590393428E+03  0.15590393428E+03  0.00000000000E+00 0. -1.
         23    2    1    2    0    0 -0.70645757939E+02 -0.41611974946E+03  0.90619870387E+03  0.10036992598E+04  0.89831198300E+02 0.  0.
         23    2    1    2    0    0  0.14056829388E+03  0.28116049170E+01  0.30554368075E+03  0.34745162683E+03  0.87168467780E+02 0.  0.
        -11    1    4    4    0    0  0.73620786479E+02  0.44246891133E+02  0.17638977636E+03  0.19619164300E+03  0.00000000000E+00 0. -1.
         11    1    4    4    0    0  0.66947507398E+02 -0.41435286216E+02  0.12915390439E+03  0.15125998383E+03  0.00000000000E+00 0.  1.
        -13    1    3    3    0    0  0.13069990213E+02 -0.16022417096E+02  0.69152421742E+02  0.72177558331E+02  0.00000000000E+00 0.  1.
         13    1    3    3    0    0 -0.83715748152E+02 -0.40009733236E+03  0.83704628213E+03  0.93152170146E+03  0.00000000000E+00 0. -1.
         21    1    1    2  503  501 -0.22885259780E+01 -0.21417242207E+02 -0.34868962015E+02  0.40985120799E+02  0.00000000000E+00 0.  1.
          4    1    1    2  501    0 -0.67634009960E+02  0.43472538675E+03  0.95416120922E+03  0.10507064930E+04  0.00000000000E+00 0. -1.
<scales pt_clust_5="13000.00000" pt_clust_6="13000.00000" pt_clust_7="13000.00000" pt_clust_8="13000.00000" pt_clust_9="21.53916" pt_clust_10="13000.00000"></scales>
<clustering>
<clus scale="   21.539">  2  9  1 -1</clus>
<clus scale="   87.168">  5  6 -1 -1</clus>
<clus scale="   89.831">  7  8 -1 -1</clus>
<clus scale="  431.446">  5 10 -1 -1</clus>
<clus scale="  440.221">  1  7  2 -1</clus>
<clus scale="   21.539">  2  5  1 -1</clus>
</clustering>
</event>
<event>
10    2  0.5692308E-006  0.1723578E+03  0.7546771E-02  0.1185136E+00
         -3   -1    0    0    0  501 -0.00000000000E+00  0.00000000000E+00  0.28924791648E+03  0.28924791648E+03  0.00000000000E+00 0.  1.
         21   -1    0    0  503  502  0.00000000000E+00 -0.00000000000E+00 -0.15265647829E+03  0.15265647829E+03  0.00000000000E+00 0. -1.
         23    2    1    2    0    0 -0.72592274482E+02 -0.66133360142E+02  0.13641708235E+03  0.18982140514E+03  0.88200259943E+02 0.  0.
         23    2    1    2    0    0  0.41725743198E+02  0.42186449063E+02  0.85673223832E+01  0.11273226323E+03  0.95469524085E+02 0.  0.
        -11    1    3    3    0    0 -0.24289613805E+02 -0.48362104496E+02  0.12361420496E+02  0.55512910271E+02  0.00000000000E+00 0.  1.
         11    1    3    3    0    0 -0.48302660678E+02 -0.17771255645E+02  0.12405566185E+03  0.13430849487E+03  0.00000000000E+00 0. -1.
        -13    1    4    4    0    0  0.11442066140E+02  0.18487856987E+02 -0.43130644696E+02  0.48300872098E+02  0.00000000000E+00 0. -1.
         13    1    4    4    0    0  0.30283677058E+02  0.23698592075E+02  0.51697967079E+02  0.64431391127E+02  0.00000000000E+00 0.  1.
         21    1    1    2  503  501 -0.13223533788E+02 -0.33357308409E+02 -0.45608698601E+02  0.58032105409E+02  0.00000000000E+00 0. -1.
         -3    1    1    2    0  502  0.44090065072E+02  0.57304219488E+02  0.37215732057E+02  0.81318621002E+02  0.00000000000E+00 0.  1.
<scales pt_clust_5="13000.00000" pt_clust_6="13000.00000" pt_clust_7="13000.00000" pt_clust_8="13000.00000" pt_clust_9="35.88275" pt_clust_10="13000.00000"></scales>
<clustering>
<clus scale="   35.883">  2  9  1 -1</clus>
<clus scale="   88.200">  5  6 -1 -1</clus>
<clus scale="   95.470">  7  8 -1 -1</clus>
<clus scale="   64.794">  7 10 -1 -1</clus>
<clus scale="  138.526">  1  5  2 -1</clus>
<clus scale="   35.883">  2  5  1 -1</clus>
</clustering>
</event>
<event>
10    2  0.5692308E-006  0.1906946E+03  0.7546771E-02  0.1184074E+00
         21   -1    0    0  503  502  0.00000000000E+00  0.00000000000E+00  0.51507981241E+02  0.51507981241E+02  0.00000000000E+00 0.  1.
          1   -1    0    0  502    0 -0.00000000000E+00 -0.00000000000E+00 -0.66841535166E+03  0.66841535166E+03  0.00000000000E+00 0. -1.
         23    2    1    2    0    0 -0.33113198272E+02  0.35380312218E+02 -0.13813474874E+03  0.17286131780E+03  0.91932453415E+02 0.  0.
         23    2    1    2    0    0  0.42489744481E+02 -0.56857581331E+02 -0.46734248207E+03  0.48115157144E+03  0.89775699429E+02 0.  0.
        -11    1    3    3    0    0  0.79570225553E+01 -0.26158937685E+02 -0.21691556289E+02  0.34901688254E+02  0.00000000000E+00 0.  1.
         11    1    3    3    0    0 -0.41070220828E+02  0.61539249903E+02 -0.11644319245E+03  0.13795962955E+03  0.00000000000E+00 0. -1.
        -13    1    4    4    0    0  0.50480422486E+02 -0.76573294897E+02 -0.34551043447E+03  0.35747615707E+03  0.00000000000E+00 0.  1.
         13    1    4    4    0    0 -0.79906780053E+01  0.19715713566E+02 -0.12183204760E+03  0.12367541437E+03  0.00000000000E+00 0. -1.
         21    1    1    2  503  501 -0.17292771365E+02 -0.14848450186E+02  0.77522741279E+01  0.24075177436E+02  0.00000000000E+00 0.  1.
          1    1    1    2  501    0  0.79162251571E+01  0.36325719299E+02 -0.19182413739E+02  0.41835266225E+02  0.00000000000E+00 0. -1.
<scales pt_clust_5="13000.00000" pt_clust_6="13000.00000" pt_clust_7="13000.00000" pt_clust_8="13000.00000" pt_clust_9="22.79290" pt_clust_10="13000.00000"></scales>
<clustering>
<clus scale="   22.793">  1  9  2 -1</clus>
<clus scale="   89.776">  7  8 -1 -1</clus>
<clus scale="   31.693">  7 10 -1 -1</clus>
<clus scale="   91.932">  5  6 -1 -1</clus>
<clus scale="  104.736">  2  5  1 -1</clus>
<clus scale="   22.793">  1  5  2 -1</clus>
</clustering>
</event>
<event>
10    2  0.5692308E-006  0.1657342E+03  0.7546771E-02  0.1204858E+00
         21   -1    0    0  501  502  0.00000000000E+00  0.00000000000E+00  0.29885228328E+02  0.29885228328E+02  0.00000000000E+00 0. -1.
          2   -1    0    0  503    0 -0.00000000000E+00 -0.00000000000E+00 -0.75408404686E+03  0.75408404686E+03  0.00000000000E+00 0.  1.
         23    2    1    2    0    0 -0.33619103142E+02 -0.18554365258E+00 -0.18502383157E+03  0.20916165303E+03  0.91566917210E+02 0.  0.
         23    2    1    2    0    0  0.93030912243E+01  0.24017140394E+02 -0.43243526950E+03  0.44332607619E+03  0.94203911763E+02 0.  0.
        -13    1    3    3    0    0 -0.13530362286E+02  0.45483547424E+02 -0.83541910612E+02  0.96078481559E+02  0.00000000000E+00 0.  1.
         13    1    3    3    0    0 -0.20088740856E+02 -0.45669091077E+02 -0.10148192096E+03  0.11308317148E+03  0.00000000000E+00 0. -1.
        -13    1    4    4    0    0 -0.32449273567E+02 -0.16139306300E+02 -0.11264980443E+03  0.11833600890E+03  0.00000000000E+00 0. -1.
         13    1    4    4    0    0  0.41752364791E+02  0.40156446694E+02 -0.31978546506E+03  0.32499006730E+03  0.00000000000E+00 0.  1.
         21    1    1    2  503  502 -0.19335958389E+02  0.88915272077E+01 -0.21303923398E+02  0.30113048585E+02  0.00000000000E+00 0. -1.
          2    1    1    2  501    0  0.43651970307E+02 -0.32723123949E+02 -0.85435794066E+02  0.10136849738E+03  0.00000000000E+00 0.  1.
<scales pt_clust_5="13000.00000" pt_clust_6="13000.00000" pt_clust_7="13000.00000" pt_clust_8="13000.00000" pt_clust_9="21.28235" pt_clust_10="13000.00000"></scales>
<clustering>
<clus scale="   21.282">  1  9  2 -1</clus>
<clus scale="   91.567">  5  6 -1 -1</clus>
<clus scale="   94.204">  7  8 -1 -1</clus>
<clus scale="   48.071">  7 10 -1 -1</clus>
<clus scale="  101.147">  2  5  1 -1</clus>
<clus scale="   21.282">  1  5  2 -1</clus>
</clustering>
</event>
<event>
10    2  0.5692308E-006  0.6646761E+03  0.7546771E-02  0.1003591E+00
          1   -1    0    0  502    0 -0.00000000000E+00  0.00000000000E+00  0.81167911084E+03  0.81167911084E+03  0.00000000000E+00 0. -1.
         21   -1    0    0  503  502  0.00000000000E+00 -0.00000000000E+00 -0.11913102778E+04  0.11913102778E+04  0.00000000000E+00 0.  1.
         23    2    1    2    0    0  0.24309822321E+03 -0.13081665380E+03  0.51972949248E+02  0.29557287552E+03  0.91936903641E+02 0.  0.
         23    2    1    2    0    0 -0.28937511040E+03  0.18671566310E+03  0.40687639316E+03  0.53987370519E+03  0.85524995667E+02 0.  0.
        -11    1    4    4    0    0 -0.19036411104E+02  0.33855093249E+02  0.80333292978E+02  0.89229985136E+02  0.00000000000E+00 0.  1.
         11    1    4    4    0    0 -0.27033869930E+03  0.15286056985E+03  0.32654310018E+03  0.45064372006E+03  0.00000000000E+00 0. -1.
        -13    1    3    3    0    0  0.37154134629E+02 -0.27683302966E+02  0.45823902745E+02  0.65166134195E+02  0.00000000000E+00 0.  1.
         13    1    3    3    0    0  0.20594408858E+03 -0.10313335083E+03  0.61490465027E+01  0.23040674132E+03  0.00000000000E+00 0. -1.
         21    1    1    2  503  501  0.76360494783E+02  0.21470635321E+03 -0.86449973963E+03  0.89402994530E+03  0.00000000000E+00 0.  1.
          1    1    1    2  501    0 -0.30083607590E+02 -0.27060536251E+03  0.26019230281E+02  0.27351286260E+03  0.00000000000E+00 0. -1.
<scales pt_clust_5="13000.00000" pt_clust_6="13000.00000" pt_clust_7="13000.00000" pt_clust_8="13000.00000" pt_clust_9="227.88098" pt_clust_10="13000.00000"></scales>
<clustering>
<clus scale="   85.525">  5  6 -1 -1</clus>
<clus scale="   91.937">  7  8 -1 -1</clus>
<clus scale="  227.881">  2  9  1 -1</clus>
<clus scale="  185.460">  5 10 -1 -1</clus>
<clus scale="  291.786">  1  7  2 -1</clus>
<clus scale="  227.881">  2  5  1 -1</clus>
</clustering>
</event>
<event>
10    2  0.5692308E-006  0.1735801E+03  0.7546771E-02  0.1194231E+00
          2   -1    0    0  503    0 -0.00000000000E+00  0.00000000000E+00  0.13989444365E+03  0.13989444365E+03  0.00000000000E+00 0. -1.
         21   -1    0    0  501  502  0.00000000000E+00 -0.00000000000E+00 -0.27560167854E+03  0.27560167854E+03  0.00000000000E+00 0.  1.
         23    2    1    2    0    0 -0.27804448024E+02  0.74600220546E+02  0.58026967415E+02  0.12783379174E+03  0.81462071710E+02 0.  0.
         23    2    1    2    0    0  0.53447639137E+02 -0.41219156396E+01 -0.40050760605E+02  0.11238266412E+03  0.90289309726E+02 0.  0.
        -11    1    3    3    0    0 -0.45801111131E+02  0.42841555058E+02  0.65381064350E+02  0.90597042977E+02  0.00000000000E+00 0. -1.
         11    1    3    3    0    0  0.17996663107E+02  0.31758665488E+02 -0.73540969354E+01  0.37236748761E+02  0.00000000000E+00 0.  1.
        -13    1    4    4    0    0 -0.48448404157E+01 -0.25633208925E+02  0.14371729927E+02  0.29783896649E+02  0.00000000000E+00 0. -1.
         13    1    4    4    0    0  0.58292479553E+02  0.21511293286E+02 -0.54422490532E+02  0.82598767467E+02  0.00000000000E+00 0.  1.
         21    1    1    2  503  502  0.64239614330E+00 -0.24747914849E+02 -0.85871939099E+02  0.89369244636E+02  0.00000000000E+00 0.  1.
          2    1    1    2  501    0 -0.26285587257E+02 -0.45730390057E+02 -0.67811502602E+02  0.85910421704E+02  0.00000000000E+00 0. -1.
<scales pt_clust_5="13000.00000" pt_clust_6="13000.00000" pt_clust_7="13000.00000" pt_clust_8="13000.00000" pt_clust_9="24.75625" pt_clust_10="13000.00000"></scales>
<clustering>
<clus scale="   24.756">  2  9  1 -1</clus>
<clus scale="   81.462">  5  6 -1 -1</clus>
<clus scale="   90.289">  7  8 -1 -1</clus>
<clus scale="   61.614">  7 10 -1 -1</clus>
<clus scale="  110.920">  1  5  2 -1</clus>
<clus scale="   24.756">  2  5  1 -1</clus>
</clustering>
</event>
<event>
10    2  0.5692308E-006  0.1900369E+03  0.7546771E-02  0.1189517E+00
         21   -1    0    0  503  502  0.00000000000E+00  0.00000000000E+00  0.32202423009E+03  0.32202423009E+03  0.00000000000E+00 0.  1.
         -1   -1    0    0    0  501 -0.00000000000E+00 -0.00000000000E+00 -0.14986842589E+03  0.14986842589E+03  0.00000000000E+00 0.  1.
         23    2    1    2    0    0 -0.24852936564E+02  0.40108195466E+01 -0.49893858907E+02  0.10620305942E+03  0.90310229460E+02 0.  0.
         23    2    1    2    0    0  0.57512263309E+02 -0.65543560063E+02  0.98773895309E+02  0.15613287816E+03  0.83770964855E+02 0.  0.
        -11    1    3    3    0    0 -0.23820238779E+02 -0.29665140136E+02 -0.59984952200E+02  0.71032519350E+02  0.00000000000E+00 0. -1.
         11    1    3    3    0    0 -0.10326977844E+01  0.33675959682E+02  0.10091093293E+02  0.35170540074E+02  0.00000000000E+00 0.  1.
        -11    1    4    4    0    0  0.42412382570E+02 -0.82388563209E+02  0.95856361560E+02  0.13332339478E+03  0.00000000000E+00 0.  1.
         11    1    4    4    0    0  0.15099880739E+02  0.16845003146E+02  0.29175337486E+01  0.22809483389E+02  0.00000000000E+00 0. -1.
         21    1    1    2  503  501  0.63312713478E+01  0.32565973276E+02 -0.32464645779E+02  0.46417462639E+02  0.00000000000E+00 0.  1.
         -1    1    1    2    0  502 -0.38990598093E+02  0.28966767241E+02  0.15574041358E+03  0.16313925575E+03  0.00000000000E+00 0.  1.
<scales pt_clust_5="13000.00000" pt_clust_6="13000.00000" pt_clust_7="13000.00000" pt_clust_8="13000.00000" pt_clust_9="33.17572" pt_clust_10="13000.00000"></scales>
<clustering>
<clus scale="   33.176">  1  9  2 -1</clus>
<clus scale="   83.771">  7  8 -1 -1</clus>
<clus scale="   57.846">  7 10 -1 -1</clus>
<clus scale="   90.310">  5  6 -1 -1</clus>
<clus scale="   93.775">  2  5  1 -1</clus>
<clus scale="   33.176">  1  5  2 -1</clus>
</clustering>
</event>
<event>
10    2  0.5692308E-006  0.2100295E+03  0.7546771E-02  0.1157684E+00
         21   -1    0    0  503  502  0.00000000000E+00  0.00000000000E+00  0.18969456595E+03  0.18969456595E+03  0.00000000000E+00 0.  1.
         -1   -1    0    0    0  501 -0.00000000000E+00 -0.00000000000E+00 -0.22813094696E+03  0.22813094696E+03  0.00000000000E+00 0.  1.
         23    2    1    2    0    0  0.31036103241E+02 -0.11669356085E+03 -0.36620835349E+02  0.15539191021E+03  0.90691418166E+02 0.  0.
         23    2    1    2    0    0  0.18981083854E+02  0.66454230416E+02 -0.90218434009E+02  0.14560203014E+03  0.91017245953E+02 0.  0.
        -11    1    3    3    0    0  0.60944516644E+02 -0.64611483618E+02 -0.34534370414E+02  0.95296907946E+02  0.00000000000E+00 0.  1.
         11    1    3    3    0    0 -0.29908413403E+02 -0.52082077235E+02 -0.20864649349E+01  0.60095002266E+02  0.00000000000E+00 0. -1.
        -13    1    4    4    0    0 -0.15935741836E+02  0.72791612488E+02 -0.78487827657E+02  0.10822617894E+03  0.00000000000E+00 0. -1.
         13    1    4    4    0    0  0.34916825690E+02 -0.63373820727E+01 -0.11730606352E+02  0.37375851203E+02  0.00000000000E+00 0.  1.
         21    1    1    2  503  501 -0.10764526925E+02  0.21170643419E+02  0.47563746477E+02  0.53163720351E+02  0.00000000000E+00 0. -1.
         -1    1    1    2    0  502 -0.39252660170E+02  0.29068687018E+02  0.40839141878E+02  0.63667852207E+02  0.00000000000E+00 0.  1.
<scales pt_clust_5="13000.00000" pt_clust_6="13000.00000" pt_clust_7="13000.00000" pt_clust_8="13000.00000" pt_clust_9="23.75018" pt_clust_10="13000.00000"></scales>
<clustering>
<clus scale="   23.750">  1  9  2 -1</clus>
<clus scale="   90.691">  5  6 -1 -1</clus>
<clus scale="   91.017">  7  8 -1 -1</clus>
<clus scale="   56.953">  7 10 -1 -1</clus>
<clus scale="  143.239">  2  5  1 -1</clus>
<clus scale="   23.750">  1  5  2 -1</clus>
</clustering>
</event>
<event>
10    2  0.5692308E-006  0.3336108E+03  0.7546771E-02  0.1118041E+00
         21   -1    0    0  501  502  0.00000000000E+00  0.00000000000E+00  0.16026102703E+03  0.16026102703E+03  0.00000000000E+00 0.  1.
          1   -1    0    0  503    0 -0.00000000000E+00 -0.00000000000E+00 -0.73676344261E+03  0.73676344261E+03  0.00000000000E+00 0. -1.
         23    2    1    2    0    0 -0.95955906013E+01  0.60540607155E+02 -0.13339089845E+02  0.11018831079E+03  0.90588586710E+02 0.  0.
         23    2    1    2    0    0  0.13610245228E+03  0.10228489550E+02 -0.31386415780E+03  0.35444344057E+03  0.92146315704E+02 0.  0.
        -13    1    4    4    0    0  0.70677522629E+02 -0.39795055982E+02 -0.13429670695E+03  0.15689029346E+03  0.00000000000E+00 0.  1.
         13    1    4    4    0    0  0.65424929649E+02  0.50023545531E+02 -0.17956745086E+03  0.19755314711E+03  0.00000000000E+00 0. -1.
        -13    1    3    3    0    0 -0.35059754681E+02  0.29442173290E+02 -0.40950344238E+02  0.61424414199E+02  0.00000000000E+00 0. -1.
         13    1    3    3    0    0  0.25464164080E+02  0.31098433865E+02  0.27611254393E+02  0.48763896587E+02  0.00000000000E+00 0.  1.
         21    1    1    2  503  502  0.43204767041E+02 -0.80060445102E+02  0.37992703461E+02  0.98588905468E+02  0.00000000000E+00 0.  1.
          1    1    1    2  501    0 -0.16971162872E+03  0.92913483976E+01 -0.28729187140E+03  0.33380381281E+03  0.00000000000E+00 0. -1.
<scales pt_clust_5="13000.00000" pt_clust_6="13000.00000" pt_clust_7="13000.00000" pt_clust_8="13000.00000" pt_clust_9="90.97432" pt_clust_10="13000.00000"></scales>
<clustering>
<clus scale="   90.589">  7  8 -1 -1</clus>
<clus scale="   90.974">  1  9  2 -1</clus>
<clus scale="   92.146">  5  6 -1 -1</clus>
<clus scale="   93.367">  2  7  1 -1</clus>
<clus scale="  153.176">  5 10 -1 -1</clus>
<clus scale="   90.974">  1  5  2 -1</clus>
</clustering>
</event>
<event>
10    2  0.5692308E-006  0.3547702E+03  0.7546771E-02  0.1107924E+00
         21   -1    0    0  503  502  0.00000000000E+00  0.00000000000E+00  0.16512225576E+03  0.16512225576E+03  0.00000000000E+00 0.  1.
          2   -1    0    0  502    0 -0.00000000000E+00 -0.00000000000E+00 -0.65125997342E+03  0.65125997342E+03  0.00000000000E+00 0. -1.
         23    2    1    2    0    0 -0.10244508049E+01  0.60929012885E+02 -0.12849353974E+03  0.16894329319E+03  0.91202261197E+02 0.  0.
         23    2    1    2    0    0 -0.13019952737E+03 -0.49630536528E+01 -0.22860999220E+03  0.28604086702E+03  0.11216193760E+03 0.  0.
        -13    1    3    3    0    0 -0.14019411321E+02  0.82945019615E+02 -0.98759032046E+02  0.12972959024E+03  0.00000000000E+00 0. -1.
         13    1    3    3    0    0  0.12994960517E+02 -0.22016006730E+02 -0.29734507692E+02  0.39213702947E+02  0.00000000000E+00 0.  1.
        -13    1    4    4    0    0 -0.89356158707E+02 -0.16811934733E+02 -0.22580206491E+03  0.24342090454E+03  0.00000000000E+00 0.  1.
         13    1    4    4    0    0 -0.40843368660E+02  0.11848881080E+02 -0.28079272865E+01  0.42619962483E+02  0.00000000000E+00 0. -1.
         21    1    1    2  503  501 -0.47426691371E+02 -0.91072429724E+02  0.42615811596E+02  0.11117367453E+03  0.00000000000E+00 0.  1.
          2    1    1    2  501    0  0.17865066954E+03  0.35106470491E+02 -0.17164999731E+03  0.25022439445E+03  0.00000000000E+00 0. -1.
<scales pt_clust_5="13000.00000" pt_clust_6="13000.00000" pt_clust_7="13000.00000" pt_clust_8="13000.00000" pt_clust_9="102.68144" pt_clust_10="13000.00000"></scales>
<clustering>
<clus scale="   91.202">  5  6 -1 -1</clus>
<clus scale="  102.681">  1  9  2 -1</clus>
<clus scale="  100.317">  2  5  1 -1</clus>
<clus scale="  112.162">  7  8 -1 -1</clus>
<clus scale="  153.488">  7 10 -1 -1</clus>
<clus scale="  102.681">  1  5  2 -1</clus>
</clustering>
</event>
<event>
10    2  0.5692308E-006  0.1589834E+03  0.7546771E-02  0.1210940E+00
         21   -1    0    0  501  502  0.00000000000E+00  0.00000000000E+00  0.10040555853E+04  0.10040555853E+04  0.00000000000E+00 0.  1.
          3   -1    0    0  503    0 -0.00000000000E+00 -0.00000000000E+00 -0.23443358534E+02  0.23443358534E+02  0.00000000000E+00 0. -1.
         23    2    1    2    0    0 -0.49830597662E+02  0.16731352153E+02  0.27661266943E+03  0.29587938156E+03  0.90923115527E+02 0.  0.
         23    2    1    2    0    0  0.13297763638E+01 -0.22412693526E+02  0.22474676071E+03  0.24246575881E+03  0.88172788385E+02 0.  0.
        -11    1    3    3    0    0 -0.56826926620E+02 -0.21922105820E+02  0.20889053440E+03  0.21758936939E+03  0.00000000000E+00 0. -1.
         11    1    3    3    0    0  0.69963289575E+01  0.38653457972E+02  0.67722135034E+02  0.78290012171E+02  0.00000000000E+00 0.  1.
        -11    1    4    4    0    0 -0.11369703927E+02  0.26958087018E+02  0.33203022977E+02  0.44254371060E+02  0.00000000000E+00 0. -1.
         11    1    4    4    0    0  0.12699480291E+02 -0.49370780544E+02  0.19154373773E+03  0.19821138775E+03  0.00000000000E+00 0.  1.
         21    1    1    2  503  502  0.21297461030E+02 -0.36303782967E+02  0.13868730140E+03  0.14493348155E+03  0.00000000000E+00 0.  1.
          3    1    1    2  501    0  0.27203360269E+02  0.41985124339E+02  0.34056549523E+03  0.34422032191E+03  0.00000000000E+00 0. -1.
<scales pt_clust_5="13000.00000" pt_clust_6="13000.00000" pt_clust_7="13000.00000" pt_clust_8="13000.00000" pt_clust_9="42.08974" pt_clust_10="13000.00000"></scales>
<clustering>
<clus scale="   42.090">  1  9  2 -1</clus>
<clus scale="   88.173">  7  8 -1 -1</clus>
<clus scale="   45.075">  7 10 -1 -1</clus>
<clus scale="   90.923">  5  6 -1 -1</clus>
<clus scale="  100.585">  2  5  1 -1</clus>
<clus scale="   42.090">  1  5  2 -1</clus>
</clustering>
</event>
<event>
10    2  0.5692308E-006  0.3421422E+03  0.7546771E-02  0.1076665E+00
         21   -1    0    0  503  502  0.00000000000E+00  0.00000000000E+00  0.24358850493E+03  0.24358850493E+03  0.00000000000E+00 0. -1.
          1   -1    0    0  502    0 -0.00000000000E+00 -0.00000000000E+00 -0.72473566114E+03  0.72473566114E+03  0.00000000000E+00 0. -1.
         23    2    1    2    0    0  0.60913391409E+02  0.24332821801E+03 -0.16133671615E+03  0.31052285338E+03  0.86462960627E+02 0.  0.
         23    2    1    2    0    0 -0.66676748714E+02  0.14304742334E+02 -0.11579321995E+03  0.16340566271E+03  0.92967340219E+02 0.  0.
        -11    1    3    3    0    0  0.60032492896E+02  0.71121045903E+02 -0.59200949280E+02  0.11030347125E+03  0.00000000000E+00 0. -1.
         11    1    3    3    0    0  0.88089851322E+00  0.17220717211E+03 -0.10213576687E+03  0.20021938214E+03  0.00000000000E+00 0.  1.
        -13    1    4    4    0    0  0.17975542870E+02 -0.16632971366E+02 -0.32403197505E+02  0.40617029513E+02  0.00000000000E+00 0.  1.
         13    1    4    4    0    0 -0.84652291584E+02  0.30937713700E+02 -0.83390022447E+02  0.12278863320E+03  0.00000000000E+00 0. -1.
         21    1    1    2  503  501  0.62889640746E+02 -0.42902518649E+02  0.95074623952E+02  0.12179867462E+03  0.00000000000E+00 0. -1.
          1    1    1    2  501    0 -0.57126283441E+02 -0.21473044170E+03 -0.29909184406E+03  0.37259697535E+03  0.00000000000E+00 0. -1.
<scales pt_clust_5="13000.00000" pt_clust_6="13000.00000" pt_clust_7="13000.00000" pt_clust_8="13000.00000" pt_clust_9="76.12971" pt_clust_10="13000.00000"></scales>
<clustering>
<clus scale="   76.130">  1  9  2 -1</clus>
<clus scale="   86.463">  5  6 -1 -1</clus>
<clus scale="   92.967">  7  8 -1 -1</clus>
<clus scale="  229.908">  7 10 -1 -1</clus>
<clus scale="  254.687">  2  5  1 -1</clus>
<clus scale="   76.130">  1  5  2 -1</clus>
</clustering>
</event>
<event>
10    2  0.5692308E-006  0.2251251E+03  0.7546771E-02  0.1138018E+00
          2   -1    0    0  503    0 -0.00000000000E+00  0.00000000000E+00  0.38407698524E+03  0.38407698524E+03  0.00000000000E+00 0. -1.
         21   -1    0    0  501  502  0.00000000000E+00 -0.00000000000E+00 -0.28133660433E+03  0.28133660433E+03  0.00000000000E+00 0. -1.
         23    2    1    2    0    0  0.92226130424E+02  0.11415450813E+03  0.97065847611E+02  0.19744986603E+03  0.89597767634E+02 0.  0.
         23    2    1    2    0    0 -0.32036029142E+02 -0.14230343945E+03  0.70920812031E+02  0.19324731094E+03  0.10506276965E+03 0.  0.
        -13    1    3    3    0    0  0.68252407408E+02  0.12726420399E+03  0.85102442294E+02  0.16762158101E+03  0.00000000000E+00 0. -1.
         13    1    3    3    0    0  0.23973723016E+02 -0.13109695863E+02  0.11963405317E+02  0.29828285027E+02  0.00000000000E+00 0.  1.
        -13    1    4    4    0    0 -0.33140730832E+02 -0.40496172051E+01  0.39024048997E+02  0.51357412705E+02  0.00000000000E+00 0.  1.
         13    1    4    4    0    0  0.11047016904E+01 -0.13825382224E+03  0.31896763034E+02  0.14188989824E+03  0.00000000000E+00 0. -1.
         21    1    1    2  503  502 -0.38168514725E+02  0.69312307206E+02 -0.15472931883E+03  0.17378778309E+03  0.00000000000E+00 0. -1.
          2    1    1    2  501    0 -0.22021586557E+02 -0.41163375889E+02  0.89483040095E+02  0.10092862950E+03  0.00000000000E+00 0. -1.
<scales pt_clust_5="13000.00000" pt_clust_6="13000.00000" pt_clust_7="13000.00000" pt_clust_8="13000.00000" pt_clust_9="79.12668" pt_clust_10="13000.00000"></scales>
<clustering>
<clus scale="   79.127">  2  9  1 -1</clus>
<clus scale="   89.598">  5  6 -1 -1</clus>
<clus scale="  105.063">  7  8 -1 -1</clus>
<clus scale="   44.694">  7 10 -1 -1</clus>
<clus scale="  185.691">  1  5  2 -1</clus>
<clus scale="   79.127">  2  5  1 -1</clus>
</clustering>
</event>
<event>
10    2  0.5692308E-006  0.1478233E+03  0.7546771E-02  0.1224415E+00
         21   -1    0    0  503  502  0.00000000000E+00  0.00000000000E+00  0.32519436708E+03  0.32519436708E+03  0.00000000000E+00 0. -1.
          2   -1    0    0  502    0 -0.00000000000E+00 -0.00000000000E+00 -0.84329703184E+02  0.84329703184E+02  0.00000000000E+00 0. -1.
         23    2    1    2    0    0  0.13342866572E+02 -0.60485694674E+01  0.80617211447E+02  0.12321985552E+03  0.92029238458E+02 0.  0.
         23    2    1    2    0    0 -0.42334696949E+02 -0.37127740442E+02 -0.21443997630E+02  0.95362633637E+02  0.73915432650E+02 0.  0.
        -11    1    3    3    0    0  0.61506414706E+01 -0.46147912280E+02  0.21146635477E+02  0.51133554446E+02  0.00000000000E+00 0. -1.
         11    1    3    3    0    0  0.71922251018E+01  0.40099342812E+02  0.59470575969E+02  0.72086301070E+02  0.00000000000E+00 0.  1.
        -13    1    4    4    0    0 -0.24938132688E+02 -0.47641153293E+02 -0.40640939306E+02  0.67403827018E+02  0.00000000000E+00 0. -1.
         13    1    4    4    0    0 -0.17396564261E+02  0.10513412851E+02  0.19196941676E+02  0.27958806619E+02  0.00000000000E+00 0.  1.
         21    1    1    2  503  501  0.10610706900E+02  0.23681792123E+02  0.13160240687E+03  0.13413652699E+03  0.00000000000E+00 0. -1.
          2    1    1    2  501    0  0.18381123476E+02  0.19494517786E+02  0.50089043207E+02  0.56805054118E+02  0.00000000000E+00 0. -1.
<scales pt_clust_5="13000.00000" pt_clust_6="13000.00000" pt_clust_7="13000.00000" pt_clust_8="13000.00000" pt_clust_9="25.95023" pt_clust_10="13000.00000"></scales>
<clustering>
<clus scale="   25.950">  1  9  2 -1</clus>
<clus scale="   73.915">  7  8 -1 -1</clus>
<clus scale="   33.688">  7 10 -1 -1</clus>
<clus scale="   92.029">  5  6 -1 -1</clus>
<clus scale="   94.188">  2  5  1 -1</clus>
<clus scale="   25.950">  1  5  2 -1</clus>
</clustering>
</event>
<event>
10    2  0.5692308E-006  0.1334925E+03  0.7546771E-02  0.1230592E+00
         -2   -1    0    0    0  501 -0.00000000000E+00  0.00000000000E+00  0.20032651220E+03  0.20032651220E+03  0.00000000000E+00 0.  1.
         21   -1    0    0  503  502  0.00000000000E+00 -0.00000000000E+00 -0.11709153972E+03  0.11709153972E+03  0.00000000000E+00 0. -1.
         23    2    1    2    0    0  0.39440007003E+02 -0.38846273701E+02  0.34363133349E+02  0.11162046827E+03  0.90629779158E+02 0.  0.
         23    2    1    2    0    0 -0.60858615279E+02 -0.33897422125E+01  0.13206467915E+02  0.10912142047E+03  0.89542236987E+02 0.  0.
        -11    1    3    3    0    0  0.63559896753E+02 -0.21871833534E+02  0.11853544695E+01  0.67228287517E+02  0.00000000000E+00 0. -1.
         11    1    3    3    0    0 -0.24119889750E+02 -0.16974440168E+02  0.33177778879E+02  0.44392180752E+02  0.00000000000E+00 0.  1.
        -13    1    4    4    0    0  0.52934347517E+01  0.20218366860E+02  0.30322705061E+02  0.36827561040E+02  0.00000000000E+00 0.  1.
         13    1    4    4    0    0 -0.66152050031E+02 -0.23608109072E+02 -0.17116237146E+02  0.72293859430E+02  0.00000000000E+00 0. -1.
         21    1    1    2  503  501  0.49123711649E+02  0.19985258342E+02  0.13252641958E+02  0.54664267269E+02  0.00000000000E+00 0.  1.
         -2    1    1    2    0  502 -0.27705103373E+02  0.22250757572E+02  0.22412729260E+02  0.42011895914E+02  0.00000000000E+00 0.  1.
<scales pt_clust_5="13000.00000" pt_clust_6="13000.00000" pt_clust_7="13000.00000" pt_clust_8="13000.00000" pt_clust_9="53.03348" pt_clust_10="13000.00000"></scales>
<clustering>
<clus scale="   53.033">  2  9  1 -1</clus>
<clus scale="   89.542">  7  8 -1 -1</clus>
<clus scale="   33.248">  7 10 -1 -1</clus>
<clus scale="   90.630">  5  6 -1 -1</clus>
<clus scale="  112.520">  1  5  2 -1</clus>
<clus scale="   53.033">  2  5  1 -1</clus>
</clustering>
</event>
<event>
10    2  0.5692308E-006  0.2126087E+03  0.7546771E-02  0.1166083E+00
         21   -1    0    0  501  502  0.00000000000E+00  0.00000000000E+00  0.12953513319E+03  0.12953513319E+03  0.00000000000E+00 0. -1.
          2   -1    0    0  503    0 -0.00000000000E+00 -0.00000000000E+00 -0.29350748289E+03  0.29350748289E+03  0.00000000000E+00 0. -1.
         23    2    1    2    0    0 -0.49900214978E+02  0.33411674305E+02 -0.36252373274E+02  0.11448229425E+03  0.90474248789E+02 0.  0.
         23    2    1    2    0    0  0.10580035361E+02  0.23683673624E+02 -0.15349031728E+03  0.18344937132E+03  0.97064621745E+02 0.  0.
        -11    1    4    4    0    0  0.48010517745E+02 -0.11205835907E+02 -0.75587156885E+02  0.90244107057E+02  0.00000000000E+00 0.  1.
         11    1    4    4    0    0 -0.37430482385E+02  0.34889509531E+02 -0.77903160395E+02  0.93205264263E+02  0.00000000000E+00 0. -1.
        -11    1    3    3    0    0  0.19943460679E+02  0.30514970497E+02 -0.23644352016E+02  0.43450666630E+02  0.00000000000E+00 0.  1.
         11    1    3    3    0    0 -0.69843675657E+02  0.28967038071E+01 -0.12608021259E+02  0.71031627620E+02  0.00000000000E+00 0. -1.
         21    1    1    2  503  502 -0.26810673300E+02 -0.40111453818E+01  0.29708971250E+02  0.40218459230E+02  0.00000000000E+00 0. -1.
          2    1    1    2  501    0  0.66130852917E+02 -0.53084202547E+02 -0.39386303936E+01  0.84892491287E+02  0.00000000000E+00 0. -1.
<scales pt_clust_5="13000.00000" pt_clust_6="13000.00000" pt_clust_7="13000.00000" pt_clust_8="13000.00000" pt_clust_9="27.10907" pt_clust_10="13000.00000"></scales>
<clustering>
<clus scale="   27.109">  1  9  2 -1</clus>
<clus scale="   90.474">  7  8 -1 -1</clus>
<clus scale="   97.065">  5  6 -1 -1</clus>
<clus scale="   77.398">  5 10 -1 -1</clus>
<clus scale="  113.638">  2  7  1 -1</clus>
<clus scale="   27.109">  1  5  2 -1</clus>
</clustering>
</event>
<event>
10    2  0.5692308E-006  0.3575856E+03  0.7546771E-02  0.1109959E+00
         21   -1    0    0  501  502  0.00000000000E+00  0.00000000000E+00  0.22704595394E+03  0.22704595394E+03  0.00000000000E+00 0.  1.
         -1   -1    0    0    0  501 -0.00000000000E+00 -0.00000000000E+00 -0.60198053752E+03  0.60198053752E+03  0.00000000000E+00 0.  1.
         23    2    1    2    0    0  0.60028441093E+01  0.20268756443E+02 -0.43670996361E+02  0.10379067759E+03  0.91752341698E+02 0.  0.
         23    2    1    2    0    0 -0.10760684568E+03 -0.42471363152E+01 -0.47136165054E+03  0.49183652760E+03  0.90133749968E+02 0.  0.
        -11    1    4    4    0    0 -0.25625222186E+02  0.37874761372E+02 -0.20303822442E+03  0.20812417000E+03  0.00000000000E+00 0.  1.
         11    1    4    4    0    0 -0.81981623490E+02 -0.42121897687E+02 -0.26832342611E+03  0.28371235760E+03  0.00000000000E+00 0. -1.
        -11    1    3    3    0    0  0.28653593452E+02  0.36729910755E+02  0.58010647165E+01  0.46944297988E+02  0.00000000000E+00 0. -1.
         11    1    3    3    0    0 -0.22650749342E+02 -0.16461154311E+02 -0.49472061078E+02  0.56846379606E+02  0.00000000000E+00 0.  1.
         21    1    1    2  503  502  0.58479184860E+01 -0.21928723121E+02  0.13546118084E+03  0.13734918479E+03  0.00000000000E+00 0.  1.
         -1    1    1    2    0  503  0.95756083081E+02  0.59071029924E+01  0.46368824841E+01  0.96050101468E+02  0.00000000000E+00 0.  1.
<scales pt_clust_5="13000.00000" pt_clust_6="13000.00000" pt_clust_7="13000.00000" pt_clust_8="13000.00000" pt_clust_9="22.69509" pt_clust_10="13000.00000"></scales>
<clustering>
<clus scale="   22.695">  1  9  2 -1</clus>
<clus scale="   90.134">  5  6 -1 -1</clus>
<clus scale="   91.752">  7  8 -1 -1</clus>
<clus scale="   93.008">  2  7  1 -1</clus>
<clus scale="   99.885">  5 10 -1 -1</clus>
<clus scale="   22.695">  1  5  2 -1</clus>
</clustering>
</event>
<event>
10    2  0.5692308E-006  0.2915591E+03  0.7546771E-02  0.1103721E+00
          2   -1    0    0  503    0 -0.00000000000E+00  0.00000000000E+00  0.13174843209E+04  0.13174843209E+04  0.00000000000E+00 0. -1.
         21   -1    0    0  501  502  0.00000000000E+00 -0.00000000000E+00 -0.62960560433E+02  0.62960560433E+02  0.00000000000E+00 0. -1.
         23    2    1    2    0    0 -0.16536903538E+03  0.74595268668E+02  0.78149273657E+03  0.80776634277E+03  0.94043581517E+02 0.  0.
         23    2    1    2    0    0  0.61133275099E+02  0.50956684894E+02  0.32030167457E+03  0.34338782741E+03  0.94805992557E+02 0.  0.
        -13    1    4    4    0    0  0.84294187379E+02  0.22833683895E+02  0.22863578733E+03  0.24474723776E+03  0.00000000000E+00 0.  1.
         13    1    4    4    0    0 -0.23160912280E+02  0.28123000999E+02  0.91665887244E+02  0.98640589653E+02  0.00000000000E+00 0. -1.
        -13    1    3    3    0    0 -0.14929848027E+03  0.55694991635E+02  0.75433846624E+03  0.77098540191E+03  0.00000000000E+00 0. -1.
         13    1    3    3    0    0 -0.16070555110E+02  0.18900277033E+02  0.27154270335E+02  0.36780940865E+02  0.00000000000E+00 0.  1.
         21    1    1    2  503  502  0.19239984667E+01 -0.31552690626E+02  0.21947364985E+02  0.38483254613E+02  0.00000000000E+00 0.  1.
          2    1    1    2  501    0  0.10231176182E+03 -0.93999262936E+02  0.13078198432E+03  0.19080745651E+03  0.00000000000E+00 0. -1.
<scales pt_clust_5="13000.00000" pt_clust_6="13000.00000" pt_clust_7="13000.00000" pt_clust_8="13000.00000" pt_clust_9="31.61130" pt_clust_10="13000.00000"></scales>
<clustering>
<clus scale="   31.611">  2  9  1 -1</clus>
<clus scale="   94.044">  7  8 -1 -1</clus>
<clus scale="   94.806">  5  6 -1 -1</clus>
<clus scale="  151.907">  5 10 -1 -1</clus>
<clus scale="  201.320">  1  7  2 -1</clus>
<clus scale="   31.611">  2  5  1 -1</clus>
</clustering>
</event>
<event>
10    2  0.5692308E-006  0.2873867E+03  0.7546771E-02  0.1135726E+00
         21   -1    0    0  501  502  0.00000000000E+00  0.00000000000E+00  0.26236423565E+03  0.26236423565E+03  0.00000000000E+00 0.  1.
          1   -1    0    0  503    0 -0.00000000000E+00 -0.00000000000E+00 -0.19021165054E+03  0.19021165054E+03  0.00000000000E+00 0. -1.
         23    2    1    2    0    0  0.62117048966E+01  0.59684399193E+01 -0.40405077444E+02  0.10292183016E+03  0.94266246804E+02 0.  0.
         23    2    1    2    0    0  0.68852898522E-01 -0.76511319461E+02 -0.47020222082E+02  0.12844410693E+03  0.91831370316E+02 0.  0.
        -11    1    3    3    0    0  0.39836341278E+02  0.30624490572E+02 -0.34163905414E+02  0.60761549868E+02  0.00000000000E+00 0.  1.
         11    1    3    3    0    0 -0.33624636382E+02 -0.24656050653E+02 -0.62411720295E+01  0.42160280287E+02  0.00000000000E+00 0. -1.
        -13    1    4    4    0    0 -0.28087503116E+02 -0.72122727699E+02 -0.59210486198E+02  0.97449871000E+02  0.00000000000E+00 0.  1.
         13    1    4    4    0    0  0.28156356015E+02 -0.43885917618E+01  0.12190264117E+02  0.30994235930E+02  0.00000000000E+00 0. -1.
         21    1    1    2  503  502 -0.14677791743E+02 -0.37951034674E+02  0.23558387221E+02  0.47018254027E+02  0.00000000000E+00 0.  1.
          1    1    1    2  501    0  0.83972339482E+01  0.10849391422E+03  0.13601949741E+03  0.17419169509E+03  0.00000000000E+00 0. -1.
<scales pt_clust_5="13000.00000" pt_clust_6="13000.00000" pt_clust_7="13000.00000" pt_clust_8="13000.00000" pt_clust_9="40.69052" pt_clust_10="13000.00000"></scales>
<clustering>
<clus scale="   40.691">  1  9  2 -1</clus>
<clus scale="   91.831">  7  8 -1 -1</clus>
<clus scale="   82.587">  7 10 -1 -1</clus>
<clus scale="   94.266">  5  6 -1 -1</clus>
<clus scale="   94.362">  2  5  1 -1</clus>
<clus scale="   40.691">  1  5  2 -1</clus>
</clustering>
</event>
<event>
10    2  0.5692308E-006  0.2627078E+03  0.7546771E-02  0.1115555E+00
          2   -1    0    0  502    0 -0.00000000000E+00  0.00000000000E+00  0.14407022386E+04  0.14407022386E+04  0.00000000000E+00 0. -1.
         21   -1    0    0  503  502  0.00000000000E+00 -0.00000000000E+00 -0.11093884021E+03  0.11093884021E+03  0.00000000000E+00 0.  1.
         23    2    1    2    0    0 -0.15277276872E+03  0.11357814152E+03  0.56428960482E+03  0.60251569032E+03  0.91448815625E+02 0.  0.
         23    2    1    2    0    0  0.18591997093E+03 -0.74304654563E+02  0.80226072440E+03  0.83201117298E+03  0.92373723398E+02 0.  0.
        -13    1    3    3    0    0 -0.12828027441E+03  0.10504970858E+03  0.54641655191E+03  0.57101866719E+03  0.00000000000E+00 0.  1.
         13    1    3    3    0    0 -0.24492494309E+02  0.85284329449E+01  0.17873052915E+02  0.31497023137E+02  0.00000000000E+00 0. -1.
        -13    1    4    4    0    0  0.86314231183E+02 -0.64463591495E+01  0.48431074211E+03  0.49198434627E+03  0.00000000000E+00 0. -1.
         13    1    4    4    0    0  0.99605739751E+02 -0.67858295414E+02  0.31794998229E+03  0.34002682672E+03  0.00000000000E+00 0.  1.
         21    1    1    2  503  501 -0.85025900930E+01 -0.44158723937E+02 -0.65188543349E+02  0.79194905909E+02  0.00000000000E+00 0.  1.
          2    1    1    2  501    0 -0.24644612122E+02  0.48852369753E+01  0.28401612542E+02  0.37919309618E+02  0.00000000000E+00 0. -1.
<scales pt_clust_5="13000.00000" pt_clust_6="13000.00000" pt_clust_7="13000.00000" pt_clust_8="13000.00000" pt_clust_9="44.96984" pt_clust_10="13000.00000"></scales>
<clustering>
<clus scale="   44.970">  2  9  1 -1</clus>
<clus scale="   91.449">  5  6 -1 -1</clus>
<clus scale="   92.374">  7  8 -1 -1</clus>
<clus scale="   25.695">  7 10 -1 -1</clus>
<clus scale="  203.539">  1  5  2 -1</clus>
<clus scale="   44.970">  2  5  1 -1</clus>
</clustering>
</event>
<event>
10    2  0.5692308E-006  0.2076971E+03  0.7546771E-02  0.1169768E+00
         21   -1    0    0  503  502  0.00000000000E+00  0.00000000000E+00  0.23870573598E+03  0.23870573598E+03  0.00000000000E+00 0. -1.
          3   -1    0    0  502    0 -0.00000000000E+00 -0.00000000000E+00 -0.58293910553E+03  0.58293910553E+03  0.00000000000E+00 0. -1.
         23    2    1    2    0    0 -0.49071969021E+02 -0.44227202083E+02 -0.15601961869E+03  0.18826172925E+03  0.82074683893E+02 0.  0.
         23    2    1    2    0    0  0.76221687771E+02  0.79984098633E+01 -0.13828856192E+03  0.18233497769E+03  0.90821789700E+02 0.  0.
        -13    1    3    3    0    0 -0.62446180814E+02 -0.14082906493E+02 -0.64037011636E+02  0.90546080052E+02  0.00000000000E+00 0. -1.
         13    1    3    3    0    0  0.13374211792E+02 -0.30144295590E+02 -0.91982607052E+02  0.97715649195E+02  0.00000000000E+00 0.  1.
        -13    1    4    4    0    0 -0.19318705352E+01  0.35625021343E+02 -0.47341919805E+02  0.59280111676E+02  0.00000000000E+00 0. -1.
         13    1    4    4    0    0  0.78153558307E+02 -0.27626611480E+02 -0.90946642111E+02  0.12305486601E+03  0.00000000000E+00 0.  1.
         21    1    1    2  503  501  0.49254137674E+00 -0.39452461839E+02  0.19202424068E+03  0.19603583436E+03  0.00000000000E+00 0. -1.
          3    1    1    2  501    0 -0.27642260127E+02  0.75681254058E+02 -0.24194942963E+03  0.25501230021E+03  0.00000000000E+00 0. -1.
<scales pt_clust_5="13000.00000" pt_clust_6="13000.00000" pt_clust_7="13000.00000" pt_clust_8="13000.00000" pt_clust_9="39.45554" pt_clust_10="13000.00000"></scales>
<clustering>
<clus scale="   39.456">  1  9  2 -1</clus>
<clus scale="   82.075">  5  6 -1 -1</clus>
<clus scale="   90.822">  7  8 -1 -1</clus>
<clus scale="   75.153">  7 10 -1 -1</clus>
<clus scale="  112.004">  2  5  1 -1</clus>
<clus scale="   39.456">  1  5  2 -1</clus>
</clustering>
</event>
<event>
10    2  0.5692308E-006  0.3249797E+03  0.7546771E-02  0.1108079E+00
         21   -1    0    0  501  502  0.00000000000E+00  0.00000000000E+00  0.12766833606E+03  0.12766833606E+03  0.00000000000E+00 0. -1.
          2   -1    0    0  503    0 -0.00000000000E+00 -0.00000000000E+00 -0.91722435154E+03  0.91722435154E+03  0.00000000000E+00 0. -1.
         23    2    1    2    0    0 -0.11383714154E+02 -0.71515307719E+02 -0.24141977205E+03  0.26829943108E+03  0.91962221550E+02 0.  0.
         23    2    1    2    0    0  0.71772214186E+02  0.11387979541E+03 -0.53191402706E+03  0.55616125992E+03  0.90900804849E+02 0.  0.
        -13    1    4    4    0    0  0.57246270892E+02  0.15755256567E+02 -0.14388831748E+03  0.15565735302E+03  0.00000000000E+00 0.  1.
         13    1    4    4    0    0  0.14525943294E+02  0.98124538843E+02 -0.38802570958E+03  0.40050390690E+03  0.00000000000E+00 0. -1.
        -13    1    3    3    0    0 -0.47355428893E+02 -0.56905729454E+02 -0.12177681338E+03  0.14251452897E+03  0.00000000000E+00 0.  1.
         13    1    3    3    0    0  0.35971714739E+02 -0.14609578266E+02 -0.11964295868E+03  0.12578490211E+03  0.00000000000E+00 0. -1.
         21    1    1    2  503  502  0.34045288427E+02 -0.96754689952E+02  0.22080545731E+02  0.10491950339E+03  0.00000000000E+00 0. -1.
          2    1    1    2  501    0 -0.94433788459E+02  0.54390202261E+02 -0.38302762092E+02  0.11551249321E+03  0.00000000000E+00 0. -1.
<scales pt_clust_5="13000.00000" pt_clust_6="13000.00000" pt_clust_7="13000.00000" pt_clust_8="13000.00000" pt_clust_9="102.56974" pt_clust_10="13000.00000"></scales>
<clustering>
<clus scale="   90.901">  5  6 -1 -1</clus>
<clus scale="   91.962">  7  8 -1 -1</clus>
<clus scale="  102.570">  1  9  2 -1</clus>
<clus scale="   74.050">  5 10 -1 -1</clus>
<clus scale="  129.995">  2  7  1 -1</clus>
<clus scale="  102.570">  1  5  2 -1</clus>
</clustering>
</event>
<event>
10    2  0.5692308E-006  0.3914102E+03  0.7546771E-02  0.1087280E+00
          3   -1    0    0  503    0 -0.00000000000E+00  0.00000000000E+00  0.31972775957E+03  0.31972775957E+03  0.00000000000E+00 0. -1.
         21   -1    0    0  501  502  0.00000000000E+00 -0.00000000000E+00 -0.28779037870E+03  0.28779037870E+03  0.00000000000E+00 0. -1.
         23    2    1    2    0    0 -0.96897924145E+02  0.23021622176E+00  0.66218046087E+02  0.14748036262E+03  0.89310509055E+02 0.  0.
         23    2    1    2    0    0  0.28511591839E+02 -0.10929875899E+03  0.10121118182E+03  0.17347194076E+03  0.84200245371E+02 0.  0.
        -11    1    3    3    0    0 -0.74403119592E+02 -0.26476564511E+02  0.77156703931E+01  0.79349632910E+02  0.00000000000E+00 0. -1.
         11    1    3    3    0    0 -0.22494804553E+02  0.26706780733E+02  0.58502375694E+02  0.68130729710E+02  0.00000000000E+00 0.  1.
        -11    1    4    4    0    0  0.36643982667E+02 -0.30517218802E+02  0.77148352672E+02  0.90697025470E+02  0.00000000000E+00 0.  1.
         11    1    4    4    0    0 -0.81323908276E+01 -0.78781540187E+02  0.24062829144E+02  0.82774915290E+02  0.00000000000E+00 0. -1.
         21    1    1    2  503  502  0.35835734269E+02 -0.58678540047E+02 -0.42901514842E+00  0.68757217561E+02  0.00000000000E+00 0. -1.
          3    1    1    2  501    0  0.32550598037E+02  0.16774708281E+03 -0.13506283189E+03  0.21780861733E+03  0.00000000000E+00 0. -1.
<scales pt_clust_5="13000.00000" pt_clust_6="13000.00000" pt_clust_7="13000.00000" pt_clust_8="13000.00000" pt_clust_9="68.75588" pt_clust_10="13000.00000"></scales>
<clustering>
<clus scale="   68.756">  2  9  1 -1</clus>
<clus scale="   84.200">  7  8 -1 -1</clus>
<clus scale="   89.311">  5  6 -1 -1</clus>
<clus scale="  127.940">  1  5  2 -1</clus>
<clus scale="  129.347">  7 10 -1 -1</clus>
<clus scale="   68.756">  2  5  1 -1</clus>
</clustering>
</event>
<event>
10    2  0.5692308E-006  0.2691561E+03  0.7546771E-02  0.1132762E+00
         -3   -1    0    0    0  501 -0.00000000000E+00  0.00000000000E+00  0.30156737194E+03  0.30156737194E+03  0.00000000000E+00 0.  1.
         21   -1    0    0  503  502  0.00000000000E+00 -0.00000000000E+00 -0.19901284145E+03  0.19901284145E+03  0.00000000000E+00 0.  1.
         23    2    1    2    0    0  0.74246563422E+02  0.48257470703E+02  0.11169109759E+03  0.16834464912E+03  0.89575018560E+02 0.  0.
         23    2    1    2    0    0 -0.14190379639E+02  0.97116471432E+00  0.12412063239E+03  0.15594395242E+03  0.93328853389E+02 0.  0.
        -11    1    3    3    0    0  0.34190389287E+02  0.70316916861E+02  0.55429316621E+02  0.95842895707E+02  0.00000000000E+00 0.  1.
         11    1    3    3    0    0  0.40056174135E+02 -0.22059446158E+02  0.56261780966E+02  0.72501753417E+02  0.00000000000E+00 0. -1.
        -11    1    4    4    0    0  0.20643301481E+02  0.37970318306E+02  0.63967316938E+02  0.77199148988E+02  0.00000000000E+00 0.  1.
         11    1    4    4    0    0 -0.34833681121E+02 -0.36999153592E+02  0.60153315457E+02  0.78744803431E+02  0.00000000000E+00 0. -1.
         21    1    1    2  503  501  0.60031166127E+01 -0.47156775274E+02 -0.40826679463E+02  0.62662721129E+02  0.00000000000E+00 0.  1.
         -3    1    1    2    0  502 -0.66059300395E+02 -0.20718601433E+01 -0.92430520032E+02  0.11362889072E+03  0.00000000000E+00 0.  1.
<scales pt_clust_5="13000.00000" pt_clust_6="13000.00000" pt_clust_7="13000.00000" pt_clust_8="13000.00000" pt_clust_9="47.53734" pt_clust_10="13000.00000"></scales>
<clustering>
<clus scale="   47.537">  2  9  1 -1</clus>
<clus scale="   89.575">  5  6 -1 -1</clus>
<clus scale="   93.329">  7  8 -1 -1</clus>
<clus scale="   71.106">  7 10 -1 -1</clus>
<clus scale="  123.469">  1  5  2 -1</clus>
<clus scale="   47.537">  2  5  1 -1</clus>
</clustering>
</event>
<event>
10    2  0.5692308E-006  0.1692705E+03  0.7546771E-02  0.1188945E+00
          2   -1    0    0  503    0 -0.00000000000E+00  0.00000000000E+00  0.88275971763E+03  0.88275971763E+03  0.00000000000E+00 0. -1.
         21   -1    0    0  501  502  0.00000000000E+00 -0.00000000000E+00 -0.70330145851E+02  0.70330145851E+02  0.00000000000E+00 0.  1.
         23    2    1    2    0    0 -0.84218413175E+02 -0.66718159693E+02  0.68116488151E+03  0.69474776138E+03  0.84526931719E+02 0.  0.
         23    2    1    2    0    0  0.57645855889E+02  0.57500241433E+02  0.12664666447E+03  0.18809564353E+03  0.11274427271E+03 0.  0.
        -11    1    3    3    0    0 -0.56553035087E+02 -0.83276575448E+02  0.57672753743E+03  0.58544674073E+03  0.00000000000E+00 0. -1.
         11    1    3    3    0    0 -0.27665378089E+02  0.16558415755E+02  0.10443734408E+03  0.10930102065E+03  0.00000000000E+00 0.  1.
        -13    1    4    4    0    0  0.29350940215E+02 -0.13253462968E+02 -0.81780566922E+01  0.33226684809E+02  0.00000000000E+00 0. -1.
         13    1    4    4    0    0  0.28294915674E+02  0.70753704401E+02  0.13482472116E+03  0.15486895873E+03  0.00000000000E+00 0.  1.
         21    1    1    2  503  502  0.83164144168E+01  0.18198595303E+02 -0.26415624230E+02  0.33138147552E+02  0.00000000000E+00 0.  1.
          2    1    1    2  501    0  0.18256142870E+02 -0.89806770430E+01  0.31033650029E+02  0.37108311020E+02  0.00000000000E+00 0. -1.
<scales pt_clust_5="13000.00000" pt_clust_6="13000.00000" pt_clust_7="13000.00000" pt_clust_8="13000.00000" pt_clust_9="20.00879" pt_clust_10="13000.00000"></scales>
<clustering>
<clus scale="   20.009">  2  9  1 -1</clus>
<clus scale="   84.527">  5  6 -1 -1</clus>
<clus scale="  112.744">  7  8 -1 -1</clus>
<clus scale="   20.358">  7 10 -1 -1</clus>
<clus scale="  134.383">  1  5  2 -1</clus>
<clus scale="   20.009">  2  5  1 -1</clus>
</clustering>
</event>
<event>
10    2  0.5692308E-006  0.1446623E+03  0.7546771E-02  0.1220506E+00
          2   -1    0    0  502    0 -0.00000000000E+00  0.00000000000E+00  0.13869112757E+03  0.13869112757E+03  0.00000000000E+00 0. -1.
         21   -1    0    0  503  502  0.00000000000E+00 -0.00000000000E+00 -0.15482889838E+03  0.15482889838E+03  0.00000000000E+00 0.  1.
         23    2    1    2    0    0  0.19074440415E+01  0.58012239749E+02 -0.76076812871E-01  0.11040611017E+03  0.93917224578E+02 0.  0.
         23    2    1    2    0    0  0.48889749835E+02 -0.27340223619E+02  0.96752347122E+01  0.10856966497E+03  0.92499008205E+02 0.  0.
        -13    1    3    3    0    0  0.12595287422E+02  0.81526247134E+02  0.91038049009E+01  0.82994273903E+02  0.00000000000E+00 0.  1.
         13    1    3    3    0    0 -0.10687843381E+02 -0.23514007385E+02 -0.91798817137E+01  0.27411836270E+02  0.00000000000E+00 0. -1.
        -13    1    4    4    0    0  0.59862689347E+02 -0.51903775395E+02 -0.19675332721E+01  0.79255376242E+02  0.00000000000E+00 0.  1.
         13    1    4    4    0    0 -0.10972939512E+02  0.24563551777E+02  0.11642767984E+02  0.29314288730E+02  0.00000000000E+00 0. -1.
         21    1    1    2  503  501 -0.23048412290E+02 -0.71170244235E+01 -0.29322757805E+02  0.37969796826E+02  0.00000000000E+00 0. -1.
          2    1    1    2  501    0 -0.27748781587E+02 -0.23554991707E+02  0.35858290930E+01  0.36574453983E+02  0.00000000000E+00 0. -1.
<scales pt_clust_5="13000.00000" pt_clust_6="13000.00000" pt_clust_7="13000.00000" pt_clust_8="13000.00000" pt_clust_9="24.12222" pt_clust_10="13000.00000"></scales>
<clustering>
<clus scale="   24.122">  2  9  1 -1</clus>
<clus scale="   92.499">  7  8 -1 -1</clus>
<clus scale="   39.438">  7 10 -1 -1</clus>
<clus scale="   93.917">  5  6 -1 -1</clus>
<clus scale="  109.059">  1  5  2 -1</clus>
<clus scale="   24.122">  2  5  1 -1</clus>
</clustering>
</event>
<event>
10    2  0.5692308E-006  0.1966823E+03  0.7546771E-02  0.1185349E+00
          3   -1    0    0  502    0 -0.00000000000E+00  0.00000000000E+00  0.39970413059E+03  0.39970413059E+03  0.00000000000E+00 0. -1.
         21   -1    0    0  503  502  0.00000000000E+00 -0.00000000000E+00 -0.16685253664E+03  0.16685253664E+03  0.00000000000E+00 0. -1.
         23    2    1    2    0    0 -0.70499990767E+01  0.14549670635E+02  0.19388758221E+03  0.21497681955E+03  0.91439832724E+02 0.  0.
         23    2    1    2    0    0  0.27069779157E+02 -0.49324930498E+02  0.15288142986E+03  0.18698660813E+03  0.91790731078E+02 0.  0.
        -11    1    4    4    0    0 -0.79070408266E+01 -0.64685480962E+02  0.69513300076E+02  0.95282903132E+02  0.00000000000E+00 0.  1.
         11    1    4    4    0    0  0.34976819983E+02  0.15360550463E+02  0.83368129784E+02  0.91703704998E+02  0.00000000000E+00 0. -1.
        -13    1    3    3    0    0  0.33193185182E+02 -0.20158250391E+02  0.96739540830E+02  0.10424337562E+03  0.00000000000E+00 0. -1.
         13    1    3    3    0    0 -0.40243184258E+02  0.34707921026E+02  0.97148041378E+02  0.11073344393E+03  0.00000000000E+00 0.  1.
         21    1    1    2  503  501  0.28227781489E+02  0.59736621566E+01 -0.10349856943E+03  0.10744508440E+03  0.00000000000E+00 0. -1.
          3    1    1    2  501    0 -0.48247561569E+02  0.28801597707E+02 -0.10418848684E+02  0.57148155138E+02  0.00000000000E+00 0. -1.
<scales pt_clust_5="13000.00000" pt_clust_6="13000.00000" pt_clust_7="13000.00000" pt_clust_8="13000.00000" pt_clust_9="28.85294" pt_clust_10="13000.00000"></scales>
<clustering>
<clus scale="   28.853">  2  9  1 -1</clus>
<clus scale="   91.440">  7  8 -1 -1</clus>
<clus scale="   91.791">  5  6 -1 -1</clus>
<clus scale="   45.823">  5 10 -1 -1</clus>
<clus scale="   92.783">  1  7  2 -1</clus>
<clus scale="   28.853">  2  5  1 -1</clus>
</clustering>
</event>
<event>
10    2  0.5692308E-006  0.1756912E+03  0.7546771E-02  0.1196710E+00
          1   -1    0    0  502    0 -0.00000000000E+00  0.00000000000E+00  0.39552286413E+03  0.39552286413E+03  0.00000000000E+00 0. -1.
         21   -1    0    0  503  502  0.00000000000E+00 -0.00000000000E+00 -0.95256268135E+02  0.95256268135E+02  0.00000000000E+00 0.  1.
         23    2    1    2    0    0  0.27982489137E+02  0.16219899008E+02  0.97520684928E+02  0.13788825752E+03  0.91960767451E+02 0.  0.
         23    2    1    2    0    0 -0.89283784004E+02  0.14304069073E+02  0.23269956749E+03  0.26590744207E+03  0.91550415389E+02 0.  0.
        -11    1    4    4    0    0 -0.10216124642E+03 -0.43434473917E+01  0.16113929557E+03  0.19084459222E+03  0.00000000000E+00 0.  1.
         11    1    4    4    0    0  0.12877462417E+02  0.18647516465E+02  0.71560271925E+02  0.75062849843E+02  0.00000000000E+00 0. -1.
        -11    1    3    3    0    0  0.82319539401E+01 -0.37701361064E+02  0.27783748540E+02  0.47550966075E+02  0.00000000000E+00 0. -1.
         11    1    3    3    0    0  0.19750535197E+02  0.53921260072E+02  0.69736936388E+02  0.90337291442E+02  0.00000000000E+00 0.  1.
         21    1    1    2  503  501  0.32348776623E+02 -0.11821260904E+02 -0.38311579202E+02  0.51516625077E+02  0.00000000000E+00 0.  1.
          1    1    1    2  501    0  0.28952518244E+02 -0.18702707177E+02  0.83579227796E+01  0.35466807604E+02  0.00000000000E+00 0. -1.
<scales pt_clust_5="13000.00000" pt_clust_6="13000.00000" pt_clust_7="13000.00000" pt_clust_8="13000.00000" pt_clust_9="34.44104" pt_clust_10="13000.00000"></scales>
<clustering>
<clus scale="   34.441">  2  9  1 -1</clus>
<clus scale="   91.550">  5  6 -1 -1</clus>
<clus scale="   43.559">  5 10 -1 -1</clus>
<clus scale="   91.961">  7  8 -1 -1</clus>
<clus scale="  101.320">  1  7  2 -1</clus>
<clus scale="   34.441">  2  5  1 -1</clus>
</clustering>
</event>
<event>
10    2  0.5692308E-006  0.4436709E+03  0.7546771E-02  0.1055508E+00
         21   -1    0    0  501  502  0.00000000000E+00  0.00000000000E+00  0.36498369118E+03  0.36498369118E+03  0.00000000000E+00 0. -1.
          2   -1    0    0  503    0 -0.00000000000E+00 -0.00000000000E+00 -0.10710938468E+04  0.10710938468E+04  0.00000000000E+00 0. -1.
         23    2    1    2    0    0  0.18187985250E+03 -0.55365697041E+02 -0.55237203345E+03  0.59084157083E+03  0.88505690896E+02 0.  0.
         23    2    1    2    0    0  0.40110757898E+02  0.39761730019E+01 -0.27569815518E+03  0.29353088597E+03  0.92337562207E+02 0.  0.
        -11    1    4    4    0    0  0.36614432877E+02  0.44808391867E+02 -0.13251198769E+03  0.14459542025E+03  0.00000000000E+00 0. -1.
         11    1    4    4    0    0  0.34963250209E+01 -0.40832218865E+02 -0.14318616750E+03  0.14893546572E+03  0.00000000000E+00 0.  1.
        -11    1    3    3    0    0  0.36370579223E+02  0.16694176809E+02 -0.18349575378E+03  0.18780896205E+03  0.00000000000E+00 0.  1.
         11    1    3    3    0    0  0.14550927328E+03 -0.72059873850E+02 -0.36887627968E+03  0.40303260878E+03  0.00000000000E+00 0. -1.
         21    1    1    2  503  502 -0.37166760171E+03 -0.88266887791E+01  0.11896141146E+03  0.39034156070E+03  0.00000000000E+00 0. -1.
          2    1    1    2  501    0  0.14967699131E+03  0.60216212818E+02  0.29986215569E+01  0.16136352049E+03  0.00000000000E+00 0. -1.
<scales pt_clust_5="13000.00000" pt_clust_6="13000.00000" pt_clust_7="13000.00000" pt_clust_8="13000.00000" pt_clust_9="323.14096" pt_clust_10="13000.00000"></scales>
<clustering>
<clus scale="   88.506">  7  8 -1 -1</clus>
<clus scale="   92.338">  5  6 -1 -1</clus>
<clus scale="  161.336">  5 10 -1 -1</clus>
<clus scale="  209.711">  2  7  1 -1</clus>
<clus scale="  323.141">  1  9  2 -1</clus>
<clus scale="  323.141">  1  5  2 -1</clus>
</clustering>
</event>
<event>
10    2  0.5692308E-006  0.1519462E+03  0.7546771E-02  0.1209126E+00
         21   -1    0    0  501  502  0.00000000000E+00  0.00000000000E+00  0.30146446896E+03  0.30146446896E+03  0.00000000000E+00 0.  1.
         -2   -1    0    0    0  501 -0.00000000000E+00 -0.00000000000E+00 -0.12389387934E+03  0.12389387934E+03  0.00000000000E+00 0.  1.
         23    2    1    2    0    0 -0.93773697679E+02  0.16102092146E+02  0.83366879825E+02  0.15378448279E+03  0.87446250626E+02 0.  0.
         23    2    1    2    0    0  0.50970820018E+02 -0.20083952824E+02 -0.48411957713E+02  0.11623001499E+03  0.90356566345E+02 0.  0.
        -11    1    4    4    0    0  0.12287287187E+02 -0.50732634887E+02 -0.40886906385E+02  0.66306234870E+02  0.00000000000E+00 0. -1.
         11    1    4    4    0    0  0.38683532831E+02  0.30648682062E+02 -0.75250513281E+01  0.49923780125E+02  0.00000000000E+00 0.  1.
        -13    1    3    3    0    0 -0.93098855020E+02 -0.14020798663E+02  0.79848260130E+02  0.12344927803E+03  0.00000000000E+00 0.  1.
         13    1    3    3    0    0 -0.67484265987E+00  0.30122890809E+02  0.35186196952E+01  0.30335204761E+02  0.00000000000E+00 0. -1.
         21    1    1    2  503  502  0.19665432009E+02 -0.57612734908E+01  0.11941315465E+03  0.12115866866E+03  0.00000000000E+00 0.  1.
         -2    1    1    2    0  503  0.23137445652E+02  0.97431341692E+01  0.23202512868E+02  0.34185181851E+02  0.00000000000E+00 0.  1.
<scales pt_clust_5="13000.00000" pt_clust_6="13000.00000" pt_clust_7="13000.00000" pt_clust_8="13000.00000" pt_clust_9="20.49199" pt_clust_10="13000.00000"></scales>
<clustering>
<clus scale="   20.492">  1  9  2 -1</clus>
<clus scale="   87.446">  7  8 -1 -1</clus>
<clus scale="   90.357">  5  6 -1 -1</clus>
<clus scale="   27.697">  5 10 -1 -1</clus>
<clus scale="  119.768">  2  7  1 -1</clus>
<clus scale="   20.492">  1  5  2 -1</clus>
</clustering>
</event>
<event>
10    2  0.5692308E-006  0.8329463E+03  0.7546771E-02  0.9984360E-01
          1   -1    0    0  503    0 -0.00000000000E+00  0.00000000000E+00  0.11715340433E+04  0.11715340433E+04  0.00000000000E+00 0. -1.
         21   -1    0    0  501  502  0.00000000000E+00 -0.00000000000E+00 -0.57356325807E+03  0.57356325807E+03  0.00000000000E+00 0. -1.
         23    2    1    2    0    0 -0.94341452990E+02 -0.11389269463E+03  0.23213318888E+03  0.29032561173E+03  0.92364970654E+02 0.  0.
         23    2    1    2    0    0 -0.40489022518E+03  0.77234022046E+02  0.33476155255E+03  0.53852308464E+03  0.89669543418E+02 0.  0.
        -13    1    4    4    0    0 -0.11661671236E+03  0.25234779306E+02  0.15208813072E+03  0.19330559017E+03  0.00000000000E+00 0.  1.
         13    1    4    4    0    0 -0.28827351283E+03  0.51999242740E+02  0.18267342183E+03  0.34521749447E+03  0.00000000000E+00 0. -1.
        -13    1    3    3    0    0 -0.88902154092E+02 -0.48433603709E+02  0.97651399364E+02  0.14065988329E+03  0.00000000000E+00 0.  1.
         13    1    3    3    0    0 -0.54392988981E+01 -0.65459090917E+02  0.13448178952E+03  0.14966572843E+03  0.00000000000E+00 0. -1.
         21    1    1    2  503  502  0.41903640210E+03 -0.33399985835E+03  0.15161869355E+01  0.53586351853E+03  0.00000000000E+00 0. -1.
          1    1    1    2  501    0  0.80195276067E+02  0.37065853093E+03  0.29559856845E+02  0.38038508645E+03  0.00000000000E+00 0. -1.
<scales pt_clust_5="13000.00000" pt_clust_6="13000.00000" pt_clust_7="13000.00000" pt_clust_8="13000.00000" pt_clust_9="536.81650" pt_clust_10="13000.00000"></scales>
<clustering>
<clus scale="   89.670">  5  6 -1 -1</clus>
<clus scale="   92.365">  7  8 -1 -1</clus>
<clus scale="  174.365">  1  7  2 -1</clus>
<clus scale="  350.014">  5 10 -1 -1</clus>
<clus scale="  536.816">  2  9  1 -1</clus>
<clus scale="  536.816">  2  5  1 -1</clus>
</clustering>
</event>
<event>
10    2  0.5692308E-006  0.1853085E+03  0.7546771E-02  0.1167589E+00
          3   -1    0    0  503    0 -0.00000000000E+00  0.00000000000E+00  0.13689316213E+03  0.13689316213E+03  0.00000000000E+00 0. -1.
         21   -1    0    0  501  502  0.00000000000E+00 -0.00000000000E+00 -0.40006581298E+03  0.40006581298E+03  0.00000000000E+00 0. -1.
         23    2    1    2    0    0 -0.19823275608E+02  0.14920808047E+03 -0.13202868899E+03  0.21992430819E+03  0.90989631722E+02 0.  0.
         23    2    1    2    0    0  0.27152234416E+02 -0.80595992715E+02  0.30885458856E+02  0.12456974343E+03  0.85619808077E+02 0.  0.
        -11    1    3    3    0    0  0.18922150193E+02  0.31375015303E+02  0.27651066628E+01  0.36743505114E+02  0.00000000000E+00 0.  1.
         11    1    3    3    0    0 -0.38745425801E+02  0.11783306517E+03 -0.13479379566E+03  0.18318080307E+03  0.00000000000E+00 0. -1.
        -13    1    4    4    0    0 -0.75853303663E+00 -0.82991766448E+02  0.43662987962E+02  0.93779876244E+02  0.00000000000E+00 0. -1.
         13    1    4    4    0    0  0.27910767452E+02  0.23957737331E+01 -0.12777529106E+02  0.30789867190E+02  0.00000000000E+00 0.  1.
         21    1    1    2  503  502 -0.21540081628E+02 -0.22509672021E+02 -0.13202776218E+03  0.13565393632E+03  0.00000000000E+00 0. -1.
          3    1    1    2  501    0  0.14211122820E+02 -0.46102415735E+02 -0.30001658525E+02  0.56810987165E+02  0.00000000000E+00 0. -1.
<scales pt_clust_5="13000.00000" pt_clust_6="13000.00000" pt_clust_7="13000.00000" pt_clust_8="13000.00000" pt_clust_9="31.15542" pt_clust_10="13000.00000"></scales>
<clustering>
<clus scale="   31.155">  2  9  1 -1</clus>
<clus scale="   85.620">  7  8 -1 -1</clus>
<clus scale="   50.909">  7 10 -1 -1</clus>
<clus scale="   90.990">  5  6 -1 -1</clus>
<clus scale="  165.782">  1  5  2 -1</clus>
<clus scale="   31.155">  2  5  1 -1</clus>
</clustering>
</event>
<event>
10    2  0.5692308E-006  0.4761694E+03  0.7546771E-02  0.1076679E+00
          2   -1    0    0  502    0 -0.00000000000E+00  0.00000000000E+00  0.10935927700E+04  0.10935927700E+04  0.00000000000E+00 0. -1.
         21   -1    0    0  503  502  0.00000000000E+00 -0.00000000000E+00 -0.11543403901E+03  0.11543403901E+03  0.00000000000E+00 0. -1.
         23    2    1    2    0    0  0.31840222758E+02 -0.10963013430E+02  0.21858877097E+03  0.23945942701E+03  0.91792041816E+02 0.  0.
         23    2    1    2    0    0  0.21179167088E+03 -0.14098243419E+03  0.51602990069E+03  0.58265962320E+03  0.92052265023E+02 0.  0.
        -11    1    3    3    0    0 -0.22058581406E+02 -0.65840470219E+01  0.12098780782E+02  0.26005983643E+02  0.00000000000E+00 0.  1.
         11    1    3    3    0    0  0.53898804164E+02 -0.43789664079E+01  0.20648999018E+03  0.21345344336E+03  0.00000000000E+00 0. -1.
        -11    1    4    4    0    0  0.10514999102E+03 -0.16343483039E+02  0.19468814196E+03  0.22187181585E+03  0.00000000000E+00 0.  1.
         11    1    4    4    0    0  0.10664167987E+03 -0.12463895115E+03  0.32134175873E+03  0.36078780735E+03  0.00000000000E+00 0. -1.
         21    1    1    2  503  501 -0.81567377487E+02  0.40421780364E+02  0.28353890996E+02  0.95347262847E+02  0.00000000000E+00 0. -1.
          2    1    1    2  501    0 -0.16206451615E+03  0.11152366726E+03  0.21518616831E+03  0.29156049593E+03  0.00000000000E+00 0. -1.
<scales pt_clust_5="13000.00000" pt_clust_6="13000.00000" pt_clust_7="13000.00000" pt_clust_8="13000.00000" pt_clust_9="91.03383" pt_clust_10="13000.00000"></scales>
<clustering>
<clus scale="   91.034">  2  9  1 -1</clus>
<clus scale="   91.792">  5  6 -1 -1</clus>
<clus scale="   92.052">  7  8 -1 -1</clus>
<clus scale="   94.445">  1  5  2 -1</clus>
<clus scale="  228.820">  7 10 -1 -1</clus>
<clus scale="   91.034">  2  5  1 -1</clus>
</clustering>
</event>
<event>
10    2  0.5692308E-006  0.1787167E+03  0.7546771E-02  0.1184241E+00
         -2   -1    0    0    0  501 -0.00000000000E+00  0.00000000000E+00  0.26177812596E+03  0.26177812596E+03  0.00000000000E+00 0.  1.
         21   -1    0    0  501  502  0.00000000000E+00 -0.00000000000E+00 -0.19966678146E+03  0.19966678146E+03  0.00000000000E+00 0. -1.
         23    2    1    2    0    0  0.45138831963E+02  0.81233462250E+02  0.15959976114E+03  0.20576575289E+03  0.90725254296E+02 0.  0.
         23    2    1    2    0    0 -0.12428162178E+02 -0.89310589074E+02  0.12073835066E+02  0.12966117606E+03  0.92387242351E+02 0.  0.
        -11    1    3    3    0    0 -0.24228356471E+02  0.44640463841E+02  0.72994930694E+02  0.88927184687E+02  0.00000000000E+00 0.  1.
         11    1    3    3    0    0  0.69367188433E+02  0.36592998408E+02  0.86604830446E+02  0.11683856821E+03  0.00000000000E+00 0. -1.
        -11    1    4    4    0    0 -0.20276575206E+02  0.14449128350E+02 -0.75067670857E-01  0.24898241852E+02  0.00000000000E+00 0.  1.
         11    1    4    4    0    0  0.78484130286E+01 -0.10375971742E+03  0.12148902736E+02  0.10476293421E+03  0.00000000000E+00 0. -1.
         21    1    1    2  503  502 -0.15305870873E+02 -0.17023571435E+02 -0.81095594963E+02  0.84264863318E+02  0.00000000000E+00 0. -1.
         -2    1    1    2    0  503 -0.17404798912E+02  0.25100698260E+02 -0.28466656739E+02  0.41753115143E+02  0.00000000000E+00 0.  1.
<scales pt_clust_5="13000.00000" pt_clust_6="13000.00000" pt_clust_7="13000.00000" pt_clust_8="13000.00000" pt_clust_9="22.89261" pt_clust_10="13000.00000"></scales>
<clustering>
<clus scale="   22.893">  2  9  1 -1</clus>
<clus scale="   90.725">  5  6 -1 -1</clus>
<clus scale="   92.387">  7  8 -1 -1</clus>
<clus scale="   29.725">  7 10 -1 -1</clus>
<clus scale="  126.766">  1  5  2 -1</clus>
<clus scale="   22.893">  2  5  1 -1</clus>
</clustering>
</event>
<event>
10    2  0.5692308E-006  0.3075515E+03  0.7546771E-02  0.1118004E+00
         21   -1    0    0  501  502  0.00000000000E+00  0.00000000000E+00  0.14102722507E+04  0.14102722507E+04  0.00000000000E+00 0. -1.
          1   -1    0    0  503    0 -0.00000000000E+00 -0.00000000000E+00 -0.66620746565E+02  0.66620746565E+02  0.00000000000E+00 0. -1.
         23    2    1    2    0    0 -0.70059782690E+02 -0.18106834953E+02  0.57274946729E+02  0.12994785405E+03  0.91486581680E+02 0.  0.
         23    2    1    2    0    0 -0.20737081479E+02 -0.12215627632E+02  0.11268131727E+03  0.14712048181E+03  0.91477367696E+02 0.  0.
        -13    1    4    4    0    0  0.28052853103E+02  0.18009236699E+02  0.22478336939E+02  0.40206601513E+02  0.00000000000E+00 0. -1.
         13    1    4    4    0    0 -0.48789934581E+02 -0.30224864332E+02  0.90202980330E+02  0.10691388030E+03  0.00000000000E+00 0.  1.
        -13    1    3    3    0    0 -0.26511100352E+02  0.27865457450E+02  0.54315757360E+02  0.66554666691E+02  0.00000000000E+00 0.  1.
         13    1    3    3    0    0 -0.43548682338E+02 -0.45972292402E+02  0.29591893688E+01  0.63393187362E+02  0.00000000000E+00 0. -1.
         21    1    1    2  503  502 -0.63228938505E+02  0.24853510333E+02  0.15097807563E+03  0.16555958130E+03  0.00000000000E+00 0. -1.
          1    1    1    2  501    0  0.15402580267E+03  0.54689522515E+01  0.10227171645E+04  0.10342650801E+04  0.00000000000E+00 0. -1.
<scales pt_clust_5="13000.00000" pt_clust_6="13000.00000" pt_clust_7="13000.00000" pt_clust_8="13000.00000" pt_clust_9="67.93818" pt_clust_10="13000.00000"></scales>
<clustering>
<clus scale="   67.938">  1  9  2 -1</clus>
<clus scale="   91.477">  5  6 -1 -1</clus>
<clus scale="   91.487">  7  8 -1 -1</clus>
<clus scale="  105.316">  5 10 -1 -1</clus>
<clus scale="  119.277">  2  7  1 -1</clus>
<clus scale="   67.938">  1  5  2 -1</clus>
</clustering>
</event>
<event>
10    2  0.5692308E-006  0.2340240E+03  0.7546771E-02  0.1143921E+00
         21   -1    0    0  501  502  0.00000000000E+00  0.00000000000E+00  0.70153525748E+03  0.70153525748E+03  0.00000000000E+00 0. -1.
          2   -1    0    0  503    0 -0.00000000000E+00 -0.00000000000E+00 -0.36122057780E+03  0.36122057780E+03  0.00000000000E+00 0. -1.
         23    2    1    2    0    0 -0.24500920166E+02  0.10875896620E+03 -0.27621024347E+03  0.31212014688E+03  0.93263495906E+02 0.  0.
         23    2    1    2    0    0  0.10266687037E+03 -0.10944584505E+03  0.12701285319E+03  0.21728727713E+03  0.92534407977E+02 0.  0.
        -13    1    3    3    0    0 -0.36918952720E+02  0.27453701719E+01 -0.52379113064E+02  0.64141387674E+02  0.00000000000E+00 0.  1.
         13    1    3    3    0    0  0.12418032554E+02  0.10601359603E+03 -0.22383113041E+03  0.24797875920E+03  0.00000000000E+00 0. -1.
        -13    1    4    4    0    0  0.62383277848E+02 -0.38079376707E+02  0.90406686934E+01  0.73644049155E+02  0.00000000000E+00 0. -1.
         13    1    4    4    0    0  0.40283592519E+02 -0.71366468345E+02  0.11797218449E+03  0.14364322798E+03  0.00000000000E+00 0.  1.
         21    1    1    2  503  502 -0.94086025793E+02 -0.63450037555E+02  0.42896469880E+03  0.44372153467E+03  0.00000000000E+00 0. -1.
          2    1    1    2  501    0  0.15920075592E+02  0.64136916405E+02  0.60547371170E+02  0.89626876596E+02  0.00000000000E+00 0. -1.
<scales pt_clust_5="13000.00000" pt_clust_6="13000.00000" pt_clust_7="13000.00000" pt_clust_8="13000.00000" pt_clust_9="113.48166" pt_clust_10="13000.00000"></scales>
<clustering>
<clus scale="   92.534">  7  8 -1 -1</clus>
<clus scale="   66.083">  7 10 -1 -1</clus>
<clus scale="   93.263">  5  6 -1 -1</clus>
<clus scale="  113.482">  1  9  2 -1</clus>
<clus scale="  143.400">  2  5  1 -1</clus>
<clus scale="  113.482">  1  5  2 -1</clus>
</clustering>
</event>
<event>
10    2  0.5692308E-006  0.3968652E+03  0.7546771E-02  0.1086639E+00
          1   -1    0    0  503    0 -0.00000000000E+00  0.00000000000E+00  0.13220895169E+04  0.13220895169E+04  0.00000000000E+00 0. -1.
         21   -1    0    0  501  502  0.00000000000E+00 -0.00000000000E+00 -0.78860149711E+02  0.78860149711E+02  0.00000000000E+00 0. -1.
         23    2    1    2    0    0 -0.36447285020E+02 -0.81141892555E+02  0.66091949578E+03  0.67294096570E+03  0.90125202306E+02 0.  0.
         23    2    1    2    0    0  0.11186660630E+03 -0.50163061864E+02  0.53594242298E+03  0.55734412191E+03  0.91475237582E+02 0.  0.
        -11    1    4    4    0    0  0.92416491440E+02 -0.63406212891E+02  0.51062563965E+03  0.52278073759E+03  0.00000000000E+00 0.  1.
         11    1    4    4    0    0  0.19450114865E+02  0.13243151026E+02  0.25316783328E+02  0.34563384317E+02  0.00000000000E+00 0. -1.
        -13    1    3    3    0    0 -0.54727334638E+02 -0.14071819112E+02  0.26399085790E+03  0.26997086936E+03  0.00000000000E+00 0.  1.
         13    1    3    3    0    0  0.18280049618E+02 -0.67070073444E+02  0.39692863789E+03  0.40297009634E+03  0.00000000000E+00 0. -1.
         21    1    1    2  503  502  0.10201135438E+02  0.26207282720E+02  0.27314253612E+01  0.28255008694E+02  0.00000000000E+00 0.  1.
          1    1    1    2  501    0 -0.85620456722E+02  0.10509767170E+03  0.43636023048E+02  0.14240957030E+03  0.00000000000E+00 0. -1.
<scales pt_clust_5="13000.00000" pt_clust_6="13000.00000" pt_clust_7="13000.00000" pt_clust_8="13000.00000" pt_clust_9="28.12267" pt_clust_10="13000.00000"></scales>
<clustering>
<clus scale="   28.123">  2  9  1 -1</clus>
<clus scale="   90.125">  7  8 -1 -1</clus>
<clus scale="   91.475">  5  6 -1 -1</clus>
<clus scale="  124.848">  1  7  2 -1</clus>
<clus scale="  138.973">  5 10 -1 -1</clus>
<clus scale="   28.123">  2  5  1 -1</clus>
</clustering>
</event>
<event>
10    2  0.5692308E-006  0.2238970E+03  0.7546771E-02  0.1159988E+00
          1   -1    0    0  503    0 -0.00000000000E+00  0.00000000000E+00  0.63558752747E+02  0.63558752747E+02  0.00000000000E+00 0. -1.
         21   -1    0    0  501  502  0.00000000000E+00 -0.00000000000E+00 -0.10944260104E+04  0.10944260104E+04  0.00000000000E+00 0. -1.
         23    2    1    2    0    0 -0.54439943158E+02 -0.23615000495E+02 -0.30206766695E+02  0.11460717415E+03  0.93279043482E+02 0.  0.
         23    2    1    2    0    0 -0.17769247928E+01  0.48604299383E+01 -0.11102143889E+03  0.14196510393E+03  0.88326381118E+02 0.  0.
        -11    1    4    4    0    0  0.32232272689E+02 -0.22107627645E+02 -0.27344772430E+02  0.47701186380E+02  0.00000000000E+00 0.  1.
         11    1    4    4    0    0 -0.34009197482E+02  0.26968057583E+02 -0.83676666456E+02  0.94263917552E+02  0.00000000000E+00 0. -1.
        -13    1    3    3    0    0 -0.52406755724E+02  0.27274411205E+02 -0.21881078816E+02  0.63001136199E+02  0.00000000000E+00 0.  1.
         13    1    3    3    0    0 -0.20331874334E+01 -0.50889411700E+02 -0.83256878787E+01  0.51606037951E+02  0.00000000000E+00 0. -1.
         21    1    1    2  503  502 -0.10210899440E+02 -0.49129032985E+02 -0.29573220697E+03  0.29995910153E+03  0.00000000000E+00 0. -1.
          1    1    1    2  501    0  0.66427767391E+02  0.67883603542E+02 -0.59390684508E+03  0.60145338352E+03  0.00000000000E+00 0. -1.
<scales pt_clust_5="13000.00000" pt_clust_6="13000.00000" pt_clust_7="13000.00000" pt_clust_8="13000.00000" pt_clust_9="50.17892" pt_clust_10="13000.00000"></scales>
<clustering>
<clus scale="   50.179">  2  9  1 -1</clus>
<clus scale="   88.326">  5  6 -1 -1</clus>
<clus scale="   66.452">  5 10 -1 -1</clus>
<clus scale="   93.279">  7  8 -1 -1</clus>
<clus scale="  112.050">  1  7  2 -1</clus>
<clus scale="   50.179">  2  5  1 -1</clus>
</clustering>
</event>
<event>
10    2  0.5692308E-006  0.2116601E+03  0.7546771E-02  0.1164685E+00
         21   -1    0    0  501  502  0.00000000000E+00  0.00000000000E+00  0.37793228339E+03  0.37793228339E+03  0.00000000000E+00 0. -1.
          2   -1    0    0  503    0 -0.00000000000E+00 -0.00000000000E+00 -0.44030895358E+03  0.44030895358E+03  0.00000000000E+00 0. -1.
         23    2    1    2    0    0 -0.46976384817E+02  0.64196792052E+02 -0.36339272632E+03  0.38308420823E+03  0.91494416276E+02 0.  0.
         23    2    1    2    0    0  0.81675526343E+02  0.35256231046E+02  0.79292561167E+02  0.15339779093E+03  0.96590261291E+02 0.  0.
        -11    1    4    4    0    0  0.50131151909E+02  0.16767498387E-01  0.91694147832E+02  0.10450334645E+03  0.00000000000E+00 0. -1.
         11    1    4    4    0    0  0.31544374434E+02  0.35239463548E+02 -0.12401586664E+02  0.48894444484E+02  0.00000000000E+00 0.  1.
        -13    1    3    3    0    0 -0.39390396590E+02 -0.13846214390E+02 -0.15152310793E+03  0.15717052278E+03  0.00000000000E+00 0.  1.
         13    1    3    3    0    0 -0.75859882269E+01  0.78043006442E+02 -0.21186961840E+03  0.22591368544E+03  0.00000000000E+00 0. -1.
         21    1    1    2  503  502  0.19707180384E+02 -0.61625164619E+02  0.20276314009E+03  0.21283544078E+03  0.00000000000E+00 0. -1.
          2    1    1    2  501    0 -0.54406321910E+02 -0.37827858479E+02  0.18960354875E+02  0.68923797036E+02  0.00000000000E+00 0. -1.
<scales pt_clust_5="13000.00000" pt_clust_6="13000.00000" pt_clust_7="13000.00000" pt_clust_8="13000.00000" pt_clust_9="64.69957" pt_clust_10="13000.00000"></scales>
<clustering>
<clus scale="   64.700">  1  9  2 -1</clus>
<clus scale="   91.494">  7  8 -1 -1</clus>
<clus scale="   96.590">  5  6 -1 -1</clus>
<clus scale="   72.942">  5 10 -1 -1</clus>
<clus scale="  118.946">  2  7  1 -1</clus>
<clus scale="   64.700">  1  5  2 -1</clus>
</clustering>
</event>
<event>
10    2  0.5692308E-006  0.2881708E+03  0.7546771E-02  0.1131627E+00
         21   -1    0    0  503  502  0.00000000000E+00  0.00000000000E+00  0.32666369407E+03  0.32666369407E+03  0.00000000000E+00 0. -1.
         -1   -1    0    0    0  501 -0.00000000000E+00 -0.00000000000E+00 -0.20303551421E+03  0.20303551421E+03  0.00000000000E+00 0.  1.
         23    2    1    2    0    0  0.49650557148E+02  0.47309587882E+01  0.80661300795E+01  0.10378558132E+03  0.90657733480E+02 0.  0.
         23    2    1    2    0    0  0.52670688506E+02  0.24339234309E+02  0.84746013026E+02  0.13740262251E+03  0.91274280021E+02 0.  0.
        -11    1    4    4    0    0 -0.11376544789E+02 -0.23672133312E+02  0.10694575824E+02  0.28357884599E+02  0.00000000000E+00 0.  1.
         11    1    4    4    0    0  0.64047233295E+02  0.48011367620E+02  0.74051437202E+02  0.10904473791E+03  0.00000000000E+00 0. -1.
        -13    1    3    3    0    0  0.38495294292E+02 -0.38568558479E+02 -0.10282079246E+02  0.55453967751E+02  0.00000000000E+00 0.  1.
         13    1    3    3    0    0  0.11155262856E+02  0.43299517267E+02  0.18348209325E+02  0.48331613571E+02  0.00000000000E+00 0. -1.
         21    1    1    2  503  501 -0.43815397725E+01  0.24457249878E+02  0.13413589913E+03  0.13641772025E+03  0.00000000000E+00 0.  1.
         -1    1    1    2    0  502 -0.97939705881E+02 -0.53527442975E+02 -0.10331986237E+03  0.15209328420E+03  0.00000000000E+00 0.  1.
<scales pt_clust_5="13000.00000" pt_clust_6="13000.00000" pt_clust_7="13000.00000" pt_clust_8="13000.00000" pt_clust_9="24.84663" pt_clust_10="13000.00000"></scales>
<clustering>
<clus scale="   24.847">  1  9  2 -1</clus>
<clus scale="   90.658">  7  8 -1 -1</clus>
<clus scale="   91.274">  5  6 -1 -1</clus>
<clus scale="  103.439">  2  7  1 -1</clus>
<clus scale="   71.871">  5 10 -1 -1</clus>
<clus scale="   24.847">  1  5  2 -1</clus>
</clustering>
</event>
<event>
10    2  0.5692308E-006  0.2568048E+03  0.7546771E-02  0.1123971E+00
         -1   -1    0    0    0  501 -0.00000000000E+00  0.00000000000E+00  0.24240904280E+03  0.24240904280E+03  0.00000000000E+00 0.  1.
         21   -1    0    0  503  502  0.00000000000E+00 -0.00000000000E+00 -0.47327895217E+03  0.47327895217E+03  0.00000000000E+00 0.  1.
         23    2    1    2    0    0 -0.13342831606E+03 -0.60569992815E+02  0.13895642018E+03  0.22175861951E+03  0.91630557449E+02 0.  0.
         23    2    1    2    0    0  0.15338429068E+03 -0.15031499867E+01 -0.11300581392E+03  0.21122336513E+03  0.91192082503E+02 0.  0.
        -11    1    3    3    0    0 -0.27079257293E+02 -0.57049498626E+02  0.31644773121E+02  0.70635140935E+02  0.00000000000E+00 0. -1.
         11    1    3    3    0    0 -0.10634905877E+03 -0.35204941896E+01  0.10731164706E+03  0.15112347857E+03  0.00000000000E+00 0.  1.
        -13    1    4    4    0    0 -0.18438384534E+01 -0.21820752072E+02 -0.14099210366E+02  0.26044820870E+02  0.00000000000E+00 0. -1.
         13    1    4    4    0    0  0.15522812913E+03  0.20317602086E+02 -0.98906603558E+02  0.18517854426E+03  0.00000000000E+00 0.  1.
         21    1    1    2  503  501 -0.36957352774E+02 -0.14452000565E+02 -0.91986697638E+02  0.10018112989E+03  0.00000000000E+00 0.  1.
         -1    1    1    2    0  502  0.17001378161E+02  0.76525143367E+02 -0.16483381799E+03  0.18252488044E+03  0.00000000000E+00 0.  1.
<scales pt_clust_5="13000.00000" pt_clust_6="13000.00000" pt_clust_7="13000.00000" pt_clust_8="13000.00000" pt_clust_9="39.68257" pt_clust_10="13000.00000"></scales>
<clustering>
<clus scale="   39.683">  2  9  1 -1</clus>
<clus scale="   91.192">  7  8 -1 -1</clus>
<clus scale="   69.871">  7 10 -1 -1</clus>
<clus scale="   91.631">  5  6 -1 -1</clus>
<clus scale="  176.527">  1  5  2 -1</clus>
<clus scale="   39.683">  2  5  1 -1</clus>
</clustering>
</event>
<event>
10    2  0.5692308E-006  0.2130030E+03  0.7546771E-02  0.1150557E+00
         21   -1    0    0  501  502  0.00000000000E+00  0.00000000000E+00  0.29789950338E+03  0.29789950338E+03  0.00000000000E+00 0.  1.
          1   -1    0    0  503    0 -0.00000000000E+00 -0.00000000000E+00 -0.13903917749E+03  0.13903917749E+03  0.00000000000E+00 0. -1.
         23    2    1    2    0    0 -0.84466513915E+02  0.92313984697E+02  0.93050231514E+02  0.18086104739E+03  0.91629193675E+02 0.  0.
         23    2    1    2    0    0  0.16744221949E+02 -0.13651843746E+02  0.37078274039E+02  0.10056215791E+03  0.90946178545E+02 0.  0.
        -11    1    3    3    0    0 -0.22676463682E+02  0.64217271908E+02  0.90068182693E+02  0.11291748115E+03  0.00000000000E+00 0.  1.
         11    1    3    3    0    0 -0.61790050234E+02  0.28096712789E+02  0.29820488215E+01  0.67943566234E+02  0.00000000000E+00 0. -1.
        -11    1    4    4    0    0 -0.30711551820E+02 -0.25932722227E+02  0.31811646342E+02  0.51260963123E+02  0.00000000000E+00 0. -1.
         11    1    4    4    0    0  0.47455773770E+02  0.12280878481E+02  0.52666276964E+01  0.49301194789E+02  0.00000000000E+00 0.  1.
         21    1    1    2  503  502  0.17162724616E+01  0.24715522968E+02  0.21240935147E+02  0.32634031205E+02  0.00000000000E+00 0.  1.
          1    1    1    2  501    0  0.66006019504E+02 -0.10337766392E+03  0.74908851942E+01  0.12288144436E+03  0.00000000000E+00 0. -1.
<scales pt_clust_5="13000.00000" pt_clust_6="13000.00000" pt_clust_7="13000.00000" pt_clust_8="13000.00000" pt_clust_9="24.77504" pt_clust_10="13000.00000"></scales>
<clustering>
<clus scale="   24.775">  1  9  2 -1</clus>
<clus scale="   90.946">  7  8 -1 -1</clus>
<clus scale="   91.629">  5  6 -1 -1</clus>
<clus scale="  117.917">  7 10 -1 -1</clus>
<clus scale="  162.386">  2  5  1 -1</clus>
<clus scale="   24.775">  1  5  2 -1</clus>
</clustering>
</event>
<event>
10    2  0.5692308E-006  0.4402826E+03  0.7546771E-02  0.1080267E+00
         -1   -1    0    0    0  501 -0.00000000000E+00  0.00000000000E+00  0.84538703180E+03  0.84538703180E+03  0.00000000000E+00 0.  1.
         21   -1    0    0  503  502  0.00000000000E+00 -0.00000000000E+00 -0.32699077044E+03  0.32699077044E+03  0.00000000000E+00 0. -1.
         23    2    1    2    0    0  0.61716872695E+02  0.93592543475E+01  0.24341999615E+03  0.26648076715E+03  0.88668690739E+02 0.  0.
         23    2    1    2    0    0  0.18391885801E+03  0.15504217956E+03  0.13425000195E+03  0.28989837053E+03  0.90298274827E+02 0.  0.
        -11    1    3    3    0    0  0.77743701813E+02  0.23103417775E+02  0.22223335141E+03  0.23657031421E+03  0.00000000000E+00 0.  1.
         11    1    3    3    0    0 -0.16026829119E+02 -0.13744163428E+02  0.21186644741E+02  0.29910452944E+02  0.00000000000E+00 0. -1.
        -13    1    4    4    0    0  0.17082587190E+03  0.10454561973E+03  0.12720079053E+03  0.23725788971E+03  0.00000000000E+00 0.  1.
         13    1    4    4    0    0  0.13092986112E+02  0.50496559827E+02  0.70492114189E+01  0.52640480824E+02  0.00000000000E+00 0. -1.
         21    1    1    2  503  501 -0.39070250240E+03 -0.21189684417E+03  0.79424455387E+02  0.45150521820E+03  0.00000000000E+00 0. -1.
         -1    1    1    2    0  502  0.14506677169E+03  0.47495410261E+02  0.61301807875E+02  0.16449344635E+03  0.00000000000E+00 0.  1.
<scales pt_clust_5="13000.00000" pt_clust_6="13000.00000" pt_clust_7="13000.00000" pt_clust_8="13000.00000" pt_clust_9="418.17503" pt_clust_10="13000.00000"></scales>
<clustering>
<clus scale="   88.669">  5  6 -1 -1</clus>
<clus scale="   90.298">  7  8 -1 -1</clus>
<clus scale="  108.438">  1  5  2 -1</clus>
<clus scale="  164.428">  7 10 -1 -1</clus>
<clus scale="  418.175">  2  9  1 -1</clus>
<clus scale="  418.175">  2  5  1 -1</clus>
</clustering>
</event>
<event>
10    2  0.5692308E-006  0.2421338E+03  0.7546771E-02  0.1122908E+00
         21   -1    0    0  501  502  0.00000000000E+00  0.00000000000E+00  0.90256732075E+02  0.90256732075E+02  0.00000000000E+00 0.  1.
          1   -1    0    0  503    0 -0.00000000000E+00 -0.00000000000E+00 -0.71520131533E+03  0.71520131533E+03  0.00000000000E+00 0. -1.
         23    2    1    2    0    0 -0.18504028068E+03 -0.99884642382E+02 -0.31294128773E+03  0.38772383778E+03  0.90447098141E+02 0.  0.
         23    2    1    2    0    0  0.12924695721E+03  0.93067442978E+02 -0.16712755797E+03  0.24839648643E+03  0.91667163948E+02 0.  0.
        -11    1    3    3    0    0 -0.10593762044E+02 -0.26749726187E+02 -0.94414334414E+02  0.98700770960E+02  0.00000000000E+00 0. -1.
         11    1    3    3    0    0 -0.17444651863E+03 -0.73134916194E+02 -0.21852695332E+03  0.28902306682E+03  0.00000000000E+00 0.  1.
        -11    1    4    4    0    0  0.81336613766E+02  0.26586201534E+01 -0.70763607028E+02  0.10784341000E+03  0.00000000000E+00 0.  1.
         11    1    4    4    0    0  0.47910343448E+02  0.90408822825E+02 -0.96363950939E+02  0.14055307643E+03  0.00000000000E+00 0. -1.
         21    1    1    2  503  502  0.42937843741E+02 -0.14695173036E+02 -0.36897979597E+02  0.58489891726E+02  0.00000000000E+00 0.  1.
          1    1    1    2  501    0  0.12855479723E+02  0.21512372440E+02 -0.10797775796E+03  0.11084783147E+03  0.00000000000E+00 0. -1.
<scales pt_clust_5="13000.00000" pt_clust_6="13000.00000" pt_clust_7="13000.00000" pt_clust_8="13000.00000" pt_clust_9="45.38289" pt_clust_10="13000.00000"></scales>
<clustering>
<clus scale="   45.383">  1  9  2 -1</clus>
<clus scale="   90.447">  5  6 -1 -1</clus>
<clus scale="   91.667">  7  8 -1 -1</clus>
<clus scale="   25.244">  7 10 -1 -1</clus>
<clus scale="  216.235">  2  5  1 -1</clus>
<clus scale="   45.383">  1  5  2 -1</clus>
</clustering>
</event>
<event>
10    2  0.5692308E-006  0.2062359E+03  0.7546771E-02  0.1157820E+00
          1   -1    0    0  503    0 -0.00000000000E+00  0.00000000000E+00  0.25632219154E+03  0.25632219154E+03  0.00000000000E+00 0. -1.
         21   -1    0    0  501  502  0.00000000000E+00 -0.00000000000E+00 -0.23111392910E+03  0.23111392910E+03  0.00000000000E+00 0.  1.
         23    2    1    2    0    0 -0.10095068949E+03  0.72429601115E+02  0.47987767347E+02  0.16084523634E+03  0.90173584891E+02 0.  0.
         23    2    1    2    0    0  0.20177459029E+02 -0.56420524587E+02  0.61870397001E+01  0.10536863133E+03  0.86451509878E+02 0.  0.
        -11    1    4    4    0    0  0.37811018494E+02 -0.72073069265E+02  0.19504286015E+01  0.81412558028E+02  0.00000000000E+00 0.  1.
         11    1    4    4    0    0 -0.17633559466E+02  0.15652544679E+02  0.42366110985E+01  0.23956073300E+02  0.00000000000E+00 0. -1.
        -11    1    3    3    0    0 -0.69507424884E+01  0.46101001927E+02  0.42479569229E+02  0.63072410781E+02  0.00000000000E+00 0. -1.
         11    1    3    3    0    0 -0.93999946999E+02  0.26328599188E+02  0.55081981180E+01  0.97772825558E+02  0.00000000000E+00 0.  1.
         21    1    1    2  503  502 -0.56601972598E+01 -0.22212654948E+02 -0.10406101027E+03  0.10655577755E+03  0.00000000000E+00 0.  1.
          1    1    1    2  501    0  0.86433427719E+02  0.62035784192E+01  0.75094465658E+02  0.11466647542E+03  0.00000000000E+00 0. -1.
<scales pt_clust_5="13000.00000" pt_clust_6="13000.00000" pt_clust_7="13000.00000" pt_clust_8="13000.00000" pt_clust_9="22.92248" pt_clust_10="13000.00000"></scales>
<clustering>
<clus scale="   22.922">  2  9  1 -1</clus>
<clus scale="   86.452">  5  6 -1 -1</clus>
<clus scale="   85.586">  5 10 -1 -1</clus>
<clus scale="   90.174">  7  8 -1 -1</clus>
<clus scale="  150.809">  1  7  2 -1</clus>
<clus scale="   22.922">  2  5  1 -1</clus>
</clustering>
</event>
<event>
10    2  0.5692308E-006  0.1990595E+03  0.7546771E-02  0.1179837E+00
         21   -1    0    0  501  502  0.00000000000E+00  0.00000000000E+00  0.59384115135E+03  0.59384115135E+03  0.00000000000E+00 0. -1.
          1   -1    0    0  503    0 -0.00000000000E+00 -0.00000000000E+00 -0.69603977354E+02  0.69603977354E+02  0.00000000000E+00 0. -1.
         23    2    1    2    0    0 -0.51922939916E+02  0.56284881893E+00  0.29597935665E+02  0.10904707874E+03  0.91208108724E+02 0.  0.
         23    2    1    2    0    0  0.40428128484E+01  0.33720125593E+02  0.88537001349E+02  0.13188034594E+03  0.91652789546E+02 0.  0.
        -11    1    4    4    0    0 -0.35312259839E+02  0.44555683225E+02  0.54003819739E+02  0.78412863415E+02  0.00000000000E+00 0.  1.
         11    1    4    4    0    0  0.39355072687E+02 -0.10835557632E+02  0.34533181611E+02  0.53467482525E+02  0.00000000000E+00 0. -1.
        -11    1    3    3    0    0 -0.37640571188E+02  0.27544518361E+02 -0.20045820117E+02  0.50767588039E+02  0.00000000000E+00 0. -1.
         11    1    3    3    0    0 -0.14282368728E+02 -0.26981669542E+02  0.49643755782E+02  0.58279490698E+02  0.00000000000E+00 0.  1.
         21    1    1    2  503  502  0.54630632517E+02  0.11319220754E+02  0.11535135656E+03  0.12813495319E+03  0.00000000000E+00 0. -1.
          1    1    1    2  501    0 -0.67505054500E+01 -0.45602195166E+02  0.29075088041E+03  0.29438275084E+03  0.00000000000E+00 0. -1.
<scales pt_clust_5="13000.00000" pt_clust_6="13000.00000" pt_clust_7="13000.00000" pt_clust_8="13000.00000" pt_clust_9="55.79096" pt_clust_10="13000.00000"></scales>
<clustering>
<clus scale="   55.791">  1  9  2 -1</clus>
<clus scale="   91.208">  7  8 -1 -1</clus>
<clus scale="   91.653">  5  6 -1 -1</clus>
<clus scale="   47.156">  5 10 -1 -1</clus>
<clus scale="  101.248">  2  7  1 -1</clus>
<clus scale="   55.791">  1  5  2 -1</clus>
</clustering>
</event>
<event>
10    2  0.5692308E-006  0.1462145E+03  0.7546771E-02  0.1222572E+00
          1   -1    0    0  502    0 -0.00000000000E+00  0.00000000000E+00  0.73999982412E+02  0.73999982412E+02  0.00000000000E+00 0. -1.
         21   -1    0    0  503  502  0.00000000000E+00 -0.00000000000E+00 -0.39632645010E+03  0.39632645010E+03  0.00000000000E+00 0.  1.
         23    2    1    2    0    0 -0.15421111661E+02  0.33031268694E+02 -0.51932231192E+02  0.11099147977E+03  0.91067428581E+02 0.  0.
         23    2    1    2    0    0 -0.13676173831E+02 -0.36160927711E+02 -0.10185445073E+03  0.14171669799E+03  0.90634667385E+02 0.  0.
        -11    1    3    3    0    0 -0.47339391338E+02 -0.59018023757E+01 -0.23639211717E+02  0.53241539930E+02  0.00000000000E+00 0.  1.
         11    1    3    3    0    0  0.31918279677E+02  0.38933071070E+02 -0.28293019475E+02  0.57749939840E+02  0.00000000000E+00 0. -1.
        -13    1    4    4    0    0 -0.58242193315E+01 -0.60366219065E+02 -0.99014845667E+02  0.11611176339E+03  0.00000000000E+00 0.  1.
         13    1    4    4    0    0 -0.78519544990E+01  0.24205291354E+02 -0.28396050645E+01  0.25604934601E+02  0.00000000000E+00 0. -1.
         21    1    1    2  503  501  0.92219501814E+01  0.24379821522E+02 -0.18319462005E+03  0.18503969542E+03  0.00000000000E+00 0.  1.
          1    1    1    2  501    0  0.19875335310E+02 -0.21250162505E+02  0.14654834292E+02  0.32578559334E+02  0.00000000000E+00 0. -1.
<scales pt_clust_5="13000.00000" pt_clust_6="13000.00000" pt_clust_7="13000.00000" pt_clust_8="13000.00000" pt_clust_9="26.06569" pt_clust_10="13000.00000"></scales>
<clustering>
<clus scale="   26.066">  2  9  1 -1</clus>
<clus scale="   90.635">  7  8 -1 -1</clus>
<clus scale="   28.628">  7 10 -1 -1</clus>
<clus scale="   91.067">  5  6 -1 -1</clus>
<clus scale="  101.150">  1  5  2 -1</clus>
<clus scale="   26.066">  2  5  1 -1</clus>
</clustering>
</event>
<event>
10    2  0.5692308E-006  0.2163699E+03  0.7546771E-02  0.1162428E+00
          1   -1    0    0  503    0 -0.00000000000E+00  0.00000000000E+00  0.21123499770E+03  0.21123499770E+03  0.00000000000E+00 0. -1.
         21   -1    0    0  501  502  0.00000000000E+00 -0.00000000000E+00 -0.20281447225E+03  0.20281447225E+03  0.00000000000E+00 0. -1.
         23    2    1    2    0    0 -0.59396220091E+02 -0.40235461710E+02  0.88279732738E+02  0.14524306188E+03  0.90307433096E+02 0.  0.
         23    2    1    2    0    0 -0.89516762340E+01  0.30222899336E+02  0.36867091945E+02  0.10416049365E+03  0.92177382351E+02 0.  0.
        -11    1    3    3    0    0  0.19641019210E+02 -0.29598334471E+02  0.29443577030E+02  0.46138435901E+02  0.00000000000E+00 0.  1.
         11    1    3    3    0    0 -0.79037239302E+02 -0.10637127239E+02  0.58836155708E+02  0.99104625981E+02  0.00000000000E+00 0. -1.
        -13    1    4    4    0    0 -0.37072672559E+01 -0.31204268071E+02 -0.16497114113E+01  0.31466994202E+02  0.00000000000E+00 0. -1.
         13    1    4    4    0    0 -0.52444089781E+01  0.61427167407E+02  0.38516803356E+02  0.72693499447E+02  0.00000000000E+00 0.  1.
         21    1    1    2  503  502 -0.22890283820E+02  0.19082896756E+01 -0.35144936984E+02  0.41985393394E+02  0.00000000000E+00 0. -1.
          1    1    1    2  501    0  0.91238180146E+02  0.81042726987E+01 -0.81581362246E+02  0.12266052103E+03  0.00000000000E+00 0. -1.
<scales pt_clust_5="13000.00000" pt_clust_6="13000.00000" pt_clust_7="13000.00000" pt_clust_8="13000.00000" pt_clust_9="22.96969" pt_clust_10="13000.00000"></scales>
<clustering>
<clus scale="   22.970">  2  9  1 -1</clus>
<clus scale="   90.307">  5  6 -1 -1</clus>
<clus scale="   92.177">  7  8 -1 -1</clus>
<clus scale="   77.565">  7 10 -1 -1</clus>
<clus scale="  117.316">  1  5  2 -1</clus>
<clus scale="   22.970">  2  5  1 -1</clus>
</clustering>
</event>
<event>
10    2  0.5692308E-006  0.2294652E+03  0.7546771E-02  0.1161425E+00
         21   -1    0    0  503  502  0.00000000000E+00  0.00000000000E+00  0.22130221509E+03  0.22130221509E+03  0.00000000000E+00 0. -1.
          2   -1    0    0  502    0 -0.00000000000E+00 -0.00000000000E+00 -0.61600773399E+03  0.61600773399E+03  0.00000000000E+00 0. -1.
         23    2    1    2    0    0  0.30691746870E+02 -0.26751387549E+02 -0.48772235694E+03  0.49790834668E+03  0.91553285958E+02 0.  0.
         23    2    1    2    0    0 -0.10626412299E+03  0.54591693926E+02 -0.59892107497E+02  0.16197677270E+03  0.91526463249E+02 0.  0.
        -13    1    4    4    0    0 -0.85828899271E+02  0.75303062195E+02 -0.66508461865E+02  0.13213828599E+03  0.00000000000E+00 0. -1.
         13    1    4    4    0    0 -0.20435223716E+02 -0.20711368269E+02  0.66163543685E+01  0.29838486708E+02  0.00000000000E+00 0.  1.
        -13    1    3    3    0    0  0.27631831771E+02 -0.58092309518E+02 -0.38906438879E+03  0.39434671696E+03  0.00000000000E+00 0. -1.
         13    1    3    3    0    0  0.30599150995E+01  0.31340921969E+02 -0.98657968153E+02  0.10356162972E+03  0.00000000000E+00 0.  1.
         21    1    1    2  503  501  0.29015962428E+02 -0.78645370056E+01  0.98926280766E+02  0.10339335590E+03  0.00000000000E+00 0. -1.
          2    1    1    2  501    0  0.46556413688E+02 -0.19975769372E+02  0.53982664775E+02  0.74031473804E+02  0.00000000000E+00 0. -1.
<scales pt_clust_5="13000.00000" pt_clust_6="13000.00000" pt_clust_7="13000.00000" pt_clust_8="13000.00000" pt_clust_9="30.06288" pt_clust_10="13000.00000"></scales>
<clustering>
<clus scale="   30.063">  1  9  2 -1</clus>
<clus scale="   91.526">  5  6 -1 -1</clus>
<clus scale="   66.557">  5 10 -1 -1</clus>
<clus scale="   91.553">  7  8 -1 -1</clus>
<clus scale="  100.671">  2  7  1 -1</clus>
<clus scale="   30.063">  1  5  2 -1</clus>
</clustering>
</event>
<event>
10    2  0.5692308E-006  0.2961664E+03  0.7546771E-02  0.1111942E+00
         21   -1    0    0  503  502  0.00000000000E+00  0.00000000000E+00  0.83536463271E+03  0.83536463271E+03  0.00000000000E+00 0.  1.
          1   -1    0    0  502    0 -0.00000000000E+00 -0.00000000000E+00 -0.67113841393E+02  0.67113841393E+02  0.00000000000E+00 0. -1.
         23    2    1    2    0    0 -0.12140878432E+03  0.45835013357E+02  0.24875705898E+03  0.29434232993E+03  0.88974105426E+02 0.  0.
         23    2    1    2    0    0  0.16884053279E+03 -0.42587053581E+02  0.25349664328E+03  0.32832826795E+03  0.11497008626E+03 0.  0.
        -11    1    4    4    0    0  0.86625842566E+02  0.34491031770E+02  0.88758126386E+02  0.12873100975E+03  0.00000000000E+00 0. -1.
         11    1    4    4    0    0  0.82214690227E+02 -0.77078085352E+02  0.16473851690E+03  0.19959725820E+03  0.00000000000E+00 0.  1.
        -11    1    3    3    0    0 -0.31002487291E+02  0.58328002395E+02  0.10698392438E+03  0.12573332954E+03  0.00000000000E+00 0. -1.
         11    1    3    3    0    0 -0.90406297033E+02 -0.12492989038E+02  0.14177313460E+03  0.16860900039E+03  0.00000000000E+00 0.  1.
         21    1    1    2  503  501  0.13124698550E+02  0.16280901850E+02  0.41543913057E+02  0.46510452472E+02  0.00000000000E+00 0.  1.
          1    1    1    2  501    0 -0.60556447020E+02 -0.19528861626E+02  0.22445317599E+03  0.23329742374E+03  0.00000000000E+00 0. -1.
<scales pt_clust_5="13000.00000" pt_clust_6="13000.00000" pt_clust_7="13000.00000" pt_clust_8="13000.00000" pt_clust_9="20.91233" pt_clust_10="13000.00000"></scales>
<clustering>
<clus scale="   20.912">  1  9  2 -1</clus>
<clus scale="   88.974">  7  8 -1 -1</clus>
<clus scale="  114.970">  5  6 -1 -1</clus>
<clus scale="   58.663">  5 10 -1 -1</clus>
<clus scale="  155.651">  2  7  1 -1</clus>
<clus scale="   20.912">  1  5  2 -1</clus>
</clustering>
</event>
<event>
10    2  0.5692308E-006  0.4129594E+03  0.7546771E-02  0.1086589E+00
          2   -1    0    0  503    0 -0.00000000000E+00  0.00000000000E+00  0.30341998165E+03  0.30341998165E+03  0.00000000000E+00 0. -1.
         21   -1    0    0  501  502  0.00000000000E+00 -0.00000000000E+00 -0.20117355629E+04  0.20117355629E+04  0.00000000000E+00 0.  1.
         23    2    1    2    0    0 -0.28268868558E+02 -0.41455771674E+02  0.18982415011E+03  0.21987567398E+03  0.98966631291E+02 0.  0.
         23    2    1    2    0    0 -0.11913413098E+03 -0.44455143414E+02 -0.17308093316E+03  0.23307919489E+03  0.90552198898E+02 0.  0.
        -11    1    4    4    0    0 -0.49088290657E+01 -0.41554342118E+02 -0.46355709858E+02  0.62447672399E+02  0.00000000000E+00 0. -1.
         11    1    4    4    0    0 -0.11422530191E+03 -0.29008012960E+01 -0.12672522330E+03  0.17063152249E+03  0.00000000000E+00 0.  1.
        -13    1    3    3    0    0 -0.24193090858E+01  0.26828351318E+02  0.15977791923E+02  0.31319376201E+02  0.00000000000E+00 0.  1.
         13    1    3    3    0    0 -0.25849559472E+02 -0.68284122992E+02  0.17384635819E+03  0.18855629778E+03  0.00000000000E+00 0. -1.
         21    1    1    2  503  502  0.77864464279E+02  0.30221341229E+03 -0.15337526102E+04  0.15651814242E+04  0.00000000000E+00 0.  1.
          2    1    1    2  501    0  0.69538535258E+02 -0.21630249720E+03 -0.19130618797E+03  0.29701925146E+03  0.00000000000E+00 0. -1.
<scales pt_clust_5="13000.00000" pt_clust_6="13000.00000" pt_clust_7="13000.00000" pt_clust_8="13000.00000" pt_clust_9="304.57069" pt_clust_10="13000.00000"></scales>
<clustering>
<clus scale="   90.552">  5  6 -1 -1</clus>
<clus scale="   98.967">  7  8 -1 -1</clus>
<clus scale="  110.960">  1  7  2 -1</clus>
<clus scale="  244.653">  5 10 -1 -1</clus>
<clus scale="  304.571">  2  9  1 -1</clus>
<clus scale="  304.571">  2  5  1 -1</clus>
</clustering>
</event>
<event>
10    2  0.5692308E-006  0.1360587E+03  0.7546771E-02  0.1231832E+00
         21   -1    0    0  503  502  0.00000000000E+00  0.00000000000E+00  0.59215717158E+02  0.59215717158E+02  0.00000000000E+00 0. -1.
         -1   -1    0    0    0  501 -0.00000000000E+00 -0.00000000000E+00 -0.45310810284E+03  0.45310810284E+03  0.00000000000E+00 0.  1.
         23    2    1    2    0    0 -0.11931854439E+02  0.43251609159E+02 -0.15259507102E+03  0.18303853834E+03  0.90580240520E+02 0.  0.
         23    2    1    2    0    0 -0.27870384795E+02 -0.31937194596E+02 -0.19282758090E+03  0.21736243686E+03  0.90924200606E+02 0.  0.
        -11    1    3    3    0    0 -0.51571729571E+02  0.26774591761E+02 -0.84974813793E+02  0.10294290181E+03  0.00000000000E+00 0.  1.
         11    1    3    3    0    0  0.39639875132E+02  0.16477017398E+02 -0.67620257229E+02  0.80095636526E+02  0.00000000000E+00 0. -1.
        -13    1    4    4    0    0 -0.38067978656E+02 -0.49244680074E+02 -0.18601167886E+03  0.19614931605E+03  0.00000000000E+00 0.  1.
         13    1    4    4    0    0  0.10197593861E+02  0.17307485478E+02 -0.68159020439E+01  0.21213120817E+02  0.00000000000E+00 0. -1.
         21    1    1    2  503  501  0.64560156394E+02  0.13318571589E+02 -0.33153768578E+02  0.73787333017E+02  0.00000000000E+00 0. -1.
         -1    1    1    2    0  502 -0.24757917160E+02 -0.24632986152E+02 -0.15315965177E+02  0.38135511773E+02  0.00000000000E+00 0.  1.
<scales pt_clust_5="13000.00000" pt_clust_6="13000.00000" pt_clust_7="13000.00000" pt_clust_8="13000.00000" pt_clust_9="65.91963" pt_clust_10="13000.00000"></scales>
<clustering>
<clus scale="   65.920">  1  9  2 -1</clus>
<clus scale="   90.580">  5  6 -1 -1</clus>
<clus scale="   90.924">  7  8 -1 -1</clus>
<clus scale="   21.528">  7 10 -1 -1</clus>
<clus scale="  103.592">  2  5  1 -1</clus>
<clus scale="   65.920">  1  5  2 -1</clus>
</clustering>
</event>
<event>
10    2  0.5692308E-006  0.4898248E+03  0.7546771E-02  0.1043581E+00
          1   -1    0    0  502    0 -0.00000000000E+00  0.00000000000E+00  0.18963305923E+03  0.18963305923E+03  0.00000000000E+00 0. -1.
         21   -1    0    0  503  502  0.00000000000E+00 -0.00000000000E+00 -0.17491285610E+04  0.17491285610E+04  0.00000000000E+00 0. -1.
         23    2    1    2    0    0 -0.18922703235E+03  0.81830368688E+02 -0.18849760248E+03  0.29424842847E+03  0.92453839868E+02 0.  0.
         23    2    1    2    0    0  0.61869672364E+02  0.14291426530E+02  0.93100109405E+02  0.14468756920E+03  0.90745584349E+02 0.  0.
        -11    1    3    3    0    0 -0.12792762729E+03  0.56430791501E+02 -0.17912751137E+03  0.22723683105E+03  0.00000000000E+00 0. -1.
         11    1    3    3    0    0 -0.61299405062E+02  0.25399577187E+02 -0.93700911055E+01  0.67011597426E+02  0.00000000000E+00 0.  1.
        -13    1    4    4    0    0  0.47009686104E+01  0.42939803687E+02  0.20108136345E+02  0.47647276877E+02  0.00000000000E+00 0.  1.
         13    1    4    4    0    0  0.57168703754E+02 -0.28648377157E+02  0.72991973061E+02  0.97040292322E+02  0.00000000000E+00 0. -1.
         21    1    1    2  503  501 -0.18739810303E+02 -0.13919056475E+03 -0.10352289041E+04  0.10447124378E+04  0.00000000000E+00 0. -1.
          1    1    1    2  501    0  0.14609717029E+03  0.43068769532E+02 -0.42886910468E+03  0.45511318485E+03  0.00000000000E+00 0. -1.
<scales pt_clust_5="13000.00000" pt_clust_6="13000.00000" pt_clust_7="13000.00000" pt_clust_8="13000.00000" pt_clust_9="140.44641" pt_clust_10="13000.00000"></scales>
<clustering>
<clus scale="   90.746">  7  8 -1 -1</clus>
<clus scale="   92.454">  5  6 -1 -1</clus>
<clus scale="  140.446">  2  9  1 -1</clus>
<clus scale="  141.337">  7 10 -1 -1</clus>
<clus scale="  219.081">  1  5  2 -1</clus>
<clus scale="  140.446">  2  5  1 -1</clus>
</clustering>
</event>
<event>
10    2  0.5692308E-006  0.3632713E+03  0.7546771E-02  0.1102860E+00
         21   -1    0    0  501  502  0.00000000000E+00  0.00000000000E+00  0.45347268567E+03  0.45347268567E+03  0.00000000000E+00 0. -1.
          1   -1    0    0  503    0 -0.00000000000E+00 -0.00000000000E+00 -0.63385347280E+03  0.63385347280E+03  0.00000000000E+00 0. -1.
         23    2    1    2    0    0 -0.60907667138E+02  0.41684544172E+02 -0.12498353062E+03  0.17133471709E+03  0.91034923055E+02 0.  0.
         23    2    1    2    0    0  0.79684831663E+02  0.51537998779E+02 -0.45105287957E+03  0.46997811497E+03  0.91787203171E+02 0.  0.
        -11    1    4    4    0    0  0.98671587128E+01  0.43343048440E+02 -0.73187096347E+02  0.85629035618E+02  0.00000000000E+00 0. -1.
         11    1    4    4    0    0  0.69817672950E+02  0.81949503392E+01 -0.37786578322E+03  0.38434907935E+03  0.00000000000E+00 0.  1.
        -11    1    3    3    0    0 -0.45057006867E+02 -0.16267375288E+02 -0.23398562659E+02  0.53312794909E+02  0.00000000000E+00 0.  1.
         11    1    3    3    0    0 -0.15850660271E+02  0.57951919460E+02 -0.10158496796E+03  0.11802192218E+03  0.00000000000E+00 0. -1.
         21    1    1    2  503  502  0.45270048616E+02 -0.66849439759E+02  0.35836804187E+03  0.36734980377E+03  0.00000000000E+00 0. -1.
          1    1    1    2  501    0 -0.64047213141E+02 -0.26373103193E+02  0.37287581187E+02  0.78663522639E+02  0.00000000000E+00 0. -1.
<scales pt_clust_5="13000.00000" pt_clust_6="13000.00000" pt_clust_7="13000.00000" pt_clust_8="13000.00000" pt_clust_9="80.73552" pt_clust_10="13000.00000"></scales>
<clustering>
<clus scale="   80.736">  1  9  2 -1</clus>
<clus scale="   91.035">  7  8 -1 -1</clus>
<clus scale="   91.787">  5  6 -1 -1</clus>
<clus scale="   77.535">  5 10 -1 -1</clus>
<clus scale="  106.420">  2  7  1 -1</clus>
<clus scale="   80.736">  1  5  2 -1</clus>
</clustering>
</event>
<event>
10    2  0.5692308E-006  0.3581652E+03  0.7546771E-02  0.1085141E+00
         21   -1    0    0  503  502  0.00000000000E+00  0.00000000000E+00  0.42854711664E+03  0.42854711664E+03  0.00000000000E+00 0.  1.
         -3   -1    0    0    0  501 -0.00000000000E+00 -0.00000000000E+00 -0.24146815681E+03  0.24146815681E+03  0.00000000000E+00 0.  1.
         23    2    1    2    0    0  0.14783145808E+03 -0.56286743024E+02  0.56501183884E+02  0.19102909731E+03  0.90980189039E+02 0.  0.
         23    2    1    2    0    0 -0.94466573000E+02 -0.47540057462E+02 -0.11692537249E+03  0.18196863688E+03  0.90868320106E+02 0.  0.
        -11    1    3    3    0    0  0.14151086132E+03 -0.76779813708E+02  0.48592128211E+02  0.16817151539E+03  0.00000000000E+00 0.  1.
         11    1    3    3    0    0  0.63205967696E+01  0.20493070684E+02  0.79090556724E+01  0.22857581920E+02  0.00000000000E+00 0. -1.
        -13    1    4    4    0    0 -0.49476339454E+02  0.22492531799E+02 -0.60935232860E+02  0.81651238546E+02  0.00000000000E+00 0. -1.
         13    1    4    4    0    0 -0.44990233546E+02 -0.70032589260E+02 -0.55990139634E+02  0.10031739834E+03  0.00000000000E+00 0.  1.
         21    1    1    2  503  501 -0.21922115786E+02 -0.10428080607E+02  0.12206590691E+03  0.12445645686E+03  0.00000000000E+00 0.  1.
         -3    1    1    2    0  502 -0.31442769299E+02  0.11425488109E+03  0.12543724154E+03  0.17256108240E+03  0.00000000000E+00 0.  1.
<scales pt_clust_5="13000.00000" pt_clust_6="13000.00000" pt_clust_7="13000.00000" pt_clust_8="13000.00000" pt_clust_9="24.27600" pt_clust_10="13000.00000"></scales>
<clustering>
<clus scale="   24.276">  1  9  2 -1</clus>
<clus scale="   90.868">  7  8 -1 -1</clus>
<clus scale="   90.980">  5  6 -1 -1</clus>
<clus scale="  117.017">  7 10 -1 -1</clus>
<clus scale="  176.762">  2  5  1 -1</clus>
<clus scale="   24.276">  1  5  2 -1</clus>
</clustering>
</event>
<event>
10    2  0.5692308E-006  0.2027577E+03  0.7546771E-02  0.1178815E+00
         21   -1    0    0  501  502  0.00000000000E+00  0.00000000000E+00  0.11493310004E+03  0.11493310004E+03  0.00000000000E+00 0. -1.
          3   -1    0    0  503    0 -0.00000000000E+00 -0.00000000000E+00 -0.39308859711E+03  0.39308859711E+03  0.00000000000E+00 0. -1.
         23    2    1    2    0    0  0.34796253184E+02  0.93080334760E+01 -0.21017398872E+03  0.23203506893E+03  0.91486332078E+02 0.  0.
         23    2    1    2    0    0 -0.81420821693E+02 -0.22393611494E+02 -0.62138692893E+02  0.13877429325E+03  0.90918992912E+02 0.  0.
        -13    1    4    4    0    0 -0.31988351801E+02 -0.22307842270E+02  0.19295430395E+02  0.43511011386E+02  0.00000000000E+00 0. -1.
         13    1    4    4    0    0 -0.49432469891E+02 -0.85769224373E-01 -0.81434123289E+02  0.95263281865E+02  0.00000000000E+00 0.  1.
        -13    1    3    3    0    0 -0.25483636667E+02  0.16809896949E+02 -0.34058921670E+02  0.45738370309E+02  0.00000000000E+00 0.  1.
         13    1    3    3    0    0  0.60279889851E+02 -0.75018634730E+01 -0.17611506705E+03  0.18629669862E+03  0.00000000000E+00 0. -1.
         21    1    1    2  503  502 -0.25354117480E+02  0.49847035432E+02  0.23594880844E+01  0.55974328032E+02  0.00000000000E+00 0. -1.
          3    1    1    2  501    0  0.71978685989E+02 -0.36761457414E+02 -0.82023035393E+01  0.81238006938E+02  0.00000000000E+00 0. -1.
<scales pt_clust_5="13000.00000" pt_clust_6="13000.00000" pt_clust_7="13000.00000" pt_clust_8="13000.00000" pt_clust_9="55.92458" pt_clust_10="13000.00000"></scales>
<clustering>
<clus scale="   55.925">  1  9  2 -1</clus>
<clus scale="   90.919">  5  6 -1 -1</clus>
<clus scale="   63.125">  5 10 -1 -1</clus>
<clus scale="   91.486">  7  8 -1 -1</clus>
<clus scale="   98.038">  2  7  1 -1</clus>
<clus scale="   55.925">  1  5  2 -1</clus>
</clustering>
</event>
<event>
10    2  0.5692308E-006  0.1890741E+03  0.7546771E-02  0.1186593E+00
          2   -1    0    0  503    0 -0.00000000000E+00  0.00000000000E+00  0.70687924287E+03  0.70687924287E+03  0.00000000000E+00 0. -1.
         21   -1    0    0  501  502  0.00000000000E+00 -0.00000000000E+00 -0.77683172681E+02  0.77683172681E+02  0.00000000000E+00 0. -1.
         23    2    1    2    0    0  0.45483067568E+02  0.98257261600E+01  0.45700611917E+03  0.46784376077E+03  0.88645006605E+02 0.  0.
         23    2    1    2    0    0  0.21493920705E+02 -0.16957241760E+01  0.46305742708E+02  0.10381976960E+03  0.90385057643E+02 0.  0.
        -11    1    3    3    0    0  0.78813853586E+01 -0.38261554270E+02  0.17548959915E+03  0.17978504437E+03  0.00000000000E+00 0.  1.
         11    1    3    3    0    0  0.37601682209E+02  0.48087280430E+02  0.28151652003E+03  0.28805871640E+03  0.00000000000E+00 0. -1.
        -13    1    4    4    0    0  0.48929366797E+02 -0.26060623273E+02  0.21161203713E+02  0.59338314462E+02  0.00000000000E+00 0. -1.
         13    1    4    4    0    0 -0.27435446092E+02  0.24364899097E+02  0.25144538995E+02  0.44481455142E+02  0.00000000000E+00 0.  1.
         21    1    1    2  503  502  0.41506618055E+02  0.49643754763E+01  0.87691599318E+02  0.97145565813E+02  0.00000000000E+00 0. -1.
          2    1    1    2  501    0 -0.10848360633E+03 -0.13094377460E+02  0.38192608987E+02  0.11575331937E+03  0.00000000000E+00 0. -1.
<scales pt_clust_5="13000.00000" pt_clust_6="13000.00000" pt_clust_7="13000.00000" pt_clust_8="13000.00000" pt_clust_9="41.80247" pt_clust_10="13000.00000"></scales>
<clustering>
<clus scale="   41.802">  2  9  1 -1</clus>
<clus scale="   88.645">  5  6 -1 -1</clus>
<clus scale="   90.385">  7  8 -1 -1</clus>
<clus scale="   87.051">  7 10 -1 -1</clus>
<clus scale="  101.590">  1  5  2 -1</clus>
<clus scale="   41.802">  2  5  1 -1</clus>
</clustering>
</event>
<event>
10    2  0.5692308E-006  0.1250743E+03  0.7546771E-02  0.1247018E+00
         21   -1    0    0  501  502  0.00000000000E+00  0.00000000000E+00  0.19469002483E+03  0.19469002483E+03  0.00000000000E+00 0.  1.
          2   -1    0    0  503    0 -0.00000000000E+00 -0.00000000000E+00 -0.11075627213E+03  0.11075627213E+03  0.00000000000E+00 0. -1.
         23    2    1    2    0    0 -0.24471897933E+02  0.82827100106E+01 -0.67159874255E+01  0.95567457370E+02  0.91763594892E+02 0.  0.
         23    2    1    2    0    0 -0.30020316512E+01 -0.35096003912E+02  0.15896963998E+02  0.98156658580E+02  0.90229011269E+02 0.  0.
        -13    1    3    3    0    0 -0.18638000366E+02  0.46713996726E+02  0.13048206976E+02  0.51959871565E+02  0.00000000000E+00 0.  1.
         13    1    3    3    0    0 -0.58338975672E+01 -0.38431286715E+02 -0.19764194402E+02  0.43607585805E+02  0.00000000000E+00 0. -1.
        -13    1    4    4    0    0 -0.29876466452E+02 -0.34646822469E+02 -0.22740733354E+02  0.51089592955E+02  0.00000000000E+00 0.  1.
         13    1    4    4    0    0  0.26874434801E+02 -0.44918144326E+00  0.38637697352E+02  0.47067065625E+02  0.00000000000E+00 0. -1.
         21    1    1    2  503  502  0.26243501334E+00  0.48098332303E+02  0.48735672473E+02  0.68473967417E+02  0.00000000000E+00 0.  1.
          2    1    1    2  501    0  0.27211494571E+02 -0.21285038401E+02  0.26017103651E+02  0.43248213592E+02  0.00000000000E+00 0. -1.
<scales pt_clust_5="13000.00000" pt_clust_6="13000.00000" pt_clust_7="13000.00000" pt_clust_8="13000.00000" pt_clust_9="48.09905" pt_clust_10="13000.00000"></scales>
<clustering>
<clus scale="   48.099">  1  9  2 -1</clus>
<clus scale="   90.229">  7  8 -1 -1</clus>
<clus scale="   28.739">  7 10 -1 -1</clus>
<clus scale="   91.764">  5  6 -1 -1</clus>
<clus scale="   97.931">  2  5  1 -1</clus>
<clus scale="   48.099">  1  5  2 -1</clus>
</clustering>
</event>
<event>
10    2  0.5692308E-006  0.3891890E+03  0.7546771E-02  0.1083153E+00
         21   -1    0    0  503  502  0.00000000000E+00  0.00000000000E+00  0.45051077983E+03  0.45051077983E+03  0.00000000000E+00 0. -1.
          2   -1    0    0  502    0 -0.00000000000E+00 -0.00000000000E+00 -0.84991797764E+03  0.84991797764E+03  0.00000000000E+00 0. -1.
         23    2    1    2    0    0 -0.33936554439E+02 -0.10790086595E+03 -0.29355077849E+03  0.32753733660E+03  0.91183116397E+02 0.  0.
         23    2    1    2    0    0 -0.42225248893E+02 -0.12286387365E+03 -0.45392736976E+03  0.48072419583E+03  0.90372519876E+02 0.  0.
        -11    1    4    4    0    0 -0.44641296318E+02 -0.11082909821E+02 -0.11629397587E+03  0.12505984588E+03  0.00000000000E+00 0.  1.
         11    1    4    4    0    0  0.24160474241E+01 -0.11178096383E+03 -0.33763339389E+03  0.35566434995E+03  0.00000000000E+00 0. -1.
        -13    1    3    3    0    0 -0.36022780083E+02 -0.52627105803E+02 -0.24743601527E+03  0.25552266945E+03  0.00000000000E+00 0. -1.
         13    1    3    3    0    0  0.20862256435E+01 -0.55273760148E+02 -0.46114763225E+02  0.72014667156E+02  0.00000000000E+00 0.  1.
         21    1    1    2  503  501  0.13197554778E+03  0.24710095773E+03  0.32633529324E+03  0.43008272709E+03  0.00000000000E+00 0. -1.
          2    1    1    2  501    0 -0.55813744445E+02 -0.16336218126E+02  0.21735657191E+02  0.62084497946E+02  0.00000000000E+00 0. -1.
<scales pt_clust_5="13000.00000" pt_clust_6="13000.00000" pt_clust_7="13000.00000" pt_clust_8="13000.00000" pt_clust_9="269.45282" pt_clust_10="13000.00000"></scales>
<clustering>
<clus scale="   90.373">  5  6 -1 -1</clus>
<clus scale="   58.155">  5 10 -1 -1</clus>
<clus scale="   91.183">  7  8 -1 -1</clus>
<clus scale="  145.288">  2  7  1 -1</clus>
<clus scale="  269.453">  1  9  2 -1</clus>
<clus scale="  269.453">  1  5  2 -1</clus>
</clustering>
</event>
<event>
10    2  0.5692308E-006  0.1984992E+03  0.7546771E-02  0.1173811E+00
          2   -1    0    0  503    0 -0.00000000000E+00  0.00000000000E+00  0.24081305072E+03  0.24081305072E+03  0.00000000000E+00 0. -1.
         21   -1    0    0  501  502  0.00000000000E+00 -0.00000000000E+00 -0.19667327726E+03  0.19667327726E+03  0.00000000000E+00 0. -1.
         23    2    1    2    0    0  0.12012270106E+02  0.72492901925E+02  0.12721070915E+03  0.17286033698E+03  0.91096740426E+02 0.  0.
         23    2    1    2    0    0 -0.29162797394E+02 -0.77547766401E+02 -0.92848371972E+02  0.15425315625E+03  0.91154216623E+02 0.  0.
        -11    1    4    4    0    0 -0.53106993805E+02 -0.62894773062E+02 -0.34019540399E+02  0.89069828777E+02  0.00000000000E+00 0. -1.
         11    1    4    4    0    0  0.23944196411E+02 -0.14652993339E+02 -0.58828831573E+02  0.65183327468E+02  0.00000000000E+00 0.  1.
        -13    1    3    3    0    0  0.39990737501E+02  0.15850940196E+01  0.34535149211E+02  0.52862540045E+02  0.00000000000E+00 0.  1.
         13    1    3    3    0    0 -0.27978467395E+02  0.70907807905E+02  0.92675559937E+02  0.11999779694E+03  0.00000000000E+00 0. -1.
         21    1    1    2  503  502 -0.45841794804E+02  0.52806129565E+01 -0.24270763501E+01  0.46208719130E+02  0.00000000000E+00 0. -1.
          2    1    1    2  501    0  0.62992322092E+02 -0.22574848050E+00  0.12204512627E+02  0.64164115621E+02  0.00000000000E+00 0. -1.
<scales pt_clust_5="13000.00000" pt_clust_6="13000.00000" pt_clust_7="13000.00000" pt_clust_8="13000.00000" pt_clust_9="46.14493" pt_clust_10="13000.00000"></scales>
<clustering>
<clus scale="   46.145">  2  9  1 -1</clus>
<clus scale="   91.097">  7  8 -1 -1</clus>
<clus scale="   91.154">  5  6 -1 -1</clus>
<clus scale="   56.085">  5 10 -1 -1</clus>
<clus scale="  117.009">  1  7  2 -1</clus>
<clus scale="   46.145">  2  5  1 -1</clus>
</clustering>
</event>
<event>
10    2  0.5692308E-006  0.2216121E+03  0.7546771E-02  0.1162498E+00
          1   -1    0    0  503    0 -0.00000000000E+00  0.00000000000E+00  0.47068930479E+03  0.47068930479E+03  0.00000000000E+00 0. -1.
         21   -1    0    0  501  502  0.00000000000E+00 -0.00000000000E+00 -0.72124436755E+02  0.72124436755E+02  0.00000000000E+00 0.  1.
         23    2    1    2    0    0 -0.38187611039E+02 -0.33896712507E+02  0.12003578717E+03  0.15875873632E+03  0.90490139791E+02 0.  0.
         23    2    1    2    0    0 -0.26177636902E+02 -0.25802257123E+02  0.16198710652E+03  0.18964880780E+03  0.91519519632E+02 0.  0.
        -11    1    4    4    0    0 -0.31109407045E+02  0.29571467734E+02  0.75044086211E+02  0.86451615288E+02  0.00000000000E+00 0. -1.
         11    1    4    4    0    0  0.49317701431E+01 -0.55373724857E+02  0.86943020312E+02  0.10319719251E+03  0.00000000000E+00 0.  1.
        -13    1    3    3    0    0 -0.36889128719E+02 -0.51866719163E+01  0.20338277896E+01  0.37307450177E+02  0.00000000000E+00 0.  1.
         13    1    3    3    0    0 -0.12984823201E+01 -0.28710040590E+02  0.11800195938E+03  0.12145128614E+03  0.00000000000E+00 0. -1.
         21    1    1    2  503  502 -0.13779985666E+02 -0.32083748324E+02  0.29674112511E+02  0.45823660535E+02  0.00000000000E+00 0.  1.
          1    1    1    2  501    0  0.78145233608E+02  0.91782717954E+02  0.86867861826E+02  0.14858253689E+03  0.00000000000E+00 0. -1.
<scales pt_clust_5="13000.00000" pt_clust_6="13000.00000" pt_clust_7="13000.00000" pt_clust_8="13000.00000" pt_clust_9="34.91783" pt_clust_10="13000.00000"></scales>
<clustering>
<clus scale="   34.918">  2  9  1 -1</clus>
<clus scale="   90.490">  7  8 -1 -1</clus>
<clus scale="   91.520">  5  6 -1 -1</clus>
<clus scale="  104.589">  5 10 -1 -1</clus>
<clus scale="  109.008">  1  7  2 -1</clus>
<clus scale="   34.918">  2  5  1 -1</clus>
</clustering>
</event>
<event>
10    2  0.5692308E-006  0.3402343E+03  0.7546771E-02  0.1105573E+00
         21   -1    0    0  501  502  0.00000000000E+00  0.00000000000E+00  0.24398809241E+03  0.24398809241E+03  0.00000000000E+00 0.  1.
          1   -1    0    0  503    0 -0.00000000000E+00 -0.00000000000E+00 -0.41142436992E+03  0.41142436992E+03  0.00000000000E+00 0. -1.
         23    2    1    2    0    0 -0.49664097243E+02 -0.43599877404E+02 -0.29532662791E+02  0.11602723087E+03  0.90678929566E+02 0.  0.
         23    2    1    2    0    0 -0.33846823829E+02 -0.62067770751E+02 -0.22514290717E+03  0.24994565317E+03  0.82374056853E+02 0.  0.
        -11    1    4    4    0    0 -0.11105326928E+02 -0.78815576655E+02 -0.17808791222E+03  0.19506544514E+03  0.00000000000E+00 0. -1.
         11    1    4    4    0    0 -0.22741496901E+02  0.16747805904E+02 -0.47054994949E+02  0.54880208031E+02  0.00000000000E+00 0.  1.
        -11    1    3    3    0    0 -0.29937713494E+02 -0.68500348802E+02 -0.36973252602E+02  0.83400155175E+02  0.00000000000E+00 0.  1.
         11    1    3    3    0    0 -0.19726383749E+02  0.24900471398E+02  0.74405898107E+01  0.32627075695E+02  0.00000000000E+00 0. -1.
         21    1    1    2  503  502 -0.58226488815E+02  0.68523627326E+01  0.10028455769E+03  0.11616484574E+03  0.00000000000E+00 0.  1.
          1    1    1    2  501    0  0.14173740989E+03  0.98815285422E+02 -0.13045265251E+02  0.17327473255E+03  0.00000000000E+00 0. -1.
<scales pt_clust_5="13000.00000" pt_clust_6="13000.00000" pt_clust_7="13000.00000" pt_clust_8="13000.00000" pt_clust_9="58.62831" pt_clust_10="13000.00000"></scales>
<clustering>
<clus scale="   58.628">  1  9  2 -1</clus>
<clus scale="   82.374">  5  6 -1 -1</clus>
<clus scale="   90.679">  7  8 -1 -1</clus>
<clus scale="  120.793">  2  7  1 -1</clus>
<clus scale="  130.455">  5 10 -1 -1</clus>
<clus scale="   58.628">  1  5  2 -1</clus>
</clustering>
</event>
<event>
10    2  0.5692308E-006  0.4239154E+03  0.7546771E-02  0.1048531E+00
         21   -1    0    0  501  502  0.00000000000E+00  0.00000000000E+00  0.12643760963E+03  0.12643760963E+03  0.00000000000E+00 0. -1.
          2   -1    0    0  503    0 -0.00000000000E+00 -0.00000000000E+00 -0.16040160011E+04  0.16040160011E+04  0.00000000000E+00 0. -1.
         23    2    1    2    0    0  0.25048086894E+03 -0.87532393577E+02 -0.85463092905E+03  0.89981690686E+03  0.94201143043E+02 0.  0.
         23    2    1    2    0    0 -0.61043645479E+02 -0.89412223665E+02 -0.16712540315E+03  0.21816780019E+03  0.89137064510E+02 0.  0.
        -11    1    4    4    0    0  0.22049451849E+02 -0.74416974266E+01 -0.23172225425E+02  0.32840664101E+02  0.00000000000E+00 0. -1.
         11    1    4    4    0    0 -0.83093097328E+02 -0.81970526239E+02 -0.14395317772E+03  0.18532713609E+03  0.00000000000E+00 0.  1.
        -13    1    3    3    0    0  0.17697610793E+03 -0.15382821566E+02 -0.50519815797E+03  0.53552063713E+03  0.00000000000E+00 0.  1.
         13    1    3    3    0    0  0.73504761005E+02 -0.72149572011E+02 -0.34943277108E+03  0.36429626973E+03  0.00000000000E+00 0. -1.
         21    1    1    2  503  502  0.46849455277E+02 -0.21255042652E+02  0.11346869024E+02  0.52682062740E+02  0.00000000000E+00 0. -1.
          2    1    1    2  501    0 -0.23628667874E+03  0.19819965989E+03 -0.46716892829E+03  0.55978684094E+03  0.00000000000E+00 0. -1.
<scales pt_clust_5="13000.00000" pt_clust_6="13000.00000" pt_clust_7="13000.00000" pt_clust_8="13000.00000" pt_clust_9="51.44559" pt_clust_10="13000.00000"></scales>
<clustering>
<clus scale="   51.446">  1  9  2 -1</clus>
<clus scale="   89.137">  5  6 -1 -1</clus>
<clus scale="   94.201">  7  8 -1 -1</clus>
<clus scale="  284.184">  5 10 -1 -1</clus>
<clus scale="  293.145">  2  7  1 -1</clus>
<clus scale="   51.446">  1  5  2 -1</clus>
</clustering>
</event>
<event>
10    2  0.5692308E-006  0.2046538E+03  0.7546771E-02  0.1152541E+00
          1   -1    0    0  502    0 -0.00000000000E+00  0.00000000000E+00  0.13057616803E+04  0.13057616803E+04  0.00000000000E+00 0. -1.
         21   -1    0    0  503  502  0.00000000000E+00 -0.00000000000E+00 -0.49672081941E+02  0.49672081941E+02  0.00000000000E+00 0.  1.
         23    2    1    2    0    0  0.15286185069E+03  0.39145742269E+02  0.56312048973E+03  0.58860289041E+03  0.66704888206E+02 0.  0.
         23    2    1    2    0    0 -0.91230734952E+02 -0.58827795829E+01  0.50845608352E+03  0.52480781441E+03  0.92401293832E+02 0.  0.
        -11    1    4    4    0    0 -0.78155527563E+02  0.32992066818E+02  0.27539104224E+03  0.28816139420E+03  0.00000000000E+00 0. -1.
         11    1    4    4    0    0 -0.13075207388E+02 -0.38874846401E+02  0.23306504128E+03  0.23664642021E+03  0.00000000000E+00 0.  1.
        -13    1    3    3    0    0  0.52257375855E+02 -0.91866141493E+01  0.11278218568E+03  0.12463967513E+03  0.00000000000E+00 0.  1.
         13    1    3    3    0    0  0.10060447483E+03  0.48332356419E+02  0.45033830406E+03  0.46396321528E+03  0.00000000000E+00 0. -1.
         21    1    1    2  503  501  0.12841134578E+02 -0.21076214622E+02 -0.14886297054E+02  0.28821925682E+02  0.00000000000E+00 0.  1.
          1    1    1    2  501    0 -0.74472250315E+02 -0.12186748065E+02  0.19939932213E+03  0.21320113171E+03  0.00000000000E+00 0. -1.
<scales pt_clust_5="13000.00000" pt_clust_6="13000.00000" pt_clust_7="13000.00000" pt_clust_8="13000.00000" pt_clust_9="24.67998" pt_clust_10="13000.00000"></scales>
<clustering>
<clus scale="   24.680">  2  9  1 -1</clus>
<clus scale="   66.705">  7  8 -1 -1</clus>
<clus scale="   92.401">  5  6 -1 -1</clus>
<clus scale="   73.383">  5 10 -1 -1</clus>
<clus scale="  174.696">  1  7  2 -1</clus>
<clus scale="   24.680">  2  5  1 -1</clus>
</clustering>
</event>
<event>
10    2  0.5692308E-006  0.2434717E+03  0.7546771E-02  0.1151011E+00
         21   -1    0    0  503  502  0.00000000000E+00  0.00000000000E+00  0.38798960648E+03  0.38798960648E+03  0.00000000000E+00 0.  1.
          3   -1    0    0  502    0 -0.00000000000E+00 -0.00000000000E+00 -0.14994639783E+03  0.14994639783E+03  0.00000000000E+00 0. -1.
         23    2    1    2    0    0 -0.55153872432E+02 -0.26625606407E+02 -0.69353418365E+02  0.12919871162E+03  0.90175040254E+02 0.  0.
         23    2    1    2    0    0  0.87831013302E+02 -0.70460854708E+01  0.26970911906E+03  0.29859315669E+03  0.93010376294E+02 0.  0.
        -11    1    3    3    0    0  0.21073461622E+02  0.50971475561E+01 -0.31816955900E+02  0.38501823083E+02  0.00000000000E+00 0.  1.
         11    1    3    3    0    0 -0.76227334054E+02 -0.31722753964E+02 -0.37536462465E+02  0.90696888538E+02  0.00000000000E+00 0. -1.
        -13    1    4    4    0    0  0.29697906115E+02  0.41594319997E+02  0.12923432995E+03  0.13897325326E+03  0.00000000000E+00 0. -1.
         13    1    4    4    0    0  0.58133107187E+02 -0.48640405468E+02  0.14047478912E+03  0.15961990343E+03  0.00000000000E+00 0.  1.
         21    1    1    2  503  501  0.29425088822E+02  0.91392934847E+01  0.29873877808E+02  0.42916326880E+02  0.00000000000E+00 0. -1.
          3    1    1    2  501    0 -0.62102229691E+02  0.24532398393E+02  0.78136301413E+01  0.67227809124E+02  0.00000000000E+00 0. -1.
<scales pt_clust_5="13000.00000" pt_clust_6="13000.00000" pt_clust_7="13000.00000" pt_clust_8="13000.00000" pt_clust_9="30.81173" pt_clust_10="13000.00000"></scales>
<clustering>
<clus scale="   30.812">  1  9  2 -1</clus>
<clus scale="   90.175">  5  6 -1 -1</clus>
<clus scale="   93.010">  7  8 -1 -1</clus>
<clus scale="   64.243">  7 10 -1 -1</clus>
<clus scale="  107.572">  2  5  1 -1</clus>
<clus scale="   30.812">  1  5  2 -1</clus>
</clustering>
</event>
<event>
10    2  0.5692308E-006  0.4239384E+03  0.7546771E-02  0.1081406E+00
         21   -1    0    0  501  502  0.00000000000E+00  0.00000000000E+00  0.88231238938E+03  0.88231238938E+03  0.00000000000E+00 0. -1.
          3   -1    0    0  503    0 -0.00000000000E+00 -0.00000000000E+00 -0.10881163433E+03  0.10881163433E+03  0.00000000000E+00 0. -1.
         23    2    1    2    0    0  0.57560659079E+02 -0.44851060931E+02  0.46355134530E+02  0.12601885695E+03  0.91690275768E+02 0.  0.
         23    2    1    2    0    0 -0.14961766900E+03  0.40732290796E+02  0.63942686477E+02  0.19061838986E+03  0.90565650265E+02 0.  0.
        -13    1    4    4    0    0 -0.11875597473E+03 -0.11072074858E+02  0.42016515364E+02  0.12645536738E+03  0.00000000000E+00 0. -1.
         13    1    4    4    0    0 -0.30861694272E+02  0.51804365654E+02  0.21926171113E+02  0.64163022480E+02  0.00000000000E+00 0.  1.
        -13    1    3    3    0    0 -0.95570262495E+01 -0.39756700750E+02 -0.52194076440E+01  0.41221041004E+02  0.00000000000E+00 0. -1.
         13    1    3    3    0    0  0.67117685328E+02 -0.50943601812E+01  0.51574542174E+02  0.84797815950E+02  0.00000000000E+00 0.  1.
         21    1    1    2  503  502 -0.57817775620E+01 -0.20950346928E+02  0.12953589113E+03  0.13134646199E+03  0.00000000000E+00 0.  1.
          3    1    1    2  501    0  0.97838787487E+02  0.25069117063E+02  0.53366704291E+03  0.54314031489E+03  0.00000000000E+00 0. -1.
<scales pt_clust_5="13000.00000" pt_clust_6="13000.00000" pt_clust_7="13000.00000" pt_clust_8="13000.00000" pt_clust_9="21.73352" pt_clust_10="13000.00000"></scales>
<clustering>
<clus scale="   21.734">  1  9  2 -1</clus>
<clus scale="   90.566">  5  6 -1 -1</clus>
<clus scale="   91.690">  7  8 -1 -1</clus>
<clus scale="   94.238">  5 10 -1 -1</clus>
<clus scale="  117.802">  2  7  1 -1</clus>
<clus scale="   21.734">  1  5  2 -1</clus>
</clustering>
</event>
<event>
10    2  0.5692308E-006  0.6564191E+03  0.7546771E-02  0.1006076E+00
         21   -1    0    0  503  502  0.00000000000E+00  0.00000000000E+00  0.45093430236E+03  0.45093430236E+03  0.00000000000E+00 0.  1.
         -3   -1    0    0    0  501 -0.00000000000E+00 -0.00000000000E+00 -0.13760148457E+04  0.13760148457E+04  0.00000000000E+00 0.  1.
         23    2    1    2    0    0 -0.25187520868E+03  0.82343020639E+02 -0.26455170693E+03  0.38544836754E+03  0.91440388246E+02 0.  0.
         23    2    1    2    0    0  0.14277174914E+03 -0.27058931704E+03 -0.39103702695E+03  0.50456494240E+03  0.89852511375E+02 0.  0.
        -11    1    3    3    0    0 -0.21791887311E+03  0.87208564569E+02 -0.18515677937E+03  0.29895986677E+03  0.00000000000E+00 0. -1.
         11    1    3    3    0    0 -0.33956335568E+02 -0.48655439300E+01 -0.79394927556E+02  0.86488500765E+02  0.00000000000E+00 0.  1.
        -13    1    4    4    0    0  0.87186250632E+02 -0.24013678111E+03 -0.31501294226E+03  0.40558632833E+03  0.00000000000E+00 0.  1.
         13    1    4    4    0    0  0.55585498504E+02 -0.30452535936E+02 -0.76024084691E+02  0.98978614063E+02  0.00000000000E+00 0. -1.
         21    1    1    2  503  501  0.31728543531E+03  0.43898017198E+03 -0.49837180801E+02  0.54392773733E+03  0.00000000000E+00 0.  1.
         -3    1    1    2    0  502 -0.20818197576E+03 -0.25073387558E+03 -0.21965462864E+03  0.39300810078E+03  0.00000000000E+00 0.  1.
<scales pt_clust_5="13000.00000" pt_clust_6="13000.00000" pt_clust_7="13000.00000" pt_clust_8="13000.00000" pt_clust_9="523.68825" pt_clust_10="13000.00000"></scales>
<clustering>
<clus scale="   89.853">  7  8 -1 -1</clus>
<clus scale="   91.440">  5  6 -1 -1</clus>
<clus scale="  280.326">  2  5  1 -1</clus>
<clus scale="  361.530">  7 10 -1 -1</clus>
<clus scale="  523.688">  1  9  2 -1</clus>
<clus scale="  523.688">  1  5  2 -1</clus>
</clustering>
</event>
<event>
10    2  0.5692308E-006  0.2567894E+03  0.7546771E-02  0.1133515E+00
         21   -1    0    0  501  502  0.00000000000E+00  0.00000000000E+00  0.94016631388E+02  0.94016631388E+02  0.00000000000E+00 0. -1.
          1   -1    0    0  503    0 -0.00000000000E+00 -0.00000000000E+00 -0.12237159529E+04  0.12237159529E+04  0.00000000000E+00 0. -1.
         23    2    1    2    0    0  0.12210240070E+03 -0.50054442560E+02 -0.21510703503E+03  0.26812051534E+03  0.90571136397E+02 0.  0.
         23    2    1    2    0    0 -0.10722919724E+03  0.95717731517E+02 -0.87128422987E+03  0.88728897770E+03  0.86518991323E+02 0.  0.
        -11    1    4    4    0    0 -0.11773315668E+03  0.70836599021E+02 -0.78307048865E+03  0.79503352768E+03  0.00000000000E+00 0. -1.
         11    1    4    4    0    0  0.10503959438E+02  0.24881132496E+02 -0.88213741225E+02  0.92255450024E+02  0.00000000000E+00 0.  1.
        -13    1    3    3    0    0  0.14906937815E+02 -0.45075944269E+02 -0.37034176229E+02  0.60212853741E+02  0.00000000000E+00 0.  1.
         13    1    3    3    0    0  0.10719546288E+03 -0.49784982912E+01 -0.17807285880E+03  0.20790766159E+03  0.00000000000E+00 0. -1.
         21    1    1    2  503  502 -0.45818969207E+02 -0.62683800466E-01  0.41077354478E+02  0.61536419456E+02  0.00000000000E+00 0. -1.
          1    1    1    2  501    0  0.30945765751E+02 -0.45600605156E+02 -0.84385411139E+02  0.10078667185E+03  0.00000000000E+00 0. -1.
<scales pt_clust_5="13000.00000" pt_clust_6="13000.00000" pt_clust_7="13000.00000" pt_clust_8="13000.00000" pt_clust_9="45.81901" pt_clust_10="13000.00000"></scales>
<clustering>
<clus scale="   45.819">  1  9  2 -1</clus>
<clus scale="   86.519">  5  6 -1 -1</clus>
<clus scale="   50.706">  5 10 -1 -1</clus>
<clus scale="   90.571">  7  8 -1 -1</clus>
<clus scale="  139.592">  2  7  1 -1</clus>
<clus scale="   45.819">  1  5  2 -1</clus>
</clustering>
</event>
<event>
10    2  0.5692308E-006  0.1399390E+03  0.7546771E-02  0.1246480E+00
          1   -1    0    0  503    0 -0.00000000000E+00  0.00000000000E+00  0.46134638985E+03  0.46134638985E+03  0.00000000000E+00 0. -1.
         21   -1    0    0  501  502  0.00000000000E+00 -0.00000000000E+00 -0.21028922987E+03  0.21028922987E+03  0.00000000000E+00 0.  1.
         23    2    1    2    0    0 -0.19713362452E+02  0.25453924364E+02  0.14240766306E+02  0.77498974343E+02  0.69041818302E+02 0.  0.
         23    2    1    2    0    0 -0.25755970057E+02 -0.11491793183E+02  0.35293653595E+03  0.36535607127E+03  0.90141162084E+02 0.  0.
        -11    1    4    4    0    0  0.11342447678E+01  0.36012733332E+02  0.92698542245E+02  0.99454628890E+02  0.00000000000E+00 0.  1.
         11    1    4    4    0    0 -0.26890214825E+02 -0.47504526515E+02  0.26023799371E+03  0.26590144238E+03  0.00000000000E+00 0. -1.
        -13    1    3    3    0    0  0.23923562836E+02 -0.16457822007E+01 -0.74147018378E+00  0.23991565932E+02  0.00000000000E+00 0. -1.
         13    1    3    3    0    0 -0.43636925289E+02  0.27099706565E+02  0.14982236490E+02  0.53507408410E+02  0.00000000000E+00 0.  1.
         21    1    1    2  503  502  0.11289488528E+02 -0.21358529901E+02 -0.16606309727E+03  0.16781117849E+03  0.00000000000E+00 0.  1.
          1    1    1    2  501    0  0.34179843981E+02  0.73963987192E+01  0.49942954991E+02  0.60969395617E+02  0.00000000000E+00 0. -1.
<scales pt_clust_5="13000.00000" pt_clust_6="13000.00000" pt_clust_7="13000.00000" pt_clust_8="13000.00000" pt_clust_9="24.15863" pt_clust_10="13000.00000"></scales>
<clustering>
<clus scale="   24.159">  2  9  1 -1</clus>
<clus scale="   69.042">  7  8 -1 -1</clus>
<clus scale="   70.682">  1  7  2 -1</clus>
<clus scale="   90.141">  5  6 -1 -1</clus>
<clus scale="   34.536">  5 10 -1 -1</clus>
<clus scale="   24.159">  2  5  1 -1</clus>
</clustering>
</event>
<event>
10    2  0.5692308E-006  0.1516504E+03  0.7546771E-02  0.1204689E+00
          1   -1    0    0  503    0 -0.00000000000E+00  0.00000000000E+00  0.63576655582E+03  0.63576655582E+03  0.00000000000E+00 0. -1.
         21   -1    0    0  501  502  0.00000000000E+00 -0.00000000000E+00 -0.62761433350E+02  0.62761433350E+02  0.00000000000E+00 0. -1.
         23    2    1    2    0    0 -0.67558924598E+02 -0.46604328305E+02  0.10591984607E+03  0.16189471353E+03  0.90855449858E+02 0.  0.
         23    2    1    2    0    0  0.48693584404E+02  0.61625724475E+02  0.39650849604E+03  0.41231274703E+03  0.81326618377E+02 0.  0.
        -13    1    4    4    0    0 -0.20860407968E+02  0.79301793973E+01  0.48591732030E+02  0.53471495093E+02  0.00000000000E+00 0.  1.
         13    1    4    4    0    0  0.69553992372E+02  0.53695545078E+02  0.34791676401E+03  0.35884125194E+03  0.00000000000E+00 0. -1.
        -13    1    3    3    0    0 -0.72956936358E+02 -0.72600763288E+01  0.96299713867E+02  0.12103329361E+03  0.00000000000E+00 0. -1.
         13    1    3    3    0    0  0.53980117597E+01 -0.39344251976E+02  0.96201321999E+01  0.40861419922E+02  0.00000000000E+00 0.  1.
         21    1    1    2  503  502 -0.20183129071E+02 -0.69034244052E+01 -0.17528061895E+02  0.27608855851E+02  0.00000000000E+00 0. -1.
          1    1    1    2  501    0  0.39048469265E+02 -0.81179717648E+01  0.88104842257E+02  0.96711672753E+02  0.00000000000E+00 0. -1.
<scales pt_clust_5="13000.00000" pt_clust_6="13000.00000" pt_clust_7="13000.00000" pt_clust_8="13000.00000" pt_clust_9="21.33110" pt_clust_10="13000.00000"></scales>
<clustering>
<clus scale="   21.331">  2  9  1 -1</clus>
<clus scale="   81.327">  5  6 -1 -1</clus>
<clus scale="   37.936">  5 10 -1 -1</clus>
<clus scale="   90.855">  7  8 -1 -1</clus>
<clus scale="  132.509">  1  7  2 -1</clus>
<clus scale="   21.331">  2  5  1 -1</clus>
</clustering>
</event>
<event>
10    2  0.5692308E-006  0.8453420E+03  0.7546771E-02  0.9890084E-01
          2   -1    0    0  503    0 -0.00000000000E+00  0.00000000000E+00  0.26049510042E+04  0.26049510042E+04  0.00000000000E+00 0. -1.
         21   -1    0    0  501  502  0.00000000000E+00 -0.00000000000E+00 -0.33204312643E+03  0.33204312643E+03  0.00000000000E+00 0. -1.
         23    2    1    2    0    0  0.10976103818E+03 -0.17247714368E+03  0.31467663381E+03  0.38706540098E+03  0.94880926287E+02 0.  0.
         23    2    1    2    0    0 -0.37687197214E+03  0.58662316632E+02  0.42759357794E+03  0.58003667196E+03  0.90180497598E+02 0.  0.
        -13    1    3    3    0    0  0.96063701309E+02 -0.62729565116E+02  0.15596808703E+03  0.19362147923E+03  0.00000000000E+00 0.  1.
         13    1    3    3    0    0  0.13697336869E+02 -0.10974757857E+03  0.15870854678E+03  0.19344392174E+03  0.00000000000E+00 0. -1.
        -13    1    4    4    0    0 -0.14797791517E+03  0.65370047529E+02  0.19920787933E+03  0.25662128843E+03  0.00000000000E+00 0.  1.
         13    1    4    4    0    0 -0.22889405697E+03 -0.67077308970E+01  0.22838569861E+03  0.32341538352E+03  0.00000000000E+00 0. -1.
         21    1    1    2  503  502  0.35287396642E+03 -0.39687054778E+03  0.24690790199E+03  0.58565329329E+03  0.00000000000E+00 0. -1.
          2    1    1    2  501    0 -0.85763032459E+02  0.51068537483E+03  0.12837297641E+04  0.13842387644E+04  0.00000000000E+00 0. -1.
<scales pt_clust_5="13000.00000" pt_clust_6="13000.00000" pt_clust_7="13000.00000" pt_clust_8="13000.00000" pt_clust_9="568.36658" pt_clust_10="13000.00000"></scales>
<clustering>
<clus scale="   90.180">  7  8 -1 -1</clus>
<clus scale="   94.881">  5  6 -1 -1</clus>
<clus scale="  225.385">  1  5  2 -1</clus>
<clus scale="  409.141">  7 10 -1 -1</clus>
<clus scale="  568.367">  2  9  1 -1</clus>
<clus scale="  568.367">  2  5  1 -1</clus>
</clustering>
</event>
<event>
10    2  0.5692308E-006  0.5747586E+03  0.7546771E-02  0.1057085E+00
         -1   -1    0    0    0  501 -0.00000000000E+00  0.00000000000E+00  0.85870738105E+02  0.85870738105E+02  0.00000000000E+00 0.  1.
         21   -1    0    0  503  502  0.00000000000E+00 -0.00000000000E+00 -0.21691729114E+04  0.21691729114E+04  0.00000000000E+00 0.  1.
         23    2    1    2    0    0  0.21523818906E+02 -0.14422754155E+02 -0.54150030675E+01  0.92554196609E+02  0.88688592468E+02 0.  0.
         23    2    1    2    0    0 -0.23123086211E+03  0.11251659418E+03 -0.14877605449E+04  0.15127251614E+04  0.93692473065E+02 0.  0.
        -11    1    3    3    0    0  0.53945079860E+02 -0.21639883200E+02  0.32929942885E+01  0.58216836031E+02  0.00000000000E+00 0.  1.
         11    1    3    3    0    0 -0.32421260954E+02  0.72171290451E+01 -0.87079973559E+01  0.34337360578E+02  0.00000000000E+00 0. -1.
        -13    1    4    4    0    0 -0.17510740511E+03  0.12313231141E+03 -0.12502000686E+04  0.12683944107E+04  0.00000000000E+00 0.  1.
         13    1    4    4    0    0 -0.56123457001E+02 -0.10615717233E+02 -0.23756047630E+03  0.24433075078E+03  0.00000000000E+00 0. -1.
         21    1    1    2  503  501 -0.12140020415E+02  0.17806087505E+02 -0.42707844641E+02  0.47837190990E+02  0.00000000000E+00 0. -1.
         -1    1    1    2    0  502  0.22184706362E+03 -0.11589992753E+03 -0.54741878068E+03  0.60192710047E+03  0.00000000000E+00 0.  1.
<scales pt_clust_5="13000.00000" pt_clust_6="13000.00000" pt_clust_7="13000.00000" pt_clust_8="13000.00000" pt_clust_9="21.55081" pt_clust_10="13000.00000"></scales>
<clustering>
<clus scale="   21.551">  2  9  1 -1</clus>
<clus scale="   88.689">  5  6 -1 -1</clus>
<clus scale="   92.268">  1  5  2 -1</clus>
<clus scale="   93.692">  7  8 -1 -1</clus>
<clus scale="  261.267">  7 10 -1 -1</clus>
<clus scale="   21.551">  2  5  1 -1</clus>
</clustering>
</event>
<event>
10    2  0.5692308E-006  0.3601797E+03  0.7546771E-02  0.1067566E+00
          1   -1    0    0  503    0 -0.00000000000E+00  0.00000000000E+00  0.62147322498E+03  0.62147322498E+03  0.00000000000E+00 0. -1.
         21   -1    0    0  501  502  0.00000000000E+00 -0.00000000000E+00 -0.27743803734E+03  0.27743803734E+03  0.00000000000E+00 0. -1.
         23    2    1    2    0    0  0.23466969178E+03  0.65335620795E+02 -0.87826627323E+01  0.26060090019E+03  0.92179642185E+02 0.  0.
         23    2    1    2    0    0 -0.58071729699E+02 -0.67852773913E+02  0.29628173444E+03  0.32222557836E+03  0.89833916027E+02 0.  0.
        -11    1    4    4    0    0 -0.27795124322E+02 -0.85530453340E+02  0.23504401368E+03  0.25166190763E+03  0.00000000000E+00 0. -1.
         11    1    4    4    0    0 -0.30276605378E+02  0.17677679427E+02  0.61237720751E+02  0.70563670723E+02  0.00000000000E+00 0.  1.
        -13    1    3    3    0    0  0.97411373471E+02 -0.14423884014E+02  0.16513681681E+02  0.99848514231E+02  0.00000000000E+00 0.  1.
         13    1    3    3    0    0  0.13725831830E+03  0.79759504809E+02 -0.25296344413E+02  0.16075238596E+03  0.00000000000E+00 0. -1.
         21    1    1    2  503  502  0.23046191940E+02  0.31684546787E+02 -0.68360691662E+02  0.78792268863E+02  0.00000000000E+00 0. -1.
          1    1    1    2  501    0 -0.19964415402E+03 -0.29167393668E+02  0.12489680759E+03  0.23729251491E+03  0.00000000000E+00 0. -1.
<scales pt_clust_5="13000.00000" pt_clust_6="13000.00000" pt_clust_7="13000.00000" pt_clust_8="13000.00000" pt_clust_9="39.17955" pt_clust_10="13000.00000"></scales>
<clustering>
<clus scale="   39.180">  2  9  1 -1</clus>
<clus scale="   89.834">  5  6 -1 -1</clus>
<clus scale="   92.180">  7  8 -1 -1</clus>
<clus scale="  194.368">  5 10 -1 -1</clus>
<clus scale="  279.978">  1  7  2 -1</clus>
<clus scale="   39.180">  2  5  1 -1</clus>
</clustering>
</event>
<event>
10    2  0.5692308E-006  0.2785446E+03  0.7546771E-02  0.1112470E+00
          1   -1    0    0  503    0 -0.00000000000E+00  0.00000000000E+00  0.75152990392E+03  0.75152990392E+03  0.00000000000E+00 0. -1.
         21   -1    0    0  501  502  0.00000000000E+00 -0.00000000000E+00 -0.27010103147E+03  0.27010103147E+03  0.00000000000E+00 0. -1.
         23    2    1    2    0    0  0.75273862391E+02 -0.14236037841E+03  0.61098976643E+03  0.63838958698E+03  0.91105095218E+02 0.  0.
         23    2    1    2    0    0 -0.13262643732E+03  0.10469042580E+02 -0.97082499946E+02  0.18961904646E+03  0.93973391199E+02 0.  0.
        -11    1    4    4    0    0 -0.11252382982E+03  0.22592947157E+02 -0.11315304850E+03  0.16116968053E+03  0.00000000000E+00 0. -1.
         11    1    4    4    0    0 -0.20102607504E+02 -0.12123904577E+02  0.16070548553E+02  0.28449365923E+02  0.00000000000E+00 0.  1.
        -11    1    3    3    0    0  0.39634885034E+02 -0.10475833281E+02  0.77377283358E+02  0.87566609929E+02  0.00000000000E+00 0.  1.
         11    1    3    3    0    0  0.35638977358E+02 -0.13188454513E+03  0.53361248307E+03  0.55082297705E+03  0.00000000000E+00 0. -1.
         21    1    1    2  503  502  0.55141998967E+02  0.37617436585E+02 -0.65682220597E+02  0.93647561036E+02  0.00000000000E+00 0. -1.
          1    1    1    2  501    0  0.22105759656E+01  0.94273899248E+02  0.33203826564E+02  0.99974740930E+02  0.00000000000E+00 0. -1.
<scales pt_clust_5="13000.00000" pt_clust_6="13000.00000" pt_clust_7="13000.00000" pt_clust_8="13000.00000" pt_clust_9="66.75112" pt_clust_10="13000.00000"></scales>
<clustering>
<clus scale="   66.751">  2  9  1 -1</clus>
<clus scale="   91.105">  7  8 -1 -1</clus>
<clus scale="   93.973">  5  6 -1 -1</clus>
<clus scale="  101.566">  5 10 -1 -1</clus>
<clus scale="  184.615">  1  7  2 -1</clus>
<clus scale="   66.751">  2  5  1 -1</clus>
</clustering>
</event>
<event>
10    2  0.5692308E-006  0.4570024E+03  0.7546771E-02  0.1028915E+00
         21   -1    0    0  501  502  0.00000000000E+00  0.00000000000E+00  0.38704266424E+03  0.38704266424E+03  0.00000000000E+00 0. -1.
          1   -1    0    0  503    0 -0.00000000000E+00 -0.00000000000E+00 -0.99712358597E+03  0.99712358597E+03  0.00000000000E+00 0. -1.
         23    2    1    2    0    0 -0.35227057698E+03 -0.13552108211E+03 -0.33872494632E+03  0.51542158284E+03  0.92001606998E+02 0.  0.
         23    2    1    2    0    0  0.73383755754E+02  0.26335348471E+02 -0.16329103481E+03  0.20287239653E+03  0.91730698441E+02 0.  0.
        -11    1    4    4    0    0  0.61365311376E+02 -0.20213082111E+02 -0.12750705893E+03  0.14294166715E+03  0.00000000000E+00 0.  1.
         11    1    4    4    0    0  0.12018444378E+02  0.46548430582E+02 -0.35783975879E+02  0.59930729385E+02  0.00000000000E+00 0. -1.
        -13    1    3    3    0    0 -0.29316434332E+03 -0.72325727079E+02 -0.26193201903E+03  0.39973081640E+03  0.00000000000E+00 0. -1.
         13    1    3    3    0    0 -0.59106233666E+02 -0.63195355036E+02 -0.76792927293E+02  0.11569076644E+03  0.00000000000E+00 0.  1.
         21    1    1    2  503  502 -0.38471703349E+02 -0.60829852697E+02  0.18700309145E+03  0.20037589463E+03  0.00000000000E+00 0.  1.
          1    1    1    2  501    0  0.31735852458E+03  0.17001558634E+03 -0.29506803205E+03  0.46549637620E+03  0.00000000000E+00 0. -1.
<scales pt_clust_5="13000.00000" pt_clust_6="13000.00000" pt_clust_7="13000.00000" pt_clust_8="13000.00000" pt_clust_9="71.97460" pt_clust_10="13000.00000"></scales>
<clustering>
<clus scale="   71.975">  1  9  2 -1</clus>
<clus scale="   91.731">  5  6 -1 -1</clus>
<clus scale="   92.002">  7  8 -1 -1</clus>
<clus scale="  332.792">  5 10 -1 -1</clus>
<clus scale="  414.638">  2  7  1 -1</clus>
<clus scale="   71.975">  1  5  2 -1</clus>
</clustering>
</event>
<event>
10    2  0.5692308E-006  0.3182813E+03  0.7546771E-02  0.1090491E+00
         21   -1    0    0  503  502  0.00000000000E+00  0.00000000000E+00  0.34538823860E+03  0.34538823860E+03  0.00000000000E+00 0.  1.
         -1   -1    0    0    0  501 -0.00000000000E+00 -0.00000000000E+00 -0.30027893903E+03  0.30027893903E+03  0.00000000000E+00 0.  1.
         23    2    1    2    0    0  0.15761580926E+03  0.13100263289E+03  0.10592273393E+02  0.22501292162E+03  0.92272344123E+02 0.  0.
         23    2    1    2    0    0 -0.21508363072E+03 -0.88522068031E+02 -0.63812999572E+02  0.25810985111E+03  0.91931885599E+02 0.  0.
        -11    1    4    4    0    0 -0.20644684754E+03 -0.66197610222E+02 -0.33323223730E+02  0.21934644219E+03  0.00000000000E+00 0.  1.
         11    1    4    4    0    0 -0.86367831796E+01 -0.22324457810E+02 -0.30489775842E+02  0.38763408920E+02  0.00000000000E+00 0. -1.
        -13    1    3    3    0    0  0.11738889053E+03  0.12778827128E+03 -0.19582646216E+02  0.17462380688E+03  0.00000000000E+00 0.  1.
         13    1    3    3    0    0  0.40226918733E+02  0.32143616059E+01  0.30174919610E+02  0.50389114745E+02  0.00000000000E+00 0. -1.
         21    1    1    2  503  501 -0.10690107033E+01 -0.21561480487E+02  0.98032422451E+02  0.10038125361E+03  0.00000000000E+00 0.  1.
         -1    1    1    2    0  502  0.58536832166E+02 -0.20919084367E+02  0.29760329100E+00  0.62163151292E+02  0.00000000000E+00 0.  1.
<scales pt_clust_5="13000.00000" pt_clust_6="13000.00000" pt_clust_7="13000.00000" pt_clust_8="13000.00000" pt_clust_9="21.58796" pt_clust_10="13000.00000"></scales>
<clustering>
<clus scale="   21.588">  1  9  2 -1</clus>
<clus scale="   91.932">  5  6 -1 -1</clus>
<clus scale="   63.010">  5 10 -1 -1</clus>
<clus scale="   92.272">  7  8 -1 -1</clus>
<clus scale="  218.543">  2  7  1 -1</clus>
<clus scale="   21.588">  1  5  2 -1</clus>
</clustering>
</event>
<event>
10    2  0.5692308E-006  0.5669956E+03  0.7546771E-02  0.1058128E+00
         21   -1    0    0  501  502  0.00000000000E+00  0.00000000000E+00  0.65467778437E+03  0.65467778437E+03  0.00000000000E+00 0. -1.
          1   -1    0    0  503    0 -0.00000000000E+00 -0.00000000000E+00 -0.43853313570E+03  0.43853313570E+03  0.00000000000E+00 0. -1.
         23    2    1    2    0    0  0.62072608378E+01 -0.20402132516E+02  0.60925563850E+02  0.11145744194E+03  0.90862863347E+02 0.  0.
         23    2    1    2    0    0  0.24117234154E+03  0.78536312849E+02 -0.98468129199E+02  0.28709104976E+03  0.91614669266E+02 0.  0.
        -11    1    4    4    0    0  0.10648744700E+02  0.29969636414E+02 -0.24564798832E+02  0.40187115001E+02  0.00000000000E+00 0.  1.
         11    1    4    4    0    0  0.23052359684E+03  0.48566676435E+02 -0.73903330367E+02  0.24690393476E+03  0.00000000000E+00 0. -1.
        -11    1    3    3    0    0  0.32838816500E+02  0.24268727232E+02  0.32506127185E+02  0.52192023291E+02  0.00000000000E+00 0. -1.
         11    1    3    3    0    0 -0.26631555662E+02 -0.44670859748E+02  0.28419436665E+02  0.59265418652E+02  0.00000000000E+00 0.  1.
         21    1    1    2  503  502 -0.39658759839E+03  0.26104218388E+01  0.29201076768E+01  0.39660693958E+03  0.00000000000E+00 0. -1.
          1    1    1    2  501    0  0.14920799601E+03 -0.60744602172E+02  0.25076710635E+03  0.29805548878E+03  0.00000000000E+00 0. -1.
<scales pt_clust_5="13000.00000" pt_clust_6="13000.00000" pt_clust_7="13000.00000" pt_clust_8="13000.00000" pt_clust_9="393.69537" pt_clust_10="13000.00000"></scales>
<clustering>
<clus scale="   90.863">  7  8 -1 -1</clus>
<clus scale="   91.615">  5  6 -1 -1</clus>
<clus scale="   93.332">  2  7  1 -1</clus>
<clus scale="  161.871">  5 10 -1 -1</clus>
<clus scale="  393.695">  1  9  2 -1</clus>
<clus scale="  393.695">  1  5  2 -1</clus>
</clustering>
</event>
<event>
10    2  0.5692308E-006  0.2087590E+03  0.7546771E-02  0.1173077E+00
         21   -1    0    0  503  502  0.00000000000E+00  0.00000000000E+00  0.14125650174E+03  0.14125650174E+03  0.00000000000E+00 0. -1.
         -1   -1    0    0    0  501 -0.00000000000E+00 -0.00000000000E+00 -0.26627333314E+03  0.26627333314E+03  0.00000000000E+00 0.  1.
         23    2    1    2    0    0 -0.13398455258E+02  0.22801820128E+02 -0.38668864017E+02  0.10805097218E+03  0.97366780471E+02 0.  0.
         23    2    1    2    0    0  0.11994204969E+01 -0.22998822496E+02 -0.16911573854E+03  0.19256980528E+03  0.89177421123E+02 0.  0.
        -13    1    4    4    0    0  0.17912508347E+02 -0.45202260569E+02 -0.15278709823E+03  0.16033714387E+03  0.00000000000E+00 0.  1.
         13    1    4    4    0    0 -0.16713087850E+02  0.22203438073E+02 -0.16328640308E+02  0.32232661418E+02  0.00000000000E+00 0. -1.
        -13    1    3    3    0    0  0.40669261417E+02 -0.31695644569E+00 -0.24797234536E+02  0.47633938807E+02  0.00000000000E+00 0. -1.
         13    1    3    3    0    0 -0.54067716675E+02  0.23118776574E+02 -0.13871629481E+02  0.60417033369E+02  0.00000000000E+00 0.  1.
         21    1    1    2  503  501  0.29843847122E+02  0.23174760466E+02  0.38027770548E+02  0.53608171640E+02  0.00000000000E+00 0. -1.
         -1    1    1    2    0  502 -0.17644812361E+02 -0.22977758098E+02  0.44740000611E+02  0.53300885782E+02  0.00000000000E+00 0.  1.
<scales pt_clust_5="13000.00000" pt_clust_6="13000.00000" pt_clust_7="13000.00000" pt_clust_8="13000.00000" pt_clust_9="37.78524" pt_clust_10="13000.00000"></scales>
<clustering>
<clus scale="   37.785">  1  9  2 -1</clus>
<clus scale="   89.177">  5  6 -1 -1</clus>
<clus scale="   11.314">  5 10 -1 -1</clus>
<clus scale="   97.367">  7  8 -1 -1</clus>
<clus scale="  102.283">  2  7  1 -1</clus>
<clus scale="   37.785">  1  5  2 -1</clus>
</clustering>
</event>
<event>
10    2  0.5692308E-006  0.3485858E+03  0.7546771E-02  0.1091936E+00
          2   -1    0    0  503    0 -0.00000000000E+00  0.00000000000E+00  0.87356820744E+03  0.87356820744E+03  0.00000000000E+00 0. -1.
         21   -1    0    0  501  502  0.00000000000E+00 -0.00000000000E+00 -0.62081089214E+03  0.62081089214E+03  0.00000000000E+00 0. -1.
         23    2    1    2    0    0  0.56139536003E+01  0.13676031402E+03  0.63154847851E+03  0.65235225394E+03  0.89303317685E+02 0.  0.
         23    2    1    2    0    0  0.12460046737E+03 -0.67883132468E+02 -0.53210113052E+02  0.17726237643E+03  0.91963241694E+02 0.  0.
        -11    1    3    3    0    0 -0.24221708320E+02  0.12840842991E+02  0.50231749156E+02  0.57225929664E+02  0.00000000000E+00 0.  1.
         11    1    3    3    0    0  0.29835661920E+02  0.12391947103E+03  0.58131672935E+03  0.59512632427E+03  0.00000000000E+00 0. -1.
        -11    1    4    4    0    0  0.48101691837E+02 -0.53028195407E+02  0.15632739169E+02  0.73281271821E+02  0.00000000000E+00 0.  1.
         11    1    4    4    0    0  0.76498775533E+02 -0.14854937061E+02 -0.68842852220E+02  0.10398110461E+03  0.00000000000E+00 0. -1.
         21    1    1    2  503  502 -0.54625781451E+02 -0.49828392082E+02 -0.48325240937E+03  0.48887599227E+03  0.00000000000E+00 0. -1.
          2    1    1    2  501    0 -0.75588639520E+02 -0.19048789468E+02  0.15767135921E+03  0.17588847694E+03  0.00000000000E+00 0. -1.
<scales pt_clust_5="13000.00000" pt_clust_6="13000.00000" pt_clust_7="13000.00000" pt_clust_8="13000.00000" pt_clust_9="73.93811" pt_clust_10="13000.00000"></scales>
<clustering>
<clus scale="   73.938">  2  9  1 -1</clus>
<clus scale="   89.303">  5  6 -1 -1</clus>
<clus scale="   91.963">  7  8 -1 -1</clus>
<clus scale="   82.390">  7 10 -1 -1</clus>
<clus scale="  160.135">  1  5  2 -1</clus>
<clus scale="   73.938">  2  5  1 -1</clus>
</clustering>
</event>
<event>
10    2  0.5692308E-006  0.2225762E+03  0.7546771E-02  0.1160444E+00
          1   -1    0    0  502    0 -0.00000000000E+00  0.00000000000E+00  0.53925490794E+03  0.53925490794E+03  0.00000000000E+00 0. -1.
         21   -1    0    0  503  502  0.00000000000E+00 -0.00000000000E+00 -0.16513733740E+03  0.16513733740E+03  0.00000000000E+00 0.  1.
         23    2    1    2    0    0  0.86858572194E+00  0.62417677971E+02  0.29194318980E+03  0.31200518476E+03  0.90662496548E+02 0.  0.
         23    2    1    2    0    0  0.25132204899E+02 -0.12340740006E+03  0.16220326590E+03  0.22498694629E+03  0.91914157889E+02 0.  0.
        -13    1    4    4    0    0  0.33870048198E+02 -0.10489767562E+03  0.17039401858E+03  0.20294044467E+03  0.00000000000E+00 0. -1.
         13    1    4    4    0    0 -0.87378432989E+01 -0.18509724443E+02 -0.81907526774E+01  0.22046501625E+02  0.00000000000E+00 0.  1.
        -13    1    3    3    0    0 -0.44144385234E+02  0.39320392279E+02  0.14459005843E+03  0.15620853047E+03  0.00000000000E+00 0.  1.
         13    1    3    3    0    0  0.45012970956E+02  0.23097285691E+02  0.14735313137E+03  0.15579665428E+03  0.00000000000E+00 0. -1.
         21    1    1    2  503  501  0.32293300424E+02  0.31457484635E+02 -0.90605565297E+02  0.10120177397E+03  0.00000000000E+00 0.  1.
          1    1    1    2  501    0 -0.58294091045E+02  0.29532237455E+02  0.10576680139E+02  0.66198340332E+02  0.00000000000E+00 0. -1.
<scales pt_clust_5="13000.00000" pt_clust_6="13000.00000" pt_clust_7="13000.00000" pt_clust_8="13000.00000" pt_clust_9="45.08249" pt_clust_10="13000.00000"></scales>
<clustering>
<clus scale="   45.082">  2  9  1 -1</clus>
<clus scale="   90.662">  7  8 -1 -1</clus>
<clus scale="   91.914">  5  6 -1 -1</clus>
<clus scale="   61.905">  5 10 -1 -1</clus>
<clus scale="  112.855">  1  7  2 -1</clus>
<clus scale="   45.082">  2  5  1 -1</clus>
</clustering>
</event>
<event>
10    2  0.5692308E-006  0.2555812E+03  0.7546771E-02  0.1139612E+00
          2   -1    0    0  503    0 -0.00000000000E+00  0.00000000000E+00  0.23987091155E+03  0.23987091155E+03  0.00000000000E+00 0. -1.
         21   -1    0    0  501  502  0.00000000000E+00 -0.00000000000E+00 -0.26974702799E+03  0.26974702799E+03  0.00000000000E+00 0. -1.
         23    2    1    2    0    0  0.14873423242E+02  0.92484378269E+02  0.87095245595E+02  0.15557247954E+03  0.88558656503E+02 0.  0.
         23    2    1    2    0    0 -0.18052704332E+02 -0.10567739401E+03 -0.15623086122E+02  0.14205408280E+03  0.91878560500E+02 0.  0.
        -11    1    4    4    0    0  0.24316680730E+02 -0.38023011753E+02  0.25938263012E+02  0.52056160755E+02  0.00000000000E+00 0.  1.
         11    1    4    4    0    0 -0.42369385063E+02 -0.67654382261E+02 -0.41561349134E+02  0.89997922040E+02  0.00000000000E+00 0. -1.
        -11    1    3    3    0    0 -0.64676312368E+01  0.39132069031E+02 -0.11638042320E+02  0.41335131661E+02  0.00000000000E+00 0.  1.
         11    1    3    3    0    0  0.21341054478E+02  0.53352309239E+02  0.98733287915E+02  0.11423734788E+03  0.00000000000E+00 0. -1.
         21    1    1    2  503  502  0.43267519439E+02 -0.71843801660E+02 -0.16757763544E+02  0.85524456820E+02  0.00000000000E+00 0. -1.
          2    1    1    2  501    0 -0.40088238348E+02  0.85036817404E+02 -0.84590512376E+02  0.12646692039E+03  0.00000000000E+00 0. -1.
<scales pt_clust_5="13000.00000" pt_clust_6="13000.00000" pt_clust_7="13000.00000" pt_clust_8="13000.00000" pt_clust_9="83.86662" pt_clust_10="13000.00000"></scales>
<clustering>
<clus scale="   83.867">  2  9  1 -1</clus>
<clus scale="   88.559">  7  8 -1 -1</clus>
<clus scale="   91.879">  5  6 -1 -1</clus>
<clus scale="   53.892">  5 10 -1 -1</clus>
<clus scale="  122.107">  1  7  2 -1</clus>
<clus scale="   83.867">  2  5  1 -1</clus>
</clustering>
</event>
<event>
10    2  0.5692308E-006  0.1300740E+03  0.7546771E-02  0.1250822E+00
         21   -1    0    0  503  502  0.00000000000E+00  0.00000000000E+00  0.25344311176E+03  0.25344311176E+03  0.00000000000E+00 0.  1.
         -1   -1    0    0    0  501 -0.00000000000E+00 -0.00000000000E+00 -0.69057428417E+02  0.69057428417E+02  0.00000000000E+00 0.  1.
         23    2    1    2    0    0 -0.39502914142E+02 -0.20809949588E+02  0.27972029444E+02  0.89878768244E+02  0.72816373998E+02 0.  0.
         23    2    1    2    0    0  0.89905437654E+01 -0.11909062723E+02  0.35625639925E+02  0.98823519505E+02  0.90962883283E+02 0.  0.
        -11    1    3    3    0    0 -0.68971269384E+01 -0.32935303820E+02 -0.13050709155E+02  0.36091905009E+02  0.00000000000E+00 0.  1.
         11    1    3    3    0    0 -0.32605787204E+02  0.12125354232E+02  0.41022738599E+02  0.53786863235E+02  0.00000000000E+00 0. -1.
        -11    1    4    4    0    0  0.37170394348E+02 -0.60900058337E+01 -0.15039528694E+02  0.40557537036E+02  0.00000000000E+00 0.  1.
         11    1    4    4    0    0 -0.28179850583E+02 -0.58190568896E+01  0.50665168619E+02  0.58265982469E+02  0.00000000000E+00 0. -1.
         21    1    1    2  503  501  0.29553983258E+02  0.66667093349E+01  0.78209804617E+02  0.83872859007E+02  0.00000000000E+00 0.  1.
         -1    1    1    2    0  502  0.95838711922E+00  0.26052302977E+02  0.42578209361E+02  0.49925393425E+02  0.00000000000E+00 0.  1.
<scales pt_clust_5="13000.00000" pt_clust_6="13000.00000" pt_clust_7="13000.00000" pt_clust_8="13000.00000" pt_clust_9="30.29658" pt_clust_10="13000.00000"></scales>
<clustering>
<clus scale="   30.297">  1  9  2 -1</clus>
<clus scale="   72.816">  5  6 -1 -1</clus>
<clus scale="   80.685">  2  5  1 -1</clus>
<clus scale="   90.963">  7  8 -1 -1</clus>
<clus scale="   25.725">  7 10 -1 -1</clus>
<clus scale="   30.297">  1  5  2 -1</clus>
</clustering>
</event>
<event>
10    2  0.5692308E-006  0.3531722E+03  0.7546771E-02  0.1106288E+00
         21   -1    0    0  501  502  0.00000000000E+00  0.00000000000E+00  0.27207606157E+03  0.27207606157E+03  0.00000000000E+00 0. -1.
          2   -1    0    0  503    0 -0.00000000000E+00 -0.00000000000E+00 -0.10641875612E+04  0.10641875612E+04  0.00000000000E+00 0. -1.
         23    2    1    2    0    0  0.52776112203E+02  0.13840743639E+02 -0.43757129399E+03  0.44961964317E+03  0.87819713032E+02 0.  0.
         23    2    1    2    0    0 -0.13108646158E+03 -0.13997095260E+03 -0.39879029694E+03  0.45200733360E+03  0.92203040680E+02 0.  0.
        -11    1    3    3    0    0  0.45614258809E+02 -0.29632107399E+02 -0.17132611777E+03  0.17975361200E+03  0.00000000000E+00 0. -1.
         11    1    3    3    0    0  0.71618533945E+01  0.43472851038E+02 -0.26624517622E+03  0.26986603117E+03  0.00000000000E+00 0.  1.
        -13    1    4    4    0    0 -0.95287085165E+02 -0.10147792201E+03 -0.36200776163E+03  0.38784921907E+03  0.00000000000E+00 0. -1.
         13    1    4    4    0    0 -0.35799376416E+02 -0.38493030587E+02 -0.36782535313E+02  0.64158114527E+02  0.00000000000E+00 0.  1.
         21    1    1    2  503  502  0.53226674120E+02 -0.15657619975E+02  0.20876329954E+03  0.21601008110E+03  0.00000000000E+00 0. -1.
          2    1    1    2  501    0  0.25083675258E+02  0.14178782893E+03 -0.16451320822E+03  0.21862656489E+03  0.00000000000E+00 0. -1.
<scales pt_clust_5="13000.00000" pt_clust_6="13000.00000" pt_clust_7="13000.00000" pt_clust_8="13000.00000" pt_clust_9="55.48189" pt_clust_10="13000.00000"></scales>
<clustering>
<clus scale="   55.482">  1  9  2 -1</clus>
<clus scale="   87.820">  5  6 -1 -1</clus>
<clus scale="   92.203">  7  8 -1 -1</clus>
<clus scale="  106.037">  2  5  1 -1</clus>
<clus scale="  154.815">  7 10 -1 -1</clus>
<clus scale="   55.482">  1  5  2 -1</clus>
</clustering>
</event>
<event>
10    2  0.5692308E-006  0.7898554E+03  0.7546771E-02  0.1008194E+00
         21   -1    0    0  503  502  0.00000000000E+00  0.00000000000E+00  0.33713704065E+03  0.33713704065E+03  0.00000000000E+00 0. -1.
          1   -1    0    0  502    0 -0.00000000000E+00 -0.00000000000E+00 -0.11458255377E+04  0.11458255377E+04  0.00000000000E+00 0. -1.
         23    2    1    2    0    0 -0.11269318112E+03  0.24698252132E+02 -0.22384135600E+03  0.26880767288E+03  0.94036458961E+02 0.  0.
         23    2    1    2    0    0  0.18161336551E+03 -0.67597747380E+02 -0.87868111190E+03  0.90447669421E+03  0.91895179332E+02 0.  0.
        -11    1    3    3    0    0 -0.67717365041E+02 -0.32502551642E+02 -0.98445777460E+02  0.12382902927E+03  0.00000000000E+00 0.  1.
         11    1    3    3    0    0 -0.44975816080E+02  0.57200803774E+02 -0.12539557854E+03  0.14497864360E+03  0.00000000000E+00 0. -1.
        -13    1    4    4    0    0  0.37812829805E+02 -0.23271902329E+02 -0.77768715154E+02  0.89550905035E+02  0.00000000000E+00 0.  1.
         13    1    4    4    0    0  0.14380053570E+03 -0.44325845051E+02 -0.80091239675E+03  0.81492578918E+03  0.00000000000E+00 0. -1.
         21    1    1    2  503  501 -0.22231190208E+02 -0.55269451033E+01  0.13882822709E+03  0.14070554209E+03  0.00000000000E+00 0. -1.
          1    1    1    2  501    0 -0.46688994178E+02  0.48426440351E+02  0.15500574379E+03  0.16897266913E+03  0.00000000000E+00 0. -1.
<scales pt_clust_5="13000.00000" pt_clust_6="13000.00000" pt_clust_7="13000.00000" pt_clust_8="13000.00000" pt_clust_9="22.90792" pt_clust_10="13000.00000"></scales>
<clustering>
<clus scale="   22.908">  1  9  2 -1</clus>
<clus scale="   91.895">  7  8 -1 -1</clus>
<clus scale="   78.377">  7 10 -1 -1</clus>
<clus scale="   94.036">  5  6 -1 -1</clus>
<clus scale="  150.662">  2  5  1 -1</clus>
<clus scale="   22.908">  1  5  2 -1</clus>
</clustering>
</event>
<event>
10    2  0.5692308E-006  0.4596415E+03  0.7546771E-02  0.1071373E+00
         21   -1    0    0  503  502  0.00000000000E+00  0.00000000000E+00  0.29055265897E+03  0.29055265897E+03  0.00000000000E+00 0. -1.
          1   -1    0    0  502    0 -0.00000000000E+00 -0.00000000000E+00 -0.53618524868E+03  0.53618524868E+03  0.00000000000E+00 0. -1.
         23    2    1    2    0    0 -0.67227688782E+02  0.70357082268E+01 -0.73997028617E+02  0.13642291051E+03  0.92555858485E+02 0.  0.
         23    2    1    2    0    0 -0.10061042213E+03  0.96550902044E+02 -0.25244930865E+03  0.30245517679E+03  0.91125994125E+02 0.  0.
        -11    1    4    4    0    0 -0.68178718671E+02  0.11577879535E+02 -0.15173549060E+03  0.16675144402E+03  0.00000000000E+00 0.  1.
         11    1    4    4    0    0 -0.32431703462E+02  0.84973022509E+02 -0.10071381805E+03  0.13570373278E+03  0.00000000000E+00 0. -1.
        -13    1    3    3    0    0 -0.43625202798E+02  0.49240124379E+02 -0.48697376638E+02  0.81848534864E+02  0.00000000000E+00 0. -1.
         13    1    3    3    0    0 -0.23602485985E+02 -0.42204416152E+02 -0.25299651980E+02  0.54574375651E+02  0.00000000000E+00 0.  1.
         21    1    1    2  503  501 -0.55815440920E+02  0.46659473406E+01  0.12362774417E+03  0.13572381382E+03  0.00000000000E+00 0. -1.
          1    1    1    2  501    0  0.22365355184E+03 -0.10825255761E+03 -0.42813996618E+02  0.25213600652E+03  0.00000000000E+00 0. -1.
<scales pt_clust_5="13000.00000" pt_clust_6="13000.00000" pt_clust_7="13000.00000" pt_clust_8="13000.00000" pt_clust_9="56.01013" pt_clust_10="13000.00000"></scales>
<clustering>
<clus scale="   56.010">  1  9  2 -1</clus>
<clus scale="   91.126">  5  6 -1 -1</clus>
<clus scale="   92.556">  7  8 -1 -1</clus>
<clus scale="  121.336">  2  7  1 -1</clus>
<clus scale="  194.962">  5 10 -1 -1</clus>
<clus scale="   56.010">  1  5  2 -1</clus>
</clustering>
</event>
<event>
10    2  0.5692308E-006  0.6847427E+03  0.7546771E-02  0.1026868E+00
          2   -1    0    0  503    0 -0.00000000000E+00  0.00000000000E+00  0.41063550218E+03  0.41063550218E+03  0.00000000000E+00 0. -1.
         21   -1    0    0  501  502  0.00000000000E+00 -0.00000000000E+00 -0.52014470329E+03  0.52014470329E+03  0.00000000000E+00 0. -1.
         23    2    1    2    0    0  0.15531449832E+00  0.93153479749E+02  0.46132565474E+02  0.13918012832E+03  0.92548903884E+02 0.  0.
         23    2    1    2    0    0  0.10605007763E+03 -0.15114173242E+03  0.26727845298E+03  0.33710755767E+03  0.90073812853E+02 0.  0.
        -11    1    3    3    0    0 -0.34718985885E+02  0.18735629457E+02 -0.86787279048E+01  0.40394951542E+02  0.00000000000E+00 0.  1.
         11    1    3    3    0    0  0.34874300383E+02  0.74417850291E+02  0.54811293379E+02  0.98785176778E+02  0.00000000000E+00 0. -1.
        -13    1    4    4    0    0  0.17938879431E+02 -0.10088188328E+03  0.15485619623E+03  0.18568629266E+03  0.00000000000E+00 0. -1.
         13    1    4    4    0    0  0.88111198201E+02 -0.50259849140E+02  0.11242225676E+03  0.15142126501E+03  0.00000000000E+00 0.  1.
         21    1    1    2  503  502  0.20070669410E+02 -0.39899915722E+01 -0.10299932559E+03  0.10501244153E+03  0.00000000000E+00 0.  1.
          2    1    1    2  501    0 -0.12627606154E+03  0.61978244244E+02 -0.31992089399E+03  0.34948007795E+03  0.00000000000E+00 0. -1.
<scales pt_clust_5="13000.00000" pt_clust_6="13000.00000" pt_clust_7="13000.00000" pt_clust_8="13000.00000" pt_clust_9="20.46343" pt_clust_10="13000.00000"></scales>
<clustering>
<clus scale="   20.463">  2  9  1 -1</clus>
<clus scale="   90.074">  7  8 -1 -1</clus>
<clus scale="   92.549">  5  6 -1 -1</clus>
<clus scale="  124.832">  7 10 -1 -1</clus>
<clus scale="  131.018">  1  5  2 -1</clus>
<clus scale="   20.463">  2  5  1 -1</clus>
</clustering>
</event>
<event>
10    2  0.5692308E-006  0.1313396E+03  0.7546771E-02  0.1240926E+00
         -3   -1    0    0    0  501 -0.00000000000E+00  0.00000000000E+00  0.33222389361E+03  0.33222389361E+03  0.00000000000E+00 0.  1.
         21   -1    0    0  503  502  0.00000000000E+00 -0.00000000000E+00 -0.61452183905E+02  0.61452183905E+02  0.00000000000E+00 0. -1.
         23    2    1    2    0    0 -0.35913075057E+02 -0.28477589430E+02  0.32261781542E+02  0.10634552375E+03  0.90376024555E+02 0.  0.
         23    2    1    2    0    0  0.11344255996E+02  0.44864692690E+02  0.20620765344E+03  0.22964855120E+03  0.89862828458E+02 0.  0.
        -11    1    4    4    0    0 -0.17194815419E+02  0.42802438567E+02  0.19244758669E+03  0.19789841850E+03  0.00000000000E+00 0.  1.
         11    1    4    4    0    0  0.28539071415E+02  0.20622541233E+01  0.13760066749E+02  0.31750132697E+02  0.00000000000E+00 0. -1.
        -13    1    3    3    0    0 -0.12463020159E+02 -0.48279150296E+02 -0.13120359138E+02  0.51559160667E+02  0.00000000000E+00 0. -1.
         13    1    3    3    0    0 -0.23450054898E+02  0.19801560866E+02  0.45382140681E+02  0.54786363086E+02  0.00000000000E+00 0.  1.
         21    1    1    2  503  501  0.22243045904E+02  0.74682343483E+01  0.12462674483E+02  0.26567759986E+02  0.00000000000E+00 0.  1.
         -3    1    1    2    0  502  0.23257731559E+01 -0.23855337608E+02  0.19839600242E+02  0.31114242574E+02  0.00000000000E+00 0.  1.
<scales pt_clust_5="13000.00000" pt_clust_6="13000.00000" pt_clust_7="13000.00000" pt_clust_8="13000.00000" pt_clust_9="23.46332" pt_clust_10="13000.00000"></scales>
<clustering>
<clus scale="   23.463">  2  9  1 -1</clus>
<clus scale="   89.863">  5  6 -1 -1</clus>
<clus scale="   23.541">  5 10 -1 -1</clus>
<clus scale="   90.376">  7  8 -1 -1</clus>
<clus scale="   95.636">  1  7  2 -1</clus>
<clus scale="   23.463">  2  5  1 -1</clus>
</clustering>
</event>
<event>
10    2  0.5692308E-006  0.2009991E+03  0.7546771E-02  0.1165650E+00
          1   -1    0    0  503    0 -0.00000000000E+00  0.00000000000E+00  0.10906981931E+04  0.10906981931E+04  0.00000000000E+00 0. -1.
         21   -1    0    0  501  502  0.00000000000E+00 -0.00000000000E+00 -0.17162151012E+03  0.17162151012E+03  0.00000000000E+00 0. -1.
         23    2    1    2    0    0 -0.80556075337E+02  0.62850277780E+02  0.20718579633E+03  0.24774510143E+03  0.89511129960E+02 0.  0.
         23    2    1    2    0    0 -0.33354619243E+02 -0.12186477929E+03  0.61741073790E+03  0.64212904797E+03  0.12316712188E+03 0.  0.
        -13    1    3    3    0    0  0.19170881258E+02  0.18326783709E+02  0.36788896575E+02  0.45352139977E+02  0.00000000000E+00 0.  1.
         13    1    3    3    0    0 -0.99726956595E+02  0.44523494071E+02  0.17039689976E+03  0.20239296145E+03  0.00000000000E+00 0. -1.
        -13    1    4    4    0    0  0.34503500404E+02 -0.16130531334E+02  0.62644994665E+02  0.73314943483E+02  0.00000000000E+00 0.  1.
         13    1    4    4    0    0 -0.67858119648E+02 -0.10573424796E+03  0.55476574324E+03  0.56881410449E+03  0.00000000000E+00 0. -1.
         21    1    1    2  503  502  0.10182114144E+03  0.92402688549E+02 -0.10299970529E+03  0.17179854768E+03  0.00000000000E+00 0. -1.
          1    1    1    2  501    0  0.12089553137E+02 -0.33388187038E+02  0.19747985407E+03  0.20064700619E+03  0.00000000000E+00 0. -1.
<scales pt_clust_5="13000.00000" pt_clust_6="13000.00000" pt_clust_7="13000.00000" pt_clust_8="13000.00000" pt_clust_9="136.86314" pt_clust_10="13000.00000"></scales>
<clustering>
<clus scale="   89.511">  5  6 -1 -1</clus>
<clus scale="  123.167">  7  8 -1 -1</clus>
<clus scale="   35.510">  7 10 -1 -1</clus>
<clus scale="  135.837">  1  5  2 -1</clus>
<clus scale="  136.863">  2  9  1 -1</clus>
<clus scale="  136.863">  2  5  1 -1</clus>
</clustering>
</event>
<event>
10    2  0.5692308E-006  0.3696212E+03  0.7546771E-02  0.1092148E+00
          3   -1    0    0  503    0 -0.00000000000E+00  0.00000000000E+00  0.45675088602E+03  0.45675088602E+03  0.00000000000E+00 0. -1.
         21   -1    0    0  501  502  0.00000000000E+00 -0.00000000000E+00 -0.30416129959E+03  0.30416129959E+03  0.00000000000E+00 0.  1.
         23    2    1    2    0    0 -0.58678465964E+02 -0.78513091054E+02 -0.83417369301E+01  0.13417611434E+03  0.91247889019E+02 0.  0.
         23    2    1    2    0    0  0.15373318393E+03  0.85405201475E+02  0.25329312555E+03  0.31957397031E+03  0.83917666607E+02 0.  0.
        -11    1    3    3    0    0 -0.14624428218E+02  0.14831279183E+02 -0.21721981719E+02  0.30094604711E+02  0.00000000000E+00 0. -1.
         11    1    3    3    0    0 -0.44054037746E+02 -0.93344370237E+02  0.13380244789E+02  0.10408150963E+03  0.00000000000E+00 0.  1.
        -13    1    4    4    0    0  0.15689385735E+03  0.60186384880E+02  0.20564502464E+03  0.26557100662E+03  0.00000000000E+00 0. -1.
         13    1    4    4    0    0 -0.31606734171E+01  0.25218816595E+02  0.47648100912E+02  0.54002963691E+02  0.00000000000E+00 0.  1.
         21    1    1    2  503  502  0.54122959574E+02 -0.28556485677E+02 -0.13691921512E+03  0.14997212773E+03  0.00000000000E+00 0. -1.
          3    1    1    2  501    0 -0.14917767754E+03  0.21664375256E+02  0.44557412933E+02  0.15718997322E+03  0.00000000000E+00 0. -1.
<scales pt_clust_5="13000.00000" pt_clust_6="13000.00000" pt_clust_7="13000.00000" pt_clust_8="13000.00000" pt_clust_9="61.19451" pt_clust_10="13000.00000"></scales>
<clustering>
<clus scale="   61.195">  2  9  1 -1</clus>
<clus scale="   83.918">  7  8 -1 -1</clus>
<clus scale="   91.248">  5  6 -1 -1</clus>
<clus scale="  130.733">  7 10 -1 -1</clus>
<clus scale="  133.573">  1  5  2 -1</clus>
<clus scale="   61.195">  2  5  1 -1</clus>
</clustering>
</event>
<event>
10    2  0.5692308E-006  0.3205982E+03  0.7546771E-02  0.1099084E+00
         -1   -1    0    0    0  501 -0.00000000000E+00  0.00000000000E+00  0.40416427004E+03  0.40416427004E+03  0.00000000000E+00 0.  1.
         21   -1    0    0  503  502  0.00000000000E+00 -0.00000000000E+00 -0.19464561912E+03  0.19464561912E+03  0.00000000000E+00 0.  1.
         23    2    1    2    0    0  0.13190947645E+03 -0.67293893156E+02  0.29629493028E+02  0.17669698317E+03  0.91735156671E+02 0.  0.
         23    2    1    2    0    0 -0.36255066399E+02  0.33516097006E+02  0.25671560555E+03  0.27667278632E+03  0.90593432223E+02 0.  0.
        -11    1    3    3    0    0  0.64168558056E+02 -0.19475118340E+02 -0.31098414205E+02  0.73918843629E+02  0.00000000000E+00 0. -1.
         11    1    3    3    0    0  0.67740918395E+02 -0.47818774816E+02  0.60727907233E+02  0.10277813954E+03  0.00000000000E+00 0.  1.
        -13    1    4    4    0    0  0.24938738457E+02 -0.10343043124E+02  0.84799144090E+02  0.88993337139E+02  0.00000000000E+00 0. -1.
         13    1    4    4    0    0 -0.61193804855E+02  0.43859140130E+02  0.17191646146E+03  0.18767944918E+03  0.00000000000E+00 0.  1.
         21    1    1    2  503  501 -0.22386069257E+02 -0.21268532547E+02 -0.27588123760E+02  0.41407621836E+02  0.00000000000E+00 0.  1.
         -1    1    1    2    0  502 -0.73268340795E+02  0.55046328697E+02 -0.49238323889E+02  0.10403249783E+03  0.00000000000E+00 0.  1.
<scales pt_clust_5="13000.00000" pt_clust_6="13000.00000" pt_clust_7="13000.00000" pt_clust_8="13000.00000" pt_clust_9="30.87858" pt_clust_10="13000.00000"></scales>
<clustering>
<clus scale="   30.879">  2  9  1 -1</clus>
<clus scale="   90.593">  7  8 -1 -1</clus>
<clus scale="   91.735">  5  6 -1 -1</clus>
<clus scale="   95.215">  7 10 -1 -1</clus>
<clus scale="  170.727">  1  5  2 -1</clus>
<clus scale="   30.879">  2  5  1 -1</clus>
</clustering>
</event>
<event>
10    2  0.8765753E-006  0.1909790E+03  0.7546771E-02  0.1185888E+00
         21   -1    0    0  501  502  0.00000000000E+00  0.00000000000E+00  0.40044102637E+03  0.40044102637E+03  0.00000000000E+00 0. -1.
         -4   -1    0    0    0  501 -0.00000000000E+00 -0.00000000000E+00 -0.48510851913E+03  0.48510851913E+03  0.00000000000E+00 0.  1.
         23    2    1    2    0    0 -0.43110470304E+02 -0.12953216573E+02 -0.21760824842E+03  0.23954380265E+03  0.89451579854E+02 0.  0.
         23    2    1    2    0    0  0.55476328996E+02  0.48671327341E+02 -0.11516087490E+03  0.16413906908E+03  0.90736352739E+02 0.  0.
        -11    1    4    4    0    0  0.50365087339E+02  0.20313473798E+02 -0.12284805308E+03  0.13431650452E+03  0.00000000000E+00 0.  1.
         11    1    4    4    0    0  0.51112416570E+01  0.28357853543E+02  0.76871781826E+01  0.29822564565E+02  0.00000000000E+00 0. -1.
        -13    1    3    3    0    0 -0.67641231217E+01 -0.43026089828E+02 -0.54584124482E+02  0.69831399907E+02  0.00000000000E+00 0.  1.
         13    1    3    3    0    0 -0.36346347182E+02  0.30072873254E+02 -0.16302412394E+03  0.16971240274E+03  0.00000000000E+00 0. -1.
         21    1    1    2  503  502  0.36070842580E+02 -0.95520697596E+02  0.34404269365E+03  0.35887419022E+03  0.00000000000E+00 0. -1.
         -4    1    1    2    0  503 -0.48436701272E+02  0.59802586829E+02 -0.95941063090E+02  0.12299248354E+03  0.00000000000E+00 0.  1.
<scales pt_clust_5="13000.00000" pt_clust_6="13000.00000" pt_clust_7="13000.00000" pt_clust_8="13000.00000" pt_clust_9="102.02271" pt_clust_10="13000.00000"></scales>
<clustering>
<clus scale="   89.452">  7  8 -1 -1</clus>
<clus scale="   90.736">  5  6 -1 -1</clus>
<clus scale="   76.958">  5 10 -1 -1</clus>
<clus scale="  100.139">  2  7  1 -1</clus>
<clus scale="  102.023">  1  9  2 -1</clus>
<clus scale="  102.023">  1  5  2 -1</clus>
</clustering>
</event>
<event>
10    2  0.5692308E-006  0.3276064E+03  0.7546771E-02  0.1113382E+00
         21   -1    0    0  503  502  0.00000000000E+00  0.00000000000E+00  0.22050399570E+03  0.22050399570E+03  0.00000000000E+00 0. -1.
          1   -1    0    0  502    0 -0.00000000000E+00 -0.00000000000E+00 -0.85512205022E+03  0.85512205022E+03  0.00000000000E+00 0. -1.
         23    2    1    2    0    0 -0.33888306811E+02 -0.59146062711E+02 -0.42442177859E+03  0.43916623707E+03  0.89924766138E+02 0.  0.
         23    2    1    2    0    0 -0.66538270779E+02  0.64783292380E+02 -0.36537685035E+03  0.38833486574E+03  0.93163881026E+02 0.  0.
        -13    1    4    4    0    0 -0.37501050101E+02 -0.10284670209E+02 -0.20763545760E+03  0.21124532291E+03  0.00000000000E+00 0.  1.
         13    1    4    4    0    0 -0.29037220678E+02  0.75067962589E+02 -0.15774139275E+03  0.17708954283E+03  0.00000000000E+00 0. -1.
        -13    1    3    3    0    0  0.30862685890E+02 -0.19199800876E+02 -0.12020789448E+03  0.12558294322E+03  0.00000000000E+00 0.  1.
         13    1    3    3    0    0 -0.64750992701E+02 -0.39946261834E+02 -0.30421388411E+03  0.31358329384E+03  0.00000000000E+00 0. -1.
         21    1    1    2  503  501  0.11791073225E+02  0.29005461172E+02  0.14955115356E+03  0.15279363114E+03  0.00000000000E+00 0. -1.
          1    1    1    2  501    0  0.88635504366E+02 -0.34642690841E+02  0.56294208692E+01  0.95331311972E+02  0.00000000000E+00 0. -1.
<scales pt_clust_5="13000.00000" pt_clust_6="13000.00000" pt_clust_7="13000.00000" pt_clust_8="13000.00000" pt_clust_9="31.31048" pt_clust_10="13000.00000"></scales>
<clustering>
<clus scale="   31.310">  1  9  2 -1</clus>
<clus scale="   89.925">  7  8 -1 -1</clus>
<clus scale="   93.164">  5  6 -1 -1</clus>
<clus scale="   98.157">  5 10 -1 -1</clus>
<clus scale="  110.880">  2  7  1 -1</clus>
<clus scale="   31.310">  1  5  2 -1</clus>
</clustering>
</event>
<event>
10    2  0.5692308E-006  0.3133950E+03  0.7546771E-02  0.1094626E+00
         21   -1    0    0  501  502  0.00000000000E+00  0.00000000000E+00  0.97922812169E+02  0.97922812169E+02  0.00000000000E+00 0.  1.
          2   -1    0    0  503    0 -0.00000000000E+00 -0.00000000000E+00 -0.91476254339E+03  0.91476254339E+03  0.00000000000E+00 0. -1.
         23    2    1    2    0    0  0.18584664917E+03 -0.29896088530E+02 -0.49833164080E+03  0.54040591267E+03  0.90947089578E+02 0.  0.
         23    2    1    2    0    0 -0.22221779704E+03  0.53896580408E+02 -0.23433901087E+03  0.34092024348E+03  0.95006577140E+02 0.  0.
        -11    1    4    4    0    0 -0.18459726294E+03  0.69713595057E+02 -0.22459402755E+03  0.29896255958E+03  0.00000000000E+00 0. -1.
         11    1    4    4    0    0 -0.37620534099E+02 -0.15817014649E+02 -0.97449833188E+01  0.41957683899E+02  0.00000000000E+00 0.  1.
        -13    1    3    3    0    0  0.13011877114E+03  0.21158039043E+02 -0.28305672970E+03  0.31224937061E+03  0.00000000000E+00 0.  1.
         13    1    3    3    0    0  0.55727878031E+02 -0.51054127573E+02 -0.21527491110E+03  0.22815654205E+03  0.00000000000E+00 0. -1.
         21    1    1    2  503  502 -0.20793102298E+02 -0.22879748282E+02 -0.16404546932E+01  0.30960088440E+02  0.00000000000E+00 0.  1.
          2    1    1    2  501    0  0.57164250165E+02 -0.11207435958E+01 -0.82528624860E+02  0.10039911097E+03  0.00000000000E+00 0. -1.
<scales pt_clust_5="13000.00000" pt_clust_6="13000.00000" pt_clust_7="13000.00000" pt_clust_8="13000.00000" pt_clust_9="30.91660" pt_clust_10="13000.00000"></scales>
<clustering>
<clus scale="   30.917">  1  9  2 -1</clus>
<clus scale="   90.947">  7  8 -1 -1</clus>
<clus scale="   95.007">  5  6 -1 -1</clus>
<clus scale="   55.049">  5 10 -1 -1</clus>
<clus scale="  205.324">  2  7  1 -1</clus>
<clus scale="   30.917">  1  5  2 -1</clus>
</clustering>
</event>
<event>
10    2  0.5692308E-006  0.3031956E+03  0.7546771E-02  0.1113567E+00
         21   -1    0    0  503  502  0.00000000000E+00  0.00000000000E+00  0.17187093341E+03  0.17187093341E+03  0.00000000000E+00 0.  1.
         -1   -1    0    0    0  501 -0.00000000000E+00 -0.00000000000E+00 -0.99996503960E+03  0.99996503960E+03  0.00000000000E+00 0.  1.
         23    2    1    2    0    0 -0.94530695014E+02 -0.41550482217E+02 -0.40182217521E+03  0.42465998620E+03  0.90623112487E+02 0.  0.
         23    2    1    2    0    0 -0.65011987838E+02  0.82589017749E+02 -0.31983029065E+03  0.34871779721E+03  0.90913051088E+02 0.  0.
        -11    1    4    4    0    0 -0.73240433982E+02  0.48957989865E+02 -0.28977109705E+03  0.30286685957E+03  0.00000000000E+00 0.  1.
         11    1    4    4    0    0  0.82284461431E+01  0.33631027883E+02 -0.30059193603E+02  0.45850937640E+02  0.00000000000E+00 0. -1.
        -13    1    3    3    0    0 -0.11215492040E+03 -0.29491379644E+02 -0.33450864749E+03  0.35404025603E+03  0.00000000000E+00 0.  1.
         13    1    3    3    0    0  0.17624225387E+02 -0.12059102573E+02 -0.67313527720E+02  0.70619730171E+02  0.00000000000E+00 0. -1.
         21    1    1    2  503  501 -0.56098890066E+00 -0.24719649120E+02  0.11895905661E+03  0.12150157576E+03  0.00000000000E+00 0.  1.
         -1    1    1    2    0  502  0.16010367175E+03 -0.16318886412E+02 -0.22540069694E+03  0.27695661383E+03  0.00000000000E+00 0.  1.
<scales pt_clust_5="13000.00000" pt_clust_6="13000.00000" pt_clust_7="13000.00000" pt_clust_8="13000.00000" pt_clust_9="24.72601" pt_clust_10="13000.00000"></scales>
<clustering>
<clus scale="   24.726">  1  9  2 -1</clus>
<clus scale="   90.623">  7  8 -1 -1</clus>
<clus scale="   90.913">  5  6 -1 -1</clus>
<clus scale="  139.221">  2  7  1 -1</clus>
<clus scale="  127.545">  5 10 -1 -1</clus>
<clus scale="   24.726">  1  5  2 -1</clus>
</clustering>
</event>
<event>
10    2  0.5692308E-006  0.4424594E+03  0.7546771E-02  0.1080334E+00
          2   -1    0    0  503    0 -0.00000000000E+00  0.00000000000E+00  0.12227002909E+04  0.12227002909E+04  0.00000000000E+00 0. -1.
         21   -1    0    0  501  502  0.00000000000E+00 -0.00000000000E+00 -0.12122416910E+03  0.12122416910E+03  0.00000000000E+00 0.  1.
         23    2    1    2    0    0 -0.18634363343E+02  0.53501648476E+02  0.23929334849E+02  0.10946828299E+03  0.90559516500E+02 0.  0.
         23    2    1    2    0    0  0.18811970593E+03 -0.13402138021E+02  0.81063617758E+03  0.83674401137E+03  0.86260576749E+02 0.  0.
        -11    1    3    3    0    0  0.59740265275E+01  0.61556053336E+02 -0.14127362400E+02  0.63438309117E+02  0.00000000000E+00 0.  1.
         11    1    3    3    0    0 -0.24608389870E+02 -0.80544048604E+01  0.38056697249E+02  0.46029973877E+02  0.00000000000E+00 0. -1.
        -13    1    4    4    0    0  0.71663202927E+02  0.36388932831E+02  0.29098476996E+03  0.30188061454E+03  0.00000000000E+00 0.  1.
         13    1    4    4    0    0  0.11645650301E+03 -0.49791070852E+02  0.51965140762E+03  0.53486339683E+03  0.00000000000E+00 0. -1.
         21    1    1    2  503  502  0.22190824530E+02  0.46499714044E+01 -0.32361647457E+02  0.39513683118E+02  0.00000000000E+00 0.  1.
          2    1    1    2  501    0 -0.19167616712E+03 -0.44749481859E+02  0.29927225683E+03  0.35819848252E+03  0.00000000000E+00 0. -1.
<scales pt_clust_5="13000.00000" pt_clust_6="13000.00000" pt_clust_7="13000.00000" pt_clust_8="13000.00000" pt_clust_9="22.67278" pt_clust_10="13000.00000"></scales>
<clustering>
<clus scale="   22.673">  2  9  1 -1</clus>
<clus scale="   86.261">  7  8 -1 -1</clus>
<clus scale="   90.560">  5  6 -1 -1</clus>
<clus scale="  106.653">  1  5  2 -1</clus>
<clus scale="  188.148">  7 10 -1 -1</clus>
<clus scale="   22.673">  2  5  1 -1</clus>
</clustering>
</event>
<event>
10    2  0.5692308E-006  0.1484553E+03  0.7546771E-02  0.1223692E+00
         21   -1    0    0  503  502  0.00000000000E+00  0.00000000000E+00  0.10344977838E+03  0.10344977838E+03  0.00000000000E+00 0.  1.
         -3   -1    0    0    0  501 -0.00000000000E+00 -0.00000000000E+00 -0.32568010331E+03  0.32568010331E+03  0.00000000000E+00 0.  1.
         23    2    1    2    0    0  0.22528249220E+02  0.18110965242E+02 -0.14652605958E+03  0.17498073289E+03  0.91174786380E+02 0.  0.
         23    2    1    2    0    0  0.39272210354E+02 -0.23510645677E+02 -0.52061667831E+02  0.11447779478E+03  0.91102641425E+02 0.  0.
        -13    1    4    4    0    0 -0.16090927498E+02 -0.35372977707E+02 -0.20196694455E+01  0.38913295469E+02  0.00000000000E+00 0. -1.
         13    1    4    4    0    0  0.55363137852E+02  0.11862332030E+02 -0.50041998386E+02  0.75564499313E+02  0.00000000000E+00 0.  1.
        -13    1    3    3    0    0  0.20875210939E+02  0.52776697763E+02 -0.11432585027E+03  0.12763837314E+03  0.00000000000E+00 0.  1.
         13    1    3    3    0    0  0.16530382812E+01 -0.34665732521E+02 -0.32200209311E+02  0.47342359748E+02  0.00000000000E+00 0. -1.
         21    1    1    2  503  501 -0.30054811734E+02  0.73364528051E+01  0.50371316136E+02  0.59113321150E+02  0.00000000000E+00 0.  1.
         -3    1    1    2    0  502 -0.31745647840E+02 -0.19367723703E+01 -0.74013913654E+02  0.80558032861E+02  0.00000000000E+00 0.  1.
<scales pt_clust_5="13000.00000" pt_clust_6="13000.00000" pt_clust_7="13000.00000" pt_clust_8="13000.00000" pt_clust_9="30.93728" pt_clust_10="13000.00000"></scales>
<clustering>
<clus scale="   30.937">  1  9  2 -1</clus>
<clus scale="   91.103">  5  6 -1 -1</clus>
<clus scale="   33.796">  5 10 -1 -1</clus>
<clus scale="   91.175">  7  8 -1 -1</clus>
<clus scale="   94.404">  2  7  1 -1</clus>
<clus scale="   30.937">  1  5  2 -1</clus>
</clustering>
</event>
<event>
10    2  0.5692308E-006  0.2341871E+03  0.7546771E-02  0.1161701E+00
          2   -1    0    0  502    0 -0.00000000000E+00  0.00000000000E+00  0.36597165148E+03  0.36597165148E+03  0.00000000000E+00 0. -1.
         21   -1    0    0  503  502  0.00000000000E+00 -0.00000000000E+00 -0.11190800994E+03  0.11190800994E+03  0.00000000000E+00 0. -1.
         23    2    1    2    0    0  0.89641679468E+01  0.80388024756E+01  0.29994055272E+02  0.95722261452E+02  0.90100662227E+02 0.  0.
         23    2    1    2    0    0 -0.12010923253E+01  0.29177388954E+02  0.23492748239E+03  0.25627229204E+03  0.98141749697E+02 0.  0.
        -11    1    4    4    0    0  0.25073538944E+02 -0.29123576124E+02  0.90393273633E+02  0.98223260787E+02  0.00000000000E+00 0.  1.
         11    1    4    4    0    0 -0.26274631269E+02  0.58300965079E+02  0.14453420876E+03  0.15804903125E+03  0.00000000000E+00 0. -1.
        -13    1    3    3    0    0  0.33666301398E+02 -0.16466324753E+02  0.44365301746E+02  0.58076154312E+02  0.00000000000E+00 0. -1.
         13    1    3    3    0    0 -0.24702133451E+02  0.24505127229E+02 -0.14371246475E+02  0.37646107140E+02  0.00000000000E+00 0.  1.
         21    1    1    2  503  501  0.33196286604E+01  0.42712640124E+02 -0.14168893583E+02  0.45123686753E+02  0.00000000000E+00 0.  1.
          2    1    1    2  501    0 -0.11082704282E+02 -0.79928831554E+02  0.33109974612E+01  0.80761421186E+02  0.00000000000E+00 0. -1.
<scales pt_clust_5="13000.00000" pt_clust_6="13000.00000" pt_clust_7="13000.00000" pt_clust_8="13000.00000" pt_clust_9="42.84145" pt_clust_10="13000.00000"></scales>
<clustering>
<clus scale="   42.841">  2  9  1 -1</clus>
<clus scale="   90.101">  7  8 -1 -1</clus>
<clus scale="   94.097">  1  7  2 -1</clus>
<clus scale="   98.142">  5  6 -1 -1</clus>
<clus scale="   57.582">  5 10 -1 -1</clus>
<clus scale="   42.841">  2  5  1 -1</clus>
</clustering>
</event>
<event>
10    2  0.5692308E-006  0.1399193E+03  0.7546771E-02  0.1227210E+00
         21   -1    0    0  501  502  0.00000000000E+00  0.00000000000E+00  0.28518491342E+03  0.28518491342E+03  0.00000000000E+00 0.  1.
          1   -1    0    0  503    0 -0.00000000000E+00 -0.00000000000E+00 -0.14914805064E+03  0.14914805064E+03  0.00000000000E+00 0. -1.
         23    2    1    2    0    0 -0.30232656944E+02  0.36893794234E+02 -0.52751049617E+02  0.11425770898E+03  0.89425864417E+02 0.  0.
         23    2    1    2    0    0  0.38983483187E+02 -0.32453639080E+02 -0.19156428901E+02  0.10311346352E+03  0.87706709776E+02 0.  0.
        -11    1    3    3    0    0 -0.13846524113E+02 -0.28611326005E+02 -0.65846287109E+01  0.32460615229E+02  0.00000000000E+00 0. -1.
         11    1    3    3    0    0 -0.16386132831E+02  0.65505120240E+02 -0.46166420907E+02  0.81797093751E+02  0.00000000000E+00 0.  1.
        -13    1    4    4    0    0  0.19353672098E+02 -0.24142365956E+02 -0.54017215412E+02  0.62251731048E+02  0.00000000000E+00 0. -1.
         13    1    4    4    0    0  0.19629811089E+02 -0.83112731243E+01  0.34860786511E+02  0.40861732471E+02  0.00000000000E+00 0.  1.
         21    1    1    2  503  502 -0.20324756922E+02  0.17181315526E+02  0.16796108564E+03  0.17005651895E+03  0.00000000000E+00 0.  1.
          1    1    1    2  501    0  0.11573930679E+02 -0.21621470680E+02  0.39983255659E+02  0.46905272613E+02  0.00000000000E+00 0. -1.
<scales pt_clust_5="13000.00000" pt_clust_6="13000.00000" pt_clust_7="13000.00000" pt_clust_8="13000.00000" pt_clust_9="26.61378" pt_clust_10="13000.00000"></scales>
<clustering>
<clus scale="   26.614">  1  9  2 -1</clus>
<clus scale="   87.707">  7  8 -1 -1</clus>
<clus scale="   15.707">  7 10 -1 -1</clus>
<clus scale="   89.426">  5  6 -1 -1</clus>
<clus scale="  104.798">  2  5  1 -1</clus>
<clus scale="   26.614">  1  5  2 -1</clus>
</clustering>
</event>
<event>
10    2  0.5692308E-006  0.4920549E+03  0.7546771E-02  0.1074460E+00
         -1   -1    0    0    0  501 -0.00000000000E+00  0.00000000000E+00  0.43534122538E+03  0.43534122538E+03  0.00000000000E+00 0.  1.
         21   -1    0    0  501  502  0.00000000000E+00 -0.00000000000E+00 -0.76640281163E+03  0.76640281163E+03  0.00000000000E+00 0.  1.
         23    2    1    2    0    0  0.13428518555E+02  0.30627083127E+01  0.37059262798E+02  0.98171280427E+02  0.89858255318E+02 0.  0.
         23    2    1    2    0    0 -0.56286835270E+02  0.95708180564E+02  0.48591501945E+02  0.15343375662E+03  0.94087831078E+02 0.  0.
        -11    1    4    4    0    0 -0.46202924717E+02 -0.17104443646E+01  0.25534725576E+02  0.52817213884E+02  0.00000000000E+00 0.  1.
         11    1    4    4    0    0 -0.10083910554E+02  0.97418624928E+02  0.23056776370E+02  0.10061654273E+03  0.00000000000E+00 0. -1.
        -11    1    3    3    0    0  0.39187925253E+02 -0.84151088719E+01 -0.11778535370E+02  0.41776086921E+02  0.00000000000E+00 0.  1.
         11    1    3    3    0    0 -0.25759406698E+02  0.11477817185E+02  0.48837798168E+02  0.56395193506E+02  0.00000000000E+00 0. -1.
         21    1    1    2  503  502  0.30509783610E+03 -0.32318733899E+03 -0.41036533375E+03  0.60492516299E+03  0.00000000000E+00 0.  1.
         -1    1    1    2    0  503 -0.26223951939E+03  0.22441645011E+03 -0.63470172421E+01  0.34521383697E+03  0.00000000000E+00 0.  1.
<scales pt_clust_5="13000.00000" pt_clust_6="13000.00000" pt_clust_7="13000.00000" pt_clust_8="13000.00000" pt_clust_9="446.30931" pt_clust_10="13000.00000"></scales>
<clustering>
<clus scale="   89.858">  7  8 -1 -1</clus>
<clus scale="   90.908">  1  7  2 -1</clus>
<clus scale="   94.088">  5  6 -1 -1</clus>
<clus scale="  341.410">  5 10 -1 -1</clus>
<clus scale="  446.309">  2  9  1 -1</clus>
<clus scale="  446.309">  2  5  1 -1</clus>
</clustering>
</event>
<event>
10    2  0.5692308E-006  0.3386648E+03  0.7546771E-02  0.1088991E+00
         21   -1    0    0  501  502  0.00000000000E+00  0.00000000000E+00  0.19012247382E+03  0.19012247382E+03  0.00000000000E+00 0.  1.
          1   -1    0    0  503    0 -0.00000000000E+00 -0.00000000000E+00 -0.11314042713E+04  0.11314042713E+04  0.00000000000E+00 0. -1.
         23    2    1    2    0    0  0.15479407063E+03  0.77669894737E+02 -0.50866625135E+03  0.54497692229E+03  0.90910250882E+02 0.  0.
         23    2    1    2    0    0 -0.11971911613E+03 -0.51242575129E+02 -0.58304812032E+03  0.60406318445E+03  0.89379818306E+02 0.  0.
        -13    1    4    4    0    0 -0.22895286958E+02 -0.22289576168E+02 -0.37652340734E+02  0.49383379120E+02  0.00000000000E+00 0.  1.
         13    1    4    4    0    0 -0.96823829168E+02 -0.28952998962E+02 -0.54539577959E+03  0.55467980533E+03  0.00000000000E+00 0. -1.
        -13    1    3    3    0    0  0.13989627400E+03  0.50334925064E+02 -0.48056678868E+03  0.50303977034E+03  0.00000000000E+00 0.  1.
         13    1    3    3    0    0  0.14897796631E+02  0.27334969673E+02 -0.28099462671E+02  0.41937151952E+02  0.00000000000E+00 0. -1.
         21    1    1    2  503  502 -0.34893031591E+02  0.79547336417E+01  0.12416101035E+03  0.12921593529E+03  0.00000000000E+00 0.  1.
          1    1    1    2  501    0 -0.18192291332E+00 -0.34382053249E+02  0.26271563835E+02  0.43270703113E+02  0.00000000000E+00 0. -1.
<scales pt_clust_5="13000.00000" pt_clust_6="13000.00000" pt_clust_7="13000.00000" pt_clust_8="13000.00000" pt_clust_9="35.78829" pt_clust_10="13000.00000"></scales>
<clustering>
<clus scale="   35.788">  1  9  2 -1</clus>
<clus scale="   89.380">  5  6 -1 -1</clus>
<clus scale="   35.695">  5 10 -1 -1</clus>
<clus scale="   90.910">  7  8 -1 -1</clus>
<clus scale="  188.747">  2  7  1 -1</clus>
<clus scale="   35.788">  1  5  2 -1</clus>
</clustering>
</event>
<event>
10    2  0.5692308E-006  0.1685879E+03  0.7546771E-02  0.1204553E+00
         21   -1    0    0  501  502  0.00000000000E+00  0.00000000000E+00  0.17162953156E+03  0.17162953156E+03  0.00000000000E+00 0.  1.
          2   -1    0    0  503    0 -0.00000000000E+00 -0.00000000000E+00 -0.48818483574E+03  0.48818483574E+03  0.00000000000E+00 0. -1.
         23    2    1    2    0    0 -0.13402154373E+01  0.11853904711E+02 -0.21002034640E+03  0.22962107922E+03  0.92059670243E+02 0.  0.
         23    2    1    2    0    0 -0.41833166135E+02 -0.85215700510E+02 -0.19472050017E+03  0.23469679589E+03  0.90303839413E+02 0.  0.
        -11    1    3    3    0    0  0.44165853631E+02  0.52445332332E+01 -0.77576208352E+02  0.89421450772E+02  0.00000000000E+00 0.  1.
         11    1    3    3    0    0 -0.45506069069E+02  0.66093714776E+01 -0.13244413805E+03  0.14019962845E+03  0.00000000000E+00 0. -1.
        -13    1    4    4    0    0  0.19393717801E+02 -0.32717698725E+02 -0.21668021238E+02  0.43772905368E+02  0.00000000000E+00 0.  1.
         13    1    4    4    0    0 -0.61226883936E+02 -0.52498001786E+02 -0.17305247893E+03  0.19092389052E+03  0.00000000000E+00 0. -1.
         21    1    1    2  503  502 -0.63624870049E+01  0.82458510420E+02  0.11245296583E+03  0.13959067557E+03  0.00000000000E+00 0.  1.
          2    1    1    2  501    0  0.49535868577E+02 -0.90967146209E+01 -0.24267423436E+02  0.55905816628E+02  0.00000000000E+00 0. -1.
<scales pt_clust_5="13000.00000" pt_clust_6="13000.00000" pt_clust_7="13000.00000" pt_clust_8="13000.00000" pt_clust_9="82.70361" pt_clust_10="13000.00000"></scales>
<clustering>
<clus scale="   82.704">  1  9  2 -1</clus>
<clus scale="   90.304">  7  8 -1 -1</clus>
<clus scale="   51.190">  7 10 -1 -1</clus>
<clus scale="   92.060">  5  6 -1 -1</clus>
<clus scale="   96.731">  2  5  1 -1</clus>
<clus scale="   82.704">  1  5  2 -1</clus>
</clustering>
</event>
<event>
10    2  0.5692308E-006  0.8021783E+03  0.7546771E-02  0.1013256E+00
         21   -1    0    0  503  502  0.00000000000E+00  0.00000000000E+00  0.27305228578E+03  0.27305228578E+03  0.00000000000E+00 0.  1.
          1   -1    0    0  502    0 -0.00000000000E+00 -0.00000000000E+00 -0.11420071381E+04  0.11420071381E+04  0.00000000000E+00 0. -1.
         23    2    1    2    0    0 -0.77405791322E+02  0.38450499595E+02 -0.16557169963E+03  0.20766916567E+03  0.90787648955E+02 0.  0.
         23    2    1    2    0    0  0.18821823235E+03  0.34672731472E+03 -0.59268688318E+03  0.71784701526E+03  0.91545956011E+02 0.  0.
        -11    1    3    3    0    0 -0.53380351332E+02  0.22436730149E+02 -0.16895164891E+03  0.17859879182E+03  0.00000000000E+00 0.  1.
         11    1    3    3    0    0 -0.24025439990E+02  0.16013769446E+02  0.33799492878E+01  0.29070373849E+02  0.00000000000E+00 0. -1.
        -13    1    4    4    0    0  0.13278628889E+03  0.30626487017E+03 -0.51961482981E+03  0.61760014620E+03  0.00000000000E+00 0. -1.
         13    1    4    4    0    0  0.55431943452E+02  0.40462444552E+02 -0.73072053366E+02  0.10024686906E+03  0.00000000000E+00 0.  1.
         21    1    1    2  503  501  0.91648275148E+01 -0.53390804669E+02  0.73685477758E+02  0.91455572378E+02  0.00000000000E+00 0. -1.
          1    1    1    2  501    0 -0.11997726854E+03 -0.33178700965E+03 -0.18438174728E+03  0.39808767058E+03  0.00000000000E+00 0. -1.
<scales pt_clust_5="13000.00000" pt_clust_6="13000.00000" pt_clust_7="13000.00000" pt_clust_8="13000.00000" pt_clust_9="54.17169" pt_clust_10="13000.00000"></scales>
<clustering>
<clus scale="   54.172">  1  9  2 -1</clus>
<clus scale="   90.788">  5  6 -1 -1</clus>
<clus scale="   91.546">  7  8 -1 -1</clus>
<clus scale="  123.036">  2  5  1 -1</clus>
<clus scale="  377.856">  7 10 -1 -1</clus>
<clus scale="   54.172">  1  5  2 -1</clus>
</clustering>
</event>
<event>
10    2  0.5692308E-006  0.4368416E+03  0.7546771E-02  0.1082863E+00
         21   -1    0    0  503  502  0.00000000000E+00  0.00000000000E+00  0.57085124555E+03  0.57085124555E+03  0.00000000000E+00 0.  1.
         -1   -1    0    0    0  501 -0.00000000000E+00 -0.00000000000E+00 -0.45420804964E+03  0.45420804964E+03  0.00000000000E+00 0.  1.
         23    2    1    2    0    0 -0.55316455154E+02  0.10434391591E+02 -0.33875751735E+03  0.35418830747E+03  0.86740502939E+02 0.  0.
         23    2    1    2    0    0  0.38131880103E+02  0.76539223900E+02 -0.35751883792E+02  0.13045126004E+03  0.91798915979E+02 0.  0.
        -11    1    4    4    0    0 -0.10363971974E+02  0.70502895243E+02 -0.39431764014E+02  0.81442827591E+02  0.00000000000E+00 0. -1.
         11    1    4    4    0    0  0.48495852077E+02  0.60363286569E+01  0.36798802220E+01  0.49008432446E+02  0.00000000000E+00 0.  1.
        -11    1    3    3    0    0 -0.78748159693E+02  0.12927683497E+02 -0.26555901121E+03  0.27729043634E+03  0.00000000000E+00 0. -1.
         11    1    3    3    0    0  0.23431704540E+02 -0.24932919061E+01 -0.73198506143E+02  0.76897871126E+02  0.00000000000E+00 0.  1.
         21    1    1    2  503  501 -0.20235292492E+02 -0.93293944951E+01 -0.15077764691E+02  0.26904342623E+02  0.00000000000E+00 0.  1.
         -1    1    1    2    0  502  0.37419867543E+02 -0.77644220996E+02  0.50623036174E+03  0.51351538506E+03  0.00000000000E+00 0.  1.
<scales pt_clust_5="13000.00000" pt_clust_6="13000.00000" pt_clust_7="13000.00000" pt_clust_8="13000.00000" pt_clust_9="22.28240" pt_clust_10="13000.00000"></scales>
<clustering>
<clus scale="   22.282">  1  9  2 -1</clus>
<clus scale="   86.741">  7  8 -1 -1</clus>
<clus scale="   91.799">  5  6 -1 -1</clus>
<clus scale="   88.171">  5 10 -1 -1</clus>
<clus scale="  103.541">  2  7  1 -1</clus>
<clus scale="   22.282">  1  5  2 -1</clus>
</clustering>
</event>
<event>
10    2  0.5692308E-006  0.2618217E+03  0.7546771E-02  0.1130034E+00
          2   -1    0    0  503    0 -0.00000000000E+00  0.00000000000E+00  0.63668949841E+03  0.63668949841E+03  0.00000000000E+00 0. -1.
         21   -1    0    0  501  502  0.00000000000E+00 -0.00000000000E+00 -0.11507180462E+03  0.11507180462E+03  0.00000000000E+00 0. -1.
         23    2    1    2    0    0 -0.81053097306E+02 -0.82683305285E+02  0.21286556073E+03  0.25922966132E+03  0.92098516859E+02 0.  0.
         23    2    1    2    0    0 -0.45113185189E+02  0.12676806982E+03  0.25777657116E+03  0.30450168262E+03  0.90372402177E+02 0.  0.
        -11    1    3    3    0    0 -0.91416126756E+02 -0.34957739666E+02  0.12563238047E+03  0.15925591611E+03  0.00000000000E+00 0. -1.
         11    1    3    3    0    0  0.10363029450E+02 -0.47725565619E+02  0.87233180259E+02  0.99973745209E+02  0.00000000000E+00 0.  1.
        -13    1    4    4    0    0 -0.54849256458E+02  0.86398389422E+02  0.10679451035E+03  0.14791277859E+03  0.00000000000E+00 0. -1.
         13    1    4    4    0    0  0.97360712686E+01  0.40369680401E+02  0.15098206082E+03  0.15658890404E+03  0.00000000000E+00 0.  1.
         21    1    1    2  503  502  0.38931082184E+02 -0.11893161877E+02 -0.40620552929E+02  0.57507441081E+02  0.00000000000E+00 0.  1.
          2    1    1    2  501    0  0.87235200312E+02 -0.32191602662E+02  0.91596114828E+02  0.13052251801E+03  0.00000000000E+00 0. -1.
<scales pt_clust_5="13000.00000" pt_clust_6="13000.00000" pt_clust_7="13000.00000" pt_clust_8="13000.00000" pt_clust_9="40.70720" pt_clust_10="13000.00000"></scales>
<clustering>
<clus scale="   40.707">  2  9  1 -1</clus>
<clus scale="   90.372">  7  8 -1 -1</clus>
<clus scale="   92.099">  5  6 -1 -1</clus>
<clus scale="  104.971">  7 10 -1 -1</clus>
<clus scale="  143.412">  1  5  2 -1</clus>
<clus scale="   40.707">  2  5  1 -1</clus>
</clustering>
</event>
<event>
10    2  0.5692308E-006  0.1644009E+03  0.7546771E-02  0.1209278E+00
         21   -1    0    0  503  502  0.00000000000E+00  0.00000000000E+00  0.66817281659E+03  0.66817281659E+03  0.00000000000E+00 0. -1.
          2   -1    0    0  502    0 -0.00000000000E+00 -0.00000000000E+00 -0.13062566271E+03  0.13062566271E+03  0.00000000000E+00 0. -1.
         23    2    1    2    0    0 -0.36375403168E+02 -0.66496226410E+01  0.96544604288E+02  0.13717535314E+03  0.90160021377E+02 0.  0.
         23    2    1    2    0    0  0.14321418241E+02 -0.60083900812E+02 -0.74661604101E+02  0.13431011888E+03  0.93003627618E+02 0.  0.
        -11    1    3    3    0    0 -0.60103354759E+02  0.18064090056E+02  0.68473277933E+02  0.92883337546E+02  0.00000000000E+00 0.  1.
         11    1    3    3    0    0  0.23727951590E+02 -0.24713712697E+02  0.28071326355E+02  0.44292015593E+02  0.00000000000E+00 0. -1.
        -13    1    4    4    0    0  0.40655257139E+02 -0.11841936002E+02 -0.93951464075E+00  0.42355213009E+02  0.00000000000E+00 0.  1.
         13    1    4    4    0    0 -0.26333838897E+02 -0.48241964810E+02 -0.73722089460E+02  0.91954905873E+02  0.00000000000E+00 0. -1.
         21    1    1    2  503  501  0.35662217509E+02  0.47509728215E+02  0.48511415738E+03  0.48873787834E+03  0.00000000000E+00 0. -1.
          2    1    1    2  501    0 -0.13608232582E+02  0.19223795238E+02  0.30549996319E+02  0.38575128936E+02  0.00000000000E+00 0. -1.
<scales pt_clust_5="13000.00000" pt_clust_6="13000.00000" pt_clust_7="13000.00000" pt_clust_8="13000.00000" pt_clust_9="59.40512" pt_clust_10="13000.00000"></scales>
<clustering>
<clus scale="   59.405">  1  9  2 -1</clus>
<clus scale="   90.160">  5  6 -1 -1</clus>
<clus scale="   93.004">  7  8 -1 -1</clus>
<clus scale="   29.091">  7 10 -1 -1</clus>
<clus scale="   94.250">  2  5  1 -1</clus>
<clus scale="   59.405">  1  5  2 -1</clus>
</clustering>
</event>
<event>
10    2  0.5692308E-006  0.1752800E+03  0.7546771E-02  0.1196704E+00
         21   -1    0    0  503  502  0.00000000000E+00  0.00000000000E+00  0.33322398648E+03  0.33322398648E+03  0.00000000000E+00 0.  1.
         -1   -1    0    0    0  501 -0.00000000000E+00 -0.00000000000E+00 -0.11557699690E+03  0.11557699690E+03  0.00000000000E+00 0.  1.
         23    2    1    2    0    0  0.12599173256E+02  0.34666677933E+02  0.11796645164E+03  0.15274469710E+03  0.89745980720E+02 0.  0.
         23    2    1    2    0    0 -0.10796773262E+03  0.39498233352E+01 -0.34383647786E+01  0.14072138568E+03  0.90100242195E+02 0.  0.
        -11    1    3    3    0    0 -0.22750064138E+02  0.52599087451E+02  0.66584249028E+02  0.87850393497E+02  0.00000000000E+00 0.  1.
         11    1    3    3    0    0  0.35349237394E+02 -0.17932409518E+02  0.51382202607E+02  0.64894303604E+02  0.00000000000E+00 0. -1.
        -11    1    4    4    0    0  0.54247168632E+01  0.24596227352E+02  0.25042506666E+01  0.25311523550E+02  0.00000000000E+00 0. -1.
         11    1    4    4    0    0 -0.11339244948E+03 -0.20646404017E+02 -0.59426154452E+01  0.11540986213E+03  0.00000000000E+00 0.  1.
         21    1    1    2  503  501  0.55858380700E+02 -0.30527426228E+02  0.94747647853E+02  0.11414551774E+03  0.00000000000E+00 0.  1.
         -1    1    1    2    0  502  0.39510178660E+02 -0.80890750404E+01  0.83712548689E+01  0.41189382865E+02  0.00000000000E+00 0.  1.
<scales pt_clust_5="13000.00000" pt_clust_6="13000.00000" pt_clust_7="13000.00000" pt_clust_8="13000.00000" pt_clust_9="63.65597" pt_clust_10="13000.00000"></scales>
<clustering>
<clus scale="   63.656">  1  9  2 -1</clus>
<clus scale="   89.746">  5  6 -1 -1</clus>
<clus scale="   90.100">  7  8 -1 -1</clus>
<clus scale="   46.964">  7 10 -1 -1</clus>
<clus scale="  102.048">  2  5  1 -1</clus>
<clus scale="   63.656">  1  5  2 -1</clus>
</clustering>
</event>
<event>
10    2  0.5692308E-006  0.4284982E+03  0.7546771E-02  0.1073105E+00
         21   -1    0    0  501  502  0.00000000000E+00  0.00000000000E+00  0.72811781595E+02  0.72811781595E+02  0.00000000000E+00 0.  1.
          3   -1    0    0  503    0 -0.00000000000E+00 -0.00000000000E+00 -0.14995513571E+04  0.14995513571E+04  0.00000000000E+00 0. -1.
         23    2    1    2    0    0  0.11399854285E+03 -0.24418178541E+02 -0.56377148849E+03  0.58282826740E+03  0.90876745263E+02 0.  0.
         23    2    1    2    0    0 -0.58533497438E+02  0.99532247598E+02 -0.67149996387E+02  0.16173086487E+03  0.91186139320E+02 0.  0.
        -11    1    4    4    0    0 -0.34651473019E+02  0.90724725809E+01 -0.57407537727E+02  0.67665794379E+02  0.00000000000E+00 0. -1.
         11    1    4    4    0    0 -0.23882024420E+02  0.90459775017E+02 -0.97424586598E+01  0.94065070495E+02  0.00000000000E+00 0.  1.
        -13    1    3    3    0    0  0.10621743233E+03  0.83722396524E+01 -0.49379751237E+03  0.50516157865E+03  0.00000000000E+00 0.  1.
         13    1    3    3    0    0  0.77811105193E+01 -0.32790418193E+02 -0.69973976123E+02  0.77666688745E+02  0.00000000000E+00 0. -1.
         21    1    1    2  503  502 -0.33576748756E+02  0.46616030473E+02 -0.65661424653E+02  0.87246060321E+02  0.00000000000E+00 0.  1.
          3    1    1    2  501    0 -0.21888296659E+02 -0.12173009953E+03 -0.73015666593E+03  0.74055794605E+03  0.00000000000E+00 0. -1.
<scales pt_clust_5="13000.00000" pt_clust_6="13000.00000" pt_clust_7="13000.00000" pt_clust_8="13000.00000" pt_clust_9="57.44956" pt_clust_10="13000.00000"></scales>
<clustering>
<clus scale="   57.450">  1  9  2 -1</clus>
<clus scale="   90.877">  7  8 -1 -1</clus>
<clus scale="   91.186">  5  6 -1 -1</clus>
<clus scale="  120.383">  5 10 -1 -1</clus>
<clus scale="  142.837">  2  7  1 -1</clus>
<clus scale="   57.450">  1  5  2 -1</clus>
</clustering>
</event>
<event>
10    2  0.5692308E-006  0.2221365E+03  0.7546771E-02  0.1159148E+00
          4   -1    0    0  502    0 -0.00000000000E+00  0.00000000000E+00  0.88036756465E+03  0.88036756465E+03  0.00000000000E+00 0. -1.
         21   -1    0    0  503  502  0.00000000000E+00 -0.00000000000E+00 -0.40798664392E+02  0.40798664392E+02  0.00000000000E+00 0.  1.
         23    2    1    2    0    0 -0.71465779932E+02 -0.10615109299E+02  0.35859495929E+03  0.37670703925E+03  0.89987834468E+02 0.  0.
         23    2    1    2    0    0  0.10066760427E+03  0.92187046845E+02  0.29546040848E+03  0.33596446573E+03  0.83323772726E+02 0.  0.
        -11    1    3    3    0    0 -0.44876180986E+02  0.36973209115E+02  0.22562133737E+03  0.23299329966E+03  0.00000000000E+00 0.  1.
         11    1    3    3    0    0 -0.26589598947E+02 -0.47588318413E+02  0.13297362192E+03  0.14371373959E+03  0.00000000000E+00 0. -1.
        -13    1    4    4    0    0  0.67558015500E+02  0.91938272992E+02  0.15996972359E+03  0.19648675265E+03  0.00000000000E+00 0.  1.
         13    1    4    4    0    0  0.33109588765E+02  0.24877385265E+00  0.13549068489E+03  0.13947771308E+03  0.00000000000E+00 0. -1.
         21    1    1    2  503  501 -0.56580257768E+01 -0.22989715639E+02  0.18818168390E+02  0.30243408247E+02  0.00000000000E+00 0. -1.
          4    1    1    2  501    0 -0.23543798556E+02 -0.58582221907E+02  0.16669536410E+03  0.17825131581E+03  0.00000000000E+00 0. -1.
<scales pt_clust_5="13000.00000" pt_clust_6="13000.00000" pt_clust_7="13000.00000" pt_clust_8="13000.00000" pt_clust_9="23.67573" pt_clust_10="13000.00000"></scales>
<clustering>
<clus scale="   23.676">  2  9  1 -1</clus>
<clus scale="   83.324">  7  8 -1 -1</clus>
<clus scale="   66.999">  7 10 -1 -1</clus>
<clus scale="   89.988">  5  6 -1 -1</clus>
<clus scale="  117.004">  1  5  2 -1</clus>
<clus scale="   23.676">  2  5  1 -1</clus>
</clustering>
</event>
<event>
10    2  0.5692308E-006  0.3112281E+03  0.7546771E-02  0.1111236E+00
          1   -1    0    0  502    0 -0.00000000000E+00  0.00000000000E+00  0.51820205025E+03  0.51820205025E+03  0.00000000000E+00 0. -1.
         21   -1    0    0  503  502  0.00000000000E+00 -0.00000000000E+00 -0.14054935049E+03  0.14054935049E+03  0.00000000000E+00 0.  1.
         23    2    1    2    0    0  0.91267618879E+02  0.42143772622E+02  0.64002280578E+02  0.15044417737E+03  0.91822016744E+02 0.  0.
         23    2    1    2    0    0 -0.78323779683E+02 -0.76401271812E+02  0.37010658217E+03  0.39652041015E+03  0.90982331798E+02 0.  0.
        -11    1    3    3    0    0  0.47632477979E+02 -0.74690470310E+01 -0.12052413217E+02  0.49698091375E+02  0.00000000000E+00 0.  1.
         11    1    3    3    0    0  0.43635140900E+02  0.49612819653E+02  0.76054693795E+02  0.10074608600E+03  0.00000000000E+00 0. -1.
        -11    1    4    4    0    0 -0.74672858160E+01 -0.65192688913E+02  0.22913328339E+03  0.23834409706E+03  0.00000000000E+00 0.  1.
         11    1    4    4    0    0 -0.70856493867E+02 -0.11208582899E+02  0.14097329878E+03  0.15817631309E+03  0.00000000000E+00 0. -1.
         21    1    1    2  503  501  0.11496500209E+02 -0.25683014341E+02 -0.31942617269E+02  0.42568973921E+02  0.00000000000E+00 0.  1.
          1    1    1    2  501    0 -0.24440339404E+02  0.59940513531E+02 -0.24513545720E+02  0.69217839293E+02  0.00000000000E+00 0. -1.
<scales pt_clust_5="13000.00000" pt_clust_6="13000.00000" pt_clust_7="13000.00000" pt_clust_8="13000.00000" pt_clust_9="28.13871" pt_clust_10="13000.00000"></scales>
<clustering>
<clus scale="   28.139">  2  9  1 -1</clus>
<clus scale="   90.982">  7  8 -1 -1</clus>
<clus scale="   51.974">  7 10 -1 -1</clus>
<clus scale="   91.822">  5  6 -1 -1</clus>
<clus scale="  136.558">  1  5  2 -1</clus>
<clus scale="   28.139">  2  5  1 -1</clus>
</clustering>
</event>
<event>
10    2  0.5692308E-006  0.8849058E+03  0.7546771E-02  0.1007194E+00
          2   -1    0    0  503    0 -0.00000000000E+00  0.00000000000E+00  0.23155690102E+03  0.23155690102E+03  0.00000000000E+00 0. -1.
         21   -1    0    0  501  502  0.00000000000E+00 -0.00000000000E+00 -0.17116523665E+04  0.17116523665E+04  0.00000000000E+00 0. -1.
         23    2    1    2    0    0 -0.65441180096E+02  0.23887163346E+02  0.56946998312E+02  0.12375590112E+03  0.84967157296E+02 0.  0.
         23    2    1    2    0    0 -0.97027182382E+02 -0.26332047253E-01  0.73121760437E+02  0.15383935590E+03  0.94368854815E+02 0.  0.
        -11    1    4    4    0    0 -0.55173416662E+02 -0.36009646111E+02  0.73414362470E+02  0.98643140339E+02  0.00000000000E+00 0. -1.
         11    1    4    4    0    0 -0.41853765720E+02  0.35983314064E+02 -0.29260203298E+00  0.55196215558E+02  0.00000000000E+00 0.  1.
        -11    1    3    3    0    0 -0.63624665505E+02 -0.19425018395E+02  0.34743779169E+02  0.75050380353E+02  0.00000000000E+00 0. -1.
         11    1    3    3    0    0 -0.18165145915E+01  0.43312181741E+02  0.22203219143E+02  0.48705520762E+02  0.00000000000E+00 0.  1.
         21    1    1    2  503  502 -0.56095990716E+02 -0.69492982507E+01 -0.19317917910E+02  0.59734704092E+02  0.00000000000E+00 0. -1.
          2    1    1    2  501    0  0.21856435319E+03 -0.16911533048E+02 -0.15908463063E+04  0.16058793064E+04  0.00000000000E+00 0. -1.
<scales pt_clust_5="13000.00000" pt_clust_6="13000.00000" pt_clust_7="13000.00000" pt_clust_8="13000.00000" pt_clust_9="56.52483" pt_clust_10="13000.00000"></scales>
<clustering>
<clus scale="   56.525">  2  9  1 -1</clus>
<clus scale="   84.967">  7  8 -1 -1</clus>
<clus scale="   94.369">  5  6 -1 -1</clus>
<clus scale="  110.516">  1  7  2 -1</clus>
<clus scale="  154.918">  5 10 -1 -1</clus>
<clus scale="   56.525">  2  5  1 -1</clus>
</clustering>
</event>
<event>
10    2  0.5692308E-006  0.2351099E+03  0.7546771E-02  0.1123973E+00
         21   -1    0    0  501  502  0.00000000000E+00  0.00000000000E+00  0.11028339295E+03  0.11028339295E+03  0.00000000000E+00 0. -1.
          1   -1    0    0  503    0 -0.00000000000E+00 -0.00000000000E+00 -0.10779771378E+04  0.10779771378E+04  0.00000000000E+00 0. -1.
         23    2    1    2    0    0 -0.11911357728E+03 -0.10459211502E+03 -0.13495325480E+03  0.22817402126E+03  0.93399401383E+02 0.  0.
         23    2    1    2    0    0  0.22741035461E+02  0.11004050208E+03 -0.35611603838E+03  0.37910980194E+03  0.65418211120E+02 0.  0.
        -11    1    4    4    0    0  0.37214138614E+02  0.78636726760E+02 -0.30667936883E+03  0.31878027256E+03  0.00000000000E+00 0.  1.
         11    1    4    4    0    0 -0.14473103153E+02  0.31403775319E+02 -0.49436669548E+02  0.60329529380E+02  0.00000000000E+00 0. -1.
        -11    1    3    3    0    0 -0.10168398261E+03 -0.40891855510E+02 -0.11573290151E+03  0.15939222270E+03  0.00000000000E+00 0. -1.
         11    1    3    3    0    0 -0.17429594676E+02 -0.63700259508E+02 -0.19220353290E+02  0.68781798556E+02  0.00000000000E+00 0.  1.
         21    1    1    2  503  502  0.81663382386E+02 -0.15190242354E+03 -0.17687624259E+03  0.24703938855E+03  0.00000000000E+00 0. -1.
          1    1    1    2  501    0  0.14709159436E+02  0.14645403648E+03 -0.29974820912E+03  0.33393731903E+03  0.00000000000E+00 0. -1.
<scales pt_clust_5="13000.00000" pt_clust_6="13000.00000" pt_clust_7="13000.00000" pt_clust_8="13000.00000" pt_clust_9="172.46233" pt_clust_10="13000.00000"></scales>
<clustering>
<clus scale="   65.418">  5  6 -1 -1</clus>
<clus scale="   93.399">  7  8 -1 -1</clus>
<clus scale="  147.191">  5 10 -1 -1</clus>
<clus scale="  172.462">  1  9  2 -1</clus>
<clus scale="  230.030">  2  7  1 -1</clus>
<clus scale="  172.462">  1  5  2 -1</clus>
</clustering>
</event>
<event>
10    2  0.5692308E-006  0.1497714E+03  0.7546771E-02  0.1220190E+00
          2   -1    0    0  502    0 -0.00000000000E+00  0.00000000000E+00  0.31528652659E+03  0.31528652659E+03  0.00000000000E+00 0. -1.
         21   -1    0    0  503  502  0.00000000000E+00 -0.00000000000E+00 -0.19219404657E+03  0.19219404657E+03  0.00000000000E+00 0. -1.
         23    2    1    2    0    0 -0.30030321381E+02 -0.13749814672E+02  0.20499159546E+03  0.22664368223E+03  0.90856628149E+02 0.  0.
         23    2    1    2    0    0  0.31712103604E+02  0.74409731005E+02 -0.55075295519E+01  0.12177425853E+03  0.90863477680E+02 0.  0.
        -11    1    4    4    0    0 -0.32097747530E+02  0.24617199412E+02 -0.55952961695E+01  0.40836004244E+02  0.00000000000E+00 0. -1.
         11    1    4    4    0    0  0.63809851134E+02  0.49792531593E+02  0.87766617546E-01  0.80938254289E+02  0.00000000000E+00 0.  1.
        -13    1    3    3    0    0 -0.20174863324E+02 -0.52648594871E+02  0.11319305153E+03  0.12645776594E+03  0.00000000000E+00 0.  1.
         13    1    3    3    0    0 -0.98554580569E+01  0.38898780199E+02  0.91798543929E+02  0.10018591629E+03  0.00000000000E+00 0. -1.
         21    1    1    2  503  501 -0.34518881179E+02 -0.38893565256E+02 -0.10029999825E+03  0.11297943276E+03  0.00000000000E+00 0. -1.
          2    1    1    2  501    0  0.32837098956E+02 -0.21766351077E+02  0.23908412371E+02  0.46083199641E+02  0.00000000000E+00 0. -1.
<scales pt_clust_5="13000.00000" pt_clust_6="13000.00000" pt_clust_7="13000.00000" pt_clust_8="13000.00000" pt_clust_9="52.00252" pt_clust_10="13000.00000"></scales>
<clustering>
<clus scale="   52.003">  2  9  1 -1</clus>
<clus scale="   90.857">  7  8 -1 -1</clus>
<clus scale="   90.863">  5  6 -1 -1</clus>
<clus scale="   39.027">  5 10 -1 -1</clus>
<clus scale="   98.928">  1  7  2 -1</clus>
<clus scale="   52.003">  2  5  1 -1</clus>
</clustering>
</event>
<event>
10    2  0.5692308E-006  0.2616663E+03  0.7546771E-02  0.1119422E+00
         21   -1    0    0  501  502  0.00000000000E+00  0.00000000000E+00  0.35692419686E+03  0.35692419686E+03  0.00000000000E+00 0. -1.
          2   -1    0    0  503    0 -0.00000000000E+00 -0.00000000000E+00 -0.20534903355E+03  0.20534903355E+03  0.00000000000E+00 0. -1.
         23    2    1    2    0    0 -0.15425224738E+03  0.37685393293E+02 -0.56595898540E+01  0.18295191994E+03  0.90694152862E+02 0.  0.
         23    2    1    2    0    0  0.51546012282E+02 -0.32491873041E+02 -0.45966132950E+02  0.12002948619E+03  0.92636272487E+02 0.  0.
        -11    1    3    3    0    0 -0.79309099645E+02  0.64365790080E+01  0.40781448020E+02  0.89411908259E+02  0.00000000000E+00 0.  1.
         11    1    3    3    0    0 -0.74943147730E+02  0.31248814285E+02 -0.46441037874E+02  0.93540011678E+02  0.00000000000E+00 0. -1.
        -13    1    4    4    0    0 -0.24062607493E+02 -0.11772328036E+02  0.39693651148E+01  0.27080484599E+02  0.00000000000E+00 0.  1.
         13    1    4    4    0    0  0.75608619774E+02 -0.20719545005E+02 -0.49935498064E+02  0.92949001588E+02  0.00000000000E+00 0. -1.
         21    1    1    2  503  502 -0.41522660484E+01  0.34593830851E+02  0.98529386782E+02  0.10450844227E+03  0.00000000000E+00 0.  1.
          2    1    1    2  501    0  0.10685850114E+03 -0.39787351103E+02  0.10467149933E+03  0.15478338201E+03  0.00000000000E+00 0. -1.
<scales pt_clust_5="13000.00000" pt_clust_6="13000.00000" pt_clust_7="13000.00000" pt_clust_8="13000.00000" pt_clust_9="34.84214" pt_clust_10="13000.00000"></scales>
<clustering>
<clus scale="   34.842">  1  9  2 -1</clus>
<clus scale="   90.694">  5  6 -1 -1</clus>
<clus scale="   92.636">  7  8 -1 -1</clus>
<clus scale="  107.079">  7 10 -1 -1</clus>
<clus scale="  186.910">  2  5  1 -1</clus>
<clus scale="   34.842">  1  5  2 -1</clus>
</clustering>
</event>
<event>
10    2  0.5692308E-006  0.2484629E+03  0.7546771E-02  0.1137919E+00
          1   -1    0    0  502    0 -0.00000000000E+00  0.00000000000E+00  0.36238773647E+03  0.36238773647E+03  0.00000000000E+00 0. -1.
         21   -1    0    0  503  502  0.00000000000E+00 -0.00000000000E+00 -0.26215711037E+03  0.26215711037E+03  0.00000000000E+00 0. -1.
         23    2    1    2    0    0  0.83614471414E+02 -0.63358150298E+02  0.12556971639E+03  0.18691664008E+03  0.90357299782E+02 0.  0.
         23    2    1    2    0    0 -0.25605559537E+02 -0.24987288279E+02 -0.31838819556E+02  0.10458955997E+03  0.92979870779E+02 0.  0.
        -13    1    4    4    0    0  0.17141978168E+02 -0.36880324531E+02  0.11808416685E+02  0.42349078592E+02  0.00000000000E+00 0. -1.
         13    1    4    4    0    0 -0.42747537705E+02  0.11893036252E+02 -0.43647236241E+02  0.62240481382E+02  0.00000000000E+00 0.  1.
        -13    1    3    3    0    0  0.35690950857E+02  0.20951850124E+02  0.34485933012E+02  0.53871175710E+02  0.00000000000E+00 0.  1.
         13    1    3    3    0    0  0.47923520557E+02 -0.84310000422E+02  0.91083783382E+02  0.13304546437E+03  0.00000000000E+00 0. -1.
         21    1    1    2  503  501  0.62523455624E+01  0.17710251195E+03 -0.79026331334E+02  0.19403492626E+03  0.00000000000E+00 0. -1.
          1    1    1    2  501    0 -0.64261257439E+02 -0.88757073370E+02  0.85526060592E+02  0.13900372053E+03  0.00000000000E+00 0. -1.
<scales pt_clust_5="13000.00000" pt_clust_6="13000.00000" pt_clust_7="13000.00000" pt_clust_8="13000.00000" pt_clust_9="162.14895" pt_clust_10="13000.00000"></scales>
<clustering>
<clus scale="   90.357">  7  8 -1 -1</clus>
<clus scale="   92.980">  5  6 -1 -1</clus>
<clus scale="  109.578">  5 10 -1 -1</clus>
<clus scale="  138.456">  1  7  2 -1</clus>
<clus scale="  162.149">  2  9  1 -1</clus>
<clus scale="  162.149">  2  5  1 -1</clus>
</clustering>
</event>
<event>
10    2  0.5692308E-006  0.4132687E+03  0.7546771E-02  0.1044385E+00
         21   -1    0    0  501  502  0.00000000000E+00  0.00000000000E+00  0.20819913802E+03  0.20819913802E+03  0.00000000000E+00 0.  1.
         -1   -1    0    0    0  501 -0.00000000000E+00 -0.00000000000E+00 -0.89625510782E+03  0.89625510782E+03  0.00000000000E+00 0.  1.
         23    2    1    2    0    0 -0.24720283542E+03 -0.23843604466E+03 -0.31541414878E+03  0.47520657909E+03  0.91510755247E+02 0.  0.
         23    2    1    2    0    0  0.16490417015E+03  0.23217834152E+03 -0.36051453485E+03  0.46889337502E+03  0.93755531599E+02 0.  0.
        -13    1    3    3    0    0 -0.83497990671E+02 -0.99072164622E+02 -0.17758938777E+03  0.21982993176E+03  0.00000000000E+00 0.  1.
         13    1    3    3    0    0 -0.16370484475E+03 -0.13936388004E+03 -0.13782476101E+03  0.25537664733E+03  0.00000000000E+00 0. -1.
        -13    1    4    4    0    0  0.16144962780E+03  0.17212575150E+03 -0.25505918039E+03  0.34748876550E+03  0.00000000000E+00 0.  1.
         13    1    4    4    0    0  0.34545423450E+01  0.60052590016E+02 -0.10545535446E+03  0.12140460953E+03  0.00000000000E+00 0. -1.
         21    1    1    2  503  502 -0.19934583163E+02  0.18356007095E+02  0.37342157370E+02  0.46138566507E+02  0.00000000000E+00 0. -1.
         -1    1    1    2    0  503  0.10223324843E+03 -0.12098303947E+02 -0.49469443544E+02  0.11421572522E+03  0.00000000000E+00 0.  1.
<scales pt_clust_5="13000.00000" pt_clust_6="13000.00000" pt_clust_7="13000.00000" pt_clust_8="13000.00000" pt_clust_9="27.09854" pt_clust_10="13000.00000"></scales>
<clustering>
<clus scale="   27.099">  1  9  2 -1</clus>
<clus scale="   91.511">  5  6 -1 -1</clus>
<clus scale="   93.756">  7  8 -1 -1</clus>
<clus scale="   98.725">  7 10 -1 -1</clus>
<clus scale="  356.418">  2  5  1 -1</clus>
<clus scale="   27.099">  1  5  2 -1</clus>
</clustering>
</event>
<event>
10    2  0.5692308E-006  0.5537406E+03  0.7546771E-02  0.1011698E+00
          1   -1    0    0  503    0 -0.00000000000E+00  0.00000000000E+00  0.60711573501E+03  0.60711573501E+03  0.00000000000E+00 0. -1.
         21   -1    0    0  501  502  0.00000000000E+00 -0.00000000000E+00 -0.58183863627E+03  0.58183863627E+03  0.00000000000E+00 0. -1.
         23    2    1    2    0    0  0.26181918703E+03  0.26867815130E+03  0.46040440400E+02  0.38855275574E+03  0.90090433231E+02 0.  0.
         23    2    1    2    0    0  0.20873393144E+02  0.37547456357E+02  0.98491688789E+02  0.14091139871E+03  0.91158650201E+02 0.  0.
        -11    1    3    3    0    0  0.99684818299E+01  0.36545902842E+02 -0.14818653513E+02  0.40676358446E+02  0.00000000000E+00 0.  1.
         11    1    3    3    0    0  0.25185070520E+03  0.23213224846E+03  0.60859093913E+02  0.34787639730E+03  0.00000000000E+00 0. -1.
        -11    1    4    4    0    0  0.48258730880E-01  0.45144731022E+02  0.10779808287E+03  0.11686948164E+03  0.00000000000E+00 0.  1.
         11    1    4    4    0    0  0.20825134413E+02 -0.75972746648E+01 -0.93063940836E+01  0.24041917072E+02  0.00000000000E+00 0. -1.
         21    1    1    2  503  502  0.11720278888E+03 -0.11252617180E+03 -0.14027973295E+03  0.21465562312E+03  0.00000000000E+00 0.  1.
          1    1    1    2  501    0 -0.39989536905E+03 -0.19369943585E+03  0.21024702489E+02  0.44483459370E+03  0.00000000000E+00 0. -1.
<scales pt_clust_5="13000.00000" pt_clust_6="13000.00000" pt_clust_7="13000.00000" pt_clust_8="13000.00000" pt_clust_9="162.47656" pt_clust_10="13000.00000"></scales>
<clustering>
<clus scale="   90.090">  5  6 -1 -1</clus>
<clus scale="   91.159">  7  8 -1 -1</clus>
<clus scale="  162.477">  2  9  1 -1</clus>
<clus scale="  392.393">  1  5  2 -1</clus>
<clus scale="  183.502">  7 10 -1 -1</clus>
<clus scale="  162.477">  2  5  1 -1</clus>
</clustering>
</event>
<event>
10    2  0.5692308E-006  0.3318547E+03  0.7546771E-02  0.1104929E+00
         21   -1    0    0  503  502  0.00000000000E+00  0.00000000000E+00  0.99792040851E+02  0.99792040851E+02  0.00000000000E+00 0. -1.
          3   -1    0    0  502    0 -0.00000000000E+00 -0.00000000000E+00 -0.11466515507E+04  0.11466515507E+04  0.00000000000E+00 0. -1.
         23    2    1    2    0    0 -0.10257813030E+03 -0.24191338569E+02 -0.66280618411E+03  0.67685473640E+03  0.87822564374E+02 0.  0.
         23    2    1    2    0    0 -0.19429518227E+02 -0.62718860663E+02 -0.38778499926E+03  0.40327732243E+03  0.89130418357E+02 0.  0.
        -11    1    4    4    0    0  0.67620889241E+01 -0.71424436789E+02 -0.34486652473E+03  0.35225004741E+03  0.00000000000E+00 0. -1.
         11    1    4    4    0    0 -0.26191607151E+02  0.87055761260E+01 -0.42918474529E+02  0.51027275028E+02  0.00000000000E+00 0.  1.
        -11    1    3    3    0    0 -0.45166902891E+02 -0.54298518372E+02 -0.29168230473E+03  0.30011155443E+03  0.00000000000E+00 0.  1.
         11    1    3    3    0    0 -0.57411227407E+02  0.30107179803E+02 -0.37112387939E+03  0.37674318197E+03  0.00000000000E+00 0. -1.
         21    1    1    2  503  501  0.59117395283E+02  0.19530995771E+01  0.11751916706E+02  0.60305792170E+02  0.00000000000E+00 0.  1.
          3    1    1    2  501    0  0.62890253242E+02  0.84957099654E+02 -0.80202432157E+01  0.10600574058E+03  0.00000000000E+00 0. -1.
<scales pt_clust_5="13000.00000" pt_clust_6="13000.00000" pt_clust_7="13000.00000" pt_clust_8="13000.00000" pt_clust_9="59.14965" pt_clust_10="13000.00000"></scales>
<clustering>
<clus scale="   59.150">  1  9  2 -1</clus>
<clus scale="   87.823">  7  8 -1 -1</clus>
<clus scale="   89.130">  5  6 -1 -1</clus>
<clus scale="  132.349">  2  7  1 -1</clus>
<clus scale="  117.937">  5 10 -1 -1</clus>
<clus scale="   59.150">  1  5  2 -1</clus>
</clustering>
</event>
<event>
10    2  0.5692308E-006  0.1926977E+03  0.7546771E-02  0.1186037E+00
         21   -1    0    0  503  502  0.00000000000E+00  0.00000000000E+00  0.26851719051E+03  0.26851719051E+03  0.00000000000E+00 0.  1.
         -3   -1    0    0    0  501 -0.00000000000E+00 -0.00000000000E+00 -0.16955411514E+03  0.16955411514E+03  0.00000000000E+00 0.  1.
         23    2    1    2    0    0 -0.12914235760E+02  0.33142390748E+01  0.11393280084E+02  0.97751164213E+02  0.96165074783E+02 0.  0.
         23    2    1    2    0    0 -0.42184315539E+02 -0.64958955260E+02 -0.55984901191E+02  0.13281699737E+03  0.92232658442E+02 0.  0.
        -11    1    4    4    0    0  0.22487096571E+02 -0.11708167376E+01 -0.31531586236E+02  0.38746370857E+02  0.00000000000E+00 0. -1.
         11    1    4    4    0    0 -0.64671412110E+02 -0.63788138522E+02 -0.24453314955E+02  0.94070626514E+02  0.00000000000E+00 0.  1.
        -11    1    3    3    0    0 -0.52511426171E+02  0.69818318895E+01 -0.78863467281E+01  0.53557355422E+02  0.00000000000E+00 0.  1.
         11    1    3    3    0    0  0.39597190411E+02 -0.36675928147E+01  0.19279626812E+02  0.44193808791E+02  0.00000000000E+00 0. -1.
         21    1    1    2  503  501  0.68110279136E+02 -0.25796686391E+01  0.11974133703E+03  0.13778117653E+03  0.00000000000E+00 0.  1.
         -3    1    1    2    0  502 -0.13011727837E+02  0.64224384824E+02  0.23813359455E+02  0.69721967527E+02  0.00000000000E+00 0.  1.
<scales pt_clust_5="13000.00000" pt_clust_6="13000.00000" pt_clust_7="13000.00000" pt_clust_8="13000.00000" pt_clust_9="68.15911" pt_clust_10="13000.00000"></scales>
<clustering>
<clus scale="   68.159">  1  9  2 -1</clus>
<clus scale="   92.233">  5  6 -1 -1</clus>
<clus scale="   64.112">  5 10 -1 -1</clus>
<clus scale="   96.165">  7  8 -1 -1</clus>
<clus scale="   97.161">  2  7  1 -1</clus>
<clus scale="   68.159">  1  5  2 -1</clus>
</clustering>
</event>
<event>
10    2  0.5692308E-006  0.5094480E+03  0.7546771E-02  0.1071145E+00
         21   -1    0    0  501  502  0.00000000000E+00  0.00000000000E+00  0.12051170971E+03  0.12051170971E+03  0.00000000000E+00 0.  1.
         -1   -1    0    0    0  501 -0.00000000000E+00 -0.00000000000E+00 -0.93337711353E+03  0.93337711353E+03  0.00000000000E+00 0.  1.
         23    2    1    2    0    0 -0.13068331173E+02  0.59156916924E+01 -0.18381434476E+03  0.20438678699E+03  0.88206964972E+02 0.  0.
         23    2    1    2    0    0  0.54145837847E+01  0.12616778069E+03 -0.65277590568E+03  0.67120766096E+03  0.91954959013E+02 0.  0.
        -13    1    4    4    0    0  0.41666559435E+02  0.25515919405E+02 -0.22683486470E+03  0.23203710945E+03  0.00000000000E+00 0. -1.
         13    1    4    4    0    0 -0.36251975651E+02  0.10065186129E+03 -0.42594104099E+03  0.43917055151E+03  0.00000000000E+00 0.  1.
        -13    1    3    3    0    0 -0.44553506722E+02 -0.16557592259E+02 -0.73915159094E+02  0.87878436300E+02  0.00000000000E+00 0.  1.
         13    1    3    3    0    0  0.31485175550E+02  0.22473283952E+02 -0.10989918566E+03  0.11650835069E+03  0.00000000000E+00 0. -1.
         21    1    1    2  503  502 -0.10202771316E+02  0.18324914279E+02  0.16449812238E+02  0.26655118617E+02  0.00000000000E+00 0.  1.
         -1    1    1    2    0  503  0.17856518704E+02 -0.15040838666E+03  0.72750343771E+01  0.15163925667E+03  0.00000000000E+00 0.  1.
<scales pt_clust_5="13000.00000" pt_clust_6="13000.00000" pt_clust_7="13000.00000" pt_clust_8="13000.00000" pt_clust_9="20.97377" pt_clust_10="13000.00000"></scales>
<clustering>
<clus scale="   20.974">  1  9  2 -1</clus>
<clus scale="   88.207">  7  8 -1 -1</clus>
<clus scale="   89.673">  2  7  1 -1</clus>
<clus scale="   91.955">  5  6 -1 -1</clus>
<clus scale="  135.289">  5 10 -1 -1</clus>
<clus scale="   20.974">  1  5  2 -1</clus>
</clustering>
</event>
<event>
10    2  0.5692308E-006  0.2897951E+03  0.7546771E-02  0.1104778E+00
         21   -1    0    0  503  502  0.00000000000E+00  0.00000000000E+00  0.65322816273E+02  0.65322816273E+02  0.00000000000E+00 0. -1.
          4   -1    0    0  502    0 -0.00000000000E+00 -0.00000000000E+00 -0.11887308419E+04  0.11887308419E+04  0.00000000000E+00 0. -1.
         23    2    1    2    0    0 -0.12654339211E+03  0.12912149324E+03 -0.22731635945E+03  0.30277591509E+03  0.85527407225E+02 0.  0.
         23    2    1    2    0    0  0.14313100304E+02 -0.16886993853E+03 -0.62964725974E+03  0.65827743251E+03  0.90286131095E+02 0.  0.
        -13    1    3    3    0    0 -0.80743131694E+02  0.89248474995E+02 -0.20569349042E+03  0.23831608339E+03  0.00000000000E+00 0. -1.
         13    1    3    3    0    0 -0.45800260412E+02  0.39873018244E+02 -0.21622869032E+02  0.64459831700E+02  0.00000000000E+00 0.  1.
        -13    1    4    4    0    0 -0.32450338126E+02 -0.27541428260E+02 -0.16270298044E+03  0.16817792531E+03  0.00000000000E+00 0.  1.
         13    1    4    4    0    0  0.46763438430E+02 -0.14132851027E+03 -0.46694427930E+03  0.49009950720E+03  0.00000000000E+00 0. -1.
         21    1    1    2  503  501  0.22287090204E+02  0.18625561870E+02 -0.75012465907E+02  0.80439393248E+02  0.00000000000E+00 0. -1.
          4    1    1    2  501    0  0.89943201598E+02  0.21122883424E+02 -0.19143194053E+03  0.21256091733E+03  0.00000000000E+00 0. -1.
<scales pt_clust_5="13000.00000" pt_clust_6="13000.00000" pt_clust_7="13000.00000" pt_clust_8="13000.00000" pt_clust_9="29.04525" pt_clust_10="13000.00000"></scales>
<clustering>
<clus scale="   29.045">  1  9  2 -1</clus>
<clus scale="   85.527">  5  6 -1 -1</clus>
<clus scale="   90.286">  7  8 -1 -1</clus>
<clus scale="   96.795">  7 10 -1 -1</clus>
<clus scale="  199.515">  2  5  1 -1</clus>
<clus scale="   29.045">  1  5  2 -1</clus>
</clustering>
</event>
<event>
10    2  0.5692308E-006  0.7599623E+03  0.7546771E-02  0.1000166E+00
         21   -1    0    0  503  502  0.00000000000E+00  0.00000000000E+00  0.23784590325E+03  0.23784590325E+03  0.00000000000E+00 0.  1.
          2   -1    0    0  502    0 -0.00000000000E+00 -0.00000000000E+00 -0.14954563058E+04  0.14954563058E+04  0.00000000000E+00 0. -1.
         23    2    1    2    0    0  0.14114231686E+03 -0.12200667231E+03 -0.24995633592E+03  0.32506592811E+03  0.91558211298E+02 0.  0.
         23    2    1    2    0    0 -0.44136157153E+03 -0.13371538417E+03 -0.45714384938E+03  0.65623335724E+03  0.94772777413E+02 0.  0.
        -11    1    3    3    0    0  0.10387895506E+03 -0.10867710447E+03 -0.24169579072E+03  0.28463732291E+03  0.00000000000E+00 0. -1.
         11    1    3    3    0    0  0.37263361804E+02 -0.13329567840E+02 -0.82605451958E+01  0.40428605203E+02  0.00000000000E+00 0.  1.
        -13    1    4    4    0    0 -0.19633481318E+03 -0.92183512222E+02 -0.16400422847E+03  0.27192378665E+03  0.00000000000E+00 0. -1.
         13    1    4    4    0    0 -0.24502675836E+03 -0.41531871949E+02 -0.29313962092E+03  0.38430957059E+03  0.00000000000E+00 0.  1.
         21    1    1    2  503  501  0.10665283610E+03  0.62622403073E+02  0.14292709361E+02  0.12450170423E+03  0.00000000000E+00 0.  1.
          2    1    1    2  501    0  0.19356641857E+03  0.19309965341E+03 -0.56480292665E+03  0.62750121952E+03  0.00000000000E+00 0. -1.
<scales pt_clust_5="13000.00000" pt_clust_6="13000.00000" pt_clust_7="13000.00000" pt_clust_8="13000.00000" pt_clust_9="123.67859" pt_clust_10="13000.00000"></scales>
<clustering>
<clus scale="   91.558">  5  6 -1 -1</clus>
<clus scale="   94.773">  7  8 -1 -1</clus>
<clus scale="  123.679">  1  9  2 -1</clus>
<clus scale="  217.383">  2  5  1 -1</clus>
<clus scale="  344.236">  7 10 -1 -1</clus>
<clus scale="  123.679">  1  5  2 -1</clus>
</clustering>
</event>
<event>
10    2  0.5692308E-006  0.2151607E+03  0.7546771E-02  0.1143952E+00
         21   -1    0    0  501  502  0.00000000000E+00  0.00000000000E+00  0.39747750114E+02  0.39747750114E+02  0.00000000000E+00 0.  1.
          2   -1    0    0  503    0 -0.00000000000E+00 -0.00000000000E+00 -0.14001846044E+04  0.14001846044E+04  0.00000000000E+00 0. -1.
         23    2    1    2    0    0 -0.13685935050E+03  0.54185182829E+02 -0.41893736090E+03  0.45307666363E+03  0.90019080824E+02 0.  0.
         23    2    1    2    0    0  0.12471257405E+03 -0.87000167664E+01 -0.81370093198E+03  0.82799852499E+03  0.88563165382E+02 0.  0.
        -13    1    4    4    0    0  0.13707051600E+01 -0.24486263641E+02 -0.75088464061E+02  0.78991982978E+02  0.00000000000E+00 0.  1.
         13    1    4    4    0    0  0.12334186889E+03  0.15786246875E+02 -0.73861246792E+03  0.74900654201E+03  0.00000000000E+00 0. -1.
        -13    1    3    3    0    0 -0.49834238525E+02  0.55217220668E+02 -0.27492559705E+03  0.28480954461E+03  0.00000000000E+00 0. -1.
         13    1    3    3    0    0 -0.87025111977E+02 -0.10320378382E+01 -0.14401176384E+03  0.16826711901E+03  0.00000000000E+00 0.  1.
         21    1    1    2  503  502 -0.31167812589E+02 -0.15159487155E+02 -0.23359633580E+02  0.41796113137E+02  0.00000000000E+00 0.  1.
          2    1    1    2  501    0  0.43314589046E+02 -0.30325678908E+02 -0.10443892778E+03  0.11706105271E+03  0.00000000000E+00 0. -1.
<scales pt_clust_5="13000.00000" pt_clust_6="13000.00000" pt_clust_7="13000.00000" pt_clust_8="13000.00000" pt_clust_9="34.65895" pt_clust_10="13000.00000"></scales>
<clustering>
<clus scale="   34.659">  1  9  2 -1</clus>
<clus scale="   88.563">  5  6 -1 -1</clus>
<clus scale="   49.790">  5 10 -1 -1</clus>
<clus scale="   90.019">  7  8 -1 -1</clus>
<clus scale="  184.383">  2  7  1 -1</clus>
<clus scale="   34.659">  1  5  2 -1</clus>
</clustering>
</event>
<event>
10    2  0.5692308E-006  0.6296934E+03  0.7546771E-02  0.1028702E+00
         21   -1    0    0  501  502  0.00000000000E+00  0.00000000000E+00  0.23892112874E+03  0.23892112874E+03  0.00000000000E+00 0. -1.
          1   -1    0    0  503    0 -0.00000000000E+00 -0.00000000000E+00 -0.11252725742E+04  0.11252725742E+04  0.00000000000E+00 0. -1.
         23    2    1    2    0    0  0.11828438374E+03 -0.64316045652E+02 -0.24567557462E+03  0.29491094734E+03  0.92131589232E+02 0.  0.
         23    2    1    2    0    0 -0.25674528119E+02 -0.17675221350E+03 -0.66687124893E+03  0.69620563223E+03  0.89913810550E+02 0.  0.
        -11    1    3    3    0    0  0.17429772932E+02  0.19950795990E+02 -0.74711567879E+02  0.79269474705E+02  0.00000000000E+00 0.  1.
         11    1    3    3    0    0  0.10085461080E+03 -0.84266841642E+02 -0.17096400674E+03  0.21564147264E+03  0.00000000000E+00 0. -1.
        -13    1    4    4    0    0  0.19983907381E+02 -0.66811459641E+02 -0.14458200044E+03  0.16052128378E+03  0.00000000000E+00 0.  1.
         13    1    4    4    0    0 -0.45658435501E+02 -0.10994075386E+03 -0.52228924848E+03  0.53568434845E+03  0.00000000000E+00 0. -1.
         21    1    1    2  503  502 -0.36970878670E+02 -0.14067038304E+02  0.95107506688E+02  0.10300565647E+03  0.00000000000E+00 0.  1.
          1    1    1    2  501    0 -0.55638976947E+02  0.25513529746E+03 -0.68912128586E+02  0.27007146689E+03  0.00000000000E+00 0. -1.
<scales pt_clust_5="13000.00000" pt_clust_6="13000.00000" pt_clust_7="13000.00000" pt_clust_8="13000.00000" pt_clust_9="39.55664" pt_clust_10="13000.00000"></scales>
<clustering>
<clus scale="   39.557">  1  9  2 -1</clus>
<clus scale="   89.914">  7  8 -1 -1</clus>
<clus scale="   92.132">  5  6 -1 -1</clus>
<clus scale="  159.510">  2  5  1 -1</clus>
<clus scale="  239.581">  7 10 -1 -1</clus>
<clus scale="   39.557">  1  5  2 -1</clus>
</clustering>
</event>
<event>
10    2  0.5692308E-006  0.7100674E+03  0.7546771E-02  0.1027106E+00
         21   -1    0    0  503  502  0.00000000000E+00  0.00000000000E+00  0.14859465270E+04  0.14859465270E+04  0.00000000000E+00 0. -1.
          1   -1    0    0  502    0 -0.00000000000E+00 -0.00000000000E+00 -0.20170745619E+03  0.20170745619E+03  0.00000000000E+00 0. -1.
         23    2    1    2    0    0 -0.18086452436E+02  0.70249074498E+02  0.27833152954E+03  0.30179273264E+03  0.91369365266E+02 0.  0.
         23    2    1    2    0    0 -0.10743777191E+02 -0.36801935976E+03  0.48997977654E+02  0.38260054042E+03  0.91807918034E+02 0.  0.
        -13    1    3    3    0    0 -0.49230584954E+02  0.22808807130E+02  0.89932312896E+02  0.10503196218E+03  0.00000000000E+00 0. -1.
         13    1    3    3    0    0  0.31144132518E+02  0.47440267368E+02  0.18839921664E+03  0.19676077045E+03  0.00000000000E+00 0.  1.
        -13    1    4    4    0    0  0.32790681691E+02 -0.25856232150E+03  0.20710242665E+02  0.26145480883E+03  0.00000000000E+00 0. -1.
         13    1    4    4    0    0 -0.43534458882E+02 -0.10945703825E+03  0.28287734989E+02  0.12114573160E+03  0.00000000000E+00 0.  1.
         21    1    1    2  503  501  0.29929322312E+02  0.13272763276E+03  0.45538527958E+03  0.47527691054E+03  0.00000000000E+00 0. -1.
          1    1    1    2  501    0 -0.10990926849E+01  0.16504265250E+03  0.50152428408E+03  0.52798379963E+03  0.00000000000E+00 0. -1.
<scales pt_clust_5="13000.00000" pt_clust_6="13000.00000" pt_clust_7="13000.00000" pt_clust_8="13000.00000" pt_clust_9="139.45037" pt_clust_10="13000.00000"></scales>
<clustering>
<clus scale="   91.369">  5  6 -1 -1</clus>
<clus scale="   91.808">  7  8 -1 -1</clus>
<clus scale="  116.664">  2  5  1 -1</clus>
<clus scale="  139.450">  1  9  2 -1</clus>
<clus scale="  253.004">  7 10 -1 -1</clus>
<clus scale="  139.450">  1  5  2 -1</clus>
</clustering>
</event>
<event>
10    2  0.5692308E-006  0.1938847E+03  0.7546771E-02  0.1168164E+00
          1   -1    0    0  502    0 -0.00000000000E+00  0.00000000000E+00  0.64124298797E+03  0.64124298797E+03  0.00000000000E+00 0. -1.
         21   -1    0    0  503  502  0.00000000000E+00 -0.00000000000E+00 -0.11287268385E+03  0.11287268385E+03  0.00000000000E+00 0.  1.
         23    2    1    2    0    0 -0.19779283849E+02  0.12104577828E+03  0.44816712037E+03  0.47365940178E+03  0.91957384759E+02 0.  0.
         23    2    1    2    0    0 -0.20097976944E+02 -0.42753239275E+02  0.59680817644E+02  0.11786853302E+03  0.89996794032E+02 0.  0.
        -11    1    4    4    0    0  0.26581800944E+02  0.27307878543E+01 -0.36763114129E+01  0.26973405594E+02  0.00000000000E+00 0. -1.
         11    1    4    4    0    0 -0.46679777888E+02 -0.45484027130E+02  0.63357129057E+02  0.90895127426E+02  0.00000000000E+00 0.  1.
        -11    1    3    3    0    0 -0.46255158456E+02  0.76512741374E+02  0.36404386970E+03  0.37486221247E+03  0.00000000000E+00 0.  1.
         11    1    3    3    0    0  0.26475874607E+02  0.44533036911E+02  0.84123250667E+02  0.98797189310E+02  0.00000000000E+00 0. -1.
         21    1    1    2  503  501 -0.32296658298E+02 -0.76414228079E+02 -0.11229765230E+02  0.83715685610E+02  0.00000000000E+00 0.  1.
          1    1    1    2  501    0  0.72173919091E+02 -0.18783109308E+01  0.31752131334E+02  0.78872051407E+02  0.00000000000E+00 0. -1.
<scales pt_clust_5="13000.00000" pt_clust_6="13000.00000" pt_clust_7="13000.00000" pt_clust_8="13000.00000" pt_clust_9="82.95908" pt_clust_10="13000.00000"></scales>
<clustering>
<clus scale="   82.959">  2  9  1 -1</clus>
<clus scale="   89.997">  5  6 -1 -1</clus>
<clus scale="   67.303">  5 10 -1 -1</clus>
<clus scale="   91.957">  7  8 -1 -1</clus>
<clus scale="  142.844">  1  7  2 -1</clus>
<clus scale="   82.959">  2  5  1 -1</clus>
</clustering>
</event>
<event>
10    2  0.5692308E-006  0.2063233E+03  0.7546771E-02  0.1163666E+00
          2   -1    0    0  503    0 -0.00000000000E+00  0.00000000000E+00  0.83156295729E+03  0.83156295729E+03  0.00000000000E+00 0. -1.
         21   -1    0    0  501  502  0.00000000000E+00 -0.00000000000E+00 -0.10155862998E+03  0.10155862998E+03  0.00000000000E+00 0. -1.
         23    2    1    2    0    0  0.82238321995E+02 -0.41024926564E+01  0.13226227458E+03  0.17960105182E+03  0.89349070996E+02 0.  0.
         23    2    1    2    0    0  0.14051132837E+02  0.89538066934E+01  0.29112191291E+03  0.30507860285E+03  0.89684897019E+02 0.  0.
        -13    1    4    4    0    0 -0.33056458785E+02  0.80571741440E+01  0.19595508812E+03  0.19888701336E+03  0.00000000000E+00 0.  1.
         13    1    4    4    0    0  0.47107591623E+02  0.89663254939E+00  0.95166824789E+02  0.10619158949E+03  0.00000000000E+00 0. -1.
        -13    1    3    3    0    0  0.19400203900E+01 -0.35263763959E+02  0.40922999392E+02  0.54055421624E+02  0.00000000000E+00 0.  1.
         13    1    3    3    0    0  0.80298301605E+02  0.31161271303E+02  0.91339275191E+02  0.12554563020E+03  0.00000000000E+00 0. -1.
         21    1    1    2  503  502  0.23570352240E+02 -0.68887476424E+01 -0.58874428702E+02  0.63790396642E+02  0.00000000000E+00 0. -1.
          2    1    1    2  501    0 -0.11985980707E+03  0.20374336054E+01  0.36549456852E+03  0.38465153595E+03  0.00000000000E+00 0. -1.
<scales pt_clust_5="13000.00000" pt_clust_6="13000.00000" pt_clust_7="13000.00000" pt_clust_8="13000.00000" pt_clust_9="24.55639" pt_clust_10="13000.00000"></scales>
<clustering>
<clus scale="   24.556">  2  9  1 -1</clus>
<clus scale="   89.349">  7  8 -1 -1</clus>
<clus scale="   89.685">  5  6 -1 -1</clus>
<clus scale="  114.248">  5 10 -1 -1</clus>
<clus scale="  131.478">  1  7  2 -1</clus>
<clus scale="   24.556">  2  5  1 -1</clus>
</clustering>
</event>
<event>
10    2  0.8671875E-006  0.4276704E+03  0.7546771E-02  0.1073974E+00
         21   -1    0    0  503  502  0.00000000000E+00  0.00000000000E+00  0.54732393220E+03  0.54732393220E+03  0.00000000000E+00 0. -1.
         -1   -1    0    0    0  501 -0.00000000000E+00 -0.00000000000E+00 -0.33214449827E+03  0.33214449827E+03  0.00000000000E+00 0.  1.
         23    2    1    2    0    0 -0.95135234026E+02  0.49346538608E+02  0.36906430989E+03  0.39587432752E+03  0.94985392177E+02 0.  0.
         23    2    1    2    0    0  0.77201223315E+02 -0.48166764099E+02 -0.29874093985E+03  0.32536306695E+03  0.91295729077E+02 0.  0.
        -13    1    3    3    0    0 -0.30196944964E+02 -0.24860504611E+02  0.16015067229E+03  0.16485793281E+03  0.00000000000E+00 0. -1.
         13    1    3    3    0    0 -0.64938289062E+02  0.74207043219E+02  0.20891363760E+03  0.23101639471E+03  0.00000000000E+00 0.  1.
        -13    1    4    4    0    0 -0.17886825463E+02 -0.24899791350E+02 -0.81851437494E+02  0.87404782216E+02  0.00000000000E+00 0. -1.
         13    1    4    4    0    0  0.95088048778E+02 -0.23266972749E+02 -0.21688950236E+03  0.23795828474E+03  0.00000000000E+00 0.  1.
         21    1    1    2  503  501 -0.27778691579E+01 -0.19815781965E+02  0.13948831082E+02  0.24391630952E+02  0.00000000000E+00 0.  1.
         -1    1    1    2    0  502  0.20711879869E+02  0.18636007455E+02  0.13090723281E+03  0.13383940505E+03  0.00000000000E+00 0.  1.
<scales pt_clust_5="13000.00000" pt_clust_6="13000.00000" pt_clust_7="13000.00000" pt_clust_8="13000.00000" pt_clust_9="20.00954" pt_clust_10="13000.00000"></scales>
<clustering>
<clus scale="   20.010">  1  9  2 -1</clus>
<clus scale="   91.296">  7  8 -1 -1</clus>
<clus scale="   24.238">  7 10 -1 -1</clus>
<clus scale="   94.985">  5  6 -1 -1</clus>
<clus scale="  140.302">  2  5  1 -1</clus>
<clus scale="   20.010">  1  5  2 -1</clus>
</clustering>
</event>
<event>
10    2  0.5692308E-006  0.1877855E+03  0.7546771E-02  0.1167813E+00
         -1   -1    0    0    0  501 -0.00000000000E+00  0.00000000000E+00  0.70824781438E+03  0.70824781438E+03  0.00000000000E+00 0.  1.
         21   -1    0    0  501  502  0.00000000000E+00 -0.00000000000E+00 -0.49527430898E+02  0.49527430898E+02  0.00000000000E+00 0. -1.
         23    2    1    2    0    0 -0.93031997035E+02 -0.73563205632E+02  0.25842679070E+03  0.29862690550E+03  0.91253081287E+02 0.  0.
         23    2    1    2    0    0  0.91774330981E+02  0.72832391778E+02  0.36663749948E+03  0.39532469338E+03  0.90174675236E+02 0.  0.
        -11    1    4    4    0    0  0.88995790650E+02  0.20682179461E+02  0.27585564930E+03  0.29059308758E+03  0.00000000000E+00 0.  1.
         11    1    4    4    0    0  0.27785403317E+01  0.52150212317E+02  0.90781850176E+02  0.10473160580E+03  0.00000000000E+00 0. -1.
        -13    1    3    3    0    0  0.31013462797E+01 -0.27613797289E+02  0.12224747552E+02  0.30357611931E+02  0.00000000000E+00 0.  1.
         13    1    3    3    0    0 -0.96133343315E+02 -0.45949408343E+02  0.24620204314E+03  0.26826929357E+03  0.00000000000E+00 0. -1.
         21    1    1    2  503  502 -0.22879566644E+02 -0.10184129461E+02  0.26331579564E+02  0.36339278268E+02  0.00000000000E+00 0.  1.
         -1    1    1    2    0  503  0.24137232698E+02  0.10914943315E+02  0.73245137465E+01  0.27484368130E+02  0.00000000000E+00 0.  1.
<scales pt_clust_5="13000.00000" pt_clust_6="13000.00000" pt_clust_7="13000.00000" pt_clust_8="13000.00000" pt_clust_9="25.04378" pt_clust_10="13000.00000"></scales>
<clustering>
<clus scale="   25.044">  2  9  1 -1</clus>
<clus scale="   90.175">  5  6 -1 -1</clus>
<clus scale="   20.821">  5 10 -1 -1</clus>
<clus scale="   91.253">  7  8 -1 -1</clus>
<clus scale="  158.492">  1  7  2 -1</clus>
<clus scale="   25.044">  2  5  1 -1</clus>
</clustering>
</event>
<event>
10    2  0.5692308E-006  0.1259446E+03  0.7546771E-02  0.1246005E+00
          1   -1    0    0  503    0 -0.00000000000E+00  0.00000000000E+00  0.32543039413E+03  0.32543039413E+03  0.00000000000E+00 0. -1.
         21   -1    0    0  501  502  0.00000000000E+00 -0.00000000000E+00 -0.32844340832E+03  0.32844340832E+03  0.00000000000E+00 0. -1.
         23    2    1    2    0    0  0.14535425437E+02  0.24618364621E+02  0.16614194273E+03  0.19157087787E+03  0.90988535791E+02 0.  0.
         23    2    1    2    0    0 -0.25749323476E+02 -0.26954495343E+01  0.98763138266E+02  0.13659760436E+03  0.90743897470E+02 0.  0.
        -13    1    3    3    0    0 -0.46314602238E+01  0.41069302825E+02  0.16043836705E+03  0.16567621338E+03  0.00000000000E+00 0. -1.
         13    1    3    3    0    0  0.19166885661E+02 -0.16450938204E+02  0.57035756828E+01  0.25894664495E+02  0.00000000000E+00 0.  1.
        -13    1    4    4    0    0 -0.36982383709E+02  0.34487200768E+02  0.33523292254E+02  0.60670213822E+02  0.00000000000E+00 0. -1.
         13    1    4    4    0    0  0.11233060233E+02 -0.37182650303E+02  0.65239846012E+02  0.75927390535E+02  0.00000000000E+00 0.  1.
         21    1    1    2  503  502  0.35571862676E+02  0.51587521878E+01 -0.28372956359E+03  0.28599726466E+03  0.00000000000E+00 0. -1.
          1    1    1    2  501    0 -0.24357964638E+02 -0.27081667274E+02  0.15811468400E+02  0.39708055563E+02  0.00000000000E+00 0. -1.
<scales pt_clust_5="13000.00000" pt_clust_6="13000.00000" pt_clust_7="13000.00000" pt_clust_8="13000.00000" pt_clust_9="35.94399" pt_clust_10="13000.00000"></scales>
<clustering>
<clus scale="   35.944">  2  9  1 -1</clus>
<clus scale="   90.744">  7  8 -1 -1</clus>
<clus scale="   29.532">  7 10 -1 -1</clus>
<clus scale="   90.989">  5  6 -1 -1</clus>
<clus scale="   97.888">  1  5  2 -1</clus>
<clus scale="   35.944">  2  5  1 -1</clus>
</clustering>
</event>
<event>
10    2  0.5692308E-006  0.3441302E+03  0.7546771E-02  0.1105933E+00
         21   -1    0    0  501  502  0.00000000000E+00  0.00000000000E+00  0.67434489287E+03  0.67434489287E+03  0.00000000000E+00 0.  1.
         -2   -1    0    0    0  501 -0.00000000000E+00 -0.00000000000E+00 -0.12890101762E+03  0.12890101762E+03  0.00000000000E+00 0.  1.
         23    2    1    2    0    0  0.82913108804E+01 -0.68722430070E+02 -0.29420378641E+02  0.11854859527E+03  0.91633468398E+02 0.  0.
         23    2    1    2    0    0 -0.12091084026E+03  0.15126755615E+03  0.32216964269E+03  0.38645146255E+03  0.89722624790E+02 0.  0.
        -11    1    4    4    0    0 -0.53937146313E+02  0.30002858204E+02  0.16905684898E+03  0.17997112390E+03  0.00000000000E+00 0. -1.
         11    1    4    4    0    0 -0.66973693948E+02  0.12126469794E+03  0.15311279371E+03  0.20648033864E+03  0.00000000000E+00 0.  1.
        -13    1    3    3    0    0  0.83285207978E+01  0.19730296989E+02  0.75116887655E+01  0.22695249416E+02  0.00000000000E+00 0. -1.
         13    1    3    3    0    0 -0.37209917370E-01 -0.88452727059E+02 -0.36932067406E+02  0.95853345855E+02  0.00000000000E+00 0.  1.
         21    1    1    2  503  502 -0.68997876181E+01 -0.20744259432E+02  0.20989867294E+02  0.30306862219E+02  0.00000000000E+00 0.  1.
         -2    1    1    2    0  503  0.11951931700E+03 -0.61800866647E+02  0.23170474391E+03  0.26793899046E+03  0.00000000000E+00 0.  1.
<scales pt_clust_5="13000.00000" pt_clust_6="13000.00000" pt_clust_7="13000.00000" pt_clust_8="13000.00000" pt_clust_9="21.86164" pt_clust_10="13000.00000"></scales>
<clustering>
<clus scale="   21.862">  1  9  2 -1</clus>
<clus scale="   89.723">  5  6 -1 -1</clus>
<clus scale="   91.633">  7  8 -1 -1</clus>
<clus scale="  115.665">  2  7  1 -1</clus>
<clus scale="  154.397">  5 10 -1 -1</clus>
<clus scale="   21.862">  1  5  2 -1</clus>
</clustering>
</event>
<event>
10    2  0.5692308E-006  0.3824593E+03  0.7546771E-02  0.1093942E+00
         21   -1    0    0  501  502  0.00000000000E+00  0.00000000000E+00  0.76634005792E+03  0.76634005792E+03  0.00000000000E+00 0.  1.
         -3   -1    0    0    0  501 -0.00000000000E+00 -0.00000000000E+00 -0.24241936436E+03  0.24241936436E+03  0.00000000000E+00 0.  1.
         23    2    1    2    0    0  0.58132823835E+02  0.38586242183E+02 -0.12808351305E+03  0.17179109871E+03  0.90766028822E+02 0.  0.
         23    2    1    2    0    0 -0.19986768944E+03  0.76332667525E+02  0.10113960746E+03  0.25448037077E+03  0.93580283677E+02 0.  0.
        -11    1    3    3    0    0  0.37379848031E+02  0.10597553168E+02 -0.13117778263E+03  0.13681071532E+03  0.00000000000E+00 0.  1.
         11    1    3    3    0    0  0.20752975804E+02  0.27988689015E+02  0.30942695820E+01  0.34980383385E+02  0.00000000000E+00 0. -1.
        -13    1    4    4    0    0 -0.87338943840E+02  0.79234527193E+02  0.31296029913E+02  0.12200673301E+03  0.00000000000E+00 0.  1.
         13    1    4    4    0    0 -0.11252874560E+03 -0.29018596678E+01  0.69843577550E+02  0.13247363776E+03  0.00000000000E+00 0. -1.
         21    1    1    2  503  502  0.53926354317E+02 -0.51557670125E+02  0.30214222602E+03  0.31121723889E+03  0.00000000000E+00 0.  1.
         -3    1    1    2    0  503  0.87808511290E+02 -0.63361239584E+02  0.24872237313E+03  0.27127071392E+03  0.00000000000E+00 0.  1.
<scales pt_clust_5="13000.00000" pt_clust_6="13000.00000" pt_clust_7="13000.00000" pt_clust_8="13000.00000" pt_clust_9="74.60727" pt_clust_10="13000.00000"></scales>
<clustering>
<clus scale="   74.607">  1  9  2 -1</clus>
<clus scale="   90.766">  5  6 -1 -1</clus>
<clus scale="   93.580">  7  8 -1 -1</clus>
<clus scale="  115.014">  2  5  1 -1</clus>
<clus scale="  158.807">  7 10 -1 -1</clus>
<clus scale="   74.607">  1  5  2 -1</clus>
</clustering>
</event>
<event>
10    2  0.5692308E-006  0.2518082E+03  0.7546771E-02  0.1152105E+00
          2   -1    0    0  503    0 -0.00000000000E+00  0.00000000000E+00  0.58498393236E+03  0.58498393236E+03  0.00000000000E+00 0. -1.
         21   -1    0    0  501  502  0.00000000000E+00 -0.00000000000E+00 -0.11256587036E+03  0.11256587036E+03  0.00000000000E+00 0. -1.
         23    2    1    2    0    0  0.17808607236E+02 -0.14397405505E+02  0.91138940251E+02  0.13147162085E+03  0.91945901927E+02 0.  0.
         23    2    1    2    0    0 -0.34232265886E+02 -0.18168279293E+02  0.37859846896E+02  0.10683542726E+03  0.92078803805E+02 0.  0.
        -11    1    4    4    0    0 -0.39524052610E+02 -0.48961704971E+02  0.76723259012E+01  0.63389777355E+02  0.00000000000E+00 0. -1.
         11    1    4    4    0    0  0.52917867237E+01  0.30793425678E+02  0.30187520995E+02  0.43445649903E+02  0.00000000000E+00 0.  1.
        -13    1    3    3    0    0  0.28052129609E+02 -0.48006844218E+02  0.36504447480E+02  0.66514312394E+02  0.00000000000E+00 0.  1.
         13    1    3    3    0    0 -0.10243522373E+02  0.33609438713E+02  0.54634492772E+02  0.64957308454E+02  0.00000000000E+00 0. -1.
         21    1    1    2  503  502  0.10930243134E+03 -0.91148388324E+02  0.21676282576E+03  0.25930902958E+03  0.00000000000E+00 0. -1.
          2    1    1    2  501    0 -0.92878772694E+02  0.12371407312E+03  0.12665644909E+03  0.19993372503E+03  0.00000000000E+00 0. -1.
<scales pt_clust_5="13000.00000" pt_clust_6="13000.00000" pt_clust_7="13000.00000" pt_clust_8="13000.00000" pt_clust_9="153.82717" pt_clust_10="13000.00000"></scales>
<clustering>
<clus scale="   91.946">  7  8 -1 -1</clus>
<clus scale="   92.079">  5  6 -1 -1</clus>
<clus scale="   94.755">  1  7  2 -1</clus>
<clus scale="  147.056">  5 10 -1 -1</clus>
<clus scale="  153.827">  2  9  1 -1</clus>
<clus scale="  153.827">  2  5  1 -1</clus>
</clustering>
</event>
<event>
10    2  0.5692308E-006  0.1909642E+03  0.7546771E-02  0.1190420E+00
         21   -1    0    0  501  502  0.00000000000E+00  0.00000000000E+00  0.52974085171E+03  0.52974085171E+03  0.00000000000E+00 0. -1.
          2   -1    0    0  503    0 -0.00000000000E+00 -0.00000000000E+00 -0.60708677947E+03  0.60708677947E+03  0.00000000000E+00 0. -1.
         23    2    1    2    0    0 -0.13178741668E+02 -0.24063856438E+01 -0.26031297054E+03  0.27562529015E+03  0.89593459680E+02 0.  0.
         23    2    1    2    0    0 -0.11236493845E+03  0.25101038818E+02 -0.24603255342E+03  0.28509664230E+03  0.86557128927E+02 0.  0.
        -11    1    3    3    0    0 -0.41626685737E+02 -0.27134218280E+02 -0.11075769998E+03  0.12139322416E+03  0.00000000000E+00 0.  1.
         11    1    3    3    0    0  0.28447944069E+02  0.24727832636E+02 -0.14955527055E+03  0.15423206599E+03  0.00000000000E+00 0. -1.
        -13    1    4    4    0    0 -0.31183519674E+02 -0.15236456388E+02 -0.14613632097E+03  0.15020115116E+03  0.00000000000E+00 0. -1.
         13    1    4    4    0    0 -0.81181418771E+02  0.40337495207E+02 -0.99896232449E+02  0.13489549114E+03  0.00000000000E+00 0.  1.
         21    1    1    2  503  502  0.11500641856E+03 -0.61322826753E+02  0.48783108188E+03  0.50494170935E+03  0.00000000000E+00 0. -1.
          2    1    1    2  501    0  0.10537261552E+02  0.38628173578E+02 -0.58831485684E+02  0.71163989369E+02  0.00000000000E+00 0. -1.
<scales pt_clust_5="13000.00000" pt_clust_6="13000.00000" pt_clust_7="13000.00000" pt_clust_8="13000.00000" pt_clust_9="130.06941" pt_clust_10="13000.00000"></scales>
<clustering>
<clus scale="   86.557">  7  8 -1 -1</clus>
<clus scale="   40.040">  7 10 -1 -1</clus>
<clus scale="   89.593">  5  6 -1 -1</clus>
<clus scale="   90.590">  2  5  1 -1</clus>
<clus scale="  130.069">  1  9  2 -1</clus>
<clus scale="  130.069">  1  5  2 -1</clus>
</clustering>
</event>
<event>
10    2  0.5692308E-006  0.6876615E+03  0.7546771E-02  0.9903808E-01
          1   -1    0    0  503    0 -0.00000000000E+00  0.00000000000E+00  0.58728397698E+03  0.58728397698E+03  0.00000000000E+00 0. -1.
         21   -1    0    0  501  502  0.00000000000E+00 -0.00000000000E+00 -0.10061625849E+04  0.10061625849E+04  0.00000000000E+00 0. -1.
         23    2    1    2    0    0  0.37237473267E+03  0.12747731948E+01  0.13124299932E+03  0.40541536621E+03  0.92045248185E+02 0.  0.
         23    2    1    2    0    0 -0.82676765649E+01 -0.12778842139E+03  0.56070935071E+02  0.17858285621E+03  0.11112898656E+03 0.  0.
        -11    1    3    3    0    0  0.30896315859E+03  0.36041515042E+02  0.10120497024E+03  0.32710804052E+03  0.00000000000E+00 0.  1.
         11    1    3    3    0    0  0.63411574077E+02 -0.34766741847E+02  0.30038029078E+02  0.78307325689E+02  0.00000000000E+00 0. -1.
        -11    1    4    4    0    0 -0.55427302521E+02 -0.38329140642E+02  0.32140877402E+02  0.74661535527E+02  0.00000000000E+00 0.  1.
         11    1    4    4    0    0  0.47159625956E+02 -0.89459280746E+02  0.23930057669E+02  0.10392132068E+03  0.00000000000E+00 0. -1.
         21    1    1    2  503  502  0.10190372805E+03  0.22176746957E+03 -0.66583106338E+01  0.24415059585E+03  0.00000000000E+00 0. -1.
          1    1    1    2  501    0 -0.46601078415E+03 -0.95253821381E+02 -0.59953423171E+03  0.76529774365E+03  0.00000000000E+00 0. -1.
<scales pt_clust_5="13000.00000" pt_clust_6="13000.00000" pt_clust_7="13000.00000" pt_clust_8="13000.00000" pt_clust_9="244.05991" pt_clust_10="13000.00000"></scales>
<clustering>
<clus scale="   92.045">  5  6 -1 -1</clus>
<clus scale="  111.129">  7  8 -1 -1</clus>
<clus scale="  244.060">  2  9  1 -1</clus>
<clus scale="  394.557">  7 10 -1 -1</clus>
<clus scale="  400.600">  1  5  2 -1</clus>
<clus scale="  244.060">  2  5  1 -1</clus>
</clustering>
</event>
<event>
10    2  0.5692308E-006  0.1593871E+03  0.7546771E-02  0.1211689E+00
          1   -1    0    0  503    0 -0.00000000000E+00  0.00000000000E+00  0.10934207376E+03  0.10934207376E+03  0.00000000000E+00 0. -1.
         21   -1    0    0  501  502  0.00000000000E+00 -0.00000000000E+00 -0.28954819775E+03  0.28954819775E+03  0.00000000000E+00 0.  1.
         23    2    1    2    0    0 -0.44553627226E+02  0.12399001990E+01 -0.56692737432E+02  0.11663468152E+03  0.91667984614E+02 0.  0.
         23    2    1    2    0    0  0.46384586438E+02  0.10446148659E+02 -0.20571571330E+02  0.10536866774E+03  0.91753554229E+02 0.  0.
        -13    1    3    3    0    0 -0.43974445964E+02 -0.40737733343E+02 -0.32872158886E+02  0.68365880713E+02  0.00000000000E+00 0.  1.
         13    1    3    3    0    0 -0.57918126201E+00  0.41977633542E+02 -0.23820578546E+02  0.48268800803E+02  0.00000000000E+00 0. -1.
        -13    1    4    4    0    0  0.34524814670E+02 -0.27216572274E+02 -0.41692817202E+02  0.60588741863E+02  0.00000000000E+00 0.  1.
         13    1    4    4    0    0  0.11859771768E+02  0.37662720933E+02  0.21121245872E+02  0.44779925878E+02  0.00000000000E+00 0. -1.
         21    1    1    2  503  502  0.41104079749E+02 -0.55419729975E+02 -0.91404647286E+02  0.11452380271E+03  0.00000000000E+00 0.  1.
          1    1    1    2  501    0 -0.42935038961E+02  0.43733681117E+02 -0.11537167942E+02  0.62363119540E+02  0.00000000000E+00 0. -1.
<scales pt_clust_5="13000.00000" pt_clust_6="13000.00000" pt_clust_7="13000.00000" pt_clust_8="13000.00000" pt_clust_9="68.99922" pt_clust_10="13000.00000"></scales>
<clustering>
<clus scale="   68.999">  2  9  1 -1</clus>
<clus scale="   91.668">  5  6 -1 -1</clus>
<clus scale="   91.754">  7  8 -1 -1</clus>
<clus scale="   47.789">  7 10 -1 -1</clus>
<clus scale="   98.243">  1  5  2 -1</clus>
<clus scale="   68.999">  2  5  1 -1</clus>
</clustering>
</event>
<event>
10    2  0.5692308E-006  0.1865874E+03  0.7546771E-02  0.1188820E+00
         -2   -1    0    0    0  501 -0.00000000000E+00  0.00000000000E+00  0.22758669377E+03  0.22758669377E+03  0.00000000000E+00 0.  1.
         21   -1    0    0  501  502  0.00000000000E+00 -0.00000000000E+00 -0.27907632952E+03  0.27907632952E+03  0.00000000000E+00 0.  1.
         23    2    1    2    0    0  0.18592924338E+02 -0.21063144878E+02 -0.80540488977E+02  0.12638146558E+03  0.93253158495E+02 0.  0.
         23    2    1    2    0    0 -0.67109345902E+02 -0.33818088248E+02  0.17355677567E+03  0.21087912763E+03  0.93277675190E+02 0.  0.
        -13    1    4    4    0    0 -0.54109322830E+02 -0.59676659873E+02  0.15953455353E+03  0.17871876321E+03  0.00000000000E+00 0.  1.
         13    1    4    4    0    0 -0.13000023072E+02  0.25858571625E+02  0.14022222140E+02  0.32160364428E+02  0.00000000000E+00 0. -1.
        -13    1    3    3    0    0  0.44404998058E+02  0.18103816229E+02 -0.55006946229E+02  0.72974763776E+02  0.00000000000E+00 0. -1.
         13    1    3    3    0    0 -0.25812073721E+02 -0.39166961107E+02 -0.25533542747E+02  0.53406701802E+02  0.00000000000E+00 0.  1.
         21    1    1    2  503  502  0.22921255811E+02  0.52406491134E+02 -0.12384359263E+03  0.13641502746E+03  0.00000000000E+00 0.  1.
         -2    1    1    2    0  503  0.25595165754E+02  0.24747419918E+01 -0.20662329816E+02  0.32987402616E+02  0.00000000000E+00 0.  1.
<scales pt_clust_5="13000.00000" pt_clust_6="13000.00000" pt_clust_7="13000.00000" pt_clust_8="13000.00000" pt_clust_9="57.19986" pt_clust_10="13000.00000"></scales>
<clustering>
<clus scale="   57.200">  2  9  1 -1</clus>
<clus scale="   93.253">  7  8 -1 -1</clus>
<clus scale="   93.278">  5  6 -1 -1</clus>
<clus scale="   32.022">  5 10 -1 -1</clus>
<clus scale="  100.612">  1  7  2 -1</clus>
<clus scale="   57.200">  2  5  1 -1</clus>
</clustering>
</event>
<event>
10    2  0.5692308E-006  0.3553817E+03  0.7546771E-02  0.1092086E+00
         21   -1    0    0  503  502  0.00000000000E+00  0.00000000000E+00  0.32549488079E+03  0.32549488079E+03  0.00000000000E+00 0.  1.
         -3   -1    0    0    0  501 -0.00000000000E+00 -0.00000000000E+00 -0.33411658446E+03  0.33411658446E+03  0.00000000000E+00 0.  1.
         23    2    1    2    0    0 -0.11925388822E+03 -0.49477071960E+01 -0.18274471880E+03  0.23754172640E+03  0.93725502762E+02 0.  0.
         23    2    1    2    0    0  0.18137761765E+03  0.10953632324E+03  0.69677410930E+02  0.24266829309E+03  0.95587198846E+02 0.  0.
        -11    1    3    3    0    0 -0.27145070888E+02  0.25999487668E+02 -0.10975498127E+03  0.11601286198E+03  0.00000000000E+00 0. -1.
         11    1    3    3    0    0 -0.92108817336E+02 -0.30947194864E+02 -0.72989737534E+02  0.12152886442E+03  0.00000000000E+00 0.  1.
        -11    1    4    4    0    0  0.14083314780E+03  0.11076584404E+03  0.22705737987E+02  0.18060619663E+03  0.00000000000E+00 0.  1.
         11    1    4    4    0    0  0.40544469855E+02 -0.12295208067E+01  0.46971672943E+02  0.62062096454E+02  0.00000000000E+00 0. -1.
         21    1    1    2  503  501  0.17365334006E+02 -0.19932010403E+02  0.35802911604E+02  0.44504924931E+02  0.00000000000E+00 0.  1.
         -3    1    1    2    0  502 -0.79489063433E+02 -0.84656605639E+02  0.68642692604E+02  0.13489652083E+03  0.00000000000E+00 0.  1.
<scales pt_clust_5="13000.00000" pt_clust_6="13000.00000" pt_clust_7="13000.00000" pt_clust_8="13000.00000" pt_clust_9="26.43558" pt_clust_10="13000.00000"></scales>
<clustering>
<clus scale="   26.436">  1  9  2 -1</clus>
<clus scale="   93.726">  5  6 -1 -1</clus>
<clus scale="   95.587">  7  8 -1 -1</clus>
<clus scale="  117.444">  7 10 -1 -1</clus>
<clus scale="  150.526">  2  5  1 -1</clus>
<clus scale="   26.436">  1  5  2 -1</clus>
</clustering>
</event>
<event>
10    2  0.5692308E-006  0.2153031E+03  0.7546771E-02  0.1172125E+00
          1   -1    0    0  503    0 -0.00000000000E+00  0.00000000000E+00  0.80726277775E+03  0.80726277775E+03  0.00000000000E+00 0. -1.
         21   -1    0    0  501  502  0.00000000000E+00 -0.00000000000E+00 -0.40880015444E+02  0.40880015444E+02  0.00000000000E+00 0. -1.
         23    2    1    2    0    0 -0.22678033723E+01  0.28495079160E+02  0.32076586478E+03  0.33487853315E+03  0.91846499587E+02 0.  0.
         23    2    1    2    0    0  0.93081655541E+02 -0.29063253215E+02  0.23955284831E+03  0.27416841249E+03  0.90960892623E+02 0.  0.
        -11    1    4    4    0    0  0.96461633161E+02  0.25704017397E+01  0.20833047625E+03  0.22959320759E+03  0.00000000000E+00 0. -1.
         11    1    4    4    0    0 -0.33799776195E+01 -0.31633654955E+02  0.31222372057E+02  0.44575204894E+02  0.00000000000E+00 0.  1.
        -11    1    3    3    0    0  0.44691393653E+02  0.11715501827E+02  0.14580394400E+03  0.15294889256E+03  0.00000000000E+00 0. -1.
         11    1    3    3    0    0 -0.46959197026E+02  0.16779577333E+02  0.17496192078E+03  0.18192964059E+03  0.00000000000E+00 0.  1.
         21    1    1    2  503  502 -0.13931290386E+02 -0.16735301106E+02  0.39084754762E+01  0.22123004667E+02  0.00000000000E+00 0. -1.
          1    1    1    2  501    0 -0.76882561783E+02  0.17303475161E+02  0.20215557374E+03  0.21697284289E+03  0.00000000000E+00 0. -1.
<scales pt_clust_5="13000.00000" pt_clust_6="13000.00000" pt_clust_7="13000.00000" pt_clust_8="13000.00000" pt_clust_9="21.77501" pt_clust_10="13000.00000"></scales>
<clustering>
<clus scale="   21.775">  2  9  1 -1</clus>
<clus scale="   90.961">  5  6 -1 -1</clus>
<clus scale="   81.244">  5 10 -1 -1</clus>
<clus scale="   91.846">  7  8 -1 -1</clus>
<clus scale="   95.281">  1  7  2 -1</clus>
<clus scale="   21.775">  2  5  1 -1</clus>
</clustering>
</event>
<event>
10    2  0.5692308E-006  0.1641658E+03  0.7546771E-02  0.1210105E+00
         21   -1    0    0  503  502  0.00000000000E+00  0.00000000000E+00  0.67928660259E+03  0.67928660259E+03  0.00000000000E+00 0. -1.
          1   -1    0    0  502    0 -0.00000000000E+00 -0.00000000000E+00 -0.25017211490E+03  0.25017211490E+03  0.00000000000E+00 0. -1.
         23    2    1    2    0    0  0.45495921104E+02  0.11327804299E+02 -0.31113095492E+02  0.10455958925E+03  0.88127663107E+02 0.  0.
         23    2    1    2    0    0 -0.12481917344E+01  0.86348327478E+02 -0.12280605319E+03  0.18158748308E+03  0.10215231603E+03 0.  0.
        -11    1    3    3    0    0  0.83495284255E+01  0.43756314765E+02 -0.32643225831E+02  0.55225989347E+02  0.00000000000E+00 0. -1.
         11    1    3    3    0    0  0.37146392679E+02 -0.32428510466E+02  0.15301303383E+01  0.49333599899E+02  0.00000000000E+00 0.  1.
        -11    1    4    4    0    0 -0.27043613225E+02  0.53725498011E+02 -0.95048280689E+01  0.60894399656E+02  0.00000000000E+00 0.  1.
         11    1    4    4    0    0  0.25795421491E+02  0.32622829467E+02 -0.11330122512E+03  0.12069308342E+03  0.00000000000E+00 0. -1.
         21    1    1    2  503  501 -0.47518873223E+02 -0.63555115414E+02  0.59988844944E+03  0.60511440883E+03  0.00000000000E+00 0. -1.
          1    1    1    2  501    0  0.32711438533E+01 -0.34121016363E+02 -0.16854813068E+02  0.38197236331E+02  0.00000000000E+00 0. -1.
<scales pt_clust_5="13000.00000" pt_clust_6="13000.00000" pt_clust_7="13000.00000" pt_clust_8="13000.00000" pt_clust_9="79.35550" pt_clust_10="13000.00000"></scales>
<clustering>
<clus scale="   79.356">  1  9  2 -1</clus>
<clus scale="   88.128">  5  6 -1 -1</clus>
<clus scale="   92.998">  2  5  1 -1</clus>
<clus scale="  102.152">  7  8 -1 -1</clus>
<clus scale="   48.054">  7 10 -1 -1</clus>
<clus scale="   79.356">  1  5  2 -1</clus>
</clustering>
</event>
<event>
10    2  0.5692308E-006  0.5071394E+03  0.7546771E-02  0.1065073E+00
          1   -1    0    0  503    0 -0.00000000000E+00  0.00000000000E+00  0.13484060097E+04  0.13484060097E+04  0.00000000000E+00 0. -1.
         21   -1    0    0  501  502  0.00000000000E+00 -0.00000000000E+00 -0.19051788318E+03  0.19051788318E+03  0.00000000000E+00 0. -1.
         23    2    1    2    0    0  0.55363572614E+02 -0.46051610716E+01  0.26211741486E+02  0.11060880411E+03  0.91983256488E+02 0.  0.
         23    2    1    2    0    0 -0.75198074795E+02  0.15616850588E+03  0.11655834314E+04  0.11825196863E+04  0.98613995803E+02 0.  0.
        -13    1    4    4    0    0 -0.98977112846E+02  0.11423104361E+03  0.89626674118E+03  0.90892203821E+03  0.00000000000E+00 0. -1.
         13    1    4    4    0    0  0.23779038051E+02  0.41937462267E+02  0.26931669025E+03  0.27359764809E+03  0.00000000000E+00 0.  1.
        -13    1    3    3    0    0  0.68028857711E+02  0.24876456741E+02  0.59910596618E+01  0.72681884795E+02  0.00000000000E+00 0.  1.
         13    1    3    3    0    0 -0.12665285097E+02 -0.29481617812E+02  0.20220681824E+02  0.37926919317E+02  0.00000000000E+00 0. -1.
         21    1    1    2  503  502  0.96915049315E+02 -0.70789417183E+02 -0.55252001753E+02  0.13212286731E+03  0.00000000000E+00 0. -1.
          1    1    1    2  501    0 -0.77080547134E+02 -0.80773927627E+02  0.21344955353E+02  0.11367253516E+03  0.00000000000E+00 0. -1.
<scales pt_clust_5="13000.00000" pt_clust_6="13000.00000" pt_clust_7="13000.00000" pt_clust_8="13000.00000" pt_clust_9="121.44242" pt_clust_10="13000.00000"></scales>
<clustering>
<clus scale="   91.983">  7  8 -1 -1</clus>
<clus scale="   98.614">  5  6 -1 -1</clus>
<clus scale="  107.458">  1  7  2 -1</clus>
<clus scale="  109.834">  5 10 -1 -1</clus>
<clus scale="  121.442">  2  9  1 -1</clus>
<clus scale="  121.442">  2  5  1 -1</clus>
</clustering>
</event>
<event>
10    2  0.5692308E-006  0.1887799E+03  0.7546771E-02  0.1188001E+00
         21   -1    0    0  503  502  0.00000000000E+00  0.00000000000E+00  0.24656647075E+03  0.24656647075E+03  0.00000000000E+00 0.  1.
         -1   -1    0    0    0  501 -0.00000000000E+00 -0.00000000000E+00 -0.23647563692E+03  0.23647563692E+03  0.00000000000E+00 0.  1.
         23    2    1    2    0    0  0.55377894875E+02 -0.12476234411E+02 -0.47733486037E+02  0.10545487100E+03  0.74965835302E+02 0.  0.
         23    2    1    2    0    0 -0.39680349612E+01 -0.23420034537E+02 -0.95963820324E+02  0.12850624669E+03  0.82100897122E+02 0.  0.
        -13    1    3    3    0    0  0.29929475862E+02 -0.32053267736E+02  0.45607287439E+01  0.44090653710E+02  0.00000000000E+00 0.  1.
         13    1    3    3    0    0  0.25448419013E+02  0.19577033325E+02 -0.52294214781E+02  0.61364217290E+02  0.00000000000E+00 0. -1.
        -13    1    4    4    0    0 -0.24909068753E+02 -0.45152232496E+02 -0.77622244848E+02  0.93190121262E+02  0.00000000000E+00 0.  1.
         13    1    4    4    0    0  0.20941033791E+02  0.21732197959E+02 -0.18341575475E+02  0.35316125429E+02  0.00000000000E+00 0. -1.
         21    1    1    2  503  501  0.19537799755E+02 -0.19780360929E+02  0.15640544981E+03  0.15885733546E+03  0.00000000000E+00 0.  1.
         -1    1    1    2    0  502 -0.70947659669E+02  0.55676629877E+02 -0.26173096199E+01  0.90223654530E+02  0.00000000000E+00 0.  1.
<scales pt_clust_5="13000.00000" pt_clust_6="13000.00000" pt_clust_7="13000.00000" pt_clust_8="13000.00000" pt_clust_9="27.80267" pt_clust_10="13000.00000"></scales>
<clustering>
<clus scale="   27.803">  1  9  2 -1</clus>
<clus scale="   74.966">  5  6 -1 -1</clus>
<clus scale="   82.101">  7  8 -1 -1</clus>
<clus scale="   76.620">  7 10 -1 -1</clus>
<clus scale="   98.924">  2  5  1 -1</clus>
<clus scale="   27.803">  1  5  2 -1</clus>
</clustering>
</event>
<event>
10    2  0.5692308E-006  0.1948966E+03  0.7546771E-02  0.1164333E+00
          1   -1    0    0  503    0 -0.00000000000E+00  0.00000000000E+00  0.39566716562E+03  0.39566716562E+03  0.00000000000E+00 0. -1.
         21   -1    0    0  501  502  0.00000000000E+00 -0.00000000000E+00 -0.14718198251E+03  0.14718198251E+03  0.00000000000E+00 0. -1.
         23    2    1    2    0    0  0.97573210011E+02 -0.60101682589E+02  0.13248740195E+03  0.19616679299E+03  0.88293575268E+02 0.  0.
         23    2    1    2    0    0 -0.11831520830E+03  0.72591779389E+02  0.15913588993E+03  0.23037209342E+03  0.92081567180E+02 0.  0.
        -11    1    4    4    0    0 -0.51968847986E+02  0.65860370908E+02  0.38013990351E+02  0.92105445439E+02  0.00000000000E+00 0.  1.
         11    1    4    4    0    0 -0.66346360316E+02  0.67314084805E+01  0.12112189958E+03  0.13826664798E+03  0.00000000000E+00 0. -1.
        -13    1    3    3    0    0  0.61910178234E+02 -0.65913666518E+01  0.17922699864E+02  0.64788420676E+02  0.00000000000E+00 0. -1.
         13    1    3    3    0    0  0.35663031778E+02 -0.53510315937E+02  0.11456470208E+03  0.13137837231E+03  0.00000000000E+00 0.  1.
         21    1    1    2  503  502  0.18512671054E+01 -0.45911817625E+02 -0.58991155023E+02  0.74774852447E+02  0.00000000000E+00 0. -1.
          1    1    1    2  501    0  0.18890731185E+02  0.33421720826E+02  0.15853046257E+02  0.41535409270E+02  0.00000000000E+00 0. -1.
<scales pt_clust_5="13000.00000" pt_clust_6="13000.00000" pt_clust_7="13000.00000" pt_clust_8="13000.00000" pt_clust_9="45.94913" pt_clust_10="13000.00000"></scales>
<clustering>
<clus scale="   45.949">  2  9  1 -1</clus>
<clus scale="   88.294">  7  8 -1 -1</clus>
<clus scale="   92.082">  5  6 -1 -1</clus>
<clus scale="   32.377">  5 10 -1 -1</clus>
<clus scale="  153.597">  1  7  2 -1</clus>
<clus scale="   45.949">  2  5  1 -1</clus>
</clustering>
</event>
<event>
10    2  0.5692308E-006  0.1425012E+03  0.7546771E-02  0.1227399E+00
          1   -1    0    0  503    0 -0.00000000000E+00  0.00000000000E+00  0.14221967626E+03  0.14221967626E+03  0.00000000000E+00 0. -1.
         21   -1    0    0  501  502  0.00000000000E+00 -0.00000000000E+00 -0.22457055223E+03  0.22457055223E+03  0.00000000000E+00 0.  1.
         23    2    1    2    0    0 -0.12664147129E+02  0.25791485491E+02  0.87014545628E+02  0.13208305493E+03  0.95125290549E+02 0.  0.
         23    2    1    2    0    0  0.12838013199E+02 -0.40365743224E+02 -0.83377430676E+02  0.13123746635E+03  0.92072084907E+02 0.  0.
        -11    1    4    4    0    0 -0.25588387468E+02 -0.44315206450E+02 -0.16076004001E+02  0.53638055526E+02  0.00000000000E+00 0. -1.
         11    1    4    4    0    0  0.38426400667E+02  0.39494632257E+01 -0.67301426675E+02  0.77599410825E+02  0.00000000000E+00 0.  1.
        -13    1    3    3    0    0  0.31053807216E+02 -0.16101477369E+02  0.15174636677E+02  0.38129596305E+02  0.00000000000E+00 0.  1.
         13    1    3    3    0    0 -0.43717954345E+02  0.41892962860E+02  0.71839908951E+02  0.93953458624E+02  0.00000000000E+00 0. -1.
         21    1    1    2  503  502 -0.33758752567E+01 -0.21070833558E+02 -0.26223997752E+02  0.33809386547E+02  0.00000000000E+00 0.  1.
          1    1    1    2  501    0  0.32020091865E+01  0.35645091291E+02 -0.59763993163E+02  0.69660320662E+02  0.00000000000E+00 0. -1.
<scales pt_clust_5="13000.00000" pt_clust_6="13000.00000" pt_clust_7="13000.00000" pt_clust_8="13000.00000" pt_clust_9="21.33955" pt_clust_10="13000.00000"></scales>
<clustering>
<clus scale="   21.340">  2  9  1 -1</clus>
<clus scale="   92.072">  5  6 -1 -1</clus>
<clus scale="   28.712">  5 10 -1 -1</clus>
<clus scale="   95.125">  7  8 -1 -1</clus>
<clus scale="   98.816">  1  7  2 -1</clus>
<clus scale="   21.340">  2  5  1 -1</clus>
</clustering>
</event>
<event>
10    2  0.5692308E-006  0.3890449E+03  0.7546771E-02  0.1086474E+00
          2   -1    0    0  503    0 -0.00000000000E+00  0.00000000000E+00  0.13010152079E+04  0.13010152079E+04  0.00000000000E+00 0. -1.
         21   -1    0    0  501  502  0.00000000000E+00 -0.00000000000E+00 -0.17316433435E+03  0.17316433435E+03  0.00000000000E+00 0.  1.
         23    2    1    2    0    0 -0.83935290347E+01 -0.94962497605E+02  0.49673957917E+03  0.51426490625E+03  0.92897023637E+02 0.  0.
         23    2    1    2    0    0 -0.14124405263E+03  0.26671184989E+02  0.39113012372E+03  0.42662053067E+03  0.91438881236E+02 0.  0.
        -11    1    4    4    0    0 -0.11907985996E+03 -0.87750683676E+01  0.34125984263E+03  0.36154570260E+03  0.00000000000E+00 0. -1.
         11    1    4    4    0    0 -0.22164192666E+02  0.35446253357E+02  0.49870281082E+02  0.65074828073E+02  0.00000000000E+00 0.  1.
        -11    1    3    3    0    0  0.41644405610E+02 -0.51880494939E+02  0.22587076365E+03  0.23546431608E+03  0.00000000000E+00 0. -1.
         11    1    3    3    0    0 -0.50037934644E+02 -0.43082002666E+02  0.27086881552E+03  0.27880059017E+03  0.00000000000E+00 0.  1.
         21    1    1    2  503  502 -0.34353855356E+02  0.13394370168E+03 -0.78993363118E+02  0.15925154321E+03  0.00000000000E+00 0.  1.
          2    1    1    2  501    0  0.18399143702E+03 -0.65652389063E+02  0.31897453381E+03  0.37404256216E+03  0.00000000000E+00 0. -1.
<scales pt_clust_5="13000.00000" pt_clust_6="13000.00000" pt_clust_7="13000.00000" pt_clust_8="13000.00000" pt_clust_9="133.75371" pt_clust_10="13000.00000"></scales>
<clustering>
<clus scale="   91.439">  5  6 -1 -1</clus>
<clus scale="   92.897">  7  8 -1 -1</clus>
<clus scale="  133.110">  1  7  2 -1</clus>
<clus scale="  133.754">  2  9  1 -1</clus>
<clus scale="  163.198">  5 10 -1 -1</clus>
<clus scale="  133.754">  2  5  1 -1</clus>
</clustering>
</event>
<event>
10    2  0.5692308E-006  0.2796400E+03  0.7546771E-02  0.1118784E+00
          1   -1    0    0  503    0 -0.00000000000E+00  0.00000000000E+00  0.49574435400E+03  0.49574435400E+03  0.00000000000E+00 0. -1.
         21   -1    0    0  501  502  0.00000000000E+00 -0.00000000000E+00 -0.24965716767E+03  0.24965716767E+03  0.00000000000E+00 0.  1.
         23    2    1    2    0    0 -0.11828499385E+03  0.18625695445E+02  0.11129062881E+03  0.18781936371E+03  0.92478392184E+02 0.  0.
         23    2    1    2    0    0  0.19075167100E+03 -0.40375130714E+02  0.18490580130E+03  0.28405832960E+03  0.92101183975E+02 0.  0.
        -11    1    3    3    0    0 -0.35178091483E+02 -0.36488951823E+02  0.47337325990E+02  0.69352463239E+02  0.00000000000E+00 0. -1.
         11    1    3    3    0    0 -0.83106902368E+02  0.55114647268E+02  0.63953302825E+02  0.11846690047E+03  0.00000000000E+00 0.  1.
        -13    1    4    4    0    0  0.44153756128E+02  0.11514277414E+02  0.44597101224E+01  0.45847811060E+02  0.00000000000E+00 0.  1.
         13    1    4    4    0    0  0.14659791487E+03 -0.51889408127E+02  0.18044609118E+03  0.23821051854E+03  0.00000000000E+00 0. -1.
         21    1    1    2  503  502 -0.10692669203E+02  0.17201031188E+02 -0.15250872947E+03  0.15384772086E+03  0.00000000000E+00 0.  1.
          1    1    1    2  501    0 -0.61774007947E+02  0.45484040812E+01  0.10239948569E+03  0.11967610750E+03  0.00000000000E+00 0. -1.
<scales pt_clust_5="13000.00000" pt_clust_6="13000.00000" pt_clust_7="13000.00000" pt_clust_8="13000.00000" pt_clust_9="20.25361" pt_clust_10="13000.00000"></scales>
<clustering>
<clus scale="   20.254">  2  9  1 -1</clus>
<clus scale="   92.101">  7  8 -1 -1</clus>
<clus scale="   63.026">  7 10 -1 -1</clus>
<clus scale="   92.478">  5  6 -1 -1</clus>
<clus scale="  155.603">  1  5  2 -1</clus>
<clus scale="   20.254">  2  5  1 -1</clus>
</clustering>
</event>
<event>
10    2  0.5692308E-006  0.8564317E+03  0.7546771E-02  0.9988926E-01
         -1   -1    0    0    0  501 -0.00000000000E+00  0.00000000000E+00  0.52998844821E+03  0.52998844821E+03  0.00000000000E+00 0.  1.
         21   -1    0    0  501  502  0.00000000000E+00 -0.00000000000E+00 -0.12011720851E+04  0.12011720851E+04  0.00000000000E+00 0.  1.
         23    2    1    2    0    0  0.11360874007E+03  0.63179083258E+02  0.34922618195E+03  0.38347272910E+03  0.90519972507E+02 0.  0.
         23    2    1    2    0    0  0.33482013034E+03 -0.86201619374E+01 -0.73082489701E+03  0.81006813009E+03  0.99631914710E+02 0.  0.
        -13    1    4    4    0    0  0.32219128797E+03 -0.28800003965E+02 -0.69994833074E+03  0.77107997769E+03  0.00000000000E+00 0.  1.
         13    1    4    4    0    0  0.12628842367E+02  0.20179842028E+02 -0.30876566263E+02  0.38988152406E+02  0.00000000000E+00 0. -1.
        -13    1    3    3    0    0  0.91780096638E+02  0.44076163336E+02  0.33691167797E+03  0.35195990264E+03  0.00000000000E+00 0.  1.
         13    1    3    3    0    0  0.21828643427E+02  0.19102919921E+02  0.12314503985E+02  0.31512826465E+02  0.00000000000E+00 0. -1.
         21    1    1    2  503  502 -0.22585379768E+02 -0.10201291607E+02 -0.14384179259E+02  0.28654325025E+02  0.00000000000E+00 0.  1.
         -1    1    1    2    0  503 -0.42584349064E+03 -0.44357629713E+02 -0.27520074253E+03  0.50896534904E+03  0.00000000000E+00 0.  1.
<scales pt_clust_5="13000.00000" pt_clust_6="13000.00000" pt_clust_7="13000.00000" pt_clust_8="13000.00000" pt_clust_9="24.78237" pt_clust_10="13000.00000"></scales>
<clustering>
<clus scale="   24.782">  2  9  1 -1</clus>
<clus scale="   90.520">  7  8 -1 -1</clus>
<clus scale="   99.632">  5  6 -1 -1</clus>
<clus scale="  158.112">  1  7  2 -1</clus>
<clus scale="  348.941">  5 10 -1 -1</clus>
<clus scale="   24.782">  2  5  1 -1</clus>
</clustering>
</event>
<event>
10    2  0.5692308E-006  0.3673916E+03  0.7546771E-02  0.1093742E+00
         21   -1    0    0  501  502  0.00000000000E+00  0.00000000000E+00  0.17872815396E+03  0.17872815396E+03  0.00000000000E+00 0. -1.
          1   -1    0    0  503    0 -0.00000000000E+00 -0.00000000000E+00 -0.68220321845E+03  0.68220321845E+03  0.00000000000E+00 0. -1.
         23    2    1    2    0    0 -0.10051024910E+03  0.26355825769E+02 -0.16890237532E+03  0.21854730109E+03  0.91858427464E+02 0.  0.
         23    2    1    2    0    0  0.13690459785E+01  0.66003137623E+02 -0.36499532942E+03  0.38215222468E+03  0.91980671155E+02 0.  0.
        -11    1    3    3    0    0 -0.56940990886E+02  0.48164963341E+02 -0.14759812954E+03  0.16537033585E+03  0.00000000000E+00 0. -1.
         11    1    3    3    0    0 -0.43569258217E+02 -0.21809137572E+02 -0.21304245786E+02  0.53176965236E+02  0.00000000000E+00 0.  1.
        -13    1    4    4    0    0  0.34383410298E+02  0.27040967639E+02 -0.68390510054E+02  0.81183093684E+02  0.00000000000E+00 0.  1.
         13    1    4    4    0    0 -0.33014364320E+02  0.38962169984E+02 -0.29660481936E+03  0.30096913099E+03  0.00000000000E+00 0. -1.
         21    1    1    2  503  502  0.68054941447E+02  0.56646677421E+02  0.57570943661E+02  0.10561597735E+03  0.00000000000E+00 0. -1.
          1    1    1    2  501    0  0.31086261678E+02 -0.14900564081E+03 -0.27148303413E+02  0.15461586929E+03  0.00000000000E+00 0. -1.
<scales pt_clust_5="13000.00000" pt_clust_6="13000.00000" pt_clust_7="13000.00000" pt_clust_8="13000.00000" pt_clust_9="88.54559" pt_clust_10="13000.00000"></scales>
<clustering>
<clus scale="   88.546">  1  9  2 -1</clus>
<clus scale="   91.858">  5  6 -1 -1</clus>
<clus scale="   91.981">  7  8 -1 -1</clus>
<clus scale="  130.438">  2  5  1 -1</clus>
<clus scale="  119.888">  7 10 -1 -1</clus>
<clus scale="   88.546">  1  5  2 -1</clus>
</clustering>
</event>
<event>
10    2  0.5692308E-006  0.6913667E+03  0.7546771E-02  0.1031646E+00
          3   -1    0    0  503    0 -0.00000000000E+00  0.00000000000E+00  0.48952044368E+03  0.48952044368E+03  0.00000000000E+00 0. -1.
         21   -1    0    0  501  502  0.00000000000E+00 -0.00000000000E+00 -0.60258285555E+03  0.60258285555E+03  0.00000000000E+00 0. -1.
         23    2    1    2    0    0  0.62189236016E+02 -0.64086829240E+01  0.21326165485E+03  0.24038980129E+03  0.91641425350E+02 0.  0.
         23    2    1    2    0    0 -0.26440462402E+03 -0.16452850153E+03 -0.26671181649E+03  0.42029054676E+03  0.92355387582E+02 0.  0.
        -11    1    3    3    0    0  0.34695525421E+01  0.34051355826E+02  0.37814000035E+02  0.51004227541E+02  0.00000000000E+00 0.  1.
         11    1    3    3    0    0  0.58719683474E+02 -0.40460038749E+02  0.17544765482E+03  0.18938557375E+03  0.00000000000E+00 0. -1.
        -11    1    4    4    0    0 -0.26771376315E+02  0.95699641498E+01 -0.37382107694E+02  0.46965016547E+02  0.00000000000E+00 0.  1.
         11    1    4    4    0    0 -0.23763324771E+03 -0.17409846568E+03 -0.22932970880E+03  0.37332553021E+03  0.00000000000E+00 0. -1.
         21    1    1    2  503  502 -0.30511591236E+02  0.30735220024E+01 -0.13197404443E+03  0.13549004443E+03  0.00000000000E+00 0.  1.
          3    1    1    2  501    0  0.23272697924E+03  0.16786366245E+03  0.72361794194E+02  0.29593290675E+03  0.00000000000E+00 0. -1.
<scales pt_clust_5="13000.00000" pt_clust_6="13000.00000" pt_clust_7="13000.00000" pt_clust_8="13000.00000" pt_clust_9="30.66600" pt_clust_10="13000.00000"></scales>
<clustering>
<clus scale="   30.666">  2  9  1 -1</clus>
<clus scale="   91.641">  5  6 -1 -1</clus>
<clus scale="   92.355">  7  8 -1 -1</clus>
<clus scale="  110.438">  1  5  2 -1</clus>
<clus scale="  313.244">  7 10 -1 -1</clus>
<clus scale="   30.666">  2  5  1 -1</clus>
</clustering>
</event>
<event>
10    2  0.5692308E-006  0.3166960E+03  0.7546771E-02  0.1102086E+00
         21   -1    0    0  503  502  0.00000000000E+00  0.00000000000E+00  0.10459384917E+03  0.10459384917E+03  0.00000000000E+00 0. -1.
          3   -1    0    0  502    0 -0.00000000000E+00 -0.00000000000E+00 -0.82763368782E+03  0.82763368782E+03  0.00000000000E+00 0. -1.
         23    2    1    2    0    0 -0.16273535999E+01 -0.10778945427E+03 -0.11419792801E+03  0.18131202111E+03  0.90618251493E+02 0.  0.
         23    2    1    2    0    0  0.12538872505E+03  0.12345926186E+03 -0.23248648249E+03  0.30552939276E+03  0.91289230416E+02 0.  0.
        -11    1    3    3    0    0 -0.42173177706E+02 -0.69042193783E+02 -0.87591046830E+02  0.11923754830E+03  0.00000000000E+00 0.  1.
         11    1    3    3    0    0  0.40545824106E+02 -0.38747260491E+02 -0.26606881183E+02  0.62074472807E+02  0.00000000000E+00 0. -1.
        -13    1    4    4    0    0  0.41476985989E+02  0.10307865184E+03 -0.14410276881E+03  0.18196471309E+03  0.00000000000E+00 0.  1.
         13    1    4    4    0    0  0.83911739062E+02  0.20380610018E+02 -0.88383713684E+02  0.12356467967E+03  0.00000000000E+00 0. -1.
         21    1    1    2  503  501 -0.28376070516E+02 -0.65174955597E+02 -0.20978164675E+02  0.74115177987E+02  0.00000000000E+00 0. -1.
          3    1    1    2  501    0 -0.95385300935E+02  0.49505148013E+02 -0.35537726346E+03  0.37127094514E+03  0.00000000000E+00 0. -1.
<scales pt_clust_5="13000.00000" pt_clust_6="13000.00000" pt_clust_7="13000.00000" pt_clust_8="13000.00000" pt_clust_9="71.08429" pt_clust_10="13000.00000"></scales>
<clustering>
<clus scale="   71.084">  1  9  2 -1</clus>
<clus scale="   90.618">  5  6 -1 -1</clus>
<clus scale="   91.289">  7  8 -1 -1</clus>
<clus scale="  107.218">  7 10 -1 -1</clus>
<clus scale="  163.860">  2  5  1 -1</clus>
<clus scale="   71.084">  1  5  2 -1</clus>
</clustering>
</event>
<event>
10    2  0.5692308E-006  0.3277297E+03  0.7546771E-02  0.1083591E+00
         21   -1    0    0  503  502  0.00000000000E+00  0.00000000000E+00  0.24475819647E+03  0.24475819647E+03  0.00000000000E+00 0. -1.
          2   -1    0    0  502    0 -0.00000000000E+00 -0.00000000000E+00 -0.11194760049E+04  0.11194760049E+04  0.00000000000E+00 0. -1.
         23    2    1    2    0    0 -0.15960386705E+03  0.17217219865E+03  0.65097786514E+02  0.25926036995E+03  0.88665423100E+02 0.  0.
         23    2    1    2    0    0  0.14621194672E+02 -0.99394092488E+02 -0.64267254154E+03  0.65692667049E+03  0.91824233195E+02 0.  0.
        -11    1    3    3    0    0 -0.16377297180E+03  0.13141249000E+03  0.55014917704E+02  0.21706558915E+03  0.00000000000E+00 0. -1.
         11    1    3    3    0    0  0.41691047581E+01  0.40759708645E+02  0.10082868809E+02  0.42194780800E+02  0.00000000000E+00 0.  1.
        -13    1    4    4    0    0  0.51031401225E+02 -0.76341975218E+02 -0.47575061341E+03  0.48453167827E+03  0.00000000000E+00 0.  1.
         13    1    4    4    0    0 -0.36410206553E+02 -0.23052117270E+02 -0.16692192813E+03  0.17239499222E+03  0.00000000000E+00 0. -1.
         21    1    1    2  503  501 -0.19029749693E+02 -0.39900334270E+02  0.47541018892E+02  0.64917767410E+02  0.00000000000E+00 0. -1.
          2    1    1    2  501    0  0.16401242207E+03 -0.32877771888E+02 -0.34468407230E+03  0.38312939352E+03  0.00000000000E+00 0. -1.
<scales pt_clust_5="13000.00000" pt_clust_6="13000.00000" pt_clust_7="13000.00000" pt_clust_8="13000.00000" pt_clust_9="44.20597" pt_clust_10="13000.00000"></scales>
<clustering>
<clus scale="   44.206">  1  9  2 -1</clus>
<clus scale="   88.665">  5  6 -1 -1</clus>
<clus scale="   91.824">  7  8 -1 -1</clus>
<clus scale="  166.230">  7 10 -1 -1</clus>
<clus scale="  240.480">  2  5  1 -1</clus>
<clus scale="   44.206">  1  5  2 -1</clus>
</clustering>
</event>
<event>
10    2  0.5692308E-006  0.2001193E+03  0.7546771E-02  0.1171017E+00
          2   -1    0    0  503    0 -0.00000000000E+00  0.00000000000E+00  0.59114864150E+03  0.59114864150E+03  0.00000000000E+00 0. -1.
         21   -1    0    0  501  502  0.00000000000E+00 -0.00000000000E+00 -0.88025111389E+02  0.88025111389E+02  0.00000000000E+00 0. -1.
         23    2    1    2    0    0 -0.74207766635E+02  0.21276622889E+02  0.24236847009E+03  0.27022312333E+03  0.91206215694E+02 0.  0.
         23    2    1    2    0    0 -0.22143797210E+01 -0.84499175653E+01  0.67039804898E+02  0.11372095702E+03  0.91442966049E+02 0.  0.
        -11    1    4    4    0    0 -0.22489849480E+02 -0.43568705228E+02  0.24009756515E+02  0.54593899044E+02  0.00000000000E+00 0. -1.
         11    1    4    4    0    0  0.20275469759E+02  0.35118787662E+02  0.43030048382E+02  0.59127057973E+02  0.00000000000E+00 0.  1.
        -11    1    3    3    0    0 -0.75692576604E+02  0.46318018227E+02  0.21747191791E+03  0.23488031004E+03  0.00000000000E+00 0. -1.
         11    1    3    3    0    0  0.14848099687E+01 -0.25041395338E+02  0.24896552177E+02  0.35342813293E+02  0.00000000000E+00 0.  1.
         21    1    1    2  503  502 -0.41224167858E+01  0.22433254955E+02 -0.39709890603E+02  0.45794329996E+02  0.00000000000E+00 0. -1.
          2    1    1    2  501    0  0.80544563142E+02 -0.35259960279E+02  0.23342514573E+03  0.24943534254E+03  0.00000000000E+00 0. -1.
<scales pt_clust_5="13000.00000" pt_clust_6="13000.00000" pt_clust_7="13000.00000" pt_clust_8="13000.00000" pt_clust_9="22.80889" pt_clust_10="13000.00000"></scales>
<clustering>
<clus scale="   22.809">  2  9  1 -1</clus>
<clus scale="   91.206">  7  8 -1 -1</clus>
<clus scale="   91.443">  5  6 -1 -1</clus>
<clus scale="   85.731">  5 10 -1 -1</clus>
<clus scale="  121.693">  1  7  2 -1</clus>
<clus scale="   22.809">  2  5  1 -1</clus>
</clustering>
</event>
<event>
10    2  0.5692308E-006  0.5294739E+03  0.7546771E-02  0.1057139E+00
          2   -1    0    0  502    0 -0.00000000000E+00  0.00000000000E+00  0.25431969061E+04  0.25431969061E+04  0.00000000000E+00 0. -1.
         21   -1    0    0  503  502  0.00000000000E+00 -0.00000000000E+00 -0.14683258448E+03  0.14683258448E+03  0.00000000000E+00 0. -1.
         23    2    1    2    0    0 -0.18554088196E+02  0.10712985465E+01  0.29827941078E+02  0.12271279193E+03  0.11757262166E+03 0.  0.
         23    2    1    2    0    0 -0.10810563518E+02 -0.25102904010E+03  0.13465098293E+04  0.13729534955E+04  0.93702364373E+02 0.  0.
        -11    1    3    3    0    0 -0.33285902729E+02  0.41603456187E+02 -0.19912466291E+02  0.56879743328E+02  0.00000000000E+00 0.  1.
         11    1    3    3    0    0  0.14731814533E+02 -0.40532157641E+02  0.49740407369E+02  0.65833048598E+02  0.00000000000E+00 0. -1.
        -13    1    4    4    0    0 -0.29445425097E+02 -0.18251988457E+02  0.17386400385E+03  0.17728186590E+03  0.00000000000E+00 0.  1.
         13    1    4    4    0    0  0.18634861579E+02 -0.23277705164E+03  0.11726458255E+04  0.11956716296E+04  0.00000000000E+00 0. -1.
         21    1    1    2  503  501  0.40302946986E+02 -0.94673276343E+01 -0.65899886253E+02  0.77825142701E+02  0.00000000000E+00 0. -1.
          2    1    1    2  501    0 -0.10938295272E+02  0.25942506918E+03  0.10859264375E+04  0.11165380605E+04  0.00000000000E+00 0. -1.
<scales pt_clust_5="13000.00000" pt_clust_6="13000.00000" pt_clust_7="13000.00000" pt_clust_8="13000.00000" pt_clust_9="41.39997" pt_clust_10="13000.00000"></scales>
<clustering>
<clus scale="   41.400">  2  9  1 -1</clus>
<clus scale="   93.702">  7  8 -1 -1</clus>
<clus scale="  117.573">  5  6 -1 -1</clus>
<clus scale="  117.845">  1  5  2 -1</clus>
<clus scale="  255.378">  7 10 -1 -1</clus>
<clus scale="   41.400">  2  5  1 -1</clus>
</clustering>
</event>
<event>
10    2  0.5692308E-006  0.1433502E+03  0.7546771E-02  0.1226680E+00
         21   -1    0    0  503  502  0.00000000000E+00  0.00000000000E+00  0.17620840826E+03  0.17620840826E+03  0.00000000000E+00 0. -1.
          2   -1    0    0  502    0 -0.00000000000E+00 -0.00000000000E+00 -0.19217732593E+03  0.19217732593E+03  0.00000000000E+00 0. -1.
         23    2    1    2    0    0 -0.19687080362E+01  0.45941340536E+02 -0.73816147062E+02  0.12587124073E+03  0.90995950973E+02 0.  0.
         23    2    1    2    0    0 -0.51245530694E+01 -0.52421016164E+02 -0.41627901347E+02  0.11256551633E+03  0.90354243486E+02 0.  0.
        -11    1    4    4    0    0 -0.38583357326E+02 -0.13619739566E+02 -0.45491042726E+02  0.61185028697E+02  0.00000000000E+00 0.  1.
         11    1    4    4    0    0  0.33458804256E+02 -0.38801276597E+02  0.38631413796E+01  0.51380487631E+02  0.00000000000E+00 0. -1.
        -11    1    3    3    0    0  0.29685487418E+02 -0.12619770284E+02 -0.10297663974E+02  0.33860428948E+02  0.00000000000E+00 0.  1.
         11    1    3    3    0    0 -0.31654195454E+02  0.58561110820E+02 -0.63518483088E+02  0.92010811779E+02  0.00000000000E+00 0. -1.
         21    1    1    2  503  501  0.83630732521E+01 -0.25131108642E+02  0.94229054399E+02  0.97880684043E+02  0.00000000000E+00 0. -1.
          2    1    1    2  501    0 -0.12698121464E+01  0.31610784269E+02  0.52460763422E+01  0.32068293094E+02  0.00000000000E+00 0. -1.
<scales pt_clust_5="13000.00000" pt_clust_6="13000.00000" pt_clust_7="13000.00000" pt_clust_8="13000.00000" pt_clust_9="26.48610" pt_clust_10="13000.00000"></scales>
<clustering>
<clus scale="   26.486">  1  9  2 -1</clus>
<clus scale="   90.354">  5  6 -1 -1</clus>
<clus scale="   25.770">  5 10 -1 -1</clus>
<clus scale="   90.996">  7  8 -1 -1</clus>
<clus scale="   98.530">  2  7  1 -1</clus>
<clus scale="   26.486">  1  5  2 -1</clus>
</clustering>
</event>
<event>
10    2  0.5692308E-006  0.2590124E+03  0.7546771E-02  0.1121369E+00
         21   -1    0    0  501  502  0.00000000000E+00  0.00000000000E+00  0.41663005852E+03  0.41663005852E+03  0.00000000000E+00 0. -1.
          1   -1    0    0  503    0 -0.00000000000E+00 -0.00000000000E+00 -0.64229239019E+03  0.64229239019E+03  0.00000000000E+00 0. -1.
         23    2    1    2    0    0  0.13119688196E+03  0.91309216202E+02 -0.48686447554E+03  0.52001680686E+03  0.88489926382E+02 0.  0.
         23    2    1    2    0    0 -0.29963030431E+02 -0.13302787811E+03  0.11656571700E+02  0.16451553371E+03  0.91297785411E+02 0.  0.
        -11    1    4    4    0    0  0.28981832755E+02 -0.74874409315E+02  0.14856928814E+02  0.81650793835E+02  0.00000000000E+00 0. -1.
         11    1    4    4    0    0 -0.58944863186E+02 -0.58153468799E+02 -0.32003571137E+01  0.82864739878E+02  0.00000000000E+00 0.  1.
        -11    1    3    3    0    0  0.55994744946E+02  0.13476958794E+02 -0.28708697921E+03  0.29280705851E+03  0.00000000000E+00 0.  1.
         11    1    3    3    0    0  0.75202137019E+02  0.77832257408E+02 -0.19977749633E+03  0.22720974835E+03  0.00000000000E+00 0. -1.
         21    1    1    2  503  502 -0.81448242157E+02  0.13844360450E+03  0.83053762544E+02  0.18082692070E+03  0.00000000000E+00 0. -1.
          1    1    1    2  501    0 -0.19785609377E+02 -0.96724942593E+02  0.16649180962E+03  0.19356318743E+03  0.00000000000E+00 0. -1.
<scales pt_clust_5="13000.00000" pt_clust_6="13000.00000" pt_clust_7="13000.00000" pt_clust_8="13000.00000" pt_clust_9="160.62518" pt_clust_10="13000.00000"></scales>
<clustering>
<clus scale="   88.490">  7  8 -1 -1</clus>
<clus scale="   91.298">  5  6 -1 -1</clus>
<clus scale="   98.728">  5 10 -1 -1</clus>
<clus scale="  160.625">  1  9  2 -1</clus>
<clus scale="  183.564">  2  7  1 -1</clus>
<clus scale="  160.625">  1  5  2 -1</clus>
</clustering>
</event>
<event>
10    2  0.5692308E-006  0.2386170E+03  0.7546771E-02  0.1126152E+00
         21   -1    0    0  501  502  0.00000000000E+00  0.00000000000E+00  0.35313355303E+03  0.35313355303E+03  0.00000000000E+00 0. -1.
          3   -1    0    0  503    0 -0.00000000000E+00 -0.00000000000E+00 -0.26434525367E+03  0.26434525367E+03  0.00000000000E+00 0. -1.
         23    2    1    2    0    0 -0.57016067075E+02  0.17295279626E+03 -0.15900149573E+02  0.20384676523E+03  0.90206359527E+02 0.  0.
         23    2    1    2    0    0  0.36918358894E+01 -0.62543643768E+02 -0.15510925925E+02  0.11202754955E+03  0.91565528487E+02 0.  0.
        -11    1    3    3    0    0 -0.25725963807E+02  0.16977587465E+03 -0.15239654436E+02  0.17238886245E+03  0.00000000000E+00 0. -1.
         11    1    3    3    0    0 -0.31290103269E+02  0.31769216014E+01 -0.66049513740E+00  0.31457902779E+02  0.00000000000E+00 0.  1.
        -13    1    4    4    0    0 -0.37619360523E+02 -0.50174223479E+02 -0.25607897064E+02  0.67737975907E+02  0.00000000000E+00 0.  1.
         13    1    4    4    0    0  0.41311196412E+02 -0.12369420289E+02  0.10096971140E+02  0.44289573643E+02  0.00000000000E+00 0. -1.
         21    1    1    2  503  502  0.35466783569E+02  0.22057087849E+02  0.15741033947E+03  0.16285706258E+03  0.00000000000E+00 0. -1.
          3    1    1    2  501    0  0.17857447617E+02 -0.13246624034E+03 -0.37210964606E+02  0.13874742935E+03  0.00000000000E+00 0. -1.
<scales pt_clust_5="13000.00000" pt_clust_6="13000.00000" pt_clust_7="13000.00000" pt_clust_8="13000.00000" pt_clust_9="41.76611" pt_clust_10="13000.00000"></scales>
<clustering>
<clus scale="   41.766">  1  9  2 -1</clus>
<clus scale="   90.206">  5  6 -1 -1</clus>
<clus scale="   91.566">  7  8 -1 -1</clus>
<clus scale="  129.549">  7 10 -1 -1</clus>
<clus scale="  208.471">  2  5  1 -1</clus>
<clus scale="   41.766">  1  5  2 -1</clus>
</clustering>
</event>
<event>
10    2  0.5692308E-006  0.2276264E+03  0.7546771E-02  0.1146095E+00
          2   -1    0    0  502    0 -0.00000000000E+00  0.00000000000E+00  0.46597600746E+03  0.46597600746E+03  0.00000000000E+00 0. -1.
         21   -1    0    0  503  502  0.00000000000E+00 -0.00000000000E+00 -0.18866297844E+03  0.18866297844E+03  0.00000000000E+00 0. -1.
         23    2    1    2    0    0  0.90496695837E+02  0.24137540954E+02  0.56738474123E+02  0.14205592929E+03  0.90489556081E+02 0.  0.
         23    2    1    2    0    0 -0.88736112025E+02  0.36271331061E+01  0.16214373599E+03  0.20939884521E+03  0.98336318732E+02 0.  0.
        -13    1    3    3    0    0  0.31780744595E+02 -0.19878761315E+02 -0.14110078059E+02  0.40053404115E+02  0.00000000000E+00 0.  1.
         13    1    3    3    0    0  0.58715951243E+02  0.44016302269E+02  0.70848552182E+02  0.10200252517E+03  0.00000000000E+00 0. -1.
        -13    1    4    4    0    0 -0.30088890974E+01 -0.35169068565E+02  0.25733885145E+02  0.43682372211E+02  0.00000000000E+00 0. -1.
         13    1    4    4    0    0 -0.85727222928E+02  0.38796201671E+02  0.13640985084E+03  0.16571647299E+03  0.00000000000E+00 0.  1.
         21    1    1    2  503  501  0.12124624103E+02  0.84904078584E+02 -0.84673420892E+02  0.12052094123E+03  0.00000000000E+00 0. -1.
          2    1    1    2  501    0 -0.13885207915E+02 -0.11266875264E+03  0.14310423980E+03  0.18266327017E+03  0.00000000000E+00 0. -1.
<scales pt_clust_5="13000.00000" pt_clust_6="13000.00000" pt_clust_7="13000.00000" pt_clust_8="13000.00000" pt_clust_9="85.76543" pt_clust_10="13000.00000"></scales>
<clustering>
<clus scale="   85.765">  2  9  1 -1</clus>
<clus scale="   90.490">  5  6 -1 -1</clus>
<clus scale="   98.336">  7  8 -1 -1</clus>
<clus scale="   93.815">  7 10 -1 -1</clus>
<clus scale="  147.943">  1  5  2 -1</clus>
<clus scale="   85.765">  2  5  1 -1</clus>
</clustering>
</event>
<event>
10    2  0.5692308E-006  0.2851500E+03  0.7546771E-02  0.1116683E+00
         21   -1    0    0  503  502  0.00000000000E+00  0.00000000000E+00  0.11539932589E+03  0.11539932589E+03  0.00000000000E+00 0. -1.
         -3   -1    0    0    0  501 -0.00000000000E+00 -0.00000000000E+00 -0.11771768992E+04  0.11771768992E+04  0.00000000000E+00 0.  1.
         23    2    1    2    0    0 -0.10597731558E+03  0.85458978519E+02 -0.44035799308E+03  0.47005127237E+03  0.92187895940E+02 0.  0.
         23    2    1    2    0    0  0.10323027342E+03 -0.11692112963E+03 -0.64297068849E+03  0.66760242040E+03  0.89188819732E+02 0.  0.
        -11    1    4    4    0    0  0.92772645099E+02 -0.97750776726E+02 -0.62487380198E+03  0.63924114889E+03  0.00000000000E+00 0.  1.
         11    1    4    4    0    0  0.10457628325E+02 -0.19170352902E+02 -0.18096886507E+02  0.28361271513E+02  0.00000000000E+00 0. -1.
        -13    1    3    3    0    0 -0.48629134519E+02  0.94560241594E+02 -0.28828171705E+03  0.30726662754E+03  0.00000000000E+00 0. -1.
         13    1    3    3    0    0 -0.57348181062E+02 -0.91012630743E+01 -0.15207627603E+03  0.16278464483E+03  0.00000000000E+00 0.  1.
         21    1    1    2  503  501  0.22452755997E+02 -0.25182223276E+02  0.70076890698E+02  0.77775582485E+02  0.00000000000E+00 0. -1.
         -3    1    1    2    0  502 -0.19705713840E+02  0.56644374385E+02 -0.48525782445E+02  0.77146949838E+02  0.00000000000E+00 0.  1.
<scales pt_clust_5="13000.00000" pt_clust_6="13000.00000" pt_clust_7="13000.00000" pt_clust_8="13000.00000" pt_clust_9="33.73827" pt_clust_10="13000.00000"></scales>
<clustering>
<clus scale="   33.738">  1  9  2 -1</clus>
<clus scale="   89.189">  5  6 -1 -1</clus>
<clus scale="   49.424">  5 10 -1 -1</clus>
<clus scale="   92.188">  7  8 -1 -1</clus>
<clus scale="  154.708">  2  7  1 -1</clus>
<clus scale="   33.738">  1  5  2 -1</clus>
</clustering>
</event>
<event>
10    2  0.5692308E-006  0.3392350E+03  0.7546771E-02  0.1098460E+00
         21   -1    0    0  501  502  0.00000000000E+00  0.00000000000E+00  0.33911638343E+03  0.33911638343E+03  0.00000000000E+00 0. -1.
          1   -1    0    0  503    0 -0.00000000000E+00 -0.00000000000E+00 -0.29103097892E+03  0.29103097892E+03  0.00000000000E+00 0. -1.
         23    2    1    2    0    0 -0.86273636349E+02 -0.78496476142E+02 -0.13585750547E+03  0.20119962675E+03  0.91756149215E+02 0.  0.
         23    2    1    2    0    0  0.17906071889E+03 -0.44293901977E+02  0.84736229238E+02  0.22211054964E+03  0.90156402516E+02 0.  0.
        -13    1    3    3    0    0 -0.84924599607E+02 -0.18944486424E+02 -0.64876375917E+02  0.10853582513E+03  0.00000000000E+00 0.  1.
         13    1    3    3    0    0 -0.13490367415E+01 -0.59551989717E+02 -0.70981129551E+02  0.92663801626E+02  0.00000000000E+00 0. -1.
        -13    1    4    4    0    0  0.48528052085E+02 -0.36483948865E+01  0.69083009084E+02  0.84502927573E+02  0.00000000000E+00 0.  1.
         13    1    4    4    0    0  0.13053266681E+03 -0.40645507090E+02  0.15653220155E+02  0.13760762207E+03  0.00000000000E+00 0. -1.
         21    1    1    2  503  502 -0.16511724662E+01  0.32563596015E+02  0.67149299365E+02  0.74646785337E+02  0.00000000000E+00 0. -1.
          1    1    1    2  501    0 -0.91135910077E+02  0.90226782103E+02  0.32057381371E+02  0.13219040061E+03  0.00000000000E+00 0. -1.
<scales pt_clust_5="13000.00000" pt_clust_6="13000.00000" pt_clust_7="13000.00000" pt_clust_8="13000.00000" pt_clust_9="32.60543" pt_clust_10="13000.00000"></scales>
<clustering>
<clus scale="   32.605">  1  9  2 -1</clus>
<clus scale="   90.156">  7  8 -1 -1</clus>
<clus scale="   91.756">  5  6 -1 -1</clus>
<clus scale="  135.785">  7 10 -1 -1</clus>
<clus scale="  146.464">  2  5  1 -1</clus>
<clus scale="   32.605">  1  5  2 -1</clus>
</clustering>
</event>
<event>
10    2  0.5692308E-006  0.1764283E+03  0.7546771E-02  0.1195927E+00
          1   -1    0    0  503    0 -0.00000000000E+00  0.00000000000E+00  0.39681366678E+03  0.39681366678E+03  0.00000000000E+00 0. -1.
         21   -1    0    0  501  502  0.00000000000E+00 -0.00000000000E+00 -0.74682505121E+02  0.74682505121E+02  0.00000000000E+00 0. -1.
         23    2    1    2    0    0  0.41064539767E+02 -0.20922859627E+02  0.86538518142E+02  0.13419376733E+03  0.91624175782E+02 0.  0.
         23    2    1    2    0    0 -0.52999827782E+02  0.59078126354E+02  0.24481743252E+03  0.27324076716E+03  0.91791801454E+02 0.  0.
        -13    1    3    3    0    0  0.39545238338E+02  0.30849278722E+02  0.49906879910E+02  0.70754508939E+02  0.00000000000E+00 0.  1.
         13    1    3    3    0    0  0.15193014284E+01 -0.51772138349E+02  0.36631638233E+02  0.63439258394E+02  0.00000000000E+00 0. -1.
        -13    1    4    4    0    0  0.21046294035E+02  0.66829125969E+01  0.16503746414E+02  0.27567761228E+02  0.00000000000E+00 0.  1.
         13    1    4    4    0    0 -0.74046121817E+02  0.52395213757E+02  0.22831368610E+03  0.24567300593E+03  0.00000000000E+00 0. -1.
         21    1    1    2  503  502 -0.14404249296E+02 -0.15184106901E+02 -0.18466179156E+02  0.27911275012E+02  0.00000000000E+00 0. -1.
          1    1    1    2  501    0  0.26339537311E+02 -0.22971159825E+02  0.92413901537E+01  0.36150362397E+02  0.00000000000E+00 0. -1.
<scales pt_clust_5="13000.00000" pt_clust_6="13000.00000" pt_clust_7="13000.00000" pt_clust_8="13000.00000" pt_clust_9="20.92939" pt_clust_10="13000.00000"></scales>
<clustering>
<clus scale="   20.929">  2  9  1 -1</clus>
<clus scale="   91.624">  5  6 -1 -1</clus>
<clus scale="   91.792">  7  8 -1 -1</clus>
<clus scale="   35.148">  7 10 -1 -1</clus>
<clus scale="  101.781">  1  5  2 -1</clus>
<clus scale="   20.929">  2  5  1 -1</clus>
</clustering>
</event>
<event>
10    2  0.5692308E-006  0.3532149E+03  0.7546771E-02  0.1067898E+00
         -1   -1    0    0    0  501 -0.00000000000E+00  0.00000000000E+00  0.48902551265E+03  0.48902551265E+03  0.00000000000E+00 0.  1.
         21   -1    0    0  503  502  0.00000000000E+00 -0.00000000000E+00 -0.52801853080E+03  0.52801853080E+03  0.00000000000E+00 0.  1.
         23    2    1    2    0    0  0.22965364837E+03  0.10685053493E+03  0.18552628416E+03  0.32688525692E+03  0.90973260103E+02 0.  0.
         23    2    1    2    0    0 -0.96803547977E+02 -0.28048285575E+02 -0.52604600404E+02  0.14615687052E+03  0.91852891039E+02 0.  0.
        -11    1    3    3    0    0  0.63302661957E+02 -0.16395792794E+01  0.79871203002E+02  0.10192803491E+03  0.00000000000E+00 0. -1.
         11    1    3    3    0    0  0.16635098641E+03  0.10849011421E+03  0.10565508116E+03  0.22495722201E+03  0.00000000000E+00 0.  1.
        -13    1    4    4    0    0 -0.32893542587E+02 -0.43066177712E+02  0.10382350693E+02  0.55176752464E+02  0.00000000000E+00 0.  1.
         13    1    4    4    0    0 -0.63910005390E+02  0.15017892136E+02 -0.62986951097E+02  0.90980118057E+02  0.00000000000E+00 0. -1.
         21    1    1    2  503  501  0.83329880131E+02  0.51362738266E+02 -0.25913815936E+03  0.27701008184E+03  0.00000000000E+00 0.  1.
         -1    1    1    2    0  502 -0.21617998052E+03 -0.13016498762E+03  0.87223457452E+02  0.26699183417E+03  0.00000000000E+00 0.  1.
<scales pt_clust_5="13000.00000" pt_clust_6="13000.00000" pt_clust_7="13000.00000" pt_clust_8="13000.00000" pt_clust_9="97.88769" pt_clust_10="13000.00000"></scales>
<clustering>
<clus scale="   90.973">  5  6 -1 -1</clus>
<clus scale="   91.853">  7  8 -1 -1</clus>
<clus scale="   97.888">  2  9  1 -1</clus>
<clus scale="  218.497">  7 10 -1 -1</clus>
<clus scale="  294.166">  1  5  2 -1</clus>
<clus scale="   97.888">  2  5  1 -1</clus>
</clustering>
</event>
<event>
10    2  0.5692308E-006  0.2667930E+03  0.7546771E-02  0.1129047E+00
         21   -1    0    0  503  502  0.00000000000E+00  0.00000000000E+00  0.37987333729E+03  0.37987333729E+03  0.00000000000E+00 0.  1.
         -3   -1    0    0    0  501 -0.00000000000E+00 -0.00000000000E+00 -0.20366686827E+03  0.20366686827E+03  0.00000000000E+00 0.  1.
         23    2    1    2    0    0 -0.50380491184E+02 -0.97365020801E+02  0.30101385465E+02  0.14497501776E+03  0.89963999461E+02 0.  0.
         23    2    1    2    0    0  0.51571033900E+02  0.58381912501E+01 -0.98477960027E+02  0.14324652495E+03  0.90155434033E+02 0.  0.
        -13    1    3    3    0    0 -0.52824343515E+02 -0.49848393807E+02  0.55157788675E+02  0.91201180280E+02  0.00000000000E+00 0.  1.
         13    1    3    3    0    0  0.24438523311E+01 -0.47516626994E+02 -0.25056403210E+02  0.53773837476E+02  0.00000000000E+00 0. -1.
        -13    1    4    4    0    0 -0.13014964175E+02 -0.15191061908E+02  0.39048267291E+01  0.20381494699E+02  0.00000000000E+00 0. -1.
         13    1    4    4    0    0  0.64585998075E+02  0.21029253158E+02 -0.10238278676E+03  0.12286503026E+03  0.00000000000E+00 0.  1.
         21    1    1    2  503  501  0.27170239089E+02 -0.23319828320E+01  0.16987585195E+03  0.17205076319E+03  0.00000000000E+00 0.  1.
         -3    1    1    2    0  502 -0.28360781804E+02  0.93858812383E+02  0.74707191626E+02  0.12326789966E+03  0.00000000000E+00 0.  1.
<scales pt_clust_5="13000.00000" pt_clust_6="13000.00000" pt_clust_7="13000.00000" pt_clust_8="13000.00000" pt_clust_9="27.27013" pt_clust_10="13000.00000"></scales>
<clustering>
<clus scale="   27.270">  1  9  2 -1</clus>
<clus scale="   89.964">  5  6 -1 -1</clus>
<clus scale="   90.155">  7  8 -1 -1</clus>
<clus scale="   94.038">  7 10 -1 -1</clus>
<clus scale="  138.872">  2  5  1 -1</clus>
<clus scale="   27.270">  1  5  2 -1</clus>
</clustering>
</event>
<event>
10    2  0.5692308E-006  0.2210721E+03  0.7546771E-02  0.1158929E+00
          2   -1    0    0  503    0 -0.00000000000E+00  0.00000000000E+00  0.10479533678E+04  0.10479533678E+04  0.00000000000E+00 0. -1.
         21   -1    0    0  501  502  0.00000000000E+00 -0.00000000000E+00 -0.12592137432E+03  0.12592137432E+03  0.00000000000E+00 0. -1.
         23    2    1    2    0    0 -0.17375775315E+02 -0.82902265923E+02  0.19260496928E+03  0.22656395078E+03  0.84022891760E+02 0.  0.
         23    2    1    2    0    0  0.16916766388E+03  0.14371768667E+03  0.63751672032E+03  0.68142603612E+03  0.92959141823E+02 0.  0.
        -11    1    3    3    0    0  0.25924282668E+02 -0.64487737613E+02  0.13776454471E+03  0.15430426602E+03  0.00000000000E+00 0. -1.
         11    1    3    3    0    0 -0.43300057983E+02 -0.18414528310E+02  0.54840424572E+02  0.72259684759E+02  0.00000000000E+00 0.  1.
        -11    1    4    4    0    0  0.53851317386E+02  0.58067057848E+02  0.11576280977E+03  0.14025967245E+03  0.00000000000E+00 0.  1.
         11    1    4    4    0    0  0.11531634650E+03  0.85650628825E+02  0.52175391056E+03  0.54116636367E+03  0.00000000000E+00 0. -1.
         21    1    1    2  503  502 -0.15355274619E+03 -0.92630751138E+02  0.11854202618E+02  0.17972040518E+03  0.00000000000E+00 0. -1.
          2    1    1    2  501    0  0.17608576202E+01  0.31815330389E+02  0.80056101296E+02  0.86164350065E+02  0.00000000000E+00 0. -1.
<scales pt_clust_5="13000.00000" pt_clust_6="13000.00000" pt_clust_7="13000.00000" pt_clust_8="13000.00000" pt_clust_9="186.05653" pt_clust_10="13000.00000"></scales>
<clustering>
<clus scale="   84.023">  5  6 -1 -1</clus>
<clus scale="   92.959">  7  8 -1 -1</clus>
<clus scale="   31.864">  7 10 -1 -1</clus>
<clus scale="  119.309">  1  5  2 -1</clus>
<clus scale="  186.057">  2  9  1 -1</clus>
<clus scale="  186.057">  2  5  1 -1</clus>
</clustering>
</event>
<event>
10    2  0.5692308E-006  0.6394095E+03  0.7546771E-02  0.1038057E+00
         21   -1    0    0  503  502  0.00000000000E+00  0.00000000000E+00  0.35891700393E+03  0.35891700393E+03  0.00000000000E+00 0. -1.
          2   -1    0    0  502    0 -0.00000000000E+00 -0.00000000000E+00 -0.88634949912E+03  0.88634949912E+03  0.00000000000E+00 0. -1.
         23    2    1    2    0    0 -0.62192696008E+02  0.47786913169E+02 -0.41607901814E+03  0.43184762720E+03  0.84965306328E+02 0.  0.
         23    2    1    2    0    0 -0.15552288957E+02 -0.18178519143E+03 -0.33293051675E+03  0.38999924937E+03  0.89269009250E+02 0.  0.
        -11    1    4    4    0    0 -0.38419301215E+02 -0.28454061280E+02 -0.69995485567E+02  0.84764640676E+02  0.00000000000E+00 0. -1.
         11    1    4    4    0    0  0.22867012258E+02 -0.15333113015E+03 -0.26293503119E+03  0.30523460870E+03  0.00000000000E+00 0.  1.
        -13    1    3    3    0    0  0.42490155606E-01 -0.20935150139E+02 -0.11231913595E+03  0.11425353657E+03  0.00000000000E+00 0.  1.
         13    1    3    3    0    0 -0.62235186164E+02  0.68722063308E+02 -0.30375988219E+03  0.31759409064E+03  0.00000000000E+00 0. -1.
         21    1    1    2  503  501 -0.12480707598E+03  0.37085405849E+02  0.44976304085E+02  0.13774977848E+03  0.00000000000E+00 0. -1.
          2    1    1    2  501    0  0.20255206095E+03  0.96912872412E+02  0.17660073561E+03  0.28566984799E+03  0.00000000000E+00 0. -1.
<scales pt_clust_5="13000.00000" pt_clust_6="13000.00000" pt_clust_7="13000.00000" pt_clust_8="13000.00000" pt_clust_9="137.57547" pt_clust_10="13000.00000"></scales>
<clustering>
<clus scale="   84.965">  7  8 -1 -1</clus>
<clus scale="   89.269">  5  6 -1 -1</clus>
<clus scale="  115.631">  2  7  1 -1</clus>
<clus scale="  137.575">  1  9  2 -1</clus>
<clus scale="  160.798">  5 10 -1 -1</clus>
<clus scale="  137.575">  1  5  2 -1</clus>
</clustering>
</event>
<event>
10    2  0.5692308E-006  0.4816529E+03  0.7546771E-02  0.1044347E+00
         21   -1    0    0  501  502  0.00000000000E+00  0.00000000000E+00  0.21556407816E+03  0.21556407816E+03  0.00000000000E+00 0. -1.
          1   -1    0    0  503    0 -0.00000000000E+00 -0.00000000000E+00 -0.74692237675E+03  0.74692237675E+03  0.00000000000E+00 0. -1.
         23    2    1    2    0    0 -0.10596160686E+03  0.17962153018E+03 -0.32745178605E+02  0.23033284542E+03  0.92136945485E+02 0.  0.
         23    2    1    2    0    0  0.11683539881E+02 -0.21856816100E+03 -0.52810703750E+03  0.57861302276E+03  0.89372484201E+02 0.  0.
        -11    1    3    3    0    0 -0.50197046781E+02  0.15303704893E+03 -0.45266375315E+02  0.16729951161E+03  0.00000000000E+00 0.  1.
         11    1    3    3    0    0 -0.55764560077E+02  0.26584481255E+02  0.12521196711E+02  0.63033333810E+02  0.00000000000E+00 0. -1.
        -13    1    4    4    0    0  0.42639489552E+02 -0.11699081285E+03 -0.34706454574E+03  0.36872588094E+03  0.00000000000E+00 0.  1.
         13    1    4    4    0    0 -0.30955949670E+02 -0.10157734815E+03 -0.18104249176E+03  0.20988714182E+03  0.00000000000E+00 0. -1.
         21    1    1    2  503  502 -0.16701696257E+02 -0.17112116835E+02  0.15325213096E+02  0.28401291465E+02  0.00000000000E+00 0. -1.
          1    1    1    2  501    0  0.11097976323E+03  0.56058747658E+02  0.14168704422E+02  0.12513929527E+03  0.00000000000E+00 0. -1.
<scales pt_clust_5="13000.00000" pt_clust_6="13000.00000" pt_clust_7="13000.00000" pt_clust_8="13000.00000" pt_clust_9="23.91174" pt_clust_10="13000.00000"></scales>
<clustering>
<clus scale="   23.912">  1  9  2 -1</clus>
<clus scale="   89.372">  7  8 -1 -1</clus>
<clus scale="   92.137">  5  6 -1 -1</clus>
<clus scale="  116.233">  7 10 -1 -1</clus>
<clus scale="  225.388">  2  5  1 -1</clus>
<clus scale="   23.912">  1  5  2 -1</clus>
</clustering>
</event>
<event>
10    2  0.5692308E-006  0.3872880E+03  0.7546771E-02  0.1075264E+00
         21   -1    0    0  501  502  0.00000000000E+00  0.00000000000E+00  0.81794965202E+03  0.81794965202E+03  0.00000000000E+00 0.  1.
         -1   -1    0    0    0  501 -0.00000000000E+00 -0.00000000000E+00 -0.37355313398E+03  0.37355313398E+03  0.00000000000E+00 0.  1.
         23    2    1    2    0    0  0.20321130513E+02  0.16113618522E+03 -0.31682182768E+02  0.18869442592E+03  0.90686311720E+02 0.  0.
         23    2    1    2    0    0 -0.97842205445E+02 -0.23958296582E+03 -0.11510471595E+03  0.29942999851E+03  0.97139763728E+02 0.  0.
        -11    1    3    3    0    0  0.53806086268E+02  0.11380276797E+03 -0.82282361082E+01  0.12615018346E+03  0.00000000000E+00 0.  1.
         11    1    3    3    0    0 -0.33484955756E+02  0.47333417258E+02 -0.23453946660E+02  0.62544242462E+02  0.00000000000E+00 0. -1.
        -13    1    4    4    0    0 -0.31878148219E+02 -0.63112198301E+02 -0.81781756049E+02  0.10810930363E+03  0.00000000000E+00 0.  1.
         13    1    4    4    0    0 -0.65964057226E+02 -0.17647076751E+03 -0.33322959898E+02  0.19132069488E+03  0.00000000000E+00 0. -1.
         21    1    1    2  503  502  0.75200320351E+02 -0.28269012669E+02  0.59120375823E+03  0.59663733457E+03  0.00000000000E+00 0.  1.
         -1    1    1    2    0  503  0.23207545814E+01  0.10671579326E+03 -0.20341480242E-01  0.10674102701E+03  0.00000000000E+00 0.  1.
<scales pt_clust_5="13000.00000" pt_clust_6="13000.00000" pt_clust_7="13000.00000" pt_clust_8="13000.00000" pt_clust_9="80.33819" pt_clust_10="13000.00000"></scales>
<clustering>
<clus scale="   80.338">  1  9  2 -1</clus>
<clus scale="   90.686">  5  6 -1 -1</clus>
<clus scale="   97.140">  7  8 -1 -1</clus>
<clus scale="  102.009">  7 10 -1 -1</clus>
<clus scale="  182.409">  2  5  1 -1</clus>
<clus scale="   80.338">  1  5  2 -1</clus>
</clustering>
</event>
<event>
10    2  0.5692308E-006  0.2497241E+03  0.7546771E-02  0.1133532E+00
         21   -1    0    0  501  502  0.00000000000E+00  0.00000000000E+00  0.85891945234E+02  0.85891945234E+02  0.00000000000E+00 0. -1.
          1   -1    0    0  503    0 -0.00000000000E+00 -0.00000000000E+00 -0.94290768952E+03  0.94290768952E+03  0.00000000000E+00 0. -1.
         23    2    1    2    0    0  0.35504274509E+02  0.94375284735E+02 -0.32130691447E+03  0.34833318557E+03  0.89054067884E+02 0.  0.
         23    2    1    2    0    0 -0.21064562198E+02 -0.10001031905E+03 -0.48405496966E+03  0.50323144644E+03  0.92124347096E+02 0.  0.
        -11    1    3    3    0    0  0.62821249327E+02  0.57448934337E+02 -0.24383862499E+03  0.25827149370E+03  0.00000000000E+00 0. -1.
         11    1    3    3    0    0 -0.27316974818E+02  0.36926350398E+02 -0.77468289482E+02  0.90061691868E+02  0.00000000000E+00 0.  1.
        -13    1    4    4    0    0 -0.21269000115E+02  0.11917301542E+02 -0.11597387017E+03  0.11850878028E+03  0.00000000000E+00 0.  1.
         13    1    4    4    0    0  0.20443791761E+00 -0.11192762060E+03 -0.36808109950E+03  0.38472266616E+03  0.00000000000E+00 0. -1.
         21    1    1    2  503  502 -0.23004887496E+01  0.86551281672E+02 -0.16303949529E+02  0.88103549178E+02  0.00000000000E+00 0. -1.
          1    1    1    2  501    0 -0.12139223562E+02 -0.80916247353E+02 -0.35349910624E+02  0.89131453569E+02  0.00000000000E+00 0. -1.
<scales pt_clust_5="13000.00000" pt_clust_6="13000.00000" pt_clust_7="13000.00000" pt_clust_8="13000.00000" pt_clust_9="86.58185" pt_clust_10="13000.00000"></scales>
<clustering>
<clus scale="   86.582">  1  9  2 -1</clus>
<clus scale="   89.054">  5  6 -1 -1</clus>
<clus scale="   92.124">  7  8 -1 -1</clus>
<clus scale="   36.872">  7 10 -1 -1</clus>
<clus scale="  151.715">  2  5  1 -1</clus>
<clus scale="   86.582">  1  5  2 -1</clus>
</clustering>
</event>
<event>
10    2  0.5692308E-006  0.3739955E+03  0.7546771E-02  0.1066877E+00
         21   -1    0    0  503  502  0.00000000000E+00  0.00000000000E+00  0.41582900852E+03  0.41582900852E+03  0.00000000000E+00 0. -1.
          2   -1    0    0  502    0 -0.00000000000E+00 -0.00000000000E+00 -0.36739555710E+03  0.36739555710E+03  0.00000000000E+00 0. -1.
         23    2    1    2    0    0  0.95424001447E+02  0.21060425217E+03 -0.96365749391E+02  0.26679682446E+03  0.91838427694E+02 0.  0.
         23    2    1    2    0    0 -0.83555750786E+02 -0.11584241950E+02 -0.80246437380E+02  0.14900395885E+03  0.92988875083E+02 0.  0.
        -13    1    4    4    0    0  0.59820100351E+01  0.25434703160E+02 -0.30263578417E+02  0.39982405475E+02  0.00000000000E+00 0.  1.
         13    1    4    4    0    0 -0.89537760821E+02 -0.37018945110E+02 -0.49982858963E+02  0.10902155337E+03  0.00000000000E+00 0. -1.
        -13    1    3    3    0    0  0.50710802584E+02  0.32882282860E+02 -0.48220187561E+02  0.77317633909E+02  0.00000000000E+00 0.  1.
         13    1    3    3    0    0  0.44713198864E+02  0.17772196931E+03 -0.48145561830E+02  0.18947919055E+03  0.00000000000E+00 0. -1.
         21    1    1    2  503  501  0.23973346426E+02  0.13043068350E+02  0.12904588119E+03  0.13190027454E+03  0.00000000000E+00 0. -1.
          2    1    1    2  501    0 -0.35841597088E+02 -0.21206307857E+03  0.95999756999E+02  0.23552350778E+03  0.00000000000E+00 0. -1.
<scales pt_clust_5="13000.00000" pt_clust_6="13000.00000" pt_clust_7="13000.00000" pt_clust_8="13000.00000" pt_clust_9="27.29181" pt_clust_10="13000.00000"></scales>
<clustering>
<clus scale="   27.292">  1  9  2 -1</clus>
<clus scale="   91.838">  7  8 -1 -1</clus>
<clus scale="   92.989">  5  6 -1 -1</clus>
<clus scale="  205.658">  5 10 -1 -1</clus>
<clus scale="  254.887">  2  7  1 -1</clus>
<clus scale="   27.292">  1  5  2 -1</clus>
</clustering>
</event>
<event>
10    2  0.5692308E-006  0.2556330E+03  0.7546771E-02  0.1113213E+00
         -1   -1    0    0    0  501 -0.00000000000E+00  0.00000000000E+00  0.67308642929E+03  0.67308642929E+03  0.00000000000E+00 0.  1.
         21   -1    0    0  501  502  0.00000000000E+00 -0.00000000000E+00 -0.13652161672E+03  0.13652161672E+03  0.00000000000E+00 0.  1.
         23    2    1    2    0    0  0.16231179148E+03  0.97390171701E+02  0.36319933276E+03  0.42847722075E+03  0.12589285201E+03 0.  0.
         23    2    1    2    0    0 -0.77071479146E+02 -0.12433988101E+02  0.13207653921E+03  0.17851091321E+03  0.91254133977E+02 0.  0.
        -11    1    3    3    0    0  0.13201222970E+02  0.33617518008E+02  0.18094836659E+03  0.18451753623E+03  0.00000000000E+00 0. -1.
         11    1    3    3    0    0  0.14911056851E+03  0.63772653692E+02  0.18225096617E+03  0.24395968452E+03  0.00000000000E+00 0.  1.
        -11    1    4    4    0    0 -0.23082258633E+02 -0.48571961919E+02  0.46684979323E+02  0.71214559204E+02  0.00000000000E+00 0. -1.
         11    1    4    4    0    0 -0.53989220512E+02  0.36137973818E+02  0.85391559885E+02  0.10729635401E+03  0.00000000000E+00 0.  1.
         21    1    1    2  503  502  0.33869423401E+02 -0.70347732048E+01 -0.27824176428E+02  0.44393813414E+02  0.00000000000E+00 0.  1.
         -1    1    1    2    0  503 -0.11910973574E+03 -0.77921410395E+02  0.69113117034E+02  0.15822609864E+03  0.00000000000E+00 0.  1.
<scales pt_clust_5="13000.00000" pt_clust_6="13000.00000" pt_clust_7="13000.00000" pt_clust_8="13000.00000" pt_clust_9="34.59228" pt_clust_10="13000.00000"></scales>
<clustering>
<clus scale="   34.592">  2  9  1 -1</clus>
<clus scale="   91.254">  7  8 -1 -1</clus>
<clus scale="  125.893">  5  6 -1 -1</clus>
<clus scale="  131.912">  7 10 -1 -1</clus>
<clus scale="  234.380">  1  5  2 -1</clus>
<clus scale="   34.592">  2  5  1 -1</clus>
</clustering>
</event>
<event>
10    2  0.5692308E-006  0.4128347E+03  0.7546771E-02  0.1092568E+00
         21   -1    0    0  503  502  0.00000000000E+00  0.00000000000E+00  0.10206698464E+03  0.10206698464E+03  0.00000000000E+00 0. -1.
          1   -1    0    0  502    0 -0.00000000000E+00 -0.00000000000E+00 -0.96822968941E+03  0.96822968941E+03  0.00000000000E+00 0. -1.
         23    2    1    2    0    0  0.14669638145E+02  0.11180218044E+02 -0.14641728301E+03  0.17469572730E+03  0.93490003810E+02 0.  0.
         23    2    1    2    0    0 -0.52710632295E+02 -0.18277437110E+03 -0.30239670546E+03  0.36673534058E+03  0.82862301885E+02 0.  0.
        -11    1    3    3    0    0  0.51694438087E+02  0.67570120441E+01 -0.54097545668E+02  0.75129997925E+02  0.00000000000E+00 0.  1.
         11    1    3    3    0    0 -0.37024799943E+02  0.44232060000E+01 -0.92319737343E+02  0.99565729371E+02  0.00000000000E+00 0. -1.
        -11    1    4    4    0    0 -0.41592977274E+02 -0.16117896814E+03 -0.19388627787E+03  0.25553967261E+03  0.00000000000E+00 0. -1.
         11    1    4    4    0    0 -0.11117655022E+02 -0.21595402959E+02 -0.10851042758E+03  0.11119566797E+03  0.00000000000E+00 0.  1.
         21    1    1    2  503  501 -0.13721513460E+01 -0.22253409478E+02  0.31366096345E+02  0.38482840756E+02  0.00000000000E+00 0. -1.
          1    1    1    2  501    0  0.39413145497E+02  0.19384756253E+03 -0.44871481264E+03  0.49038276542E+03  0.00000000000E+00 0. -1.
<scales pt_clust_5="13000.00000" pt_clust_6="13000.00000" pt_clust_7="13000.00000" pt_clust_8="13000.00000" pt_clust_9="22.29567" pt_clust_10="13000.00000"></scales>
<clustering>
<clus scale="   22.296">  1  9  2 -1</clus>
<clus scale="   82.862">  7  8 -1 -1</clus>
<clus scale="   93.490">  5  6 -1 -1</clus>
<clus scale="   94.812">  2  5  1 -1</clus>
<clus scale="  196.140">  7 10 -1 -1</clus>
<clus scale="   22.296">  1  5  2 -1</clus>
</clustering>
</event>
<event>
10    2  0.5692308E-006  0.6408966E+03  0.7546771E-02  0.1023459E+00
         21   -1    0    0  501  502  0.00000000000E+00  0.00000000000E+00  0.60430092941E+03  0.60430092941E+03  0.00000000000E+00 0. -1.
          1   -1    0    0  503    0 -0.00000000000E+00 -0.00000000000E+00 -0.32875841751E+03  0.32875841751E+03  0.00000000000E+00 0. -1.
         23    2    1    2    0    0 -0.29819885357E+02  0.14850709572E+03  0.14872191929E+03  0.23267724940E+03  0.95272819161E+02 0.  0.
         23    2    1    2    0    0 -0.22918125810E+02  0.16738765874E+02 -0.25627416209E+03  0.27348889561E+03  0.91182800446E+02 0.  0.
        -13    1    3    3    0    0  0.31125571438E+02  0.67283297584E+02  0.41324395895E+02  0.84873724010E+02  0.00000000000E+00 0.  1.
         13    1    3    3    0    0 -0.60945456795E+02  0.81223798135E+02  0.10739752339E+03  0.14780352539E+03  0.00000000000E+00 0. -1.
        -13    1    4    4    0    0 -0.16892222843E+02 -0.30124147795E+02 -0.18349966714E+03  0.18672155556E+03  0.00000000000E+00 0.  1.
         13    1    4    4    0    0 -0.60259029663E+01  0.46862913669E+02 -0.72774494950E+02  0.86767340050E+02  0.00000000000E+00 0. -1.
         21    1    1    2  503  502  0.23013575381E+02 -0.28358318517E+01  0.50682110975E+02  0.55734576045E+02  0.00000000000E+00 0. -1.
          1    1    1    2  501    0  0.29724435786E+02 -0.16241002974E+03  0.33241264372E+03  0.37115862586E+03  0.00000000000E+00 0. -1.
<scales pt_clust_5="13000.00000" pt_clust_6="13000.00000" pt_clust_7="13000.00000" pt_clust_8="13000.00000" pt_clust_9="23.18764" pt_clust_10="13000.00000"></scales>
<clustering>
<clus scale="   23.188">  1  9  2 -1</clus>
<clus scale="   91.183">  7  8 -1 -1</clus>
<clus scale="   95.273">  5  6 -1 -1</clus>
<clus scale="  170.121">  7 10 -1 -1</clus>
<clus scale="  176.970">  2  5  1 -1</clus>
<clus scale="   23.188">  1  5  2 -1</clus>
</clustering>
</event>
<event>
10    2  0.5692308E-006  0.1425645E+03  0.7546771E-02  0.1221919E+00
         -2   -1    0    0    0  501 -0.00000000000E+00  0.00000000000E+00  0.12052721812E+03  0.12052721812E+03  0.00000000000E+00 0.  1.
         21   -1    0    0  501  502  0.00000000000E+00 -0.00000000000E+00 -0.32899280636E+03  0.32899280636E+03  0.00000000000E+00 0. -1.
         23    2    1    2    0    0 -0.33165562458E+02  0.44622243653E+02  0.44186219934E+02  0.11561159454E+03  0.91227844429E+02 0.  0.
         23    2    1    2    0    0  0.30138743283E+02 -0.46246766359E+02 -0.60364210745E+02  0.12286695538E+03  0.91680660670E+02 0.  0.
        -11    1    3    3    0    0 -0.42722213279E+02  0.67599861483E+02  0.42765650268E+02  0.90685333008E+02  0.00000000000E+00 0.  1.
         11    1    3    3    0    0  0.95566508202E+01 -0.22977617829E+02  0.14205696660E+01  0.24926261536E+02  0.00000000000E+00 0. -1.
        -13    1    4    4    0    0  0.23941764709E+02 -0.18049678296E+02  0.20951603514E+02  0.36578254111E+02  0.00000000000E+00 0.  1.
         13    1    4    4    0    0  0.61969785734E+01 -0.28197088063E+02 -0.81315814259E+02  0.86288701272E+02  0.00000000000E+00 0. -1.
         21    1    1    2  503  502 -0.14635429317E+02  0.40653158571E+02 -0.11189291357E+03  0.11994540091E+03  0.00000000000E+00 0. -1.
         -2    1    1    2    0  503  0.17662248492E+02 -0.39028635866E+02 -0.80394683866E+02  0.91096073643E+02  0.00000000000E+00 0.  1.
<scales pt_clust_5="13000.00000" pt_clust_6="13000.00000" pt_clust_7="13000.00000" pt_clust_8="13000.00000" pt_clust_9="43.20735" pt_clust_10="13000.00000"></scales>
<clustering>
<clus scale="   43.207">  2  9  1 -1</clus>
<clus scale="   91.228">  5  6 -1 -1</clus>
<clus scale="   91.681">  7  8 -1 -1</clus>
<clus scale="   25.544">  7 10 -1 -1</clus>
<clus scale="  110.620">  1  5  2 -1</clus>
<clus scale="   43.207">  2  5  1 -1</clus>
</clustering>
</event>
<event>
10    2  0.5692308E-006  0.2749960E+03  0.7546771E-02  0.1134893E+00
          2   -1    0    0  502    0 -0.00000000000E+00  0.00000000000E+00  0.92342598167E+03  0.92342598167E+03  0.00000000000E+00 0. -1.
         21   -1    0    0  503  502  0.00000000000E+00 -0.00000000000E+00 -0.67411808383E+02  0.67411808383E+02  0.00000000000E+00 0. -1.
         23    2    1    2    0    0 -0.25043951730E+02  0.48388239360E+02  0.69839758105E+02  0.12731443413E+03  0.91448084178E+02 0.  0.
         23    2    1    2    0    0  0.23767088953E+02 -0.15250269440E+03  0.63069216129E+03  0.65579053060E+03  0.92014517313E+02 0.  0.
        -11    1    4    4    0    0  0.50700615785E+02 -0.50685631206E+02  0.31263609074E+03  0.32075054308E+03  0.00000000000E+00 0.  1.
         11    1    4    4    0    0 -0.26933526833E+02 -0.10181706320E+03  0.31805607054E+03  0.33503998752E+03  0.00000000000E+00 0. -1.
        -13    1    3    3    0    0  0.17152658132E+02  0.15763685437E+02  0.70211473007E+02  0.73975390512E+02  0.00000000000E+00 0.  1.
         13    1    3    3    0    0 -0.42196609861E+02  0.32624553924E+02 -0.37171490194E+00  0.53339043622E+02  0.00000000000E+00 0. -1.
         21    1    1    2  503  501  0.14777274641E+02  0.18496449270E+02 -0.60320431509E+01  0.24430964492E+02  0.00000000000E+00 0. -1.
          2    1    1    2  501    0 -0.13500411864E+02  0.85618005774E+02  0.16151429705E+03  0.18330186083E+03  0.00000000000E+00 0. -1.
<scales pt_clust_5="13000.00000" pt_clust_6="13000.00000" pt_clust_7="13000.00000" pt_clust_8="13000.00000" pt_clust_9="23.67460" pt_clust_10="13000.00000"></scales>
<clustering>
<clus scale="   23.675">  2  9  1 -1</clus>
<clus scale="   91.448">  7  8 -1 -1</clus>
<clus scale="   92.015">  5  6 -1 -1</clus>
<clus scale="   90.084">  5 10 -1 -1</clus>
<clus scale="  109.907">  1  7  2 -1</clus>
<clus scale="   23.675">  2  5  1 -1</clus>
</clustering>
</event>
<event>
10    2  0.5692308E-006  0.1033648E+04  0.7546771E-02  0.9952139E-01
          1   -1    0    0  503    0 -0.00000000000E+00  0.00000000000E+00  0.15961004879E+04  0.15961004879E+04  0.00000000000E+00 0. -1.
         21   -1    0    0  501  502  0.00000000000E+00 -0.00000000000E+00 -0.27334108063E+03  0.27334108063E+03  0.00000000000E+00 0. -1.
         23    2    1    2    0    0  0.15908729615E+02 -0.50505316472E+02 -0.48299481885E+01  0.10519653327E+03  0.90769529820E+02 0.  0.
         23    2    1    2    0    0 -0.29325029389E+03  0.21713563987E+02  0.13247661995E+04  0.13600686609E+04  0.91181496575E+02 0.  0.
        -11    1    3    3    0    0 -0.35618943899E+02 -0.58082122937E+01 -0.77874888199E+01  0.36920041667E+02  0.00000000000E+00 0. -1.
         11    1    3    3    0    0  0.51527673514E+02 -0.44697104178E+02  0.29575406314E+01  0.68276491608E+02  0.00000000000E+00 0.  1.
        -11    1    4    4    0    0 -0.14720099492E+03 -0.24448502879E+02  0.78172249160E+03  0.79583661393E+03  0.00000000000E+00 0. -1.
         11    1    4    4    0    0 -0.14604929896E+03  0.46162066866E+02  0.54304370789E+03  0.56423204697E+03  0.00000000000E+00 0.  1.
         21    1    1    2  503  502 -0.59135265138E+02  0.25619918868E+02 -0.18382752873E+02  0.67017053270E+02  0.00000000000E+00 0. -1.
          1    1    1    2  501    0  0.33647682941E+03  0.31718336170E+01  0.21205908884E+02  0.33715932114E+03  0.00000000000E+00 0. -1.
<scales pt_clust_5="13000.00000" pt_clust_6="13000.00000" pt_clust_7="13000.00000" pt_clust_8="13000.00000" pt_clust_9="64.44657" pt_clust_10="13000.00000"></scales>
<clustering>
<clus scale="   64.447">  2  9  1 -1</clus>
<clus scale="   90.770">  5  6 -1 -1</clus>
<clus scale="   91.181">  7  8 -1 -1</clus>
<clus scale="  101.061">  1  5  2 -1</clus>
<clus scale="  296.598">  7 10 -1 -1</clus>
<clus scale="   64.447">  2  5  1 -1</clus>
</clustering>
</event>
<event>
10    2  0.5692308E-006  0.2447039E+03  0.7546771E-02  0.1137681E+00
         -3   -1    0    0    0  501 -0.00000000000E+00  0.00000000000E+00  0.22910885984E+03  0.22910885984E+03  0.00000000000E+00 0.  1.
         21   -1    0    0  501  502  0.00000000000E+00 -0.00000000000E+00 -0.32728283841E+03  0.32728283841E+03  0.00000000000E+00 0.  1.
         23    2    1    2    0    0  0.56263748547E+02 -0.66890793045E+02 -0.17311458477E+03  0.21317553281E+03  0.88516443298E+02 0.  0.
         23    2    1    2    0    0  0.40782293840E+02  0.14196794915E+02  0.95508004747E+02  0.13780231651E+03  0.89459236460E+02 0.  0.
        -13    1    3    3    0    0  0.19981263073E+02 -0.69475336022E+02 -0.15806253522E+03  0.17380977599E+03  0.00000000000E+00 0.  1.
         13    1    3    3    0    0  0.36282485474E+02  0.25845429772E+01 -0.15052049553E+02  0.39365756824E+02  0.00000000000E+00 0. -1.
        -13    1    4    4    0    0 -0.72821771434E+00 -0.33916803466E+02  0.21094066851E+02  0.39947960082E+02  0.00000000000E+00 0.  1.
         13    1    4    4    0    0  0.41510511554E+02  0.48113598381E+02  0.74413937895E+02  0.97854356427E+02  0.00000000000E+00 0. -1.
         21    1    1    2  503  502 -0.18689127425E+02 -0.58047353534E+02 -0.32730598547E+02  0.69210337504E+02  0.00000000000E+00 0.  1.
         -3    1    1    2    0  503 -0.78356914962E+02  0.11074135166E+03  0.12163199992E+02  0.13620351143E+03  0.00000000000E+00 0.  1.
<scales pt_clust_5="13000.00000" pt_clust_6="13000.00000" pt_clust_7="13000.00000" pt_clust_8="13000.00000" pt_clust_9="60.98179" pt_clust_10="13000.00000"></scales>
<clustering>
<clus scale="   60.982">  2  9  1 -1</clus>
<clus scale="   88.516">  5  6 -1 -1</clus>
<clus scale="   89.459">  7  8 -1 -1</clus>
<clus scale="  127.916">  7 10 -1 -1</clus>
<clus scale="  145.775">  1  5  2 -1</clus>
<clus scale="   60.982">  2  5  1 -1</clus>
</clustering>
</event>
<event>
10    2  0.5692308E-006  0.2303302E+03  0.7546771E-02  0.1158908E+00
          1   -1    0    0  502    0 -0.00000000000E+00  0.00000000000E+00  0.25243769650E+03  0.25243769650E+03  0.00000000000E+00 0. -1.
         21   -1    0    0  503  502  0.00000000000E+00 -0.00000000000E+00 -0.25891438093E+03  0.25891438093E+03  0.00000000000E+00 0. -1.
         23    2    1    2    0    0  0.40869362595E+02 -0.39236978913E+02  0.12159819568E+03  0.16079850755E+03  0.88657732465E+02 0.  0.
         23    2    1    2    0    0 -0.47610666660E+01  0.24440145796E+02 -0.11260163822E+03  0.14339999566E+03  0.85231692124E+02 0.  0.
        -11    1    3    3    0    0 -0.15377073760E+02 -0.34442023626E+02  0.86397812389E+02  0.94272421071E+02  0.00000000000E+00 0.  1.
         11    1    3    3    0    0  0.56246436356E+02 -0.47949552866E+01  0.35200383287E+02  0.66526086481E+02  0.00000000000E+00 0. -1.
        -11    1    4    4    0    0  0.25624520177E+02  0.24620513942E+02 -0.10667912354E+03  0.11244207905E+03  0.00000000000E+00 0. -1.
         11    1    4    4    0    0 -0.30385586843E+02 -0.18036814681E+00 -0.59225146748E+01  0.30957916605E+02  0.00000000000E+00 0.  1.
         21    1    1    2  503  501 -0.39930362151E+02 -0.43209477584E+02 -0.93124716750E+02  0.11015310093E+03  0.00000000000E+00 0. -1.
          1    1    1    2  501    0  0.38220662213E+01  0.58006310701E+02  0.77651474862E+02  0.97000473296E+02  0.00000000000E+00 0. -1.
<scales pt_clust_5="13000.00000" pt_clust_6="13000.00000" pt_clust_7="13000.00000" pt_clust_8="13000.00000" pt_clust_9="58.83445" pt_clust_10="13000.00000"></scales>
<clustering>
<clus scale="   58.834">  2  9  1 -1</clus>
<clus scale="   85.232">  7  8 -1 -1</clus>
<clus scale="   55.365">  7 10 -1 -1</clus>
<clus scale="   88.658">  5  6 -1 -1</clus>
<clus scale="  105.544">  1  5  2 -1</clus>
<clus scale="   58.834">  2  5  1 -1</clus>
</clustering>
</event>
<event>
10    2  0.5692308E-006  0.1286938E+03  0.7546771E-02  0.1242459E+00
         21   -1    0    0  503  502  0.00000000000E+00  0.00000000000E+00  0.18365412435E+03  0.18365412435E+03  0.00000000000E+00 0.  1.
         -3   -1    0    0    0  501 -0.00000000000E+00 -0.00000000000E+00 -0.40613553434E+03  0.40613553434E+03  0.00000000000E+00 0.  1.
         23    2    1    2    0    0  0.41616147457E+02 -0.17748253213E+02 -0.20108375049E+03  0.22703181416E+03  0.95193832300E+02 0.  0.
         23    2    1    2    0    0 -0.77572467531E+01 -0.31945398670E+02 -0.11990865102E+03  0.15295877947E+03  0.89093323277E+02 0.  0.
        -13    1    4    4    0    0  0.34201202262E+02 -0.38721546958E+02 -0.75546318794E+02  0.91522274438E+02  0.00000000000E+00 0.  1.
         13    1    4    4    0    0 -0.41958449015E+02  0.67761482885E+01 -0.44362332228E+02  0.61436505028E+02  0.00000000000E+00 0. -1.
        -13    1    3    3    0    0  0.58631622571E+02  0.68335355881E+01 -0.65425925097E+02  0.88118761049E+02  0.00000000000E+00 0. -1.
         13    1    3    3    0    0 -0.17015475115E+02 -0.24581788801E+02 -0.13565782539E+03  0.13891305311E+03  0.00000000000E+00 0.  1.
         21    1    1    2  503  501 -0.47458545790E+02  0.21647367741E+02  0.14484798615E+03  0.15395408793E+03  0.00000000000E+00 0.  1.
         -3    1    1    2    0  502  0.13599645087E+02  0.28046284142E+02 -0.46336994630E+02  0.55844977142E+02  0.00000000000E+00 0.  1.
<scales pt_clust_5="13000.00000" pt_clust_6="13000.00000" pt_clust_7="13000.00000" pt_clust_8="13000.00000" pt_clust_9="52.16246" pt_clust_10="13000.00000"></scales>
<clustering>
<clus scale="   52.162">  1  9  2 -1</clus>
<clus scale="   89.093">  5  6 -1 -1</clus>
<clus scale="   31.833">  5 10 -1 -1</clus>
<clus scale="   95.194">  7  8 -1 -1</clus>
<clus scale="   98.549">  2  7  1 -1</clus>
<clus scale="   52.162">  1  5  2 -1</clus>
</clustering>
</event>
<event>
10    2  0.5692308E-006  0.2289788E+03  0.7546771E-02  0.1159341E+00
         -2   -1    0    0    0  501 -0.00000000000E+00  0.00000000000E+00  0.58779609270E+03  0.58779609270E+03  0.00000000000E+00 0.  1.
         21   -1    0    0  503  502  0.00000000000E+00 -0.00000000000E+00 -0.14154971593E+03  0.14154971593E+03  0.00000000000E+00 0. -1.
         23    2    1    2    0    0  0.53195712024E+02  0.17526961716E+02  0.38855600812E+02  0.10062114841E+03  0.74012699096E+02 0.  0.
         23    2    1    2    0    0 -0.55701219327E+02  0.23358902733E+02  0.30673288436E+03  0.32583794615E+03  0.91853364837E+02 0.  0.
        -11    1    3    3    0    0  0.34080030564E+02 -0.22362810770E+02  0.38961620570E+02  0.56387513389E+02  0.00000000000E+00 0.  1.
         11    1    3    3    0    0  0.19115681460E+02  0.39889772486E+02 -0.10601975734E+00  0.44233635017E+02  0.00000000000E+00 0. -1.
        -13    1    4    4    0    0 -0.17483934027E+02  0.48905842375E+02  0.23476429633E+03  0.24044072908E+03  0.00000000000E+00 0. -1.
         13    1    4    4    0    0 -0.38217285299E+02 -0.25546939642E+02  0.71968588025E+02  0.85397217069E+02  0.00000000000E+00 0.  1.
         21    1    1    2  503  501 -0.63935621480E+01  0.78122414600E+02 -0.62842678019E+02  0.10046487685E+03  0.00000000000E+00 0. -1.
         -2    1    1    2    0  502  0.88990694511E+01 -0.11900827905E+03  0.16350056962E+03  0.20242183723E+03  0.00000000000E+00 0.  1.
<scales pt_clust_5="13000.00000" pt_clust_6="13000.00000" pt_clust_7="13000.00000" pt_clust_8="13000.00000" pt_clust_9="78.38360" pt_clust_10="13000.00000"></scales>
<clustering>
<clus scale="   74.013">  5  6 -1 -1</clus>
<clus scale="   78.384">  2  9  1 -1</clus>
<clus scale="   91.853">  7  8 -1 -1</clus>
<clus scale="   93.874">  7 10 -1 -1</clus>
<clus scale="  106.346">  1  5  2 -1</clus>
<clus scale="   78.384">  2  5  1 -1</clus>
</clustering>
</event>
<event>
10    2  0.5692308E-006  0.1700349E+03  0.7546771E-02  0.1179263E+00
         21   -1    0    0  501  502  0.00000000000E+00  0.00000000000E+00  0.77007780438E+02  0.77007780438E+02  0.00000000000E+00 0. -1.
         -2   -1    0    0    0  501 -0.00000000000E+00 -0.00000000000E+00 -0.65813732161E+03  0.65813732161E+03  0.00000000000E+00 0.  1.
         23    2    1    2    0    0  0.26483029401E+02 -0.11222703200E+03 -0.26366767079E+03  0.30250118641E+03  0.93220542817E+02 0.  0.
         23    2    1    2    0    0 -0.36876983447E+02  0.13285816260E+03 -0.30447927687E+03  0.34598077843E+03  0.89352480208E+02 0.  0.
        -11    1    3    3    0    0  0.45737528410E+02 -0.29374840561E+02 -0.55785015323E+02  0.77889477451E+02  0.00000000000E+00 0.  1.
         11    1    3    3    0    0 -0.19254499009E+02 -0.82852191436E+02 -0.20788265546E+03  0.22461170896E+03  0.00000000000E+00 0. -1.
        -11    1    4    4    0    0 -0.12922378185E+02  0.12856265170E+03 -0.29044038668E+03  0.31788513882E+03  0.00000000000E+00 0.  1.
         11    1    4    4    0    0 -0.23954605262E+02  0.42955109060E+01 -0.14038890197E+02  0.28095639611E+02  0.00000000000E+00 0. -1.
         21    1    1    2  503  502  0.10047873770E+02 -0.46284842635E+02  0.14041090933E+02  0.49400391290E+02  0.00000000000E+00 0. -1.
         -2    1    1    2    0  503  0.34608027610E+00  0.25653712031E+02 -0.27023684445E+02  0.37262745920E+02  0.00000000000E+00 0.  1.
<scales pt_clust_5="13000.00000" pt_clust_6="13000.00000" pt_clust_7="13000.00000" pt_clust_8="13000.00000" pt_clust_9="47.36292" pt_clust_10="13000.00000"></scales>
<clustering>
<clus scale="   47.363">  1  9  2 -1</clus>
<clus scale="   89.352">  7  8 -1 -1</clus>
<clus scale="   20.475">  7 10 -1 -1</clus>
<clus scale="   93.221">  5  6 -1 -1</clus>
<clus scale="  164.563">  2  5  1 -1</clus>
<clus scale="   47.363">  1  5  2 -1</clus>
</clustering>
</event>
<event>
10    2  0.5692308E-006  0.1560573E+03  0.7546771E-02  0.1209924E+00
         21   -1    0    0  501  502  0.00000000000E+00  0.00000000000E+00  0.45343848305E+03  0.45343848305E+03  0.00000000000E+00 0. -1.
          1   -1    0    0  503    0 -0.00000000000E+00 -0.00000000000E+00 -0.12625745962E+03  0.12625745962E+03  0.00000000000E+00 0. -1.
         23    2    1    2    0    0  0.39041788098E+02 -0.44882274795E+02 -0.51785527015E+02  0.12038731572E+03  0.90954302647E+02 0.  0.
         23    2    1    2    0    0  0.25490912173E+02 -0.31334139725E+02  0.12939398399E+03  0.16330778912E+03  0.91076978326E+02 0.  0.
        -13    1    4    4    0    0 -0.23955920457E+02 -0.32170781298E+02  0.23631398278E+02  0.46554143519E+02  0.00000000000E+00 0.  1.
         13    1    4    4    0    0  0.49446832630E+02  0.83664157293E+00  0.10576258571E+03  0.11675364560E+03  0.00000000000E+00 0. -1.
        -13    1    3    3    0    0  0.62492190711E+02 -0.53203676867E+02 -0.48383931482E+02  0.95272818567E+02  0.00000000000E+00 0. -1.
         13    1    3    3    0    0 -0.23450402614E+02  0.83214020721E+01 -0.34015955329E+01  0.25114497155E+02  0.00000000000E+00 0.  1.
         21    1    1    2  503  502 -0.46355865719E+02  0.99171807547E+02  0.24222340902E+03  0.26581213964E+03  0.00000000000E+00 0. -1.
          1    1    1    2  501    0 -0.18176834551E+02 -0.22955393028E+02  0.73491574380E+01  0.30188698190E+02  0.00000000000E+00 0. -1.
<scales pt_clust_5="13000.00000" pt_clust_6="13000.00000" pt_clust_7="13000.00000" pt_clust_8="13000.00000" pt_clust_9="92.80371" pt_clust_10="13000.00000"></scales>
<clustering>
<clus scale="   90.954">  7  8 -1 -1</clus>
<clus scale="   91.077">  5  6 -1 -1</clus>
<clus scale="   29.281">  5 10 -1 -1</clus>
<clus scale="  108.680">  2  7  1 -1</clus>
<clus scale="   92.804">  1  9  2 -1</clus>
<clus scale="   92.804">  1  5  2 -1</clus>
</clustering>
</event>
<event>
10    2  0.5692308E-006  0.1447723E+03  0.7546771E-02  0.1223051E+00
          3   -1    0    0  502    0 -0.00000000000E+00  0.00000000000E+00  0.62594259440E+03  0.62594259440E+03  0.00000000000E+00 0. -1.
         21   -1    0    0  503  502  0.00000000000E+00 -0.00000000000E+00 -0.59043046452E+02  0.59043046452E+02  0.00000000000E+00 0.  1.
         23    2    1    2    0    0  0.22440212406E+01  0.39113802257E+02  0.36951423342E+03  0.38340870911E+03  0.94480391397E+02 0.  0.
         23    2    1    2    0    0 -0.47838082563E+02 -0.14726571498E+02  0.12848422823E+03  0.16608738481E+03  0.92582225277E+02 0.  0.
        -11    1    3    3    0    0  0.21021029327E+02  0.61044409377E+02  0.31674458976E+03  0.32325754242E+03  0.00000000000E+00 0. -1.
         11    1    3    3    0    0 -0.18777008087E+02 -0.21930607121E+02  0.52769643668E+02  0.60151166691E+02  0.00000000000E+00 0.  1.
        -11    1    4    4    0    0 -0.25224625676E+02 -0.38321039941E+02  0.15428385267E+02  0.48402674664E+02  0.00000000000E+00 0.  1.
         11    1    4    4    0    0 -0.22613456887E+02  0.23594468443E+02  0.11305584297E+03  0.11768471015E+03  0.00000000000E+00 0. -1.
         21    1    1    2  503  501  0.23696421749E+02  0.66567402874E+01 -0.24456673595E+02  0.34698148053E+02  0.00000000000E+00 0.  1.
          3    1    1    2  501    0  0.21897639573E+02 -0.31043971046E+02  0.93357759884E+02  0.10079139888E+03  0.00000000000E+00 0. -1.
<scales pt_clust_5="13000.00000" pt_clust_6="13000.00000" pt_clust_7="13000.00000" pt_clust_8="13000.00000" pt_clust_9="24.61367" pt_clust_10="13000.00000"></scales>
<clustering>
<clus scale="   24.614">  2  9  1 -1</clus>
<clus scale="   92.582">  7  8 -1 -1</clus>
<clus scale="   39.136">  7 10 -1 -1</clus>
<clus scale="   94.480">  5  6 -1 -1</clus>
<clus scale="  103.165">  1  5  2 -1</clus>
<clus scale="   24.614">  2  5  1 -1</clus>
</clustering>
</event>
<event>
10    2  0.5692308E-006  0.3764956E+03  0.7546771E-02  0.1092666E+00
         21   -1    0    0  503  502  0.00000000000E+00  0.00000000000E+00  0.59479928548E+02  0.59479928548E+02  0.00000000000E+00 0. -1.
          1   -1    0    0  502    0 -0.00000000000E+00 -0.00000000000E+00 -0.12044479548E+04  0.12044479548E+04  0.00000000000E+00 0. -1.
         23    2    1    2    0    0  0.84589678132E+02  0.60212235932E-01 -0.32678621985E+03  0.34912824860E+03  0.89139683744E+02 0.  0.
         23    2    1    2    0    0 -0.22333757344E+03  0.11898991265E+02 -0.61172414570E+03  0.65773239605E+03  0.91565368303E+02 0.  0.
        -11    1    3    3    0    0  0.43403088779E+02 -0.34315241275E+02 -0.24604442370E+03  0.25218886243E+03  0.00000000000E+00 0. -1.
         11    1    3    3    0    0  0.41186589353E+02  0.34375453511E+02 -0.80741796147E+02  0.96939386173E+02  0.00000000000E+00 0.  1.
        -13    1    4    4    0    0 -0.58064025325E+02  0.38974639873E+02 -0.24085707305E+03  0.25080387403E+03  0.00000000000E+00 0.  1.
         13    1    4    4    0    0 -0.16527354811E+03 -0.27075648608E+02 -0.37086707265E+03  0.40692852202E+03  0.00000000000E+00 0. -1.
         21    1    1    2  503  501  0.11965000489E+02 -0.21999031269E+02 -0.24214434447E+02  0.34834716147E+02  0.00000000000E+00 0. -1.
          1    1    1    2  501    0  0.12678289482E+03  0.10039827768E+02 -0.18224322622E+03  0.22223252251E+03  0.00000000000E+00 0. -1.
<scales pt_clust_5="13000.00000" pt_clust_6="13000.00000" pt_clust_7="13000.00000" pt_clust_8="13000.00000" pt_clust_9="25.04234" pt_clust_10="13000.00000"></scales>
<clustering>
<clus scale="   25.042">  1  9  2 -1</clus>
<clus scale="   89.140">  5  6 -1 -1</clus>
<clus scale="   91.565">  7  8 -1 -1</clus>
<clus scale="  124.679">  2  5  1 -1</clus>
<clus scale="  154.965">  7 10 -1 -1</clus>
<clus scale="   25.042">  1  5  2 -1</clus>
</clustering>
</event>
<event>
10    2  0.5692308E-006  0.1745236E+03  0.7546771E-02  0.1193557E+00
          1   -1    0    0  502    0 -0.00000000000E+00  0.00000000000E+00  0.48318186372E+03  0.48318186372E+03  0.00000000000E+00 0. -1.
         21   -1    0    0  503  502  0.00000000000E+00 -0.00000000000E+00 -0.74336346128E+02  0.74336346128E+02  0.00000000000E+00 0.  1.
         23    2    1    2    0    0  0.28811326805E+02  0.36869728035E+02  0.20344685809E+03  0.22919277209E+03  0.94600387499E+02 0.  0.
         23    2    1    2    0    0 -0.78908578669E+01  0.75276849658E+01  0.79708597131E+02  0.12074887636E+03  0.90043872679E+02 0.  0.
        -13    1    4    4    0    0 -0.28938707436E+02  0.30454718583E+02  0.82595597260E+01  0.42815406092E+02  0.00000000000E+00 0.  1.
         13    1    4    4    0    0  0.21047849569E+02 -0.22927033617E+02  0.71449037405E+02  0.77933470268E+02  0.00000000000E+00 0. -1.
        -13    1    3    3    0    0 -0.76764940762E+01  0.59536574777E+02  0.14251647767E+03  0.15464306872E+03  0.00000000000E+00 0. -1.
         13    1    3    3    0    0  0.36487820882E+02 -0.22666846742E+02  0.60930380420E+02  0.74549703367E+02  0.00000000000E+00 0.  1.
         21    1    1    2  503  501  0.47275496922E+01  0.46386115019E+02 -0.44530651076E+01  0.46838565110E+02  0.00000000000E+00 0.  1.
          1    1    1    2  501    0 -0.25648018631E+02 -0.90783528021E+02  0.13014312748E+03  0.16073799628E+03  0.00000000000E+00 0. -1.
<scales pt_clust_5="13000.00000" pt_clust_6="13000.00000" pt_clust_7="13000.00000" pt_clust_8="13000.00000" pt_clust_9="46.62640" pt_clust_10="13000.00000"></scales>
<clustering>
<clus scale="   46.626">  2  9  1 -1</clus>
<clus scale="   90.044">  5  6 -1 -1</clus>
<clus scale="   79.949">  5 10 -1 -1</clus>
<clus scale="   94.600">  7  8 -1 -1</clus>
<clus scale="  110.757">  1  7  2 -1</clus>
<clus scale="   46.626">  2  5  1 -1</clus>
</clustering>
</event>
<event>
10    2  0.5692308E-006  0.1978036E+03  0.7546771E-02  0.1173122E+00
         21   -1    0    0  501  502  0.00000000000E+00  0.00000000000E+00  0.30159561025E+03  0.30159561025E+03  0.00000000000E+00 0. -1.
          2   -1    0    0  503    0 -0.00000000000E+00 -0.00000000000E+00 -0.29005865198E+03  0.29005865198E+03  0.00000000000E+00 0. -1.
         23    2    1    2    0    0  0.61031158831E+02 -0.57798639413E+02 -0.21187548735E+03  0.24280342036E+03  0.83646839336E+02 0.  0.
         23    2    1    2    0    0 -0.18172608633E+02 -0.22121281821E+02  0.86351663909E+02  0.12905508201E+03  0.91536929810E+02 0.  0.
        -11    1    4    4    0    0 -0.36026454800E+02 -0.82252312343E+01 -0.28172909381E+01  0.37060720480E+02  0.00000000000E+00 0.  1.
         11    1    4    4    0    0  0.17853846167E+02 -0.13896050587E+02  0.89168954847E+02  0.91994361530E+02  0.00000000000E+00 0. -1.
        -13    1    3    3    0    0  0.14075350499E+01 -0.58855963419E+02 -0.10968092043E+03  0.12448256862E+03  0.00000000000E+00 0. -1.
         13    1    3    3    0    0  0.59623623781E+02  0.10573240061E+01 -0.10219456693E+03  0.11832085174E+03  0.00000000000E+00 0.  1.
         21    1    1    2  503  502  0.50144273824E+02  0.22137757983E+01  0.33122225049E+02  0.60136767396E+02  0.00000000000E+00 0. -1.
          2    1    1    2  501    0 -0.93002824022E+02  0.77706145435E+02  0.10393855666E+03  0.15965899246E+03  0.00000000000E+00 0. -1.
<scales pt_clust_5="13000.00000" pt_clust_6="13000.00000" pt_clust_7="13000.00000" pt_clust_8="13000.00000" pt_clust_9="50.19312" pt_clust_10="13000.00000"></scales>
<clustering>
<clus scale="   50.193">  1  9  2 -1</clus>
<clus scale="   83.647">  7  8 -1 -1</clus>
<clus scale="   91.537">  5  6 -1 -1</clus>
<clus scale="  103.525">  5 10 -1 -1</clus>
<clus scale="  120.114">  2  7  1 -1</clus>
<clus scale="   50.193">  1  5  2 -1</clus>
</clustering>
</event>
<event>
10    2  0.5692308E-006  0.4901880E+03  0.7546771E-02  0.1074891E+00
         21   -1    0    0  501  502  0.00000000000E+00  0.00000000000E+00  0.19691413002E+03  0.19691413002E+03  0.00000000000E+00 0. -1.
          1   -1    0    0  503    0 -0.00000000000E+00 -0.00000000000E+00 -0.51730380715E+03  0.51730380715E+03  0.00000000000E+00 0. -1.
         23    2    1    2    0    0 -0.25599449335E+01 -0.10620671947E+02 -0.55173312865E+02  0.10667909657E+03  0.90647576921E+02 0.  0.
         23    2    1    2    0    0 -0.49353239143E+02  0.50333656354E+02 -0.36459469379E+03  0.38246971005E+03  0.91567293228E+02 0.  0.
        -11    1    4    4    0    0 -0.38593999861E+01  0.66542376215E+02 -0.19174319992E+03  0.20299812195E+03  0.00000000000E+00 0.  1.
         11    1    4    4    0    0 -0.45493839157E+02 -0.16208719861E+02 -0.17285149387E+03  0.17947158809E+03  0.00000000000E+00 0. -1.
        -13    1    3    3    0    0 -0.75863789693E+01 -0.50487167420E+02 -0.32904426061E+02  0.60738854734E+02  0.00000000000E+00 0. -1.
         13    1    3    3    0    0  0.50264340358E+01  0.39866495473E+02 -0.22268886805E+02  0.45940241836E+02  0.00000000000E+00 0.  1.
         21    1    1    2  503  502  0.39659538802E+02  0.34931530930E+02 -0.40139337334E+02  0.66364578449E+02  0.00000000000E+00 0. -1.
          1    1    1    2  501    0  0.12253645274E+02 -0.74644515337E+02  0.13951766685E+03  0.15870455210E+03  0.00000000000E+00 0. -1.
<scales pt_clust_5="13000.00000" pt_clust_6="13000.00000" pt_clust_7="13000.00000" pt_clust_8="13000.00000" pt_clust_9="52.84973" pt_clust_10="13000.00000"></scales>
<clustering>
<clus scale="   52.850">  1  9  2 -1</clus>
<clus scale="   90.648">  7  8 -1 -1</clus>
<clus scale="   90.878">  2  7  1 -1</clus>
<clus scale="   91.567">  5  6 -1 -1</clus>
<clus scale="   64.944">  5 10 -1 -1</clus>
<clus scale="   52.850">  1  5  2 -1</clus>
</clustering>
</event>
<event>
10    2  0.5692308E-006  0.2218148E+03  0.7546771E-02  0.1155927E+00
         21   -1    0    0  501  502  0.00000000000E+00  0.00000000000E+00  0.13724775704E+03  0.13724775704E+03  0.00000000000E+00 0. -1.
          1   -1    0    0  503    0 -0.00000000000E+00 -0.00000000000E+00 -0.59512275285E+03  0.59512275285E+03  0.00000000000E+00 0. -1.
         23    2    1    2    0    0 -0.84810059020E+02 -0.20991740543E+02 -0.28341210728E+03  0.31044526747E+03  0.91762967803E+02 0.  0.
         23    2    1    2    0    0  0.85338008032E+02  0.11463426579E+03 -0.14772616418E+03  0.22368960294E+03  0.88263403358E+02 0.  0.
        -11    1    4    4    0    0  0.85759278775E+02  0.49535850232E+02 -0.11171301699E+03  0.14929250658E+03  0.00000000000E+00 0. -1.
         11    1    4    4    0    0 -0.42127074277E+00  0.65098415559E+02 -0.36013147190E+02  0.74397096367E+02  0.00000000000E+00 0.  1.
        -11    1    3    3    0    0 -0.55065716645E+02  0.27967819024E+02 -0.19951381417E+03  0.20885448066E+03  0.00000000000E+00 0. -1.
         11    1    3    3    0    0 -0.29744342376E+02 -0.48959559568E+02 -0.83898293112E+02  0.10159078680E+03  0.00000000000E+00 0.  1.
         21    1    1    2  503  502  0.50247179531E+01 -0.13930240684E+03 -0.48182529894E+02  0.14748547226E+03  0.00000000000E+00 0. -1.
          1    1    1    2  501    0 -0.55526669645E+01  0.45659881592E+02  0.21445805543E+02  0.50750167219E+02  0.00000000000E+00 0. -1.
<scales pt_clust_5="13000.00000" pt_clust_6="13000.00000" pt_clust_7="13000.00000" pt_clust_8="13000.00000" pt_clust_9="147.95691" pt_clust_10="13000.00000"></scales>
<clustering>
<clus scale="   88.263">  5  6 -1 -1</clus>
<clus scale="   45.996">  5 10 -1 -1</clus>
<clus scale="   91.763">  7  8 -1 -1</clus>
<clus scale="  126.704">  2  7  1 -1</clus>
<clus scale="  147.957">  1  9  2 -1</clus>
<clus scale="  147.957">  1  5  2 -1</clus>
</clustering>
</event>
<event>
10    2  0.5692308E-006  0.2229258E+03  0.7546771E-02  0.1161592E+00
         -1   -1    0    0    0  501 -0.00000000000E+00  0.00000000000E+00  0.58596720885E+02  0.58596720885E+02  0.00000000000E+00 0.  1.
         21   -1    0    0  503  502  0.00000000000E+00 -0.00000000000E+00 -0.75216318130E+03  0.75216318130E+03  0.00000000000E+00 0. -1.
         23    2    1    2    0    0  0.48014517911E+02 -0.19858728141E+02 -0.11530371568E+03  0.15505320947E+03  0.89703890116E+02 0.  0.
         23    2    1    2    0    0 -0.43018627150E+02 -0.36716114641E+02 -0.25620367197E+03  0.27721512983E+03  0.89494308851E+02 0.  0.
        -11    1    4    4    0    0 -0.59426122985E+02 -0.41444939823E+01 -0.21037042111E+03  0.21864207052E+03  0.00000000000E+00 0.  1.
         11    1    4    4    0    0  0.16407495835E+02 -0.32571620658E+02 -0.45833250860E+02  0.58573059304E+02  0.00000000000E+00 0. -1.
        -11    1    3    3    0    0 -0.12493141199E+01  0.30165881647E+02 -0.53902867258E+02  0.61782362370E+02  0.00000000000E+00 0.  1.
         11    1    3    3    0    0  0.49263832031E+02 -0.50024609789E+02 -0.61400848425E+02  0.93270847097E+02  0.00000000000E+00 0. -1.
         21    1    1    2  503  501  0.16083038766E+02 -0.64722318843E+02 -0.17145921895E+03  0.18397256984E+03  0.00000000000E+00 0. -1.
         -1    1    1    2    0  502 -0.21078929527E+02  0.12129716163E+03 -0.15059985381E+03  0.19451899305E+03  0.00000000000E+00 0.  1.
<scales pt_clust_5="13000.00000" pt_clust_6="13000.00000" pt_clust_7="13000.00000" pt_clust_8="13000.00000" pt_clust_9="66.69065" pt_clust_10="13000.00000"></scales>
<clustering>
<clus scale="   66.691">  2  9  1 -1</clus>
<clus scale="   89.494">  5  6 -1 -1</clus>
<clus scale="   89.704">  7  8 -1 -1</clus>
<clus scale="  103.143">  5 10 -1 -1</clus>
<clus scale="  109.367">  1  7  2 -1</clus>
<clus scale="   66.691">  2  5  1 -1</clus>
</clustering>
</event>
<event>
10    2  0.5692308E-006  0.2576871E+03  0.7546771E-02  0.1125028E+00
         21   -1    0    0  501  502  0.00000000000E+00  0.00000000000E+00  0.47847231946E+03  0.47847231946E+03  0.00000000000E+00 0. -1.
          1   -1    0    0  503    0 -0.00000000000E+00 -0.00000000000E+00 -0.33565470757E+03  0.33565470757E+03  0.00000000000E+00 0. -1.
         23    2    1    2    0    0 -0.11786381826E+03  0.65437276509E+02 -0.16760324784E+03  0.23378343906E+03  0.91596565875E+02 0.  0.
         23    2    1    2    0    0  0.14576265617E+02 -0.13535872273E+02 -0.47064682573E+02  0.10567689957E+03  0.92503164268E+02 0.  0.
        -11    1    4    4    0    0  0.23072946726E+02  0.33383592368E+02 -0.40867616792E+02  0.57593291383E+02  0.00000000000E+00 0. -1.
         11    1    4    4    0    0 -0.84966811087E+01 -0.46919464641E+02 -0.61970657808E+01  0.48083608188E+02  0.00000000000E+00 0.  1.
        -13    1    3    3    0    0 -0.36067995832E+02 -0.22624771974E+02 -0.38633445135E+02  0.57491944768E+02  0.00000000000E+00 0.  1.
         13    1    3    3    0    0 -0.81795822430E+02  0.88062048483E+02 -0.12896980271E+03  0.17629149429E+03  0.00000000000E+00 0. -1.
         21    1    1    2  503  502 -0.26602912471E+02  0.50015048540E+02  0.29135863899E+03  0.29681488600E+03  0.00000000000E+00 0. -1.
          1    1    1    2  501    0  0.12989046512E+03 -0.10191645278E+03  0.66126903315E+02  0.17785180240E+03  0.00000000000E+00 0. -1.
<scales pt_clust_5="13000.00000" pt_clust_6="13000.00000" pt_clust_7="13000.00000" pt_clust_8="13000.00000" pt_clust_9="56.64998" pt_clust_10="13000.00000"></scales>
<clustering>
<clus scale="   56.650">  1  9  2 -1</clus>
<clus scale="   91.597">  7  8 -1 -1</clus>
<clus scale="   92.503">  5  6 -1 -1</clus>
<clus scale="  131.705">  5 10 -1 -1</clus>
<clus scale="  170.198">  2  7  1 -1</clus>
<clus scale="   56.650">  1  5  2 -1</clus>
</clustering>
</event>
<event>
10    2  0.5692308E-006  0.1932462E+03  0.7546771E-02  0.1166516E+00
         21   -1    0    0  501  502  0.00000000000E+00  0.00000000000E+00  0.18319328257E+03  0.18319328257E+03  0.00000000000E+00 0. -1.
          1   -1    0    0  503    0 -0.00000000000E+00 -0.00000000000E+00 -0.76320535683E+03  0.76320535683E+03  0.00000000000E+00 0. -1.
         23    2    1    2    0    0 -0.15544989253E+03 -0.28177256519E+02 -0.31723501029E+03  0.36598610164E+03  0.91373672214E+02 0.  0.
         23    2    1    2    0    0  0.93690099985E+01  0.44694720664E+02 -0.30787427119E+03  0.32362617592E+03  0.88667572856E+02 0.  0.
        -11    1    3    3    0    0 -0.11357076064E+03  0.19123314060E+02 -0.16554384426E+03  0.20166502717E+03  0.00000000000E+00 0.  1.
         11    1    3    3    0    0 -0.41879131890E+02 -0.47300570579E+02 -0.15169116603E+03  0.16432107447E+03  0.00000000000E+00 0. -1.
        -13    1    4    4    0    0  0.36336207116E+02  0.53931660116E+00 -0.20795134043E+03  0.21110274938E+03  0.00000000000E+00 0.  1.
         13    1    4    4    0    0 -0.26967197117E+02  0.44155404063E+02 -0.99922930769E+02  0.11252342655E+03  0.00000000000E+00 0. -1.
         21    1    1    2  503  502  0.81457813646E+02 -0.28653749809E+02  0.12586493701E+03  0.15263811828E+03  0.00000000000E+00 0. -1.
          1    1    1    2  501    0  0.64623068881E+02  0.12136285664E+02 -0.80767729784E+02  0.10414824356E+03  0.00000000000E+00 0. -1.
<scales pt_clust_5="13000.00000" pt_clust_6="13000.00000" pt_clust_7="13000.00000" pt_clust_8="13000.00000" pt_clust_9="86.35052" pt_clust_10="13000.00000"></scales>
<clustering>
<clus scale="   86.351">  1  9  2 -1</clus>
<clus scale="   88.668">  7  8 -1 -1</clus>
<clus scale="   86.412">  7 10 -1 -1</clus>
<clus scale="   91.374">  5  6 -1 -1</clus>
<clus scale="  149.832">  2  5  1 -1</clus>
<clus scale="   86.351">  1  5  2 -1</clus>
</clustering>
</event>
<event>
10    2  0.5692308E-006  0.1308788E+03  0.7546771E-02  0.1242371E+00
         21   -1    0    0  503  502  0.00000000000E+00  0.00000000000E+00  0.10522063860E+03  0.10522063860E+03  0.00000000000E+00 0. -1.
          2   -1    0    0  502    0 -0.00000000000E+00 -0.00000000000E+00 -0.64028370686E+03  0.64028370686E+03  0.00000000000E+00 0. -1.
         23    2    1    2    0    0 -0.69328858735E+01 -0.23386671747E+02 -0.29839407527E+03  0.31348768093E+03  0.92954293137E+02 0.  0.
         23    2    1    2    0    0 -0.28561152623E+02  0.13267040363E+02 -0.28832206224E+03  0.30530728451E+03  0.95347640775E+02 0.  0.
        -11    1    4    4    0    0 -0.10677908835E+02 -0.27993959760E+02 -0.27602611368E+02  0.40737988100E+02  0.00000000000E+00 0.  1.
         11    1    4    4    0    0 -0.17883243788E+02  0.41261000123E+02 -0.26071945088E+03  0.26456929641E+03  0.00000000000E+00 0. -1.
        -13    1    3    3    0    0 -0.45009127130E+02  0.56071325906E+01 -0.18354109815E+03  0.18906241342E+03  0.00000000000E+00 0.  1.
         13    1    3    3    0    0  0.38076241257E+02 -0.28993804337E+02 -0.11485297713E+03  0.12442526750E+03  0.00000000000E+00 0. -1.
         21    1    1    2  503  501  0.18682965602E+02  0.28119630080E+02  0.81380032938E+02  0.88104917914E+02  0.00000000000E+00 0. -1.
          2    1    1    2  501    0  0.16811072895E+02 -0.17999998697E+02 -0.29726963675E+02  0.38604462104E+02  0.00000000000E+00 0. -1.
<scales pt_clust_5="13000.00000" pt_clust_6="13000.00000" pt_clust_7="13000.00000" pt_clust_8="13000.00000" pt_clust_9="33.76043" pt_clust_10="13000.00000"></scales>
<clustering>
<clus scale="   33.760">  1  9  2 -1</clus>
<clus scale="   92.954">  7  8 -1 -1</clus>
<clus scale="   93.862">  2  7  1 -1</clus>
<clus scale="   95.348">  5  6 -1 -1</clus>
<clus scale="   24.732">  5 10 -1 -1</clus>
<clus scale="   33.760">  1  5  2 -1</clus>
</clustering>
</event>
<event>
10    2  0.5692308E-006  0.4066143E+03  0.7546771E-02  0.1042567E+00
         21   -1    0    0  501  502  0.00000000000E+00  0.00000000000E+00  0.45691264777E+03  0.45691264777E+03  0.00000000000E+00 0. -1.
          1   -1    0    0  503    0 -0.00000000000E+00 -0.00000000000E+00 -0.13800630337E+04  0.13800630337E+04  0.00000000000E+00 0. -1.
         23    2    1    2    0    0 -0.36648635343E+03 -0.16598951490E+03 -0.88174259278E+03  0.97361726964E+03  0.92713653360E+02 0.  0.
         23    2    1    2    0    0 -0.33119080563E+01  0.17460401952E+02 -0.61637678997E+02  0.10546666550E+03  0.83714871363E+02 0.  0.
        -11    1    3    3    0    0 -0.41140298450E+02 -0.39015942398E+02 -0.71073333203E+02  0.90918571318E+02  0.00000000000E+00 0.  1.
         11    1    3    3    0    0 -0.32534605498E+03 -0.12697357250E+03 -0.81066925957E+03  0.88269869833E+03  0.00000000000E+00 0. -1.
        -13    1    4    4    0    0 -0.92504881699E+01 -0.24322700305E+02 -0.57434778802E+02  0.63054889561E+02  0.00000000000E+00 0.  1.
         13    1    4    4    0    0  0.59385801136E+01  0.41783102256E+02 -0.42029001951E+01  0.42411775935E+02  0.00000000000E+00 0. -1.
         21    1    1    2  503  502  0.46618323793E+03  0.23509586263E+03  0.17993806474E+03  0.55224503900E+03  0.00000000000E+00 0. -1.
          1    1    1    2  501    0 -0.96384976440E+02 -0.86566749680E+02 -0.15970817894E+03  0.20564670737E+03  0.00000000000E+00 0. -1.
<scales pt_clust_5="13000.00000" pt_clust_6="13000.00000" pt_clust_7="13000.00000" pt_clust_8="13000.00000" pt_clust_9="356.76531" pt_clust_10="13000.00000"></scales>
<clustering>
<clus scale="   83.715">  7  8 -1 -1</clus>
<clus scale="   92.714">  5  6 -1 -1</clus>
<clus scale="  129.553">  7 10 -1 -1</clus>
<clus scale="  412.869">  2  5  1 -1</clus>
<clus scale="  356.765">  1  9  2 -1</clus>
<clus scale="  356.765">  1  5  2 -1</clus>
</clustering>
</event>
<event>
10    2  0.5692308E-006  0.1864703E+03  0.7546771E-02  0.1185783E+00
         -1   -1    0    0    0  501 -0.00000000000E+00  0.00000000000E+00  0.48469943555E+03  0.48469943555E+03  0.00000000000E+00 0.  1.
         21   -1    0    0  501  502  0.00000000000E+00 -0.00000000000E+00 -0.71211112347E+02  0.71211112347E+02  0.00000000000E+00 0. -1.
         23    2    1    2    0    0  0.43975530413E+02 -0.36860702390E+02  0.19088050054E+03  0.22077162563E+03  0.94932536779E+02 0.  0.
         23    2    1    2    0    0 -0.16487434505E+02 -0.43199296246E+02  0.18632027169E+03  0.21168921114E+03  0.89213585172E+02 0.  0.
        -11    1    3    3    0    0  0.22191975016E+02  0.25654289367E+02  0.11583386103E+03  0.12069842451E+03  0.00000000000E+00 0.  1.
         11    1    3    3    0    0  0.21783555397E+02 -0.62514991757E+02  0.75046639516E+02  0.10007320112E+03  0.00000000000E+00 0. -1.
        -11    1    4    4    0    0 -0.11616172380E+02  0.26577219903E+02  0.72601683045E+02  0.78181125980E+02  0.00000000000E+00 0.  1.
         11    1    4    4    0    0 -0.48712621241E+01 -0.69776516149E+02  0.11371858865E+03  0.13350808516E+03  0.00000000000E+00 0. -1.
         21    1    1    2  503  502 -0.19394035812E+02  0.67585357026E+01 -0.21519058313E+02  0.29746870434E+02  0.00000000000E+00 0. -1.
         -1    1    1    2    0  503 -0.80940600966E+01  0.73301462933E+02  0.57806609282E+02  0.93702840692E+02  0.00000000000E+00 0.  1.
<scales pt_clust_5="13000.00000" pt_clust_6="13000.00000" pt_clust_7="13000.00000" pt_clust_8="13000.00000" pt_clust_9="20.53793" pt_clust_10="13000.00000"></scales>
<clustering>
<clus scale="   20.538">  2  9  1 -1</clus>
<clus scale="   89.214">  7  8 -1 -1</clus>
<clus scale="   77.575">  7 10 -1 -1</clus>
<clus scale="   94.933">  5  6 -1 -1</clus>
<clus scale="  107.830">  1  5  2 -1</clus>
<clus scale="   20.538">  2  5  1 -1</clus>
</clustering>
</event>
<event>
10    2  0.5692308E-006  0.4399352E+03  0.7546771E-02  0.1074737E+00
         -1   -1    0    0    0  501 -0.00000000000E+00  0.00000000000E+00  0.57559330958E+03  0.57559330958E+03  0.00000000000E+00 0.  1.
         21   -1    0    0  503  502  0.00000000000E+00 -0.00000000000E+00 -0.24914348215E+03  0.24914348215E+03  0.00000000000E+00 0.  1.
         23    2    1    2    0    0 -0.55182901800E+02 -0.67218598844E+02  0.30746641143E+03  0.33207030366E+03  0.90396901120E+02 0.  0.
         23    2    1    2    0    0  0.10078125108E+03 -0.30690001034E+02  0.20800858966E+03  0.24955745633E+03  0.88952874612E+02 0.  0.
        -11    1    4    4    0    0  0.25556000614E+02  0.29110260720E+02  0.37970872852E+02  0.54243005372E+02  0.00000000000E+00 0. -1.
         11    1    4    4    0    0  0.75225250466E+02 -0.59800261754E+02  0.17003771681E+03  0.19531445096E+03  0.00000000000E+00 0.  1.
        -11    1    3    3    0    0 -0.31491942099E+02 -0.67305139596E+02  0.29702731365E+03  0.30618123602E+03  0.00000000000E+00 0.  1.
         11    1    3    3    0    0 -0.23690959701E+02  0.86540751955E-01  0.10439097776E+02  0.25889067640E+02  0.00000000000E+00 0. -1.
         21    1    1    2  503  501 -0.22179615241E+01 -0.23306623662E+02 -0.38250377605E+02  0.44846509861E+02  0.00000000000E+00 0. -1.
         -1    1    1    2    0  502 -0.43380387755E+02  0.12121522354E+03 -0.15077479606E+03  0.19826252189E+03  0.00000000000E+00 0.  1.
<scales pt_clust_5="13000.00000" pt_clust_6="13000.00000" pt_clust_7="13000.00000" pt_clust_8="13000.00000" pt_clust_9="23.41192" pt_clust_10="13000.00000"></scales>
<clustering>
<clus scale="   23.412">  2  9  1 -1</clus>
<clus scale="   88.953">  5  6 -1 -1</clus>
<clus scale="   90.397">  7  8 -1 -1</clus>
<clus scale="  111.239">  5 10 -1 -1</clus>
<clus scale="  126.243">  1  7  2 -1</clus>
<clus scale="   23.412">  2  5  1 -1</clus>
</clustering>
</event>
<event>
10    2  0.5692308E-006  0.2323360E+03  0.7546771E-02  0.1146517E+00
         21   -1    0    0  503  502  0.00000000000E+00  0.00000000000E+00  0.11411320837E+03  0.11411320837E+03  0.00000000000E+00 0. -1.
          1   -1    0    0  502    0 -0.00000000000E+00 -0.00000000000E+00 -0.67102261226E+03  0.67102261226E+03  0.00000000000E+00 0. -1.
         23    2    1    2    0    0  0.60165236192E+02  0.77087183147E+02 -0.42387063322E+03  0.44490325650E+03  0.93329012018E+02 0.  0.
         23    2    1    2    0    0  0.45385265809E+02 -0.81327235145E+02 -0.98473533433E+02  0.16577414983E+03  0.95446793740E+02 0.  0.
        -13    1    3    3    0    0  0.60378472369E+02  0.67964270891E+01 -0.14304677647E+03  0.15541599533E+03  0.00000000000E+00 0. -1.
         13    1    3    3    0    0 -0.21323617673E+00  0.70290756058E+02 -0.28082385675E+03  0.28948726117E+03  0.00000000000E+00 0.  1.
        -13    1    4    4    0    0  0.83991560543E+01 -0.92835119768E+02 -0.58176261186E+02  0.10987894544E+03  0.00000000000E+00 0. -1.
         13    1    4    4    0    0  0.36986109755E+02  0.11507884622E+02 -0.40297272248E+02  0.55895204391E+02  0.00000000000E+00 0.  1.
         21    1    1    2  503  501  0.52956200083E+00  0.30756506252E+02  0.33641780430E+02  0.45585222422E+02  0.00000000000E+00 0.  1.
          1    1    1    2  501    0 -0.10608006400E+03 -0.26516454254E+02 -0.68207017665E+02  0.12887319187E+03  0.00000000000E+00 0. -1.
<scales pt_clust_5="13000.00000" pt_clust_6="13000.00000" pt_clust_7="13000.00000" pt_clust_8="13000.00000" pt_clust_9="30.76106" pt_clust_10="13000.00000"></scales>
<clustering>
<clus scale="   30.761">  1  9  2 -1</clus>
<clus scale="   93.329">  5  6 -1 -1</clus>
<clus scale="   95.447">  7  8 -1 -1</clus>
<clus scale="  106.785">  7 10 -1 -1</clus>
<clus scale="  137.731">  2  5  1 -1</clus>
<clus scale="   30.761">  1  5  2 -1</clus>
</clustering>
</event>
<event>
10    2  0.5692308E-006  0.1623002E+03  0.7546771E-02  0.1209640E+00
         21   -1    0    0  501  502  0.00000000000E+00  0.00000000000E+00  0.93581903491E+02  0.93581903491E+02  0.00000000000E+00 0. -1.
          1   -1    0    0  503    0 -0.00000000000E+00 -0.00000000000E+00 -0.35599616463E+03  0.35599616463E+03  0.00000000000E+00 0. -1.
         23    2    1    2    0    0  0.20509442099E+02  0.44905725353E+01 -0.29500397877E+02  0.97773411734E+02  0.90821605966E+02 0.  0.
         23    2    1    2    0    0 -0.48072562029E+02 -0.25089961334E+02 -0.25137521427E+03  0.27309400389E+03  0.91925835506E+02 0.  0.
        -11    1    3    3    0    0 -0.22731677781E+02  0.28098282098E+02  0.65442649354E+01  0.36729688743E+02  0.00000000000E+00 0. -1.
         11    1    3    3    0    0  0.43241119880E+02 -0.23607709562E+02 -0.36044662813E+02  0.61043722991E+02  0.00000000000E+00 0.  1.
        -13    1    4    4    0    0 -0.71963796487E+02 -0.16486242056E+00 -0.16114716361E+03  0.17648576012E+03  0.00000000000E+00 0.  1.
         13    1    4    4    0    0  0.23891234458E+02 -0.24925098913E+02 -0.90228050658E+02  0.96608243775E+02  0.00000000000E+00 0. -1.
         21    1    1    2  503  502  0.23492535616E+02 -0.14787041397E+02  0.30377693403E+02  0.41150456612E+02  0.00000000000E+00 0. -1.
          1    1    1    2  501    0  0.40705843137E+01  0.35386430195E+02 -0.11916342395E+02  0.37560195882E+02  0.00000000000E+00 0. -1.
<scales pt_clust_5="13000.00000" pt_clust_6="13000.00000" pt_clust_7="13000.00000" pt_clust_8="13000.00000" pt_clust_9="27.75889" pt_clust_10="13000.00000"></scales>
<clustering>
<clus scale="   27.759">  1  9  2 -1</clus>
<clus scale="   90.822">  5  6 -1 -1</clus>
<clus scale="   91.926">  7  8 -1 -1</clus>
<clus scale="   33.422">  7 10 -1 -1</clus>
<clus scale="   97.203">  2  5  1 -1</clus>
<clus scale="   27.759">  1  5  2 -1</clus>
</clustering>
</event>
<event>
10    2  0.5692308E-006  0.4227710E+03  0.7546771E-02  0.1038380E+00
         21   -1    0    0  503  502  0.00000000000E+00  0.00000000000E+00  0.51334414922E+03  0.51334414922E+03  0.00000000000E+00 0. -1.
          1   -1    0    0  502    0 -0.00000000000E+00 -0.00000000000E+00 -0.44013784011E+03  0.44013784011E+03  0.00000000000E+00 0. -1.
         23    2    1    2    0    0  0.36487922605E+03  0.47552773201E+02  0.20879702244E+02  0.37980260442E+03  0.91738435337E+02 0.  0.
         23    2    1    2    0    0 -0.12695504740E+03  0.15261820155E+02 -0.45944523434E+01  0.15590810153E+03  0.89082657772E+02 0.  0.
        -13    1    4    4    0    0 -0.42426716625E+01  0.26703857411E+02 -0.17160205358E+02  0.32024504857E+02  0.00000000000E+00 0. -1.
         13    1    4    4    0    0 -0.12271237574E+03 -0.11442037255E+02  0.12565753015E+02  0.12388359668E+03  0.00000000000E+00 0.  1.
        -13    1    3    3    0    0  0.31738227113E+03  0.29197239144E+02 -0.12413545542E+02  0.31896407465E+03  0.00000000000E+00 0. -1.
         13    1    3    3    0    0  0.47496954914E+02  0.18355534057E+02  0.33293247786E+02  0.60838529771E+02  0.00000000000E+00 0.  1.
         21    1    1    2  503  501  0.33654833000E+02  0.32841039463E+01  0.12549859749E+03  0.12997434783E+03  0.00000000000E+00 0. -1.
          1    1    1    2  501    0 -0.27157901164E+03 -0.66098697302E+02 -0.68577538276E+02  0.28779693554E+03  0.00000000000E+00 0. -1.
<scales pt_clust_5="13000.00000" pt_clust_6="13000.00000" pt_clust_7="13000.00000" pt_clust_8="13000.00000" pt_clust_9="33.81469" pt_clust_10="13000.00000"></scales>
<clustering>
<clus scale="   33.815">  1  9  2 -1</clus>
<clus scale="   89.083">  5  6 -1 -1</clus>
<clus scale="   91.738">  7  8 -1 -1</clus>
<clus scale="  269.995">  5 10 -1 -1</clus>
<clus scale="  396.289">  2  7  1 -1</clus>
<clus scale="   33.815">  1  5  2 -1</clus>
</clustering>
</event>
<event>
10    2  0.5692308E-006  0.2806506E+03  0.7546771E-02  0.1134869E+00
         21   -1    0    0  501  502  0.00000000000E+00  0.00000000000E+00  0.25506440898E+03  0.25506440898E+03  0.00000000000E+00 0. -1.
          3   -1    0    0  503    0 -0.00000000000E+00 -0.00000000000E+00 -0.37771268112E+03  0.37771268112E+03  0.00000000000E+00 0. -1.
         23    2    1    2    0    0 -0.39340778204E+02  0.22804397194E+02 -0.25016799999E+03  0.27075596624E+03  0.93043149541E+02 0.  0.
         23    2    1    2    0    0  0.59391548171E+02  0.12884564260E+03  0.89770800926E+02  0.19052621043E+03  0.90071552389E+02 0.  0.
        -11    1    4    4    0    0  0.27659176390E+02  0.90581759985E+02  0.10214731537E+03  0.13929881305E+03  0.00000000000E+00 0. -1.
         11    1    4    4    0    0  0.31732371781E+02  0.38263882615E+02 -0.12376514448E+02  0.51227397372E+02  0.00000000000E+00 0.  1.
        -11    1    3    3    0    0 -0.23563843355E+02 -0.35645244077E+02 -0.93672245837E+02  0.10295789323E+03  0.00000000000E+00 0.  1.
         11    1    3    3    0    0 -0.15776934849E+02  0.58449641271E+02 -0.15649575415E+03  0.16779807301E+03  0.00000000000E+00 0. -1.
         21    1    1    2  503  502 -0.19591291565E+02 -0.45746059403E+02  0.42558348031E+02  0.65480788352E+02  0.00000000000E+00 0.  1.
          3    1    1    2  501    0 -0.45947840205E+00 -0.10590398039E+03 -0.48094211074E+01  0.10601412507E+03  0.00000000000E+00 0. -1.
<scales pt_clust_5="13000.00000" pt_clust_6="13000.00000" pt_clust_7="13000.00000" pt_clust_8="13000.00000" pt_clust_9="49.76465" pt_clust_10="13000.00000"></scales>
<clustering>
<clus scale="   49.765">  1  9  2 -1</clus>
<clus scale="   90.072">  5  6 -1 -1</clus>
<clus scale="   93.043">  7  8 -1 -1</clus>
<clus scale="  103.457">  2  7  1 -1</clus>
<clus scale="  109.123">  5 10 -1 -1</clus>
<clus scale="   49.765">  1  5  2 -1</clus>
</clustering>
</event>
<event>
10    2  0.5692308E-006  0.4522326E+03  0.7546771E-02  0.1079191E+00
          3   -1    0    0  502    0 -0.00000000000E+00  0.00000000000E+00  0.36375759369E+03  0.36375759369E+03  0.00000000000E+00 0. -1.
         21   -1    0    0  503  502  0.00000000000E+00 -0.00000000000E+00 -0.36566734915E+03  0.36566734915E+03  0.00000000000E+00 0. -1.
         23    2    1    2    0    0  0.43432958519E+02  0.15196528051E+02  0.16755681988E+03  0.19690649950E+03  0.92625727024E+02 0.  0.
         23    2    1    2    0    0  0.84056829381E+02 -0.40642013603E+02  0.14296608787E+03  0.19345630808E+03  0.90932486047E+02 0.  0.
        -11    1    3    3    0    0 -0.13033797179E+02  0.21790920496E+02  0.66440129039E+01  0.26246275782E+02  0.00000000000E+00 0.  1.
         11    1    3    3    0    0  0.56466755698E+02 -0.65943924443E+01  0.16091280698E+03  0.17066022372E+03  0.00000000000E+00 0. -1.
        -13    1    4    4    0    0  0.79599280788E+02  0.70978545316E+01  0.10684660721E+03  0.13342646856E+03  0.00000000000E+00 0. -1.
         13    1    4    4    0    0  0.44575485929E+01 -0.47739868135E+02  0.36119480665E+02  0.60029839518E+02  0.00000000000E+00 0.  1.
         21    1    1    2  503  501 -0.25452810400E+02  0.13602108755E+02 -0.62371301622E+02  0.68724392946E+02  0.00000000000E+00 0.  1.
          3    1    1    2  501    0 -0.10203697750E+03  0.11843376798E+02 -0.25006136160E+03  0.27033774231E+03  0.00000000000E+00 0. -1.
<scales pt_clust_5="13000.00000" pt_clust_6="13000.00000" pt_clust_7="13000.00000" pt_clust_8="13000.00000" pt_clust_9="28.85936" pt_clust_10="13000.00000"></scales>
<clustering>
<clus scale="   28.859">  2  9  1 -1</clus>
<clus scale="   90.932">  7  8 -1 -1</clus>
<clus scale="   92.626">  5  6 -1 -1</clus>
<clus scale="  103.010">  1  5  2 -1</clus>
<clus scale="  122.459">  7 10 -1 -1</clus>
<clus scale="   28.859">  2  5  1 -1</clus>
</clustering>
</event>
<event>
10    2  0.5692308E-006  0.3253825E+03  0.7546771E-02  0.1103152E+00
         21   -1    0    0  503  502  0.00000000000E+00  0.00000000000E+00  0.72604726225E+03  0.72604726225E+03  0.00000000000E+00 0.  1.
          1   -1    0    0  502    0 -0.00000000000E+00 -0.00000000000E+00 -0.20147462295E+03  0.20147462295E+03  0.00000000000E+00 0. -1.
         23    2    1    2    0    0 -0.60780202818E+02  0.11776921184E+03 -0.23084973847E+02  0.15984463216E+03  0.86334061060E+02 0.  0.
         23    2    1    2    0    0  0.43815554781E+02 -0.12001141161E+03 -0.36053062934E+02  0.16035986007E+03  0.89960655943E+02 0.  0.
        -11    1    3    3    0    0 -0.77621407908E+02  0.72736823364E+02 -0.31704544500E+02  0.11099957919E+03  0.00000000000E+00 0. -1.
         11    1    3    3    0    0  0.16841205089E+02  0.45032388481E+02  0.86195706526E+01  0.48845052967E+02  0.00000000000E+00 0.  1.
        -13    1    4    4    0    0  0.22394891176E+02  0.42392048805E+01 -0.24942047462E+02  0.33787686225E+02  0.00000000000E+00 0.  1.
         13    1    4    4    0    0  0.21420663605E+02 -0.12425061649E+03 -0.11111015471E+02  0.12657217384E+03  0.00000000000E+00 0. -1.
         21    1    1    2  503  501 -0.58719244964E+01 -0.71184592819E+02  0.42499227009E+03  0.43095261385E+03  0.00000000000E+00 0.  1.
          1    1    1    2  501    0  0.22836572534E+02  0.73426792579E+02  0.15871840599E+03  0.17636477912E+03  0.00000000000E+00 0. -1.
<scales pt_clust_5="13000.00000" pt_clust_6="13000.00000" pt_clust_7="13000.00000" pt_clust_8="13000.00000" pt_clust_9="71.42637" pt_clust_10="13000.00000"></scales>
<clustering>
<clus scale="   71.426">  1  9  2 -1</clus>
<clus scale="   86.334">  5  6 -1 -1</clus>
<clus scale="   89.961">  7  8 -1 -1</clus>
<clus scale="   38.707">  7 10 -1 -1</clus>
<clus scale="  146.980">  2  5  1 -1</clus>
<clus scale="   71.426">  1  5  2 -1</clus>
</clustering>
</event>
<event>
10    2  0.5692308E-006  0.1475642E+03  0.7546771E-02  0.1225768E+00
          4   -1    0    0  503    0 -0.00000000000E+00  0.00000000000E+00  0.59591390031E+03  0.59591390031E+03  0.00000000000E+00 0. -1.
         21   -1    0    0  501  502  0.00000000000E+00 -0.00000000000E+00 -0.62700688035E+02  0.62700688035E+02  0.00000000000E+00 0.  1.
         23    2    1    2    0    0 -0.26889243431E+02  0.47376082333E+02  0.38857579893E+03  0.40053616911E+03  0.80439708237E+02 0.  0.
         23    2    1    2    0    0  0.19680846523E+02  0.11502737247E+02  0.60901805935E+02  0.11190575947E+03  0.91072610330E+02 0.  0.
        -13    1    4    4    0    0  0.16579942856E+02 -0.16199219167E+02 -0.17274303596E+02  0.28908662568E+02  0.00000000000E+00 0.  1.
         13    1    4    4    0    0  0.31009036672E+01  0.27701956414E+02  0.78176109531E+02  0.82997096901E+02  0.00000000000E+00 0. -1.
        -13    1    3    3    0    0  0.22886117847E+02  0.26433156852E+02  0.80529083420E+02  0.87791909922E+02  0.00000000000E+00 0.  1.
         13    1    3    3    0    0 -0.49775361279E+02  0.20942925481E+02  0.30804671551E+03  0.31274425919E+03  0.00000000000E+00 0. -1.
         21    1    1    2  503  502  0.48577775282E+02 -0.44717687463E+02  0.20204827252E+02  0.69048583386E+02  0.00000000000E+00 0.  1.
          4    1    1    2  501    0 -0.41369378374E+02 -0.14161132117E+02  0.63530780156E+02  0.77124076378E+02  0.00000000000E+00 0. -1.
<scales pt_clust_5="13000.00000" pt_clust_6="13000.00000" pt_clust_7="13000.00000" pt_clust_8="13000.00000" pt_clust_9="66.02630" pt_clust_10="13000.00000"></scales>
<clustering>
<clus scale="   66.026">  2  9  1 -1</clus>
<clus scale="   80.440">  7  8 -1 -1</clus>
<clus scale="   91.073">  5  6 -1 -1</clus>
<clus scale="   39.505">  5 10 -1 -1</clus>
<clus scale="   92.056">  1  7  2 -1</clus>
<clus scale="   66.026">  2  5  1 -1</clus>
</clustering>
</event>
<event>
10    2  0.5692308E-006  0.1367073E+03  0.7546771E-02  0.1235487E+00
         -3   -1    0    0    0  501 -0.00000000000E+00  0.00000000000E+00  0.58520319242E+03  0.58520319242E+03  0.00000000000E+00 0.  1.
         21   -1    0    0  501  502  0.00000000000E+00 -0.00000000000E+00 -0.67496196844E+02  0.67496196844E+02  0.00000000000E+00 0. -1.
         23    2    1    2    0    0  0.37701622521E+02  0.14880904474E+02  0.17147974065E+02  0.10153727662E+03  0.91503616708E+02 0.  0.
         23    2    1    2    0    0 -0.18017095014E+02  0.57508016837E+02  0.40293166968E+03  0.41617283702E+03  0.84935929547E+02 0.  0.
        -11    1    4    4    0    0 -0.97266115949E+01  0.79744852665E+02  0.31754817678E+03  0.32755258063E+03  0.00000000000E+00 0.  1.
         11    1    4    4    0    0 -0.82904834188E+01 -0.22236835829E+02  0.85383492897E+02  0.88620256388E+02  0.00000000000E+00 0. -1.
        -13    1    3    3    0    0  0.86860008322E+01 -0.19114870062E+02 -0.29970375998E+02  0.36593008969E+02  0.00000000000E+00 0. -1.
         13    1    3    3    0    0  0.29015621689E+02  0.33995774536E+02  0.47118350063E+02  0.64944267653E+02  0.00000000000E+00 0.  1.
         21    1    1    2  503  502 -0.30963876437E+02 -0.44415260207E+02  0.32327100743E+02  0.63059641814E+02  0.00000000000E+00 0.  1.
         -3    1    1    2    0  503  0.11279348929E+02 -0.27973661103E+02  0.65300251089E+02  0.71929633810E+02  0.00000000000E+00 0.  1.
<scales pt_clust_5="13000.00000" pt_clust_6="13000.00000" pt_clust_7="13000.00000" pt_clust_8="13000.00000" pt_clust_9="54.14312" pt_clust_10="13000.00000"></scales>
<clustering>
<clus scale="   54.143">  2  9  1 -1</clus>
<clus scale="   84.936">  5  6 -1 -1</clus>
<clus scale="   32.174">  5 10 -1 -1</clus>
<clus scale="   91.504">  7  8 -1 -1</clus>
<clus scale="   94.745">  1  7  2 -1</clus>
<clus scale="   54.143">  2  5  1 -1</clus>
</clustering>
</event>
<event>
10    2  0.5692308E-006  0.1823204E+03  0.7546771E-02  0.1194954E+00
          2   -1    0    0  503    0 -0.00000000000E+00  0.00000000000E+00  0.47204255265E+03  0.47204255265E+03  0.00000000000E+00 0. -1.
         21   -1    0    0  501  502  0.00000000000E+00 -0.00000000000E+00 -0.49451533391E+02  0.49451533391E+02  0.00000000000E+00 0.  1.
         23    2    1    2    0    0  0.77087712241E+01  0.80994131356E+01  0.13769614831E+03  0.16720299288E+03  0.94189096616E+02 0.  0.
         23    2    1    2    0    0 -0.69632366166E+01  0.67208515956E+02  0.20630935793E+03  0.23570601907E+03  0.91805800351E+02 0.  0.
        -11    1    4    4    0    0 -0.46546679440E+02  0.18435704694E+02  0.75416086330E+02  0.90521017735E+02  0.00000000000E+00 0. -1.
         11    1    4    4    0    0  0.39583442824E+02  0.48772811262E+02  0.13089327160E+03  0.14518500134E+03  0.00000000000E+00 0.  1.
        -13    1    3    3    0    0  0.20271363909E+02 -0.16459126150E+02 -0.66345400643E+00  0.26120321583E+02  0.00000000000E+00 0.  1.
         13    1    3    3    0    0 -0.12562592685E+02  0.24558539286E+02  0.13835960232E+03  0.14108267129E+03  0.00000000000E+00 0. -1.
         21    1    1    2  503  502 -0.20394606132E+02 -0.18423063134E+02  0.33818687430E+02  0.43578123342E+02  0.00000000000E+00 0.  1.
          2    1    1    2  501    0  0.19649071525E+02 -0.56884865957E+02  0.44766825594E+02  0.75006950748E+02  0.00000000000E+00 0. -1.
<scales pt_clust_5="13000.00000" pt_clust_6="13000.00000" pt_clust_7="13000.00000" pt_clust_8="13000.00000" pt_clust_9="27.48362" pt_clust_10="13000.00000"></scales>
<clustering>
<clus scale="   27.484">  2  9  1 -1</clus>
<clus scale="   91.806">  5  6 -1 -1</clus>
<clus scale="   64.405">  5 10 -1 -1</clus>
<clus scale="   94.189">  7  8 -1 -1</clus>
<clus scale="   94.215">  1  7  2 -1</clus>
<clus scale="   27.484">  2  5  1 -1</clus>
</clustering>
</event>
<event>
10    2  0.5692308E-006  0.2050389E+03  0.7546771E-02  0.1164322E+00
          2   -1    0    0  503    0 -0.00000000000E+00  0.00000000000E+00  0.13234839367E+03  0.13234839367E+03  0.00000000000E+00 0. -1.
         21   -1    0    0  501  502  0.00000000000E+00 -0.00000000000E+00 -0.25329187694E+03  0.25329187694E+03  0.00000000000E+00 0. -1.
         23    2    1    2    0    0  0.36840671566E+02  0.76902558884E+02 -0.37407647755E+02  0.13117038425E+03  0.92385599258E+02 0.  0.
         23    2    1    2    0    0  0.14402174951E+02 -0.11425425499E+01 -0.57005616027E+01  0.90945246503E+02  0.89609226155E+02 0.  0.
        -11    1    3    3    0    0 -0.28398585184E+02  0.10085765297E+02 -0.20022433820E+02  0.36181489165E+02  0.00000000000E+00 0.  1.
         11    1    3    3    0    0  0.65239256750E+02  0.66816793587E+02 -0.17385213936E+02  0.94988895089E+02  0.00000000000E+00 0. -1.
        -13    1    4    4    0    0  0.12552594426E+02  0.20352914605E+02 -0.42224277367E+02  0.48525234249E+02  0.00000000000E+00 0. -1.
         13    1    4    4    0    0  0.18495805246E+01 -0.21495457155E+02  0.36523715764E+02  0.42420012254E+02  0.00000000000E+00 0.  1.
         21    1    1    2  503  502  0.92240115097E+00  0.27080344910E+02 -0.62825553454E+01  0.27814859446E+02  0.00000000000E+00 0.  1.
          2    1    1    2  501    0 -0.52165247668E+02 -0.10284036124E+03 -0.71552718565E+02  0.13570978041E+03  0.00000000000E+00 0. -1.
<scales pt_clust_5="13000.00000" pt_clust_6="13000.00000" pt_clust_7="13000.00000" pt_clust_8="13000.00000" pt_clust_9="27.09606" pt_clust_10="13000.00000"></scales>
<clustering>
<clus scale="   27.096">  2  9  1 -1</clus>
<clus scale="   89.609">  7  8 -1 -1</clus>
<clus scale="   92.386">  5  6 -1 -1</clus>
<clus scale="  104.657">  7 10 -1 -1</clus>
<clus scale="  131.947">  1  5  2 -1</clus>
<clus scale="   27.096">  2  5  1 -1</clus>
</clustering>
</event>
<event>
10    2  0.5692308E-006  0.1860771E+03  0.7546771E-02  0.1181926E+00
         21   -1    0    0  501  502  0.00000000000E+00  0.00000000000E+00  0.54439912910E+03  0.54439912910E+03  0.00000000000E+00 0. -1.
          1   -1    0    0  503    0 -0.00000000000E+00 -0.00000000000E+00 -0.63980622251E+02  0.63980622251E+02  0.00000000000E+00 0. -1.
         23    2    1    2    0    0  0.66073986424E+02 -0.37467739217E+02  0.61482686912E+02  0.13529016639E+03  0.93561237532E+02 0.  0.
         23    2    1    2    0    0 -0.20824682467E+01  0.48061161595E+02  0.22292084542E+03  0.24696735707E+03  0.94789029986E+02 0.  0.
        -11    1    4    4    0    0  0.38641620091E+02  0.42698806966E+02  0.82137451870E+02  0.10031412622E+03  0.00000000000E+00 0. -1.
         11    1    4    4    0    0 -0.40724088338E+02  0.53623546292E+01  0.14078339355E+03  0.14665323085E+03  0.00000000000E+00 0.  1.
        -13    1    3    3    0    0  0.33654168453E+02 -0.10544920113E+02 -0.22145689923E+02  0.41644086934E+02  0.00000000000E+00 0. -1.
         13    1    3    3    0    0  0.32419817971E+02 -0.26922819104E+02  0.83628376835E+02  0.93646079458E+02  0.00000000000E+00 0.  1.
         21    1    1    2  503  502 -0.23488212848E+01  0.34768320525E+02  0.45970186543E+02  0.57685449850E+02  0.00000000000E+00 0. -1.
          1    1    1    2  501    0 -0.61642696892E+02 -0.45361742903E+02  0.15004478797E+03  0.16843677804E+03  0.00000000000E+00 0. -1.
<scales pt_clust_5="13000.00000" pt_clust_6="13000.00000" pt_clust_7="13000.00000" pt_clust_8="13000.00000" pt_clust_9="34.84757" pt_clust_10="13000.00000"></scales>
<clustering>
<clus scale="   34.848">  1  9  2 -1</clus>
<clus scale="   93.561">  7  8 -1 -1</clus>
<clus scale="   94.789">  5  6 -1 -1</clus>
<clus scale="   71.122">  5 10 -1 -1</clus>
<clus scale="  118.277">  2  7  1 -1</clus>
<clus scale="   34.848">  1  5  2 -1</clus>
</clustering>
</event>
<event>
10    2  0.5692308E-006  0.3177592E+03  0.7546771E-02  0.1083900E+00
         -1   -1    0    0    0  501 -0.00000000000E+00  0.00000000000E+00  0.12531029348E+04  0.12531029348E+04  0.00000000000E+00 0.  1.
         21   -1    0    0  503  502  0.00000000000E+00 -0.00000000000E+00 -0.39312377419E+03  0.39312377419E+03  0.00000000000E+00 0. -1.
         23    2    1    2    0    0 -0.25864993551E+03  0.10331105336E+03  0.40159264299E+03  0.49694953394E+03  0.90051238141E+02 0.  0.
         23    2    1    2    0    0  0.80704629287E+02 -0.15317186859E+03  0.41625111495E+03  0.46065924128E+03  0.94694706102E+02 0.  0.
        -11    1    4    4    0    0 -0.13609514711E+02 -0.30386971210E+02  0.31129732762E+02  0.45581215119E+02  0.00000000000E+00 0. -1.
         11    1    4    4    0    0  0.94314143997E+02 -0.12278489738E+03  0.38512138219E+03  0.41507802616E+03  0.00000000000E+00 0.  1.
        -11    1    3    3    0    0 -0.58605113697E+02  0.64954167434E+01  0.35934167072E+02  0.69050808491E+02  0.00000000000E+00 0.  1.
         11    1    3    3    0    0 -0.20004482182E+03  0.96815636619E+02  0.36565847592E+03  0.42789872545E+03  0.00000000000E+00 0. -1.
         21    1    1    2  503  501  0.78082768856E+02  0.38379572594E+02 -0.31022765630E+03  0.32219731395E+03  0.00000000000E+00 0. -1.
         -1    1    1    2    0  502  0.99862537371E+02  0.11481242638E+02  0.35236305900E+03  0.36642061985E+03  0.00000000000E+00 0.  1.
<scales pt_clust_5="13000.00000" pt_clust_6="13000.00000" pt_clust_7="13000.00000" pt_clust_8="13000.00000" pt_clust_9="87.00523" pt_clust_10="13000.00000"></scales>
<clustering>
<clus scale="   87.005">  2  9  1 -1</clus>
<clus scale="   90.051">  7  8 -1 -1</clus>
<clus scale="   94.695">  5  6 -1 -1</clus>
<clus scale="  108.043">  5 10 -1 -1</clus>
<clus scale="  261.663">  1  7  2 -1</clus>
<clus scale="   87.005">  2  5  1 -1</clus>
</clustering>
</event>
<event>
10    2  0.5692308E-006  0.1285460E+03  0.7546771E-02  0.1246278E+00
         21   -1    0    0  503  502  0.00000000000E+00  0.00000000000E+00  0.22791807102E+03  0.22791807102E+03  0.00000000000E+00 0. -1.
         -2   -1    0    0    0  501 -0.00000000000E+00 -0.00000000000E+00 -0.93040244641E+02  0.93040244641E+02  0.00000000000E+00 0.  1.
         23    2    1    2    0    0 -0.11397089511E+02  0.38623864663E+00  0.64128598905E+02  0.11061518052E+03  0.89404687425E+02 0.  0.
         23    2    1    2    0    0 -0.36172817174E+01  0.73389575361E+01 -0.16207395725E+02  0.92962312627E+02  0.91172182534E+02 0.  0.
        -11    1    4    4    0    0  0.15385964037E+02  0.25360763487E+02  0.28508293317E+02  0.41141451139E+02  0.00000000000E+00 0. -1.
         11    1    4    4    0    0 -0.19003245754E+02 -0.18021805951E+02 -0.44715689042E+02  0.51820861489E+02  0.00000000000E+00 0.  1.
        -11    1    3    3    0    0 -0.31845740656E+02  0.29598381939E+02  0.81343007704E+01  0.44231010167E+02  0.00000000000E+00 0. -1.
         11    1    3    3    0    0  0.20448651145E+02 -0.29212143293E+02  0.55994298135E+02  0.66384170350E+02  0.00000000000E+00 0.  1.
         21    1    1    2  503  501 -0.62570614870E+01  0.21179916288E+02  0.77046496408E+02  0.80149250035E+02  0.00000000000E+00 0. -1.
         -2    1    1    2    0  502  0.21271432715E+02 -0.28905112470E+02  0.99101267928E+01  0.37231572485E+02  0.00000000000E+00 0.  1.
<scales pt_clust_5="13000.00000" pt_clust_6="13000.00000" pt_clust_7="13000.00000" pt_clust_8="13000.00000" pt_clust_9="22.08483" pt_clust_10="13000.00000"></scales>
<clustering>
<clus scale="   22.085">  1  9  2 -1</clus>
<clus scale="   89.405">  7  8 -1 -1</clus>
<clus scale="   91.172">  5  6 -1 -1</clus>
<clus scale="   32.632">  5 10 -1 -1</clus>
<clus scale="   91.560">  2  7  1 -1</clus>
<clus scale="   22.085">  1  5  2 -1</clus>
</clustering>
</event>
<event>
10    2  0.5692308E-006  0.2431145E+03  0.7546771E-02  0.1148098E+00
         21   -1    0    0  503  502  0.00000000000E+00  0.00000000000E+00  0.59578521688E+03  0.59578521688E+03  0.00000000000E+00 0. -1.
          2   -1    0    0  502    0 -0.00000000000E+00 -0.00000000000E+00 -0.10338538149E+03  0.10338538149E+03  0.00000000000E+00 0. -1.
         23    2    1    2    0    0  0.72648398093E+02 -0.40758929028E+02  0.12793260525E+03  0.17813597589E+03  0.91796483477E+02 0.  0.
         23    2    1    2    0    0 -0.68370711915E+02  0.86473312250E+02  0.10507503411E+03  0.17818021401E+03  0.92494528988E+02 0.  0.
        -11    1    4    4    0    0  0.19139062789E+01  0.33438768299E+02  0.79848863754E+02  0.86589002220E+02  0.00000000000E+00 0.  1.
         11    1    4    4    0    0 -0.70284618194E+02  0.53034543952E+02  0.25226170358E+02  0.91591211793E+02  0.00000000000E+00 0. -1.
        -11    1    3    3    0    0  0.25026630927E+02  0.21752727573E+02  0.78707242145E+02  0.85406928165E+02  0.00000000000E+00 0. -1.
         11    1    3    3    0    0  0.47621767166E+02 -0.62511656601E+02  0.49225363107E+02  0.92729047725E+02  0.00000000000E+00 0.  1.
         21    1    1    2  503  501 -0.13044386407E+02  0.40366014546E+02  0.25251761331E+03  0.25605608014E+03  0.00000000000E+00 0.  1.
          2    1    1    2  501    0  0.87667002289E+01 -0.86080397768E+02  0.68745827206E+01  0.86798328327E+02  0.00000000000E+00 0. -1.
<scales pt_clust_5="13000.00000" pt_clust_6="13000.00000" pt_clust_7="13000.00000" pt_clust_8="13000.00000" pt_clust_9="42.42135" pt_clust_10="13000.00000"></scales>
<clustering>
<clus scale="   42.421">  1  9  2 -1</clus>
<clus scale="   91.796">  7  8 -1 -1</clus>
<clus scale="   92.495">  5  6 -1 -1</clus>
<clus scale="   80.846">  5 10 -1 -1</clus>
<clus scale="  115.772">  2  7  1 -1</clus>
<clus scale="   42.421">  1  5  2 -1</clus>
</clustering>
</event>
<event>
10    2  0.5692308E-006  0.2636108E+03  0.7546771E-02  0.1113653E+00
          2   -1    0    0  502    0 -0.00000000000E+00  0.00000000000E+00  0.26888341407E+03  0.26888341407E+03  0.00000000000E+00 0. -1.
         21   -1    0    0  503  502  0.00000000000E+00 -0.00000000000E+00 -0.27569011936E+03  0.27569011936E+03  0.00000000000E+00 0.  1.
         23    2    1    2    0    0  0.17961324907E+03  0.85484326139E+02  0.69061127971E+02  0.22771559731E+03  0.86697546707E+02 0.  0.
         23    2    1    2    0    0 -0.28967828589E+02 -0.82157809906E+02  0.61481728067E+01  0.12561441079E+03  0.90289198399E+02 0.  0.
        -13    1    3    3    0    0  0.24196399273E+02  0.16708501268E+02 -0.20269820427E+02  0.35714218073E+02  0.00000000000E+00 0. -1.
         13    1    3    3    0    0  0.15541684980E+03  0.68775824872E+02  0.89330948398E+02  0.19200137924E+03  0.00000000000E+00 0.  1.
        -13    1    4    4    0    0  0.31910248429E+02 -0.37298163619E+02  0.91614592585E+01  0.49933448708E+02  0.00000000000E+00 0.  1.
         13    1    4    4    0    0 -0.60878077018E+02 -0.44859646288E+02 -0.30132864518E+01  0.75680962082E+02  0.00000000000E+00 0. -1.
         21    1    1    2  503  501 -0.22483792414E+02  0.72919472815E+01 -0.54960351679E+02  0.59827532735E+02  0.00000000000E+00 0.  1.
          2    1    1    2  501    0 -0.12816162807E+03 -0.10618463514E+02 -0.27055654387E+02  0.13141599260E+03  0.00000000000E+00 0. -1.
<scales pt_clust_5="13000.00000" pt_clust_6="13000.00000" pt_clust_7="13000.00000" pt_clust_8="13000.00000" pt_clust_9="23.63670" pt_clust_10="13000.00000"></scales>
<clustering>
<clus scale="   23.637">  2  9  1 -1</clus>
<clus scale="   86.698">  5  6 -1 -1</clus>
<clus scale="   90.289">  7  8 -1 -1</clus>
<clus scale="  136.556">  7 10 -1 -1</clus>
<clus scale="  211.369">  1  5  2 -1</clus>
<clus scale="   23.637">  2  5  1 -1</clus>
</clustering>
</event>
<event>
10    2  0.5692308E-006  0.2279602E+03  0.7546771E-02  0.1159298E+00
         21   -1    0    0  503  502  0.00000000000E+00  0.00000000000E+00  0.32933573848E+03  0.32933573848E+03  0.00000000000E+00 0.  1.
          1   -1    0    0  502    0 -0.00000000000E+00 -0.00000000000E+00 -0.20174517028E+03  0.20174517028E+03  0.00000000000E+00 0. -1.
         23    2    1    2    0    0 -0.41180333548E+01 -0.58361460619E+02 -0.27762921026E+02  0.11141757006E+03  0.90664639472E+02 0.  0.
         23    2    1    2    0    0 -0.54790923447E+02  0.26148313104E+02 -0.98643295195E+02  0.14959836848E+03  0.94675195238E+02 0.  0.
        -11    1    3    3    0    0 -0.67802271710E+01  0.24277928152E+02 -0.57292406706E+01  0.25849825425E+02  0.00000000000E+00 0.  1.
         11    1    3    3    0    0  0.26621938162E+01 -0.82639388771E+02 -0.22033680356E+02  0.85567744638E+02  0.00000000000E+00 0. -1.
        -13    1    4    4    0    0 -0.73824679609E+02  0.93798329729E+01 -0.99459534220E+02  0.12421861186E+03  0.00000000000E+00 0. -1.
         13    1    4    4    0    0  0.19033756162E+02  0.16768480131E+02  0.81623902524E+00  0.25379756612E+02  0.00000000000E+00 0.  1.
         21    1    1    2  503  501  0.64189446511E+02  0.54759811881E+01  0.17297537589E+03  0.18458264295E+03  0.00000000000E+00 0.  1.
          1    1    1    2  501    0 -0.52804897092E+01  0.26737166327E+02  0.81021408529E+02  0.85482327266E+02  0.00000000000E+00 0. -1.
<scales pt_clust_5="13000.00000" pt_clust_6="13000.00000" pt_clust_7="13000.00000" pt_clust_8="13000.00000" pt_clust_9="64.42260" pt_clust_10="13000.00000"></scales>
<clustering>
<clus scale="   64.423">  1  9  2 -1</clus>
<clus scale="   90.665">  5  6 -1 -1</clus>
<clus scale="   94.675">  7  8 -1 -1</clus>
<clus scale="   42.413">  7 10 -1 -1</clus>
<clus scale="  107.884">  2  5  1 -1</clus>
<clus scale="   64.423">  1  5  2 -1</clus>
</clustering>
</event>
<event>
10    2  0.5692308E-006  0.1110696E+04  0.7546771E-02  0.9517128E-01
         21   -1    0    0  501  502  0.00000000000E+00  0.00000000000E+00  0.16880347405E+04  0.16880347405E+04  0.00000000000E+00 0. -1.
          1   -1    0    0  503    0 -0.00000000000E+00 -0.00000000000E+00 -0.33985652866E+03  0.33985652866E+03  0.00000000000E+00 0. -1.
         23    2    1    2    0    0 -0.22192897883E+03 -0.24246098230E+03  0.20428052494E+03  0.39734283271E+03  0.90061058446E+02 0.  0.
         23    2    1    2    0    0 -0.21001578462E+03  0.50948844686E+03  0.40532573802E+03  0.68982615051E+03  0.88803472657E+02 0.  0.
        -11    1    3    3    0    0 -0.20032686442E+03 -0.19018206488E+03  0.13366710892E+03  0.30686636573E+03  0.00000000000E+00 0. -1.
         11    1    3    3    0    0 -0.21602114408E+02 -0.52278917424E+02  0.70613416017E+02  0.90476466971E+02  0.00000000000E+00 0.  1.
        -13    1    4    4    0    0 -0.21688078056E+02  0.91182247398E+01  0.15901517957E+02  0.28396708005E+02  0.00000000000E+00 0.  1.
         13    1    4    4    0    0 -0.18832770657E+03  0.50037022212E+03  0.38942422006E+03  0.66142944251E+03  0.00000000000E+00 0. -1.
         21    1    1    2  503  502 -0.40700908121E+02 -0.93788569968E+01  0.32895862566E+02  0.53166386508E+02  0.00000000000E+00 0. -1.
          1    1    1    2  501    0  0.47264567157E+03 -0.25764860756E+03  0.70567608636E+03  0.88755589948E+03  0.00000000000E+00 0. -1.
<scales pt_clust_5="13000.00000" pt_clust_6="13000.00000" pt_clust_7="13000.00000" pt_clust_8="13000.00000" pt_clust_9="41.76755" pt_clust_10="13000.00000"></scales>
<clustering>
<clus scale="   41.768">  1  9  2 -1</clus>
<clus scale="   88.803">  7  8 -1 -1</clus>
<clus scale="   90.061">  5  6 -1 -1</clus>
<clus scale="  346.907">  2  5  1 -1</clus>
<clus scale="  509.721">  7 10 -1 -1</clus>
<clus scale="   41.768">  1  5  2 -1</clus>
</clustering>
</event>
<event>
10    2  0.5692308E-006  0.3716933E+03  0.7546771E-02  0.1096166E+00
         21   -1    0    0  503  502  0.00000000000E+00  0.00000000000E+00  0.43479873540E+02  0.43479873540E+02  0.00000000000E+00 0. -1.
          1   -1    0    0  502    0 -0.00000000000E+00 -0.00000000000E+00 -0.21178978473E+04  0.21178978473E+04  0.00000000000E+00 0. -1.
         23    2    1    2    0    0 -0.46793700945E+02  0.11270464890E+02 -0.12698888816E+03  0.16239362009E+03  0.89044013296E+02 0.  0.
         23    2    1    2    0    0  0.17510151383E+03  0.11704133190E+03 -0.85040560801E+03  0.88063524524E+03  0.89272187789E+02 0.  0.
        -13    1    3    3    0    0 -0.10918825002E+02 -0.35922965773E+02 -0.73562475837E+02  0.82590060302E+02  0.00000000000E+00 0.  1.
         13    1    3    3    0    0 -0.35874875942E+02  0.47193430663E+02 -0.53426412323E+02  0.79803559791E+02  0.00000000000E+00 0. -1.
        -13    1    4    4    0    0  0.17365817673E+03  0.95477221785E+02 -0.81814587080E+03  0.84180504164E+03  0.00000000000E+00 0. -1.
         13    1    4    4    0    0  0.14433371050E+01  0.21564110115E+02 -0.32259737209E+02  0.38830203603E+02  0.00000000000E+00 0.  1.
         21    1    1    2  503  501 -0.65512763879E+02 -0.45510412303E+01 -0.19622060433E+03  0.20691824417E+03  0.00000000000E+00 0.  1.
          1    1    1    2  501    0 -0.62795049009E+02 -0.12376075556E+03 -0.90080287327E+03  0.91143061134E+03  0.00000000000E+00 0. -1.
<scales pt_clust_5="13000.00000" pt_clust_6="13000.00000" pt_clust_7="13000.00000" pt_clust_8="13000.00000" pt_clust_9="65.67065" pt_clust_10="13000.00000"></scales>
<clustering>
<clus scale="   65.671">  1  9  2 -1</clus>
<clus scale="   89.044">  5  6 -1 -1</clus>
<clus scale="   89.272">  7  8 -1 -1</clus>
<clus scale="  118.211">  2  5  1 -1</clus>
<clus scale="  165.808">  7 10 -1 -1</clus>
<clus scale="   65.671">  1  5  2 -1</clus>
</clustering>
</event>
<event>
10    2  0.5692308E-006  0.2786276E+03  0.7546771E-02  0.1121029E+00
         21   -1    0    0  503  502  0.00000000000E+00  0.00000000000E+00  0.98490227012E+03  0.98490227012E+03  0.00000000000E+00 0. -1.
          1   -1    0    0  502    0 -0.00000000000E+00 -0.00000000000E+00 -0.60131752924E+02  0.60131752924E+02  0.00000000000E+00 0. -1.
         23    2    1    2    0    0  0.92547494776E+02 -0.76804445702E+02  0.19922012475E+03  0.24976721531E+03  0.90725090610E+02 0.  0.
         23    2    1    2    0    0  0.20742985157E+02  0.14384553010E+03  0.31976982429E+03  0.36294919362E+03  0.91419738892E+02 0.  0.
        -13    1    3    3    0    0  0.10256526736E+03 -0.49247155576E+02  0.12032242952E+03  0.16559711183E+03  0.00000000000E+00 0. -1.
         13    1    3    3    0    0 -0.10017772579E+02 -0.27557290126E+02  0.78897695232E+02  0.84170103477E+02  0.00000000000E+00 0.  1.
        -13    1    4    4    0    0  0.41725273964E+02  0.24674688971E+02  0.66871957295E+02  0.82593567762E+02  0.00000000000E+00 0.  1.
         13    1    4    4    0    0 -0.20982288807E+02  0.11917084113E+03  0.25289786699E+03  0.28035562586E+03  0.00000000000E+00 0. -1.
         21    1    1    2  503  501 -0.23047941961E+02 -0.13213127178E+02  0.19496170341E+03  0.19676346245E+03  0.00000000000E+00 0. -1.
          1    1    1    2  501    0 -0.90242537973E+02 -0.53827957218E+02  0.21081886474E+03  0.23555415167E+03  0.00000000000E+00 0. -1.
<scales pt_clust_5="13000.00000" pt_clust_6="13000.00000" pt_clust_7="13000.00000" pt_clust_8="13000.00000" pt_clust_9="26.56679" pt_clust_10="13000.00000"></scales>
<clustering>
<clus scale="   26.567">  1  9  2 -1</clus>
<clus scale="   90.725">  5  6 -1 -1</clus>
<clus scale="   91.420">  7  8 -1 -1</clus>
<clus scale="  112.591">  7 10 -1 -1</clus>
<clus scale="  148.714">  2  5  1 -1</clus>
<clus scale="   26.567">  1  5  2 -1</clus>
</clustering>
</event>
<event>
10    2  0.5692308E-006  0.1989299E+03  0.7546771E-02  0.1183947E+00
         21   -1    0    0  503  502  0.00000000000E+00  0.00000000000E+00  0.66383891183E+03  0.66383891183E+03  0.00000000000E+00 0.  1.
         -3   -1    0    0    0  501 -0.00000000000E+00 -0.00000000000E+00 -0.21456356983E+03  0.21456356983E+03  0.00000000000E+00 0.  1.
         23    2    1    2    0    0 -0.80709366978E+01 -0.11264169864E+02 -0.34249640304E+02  0.98657384525E+02  0.91477976139E+02 0.  0.
         23    2    1    2    0    0  0.46308848272E+01 -0.38845826920E+02 -0.96541014192E+02  0.13979231645E+03  0.93227039818E+02 0.  0.
        -11    1    4    4    0    0 -0.94716533291E+01 -0.66791206301E+02 -0.79098603453E+02  0.10395848462E+03  0.00000000000E+00 0.  1.
         11    1    4    4    0    0  0.14102538156E+02  0.27945379381E+02 -0.17442410739E+02  0.35833831830E+02  0.00000000000E+00 0. -1.
        -11    1    3    3    0    0  0.11119437077E+02 -0.21556197528E+02 -0.60128088848E+02  0.64835936034E+02  0.00000000000E+00 0.  1.
         11    1    3    3    0    0 -0.19190373775E+02  0.10292027664E+02  0.25878448544E+02  0.33821448492E+02  0.00000000000E+00 0. -1.
         21    1    1    2  503  501 -0.17628118653E+02  0.11224192011E+03  0.55990735356E+03  0.57131886348E+03  0.00000000000E+00 0.  1.
         -3    1    1    2    0  502  0.21068170524E+02 -0.62131923325E+02  0.20158642936E+02  0.68633917201E+02  0.00000000000E+00 0.  1.
<scales pt_clust_5="13000.00000" pt_clust_6="13000.00000" pt_clust_7="13000.00000" pt_clust_8="13000.00000" pt_clust_9="113.23795" pt_clust_10="13000.00000"></scales>
<clustering>
<clus scale="   91.478">  7  8 -1 -1</clus>
<clus scale="   92.522">  2  7  1 -1</clus>
<clus scale="   93.227">  5  6 -1 -1</clus>
<clus scale="   66.954">  5 10 -1 -1</clus>
<clus scale="  113.238">  1  9  2 -1</clus>
<clus scale="  113.238">  1  5  2 -1</clus>
</clustering>
</event>
<event>
10    2  0.5692308E-006  0.1295599E+03  0.7546771E-02  0.1242689E+00
         -2   -1    0    0    0  501 -0.00000000000E+00  0.00000000000E+00  0.23767675768E+03  0.23767675768E+03  0.00000000000E+00 0.  1.
         21   -1    0    0  503  502  0.00000000000E+00 -0.00000000000E+00 -0.31735038543E+03  0.31735038543E+03  0.00000000000E+00 0.  1.
         23    2    1    2    0    0 -0.48369468085E+02 -0.44728824922E+01  0.14360362770E+03  0.17694280555E+03  0.91253177626E+02 0.  0.
         23    2    1    2    0    0 -0.10865466485E+02  0.21839720274E+02  0.19655644327E+02  0.95936736105E+02  0.90677898282E+02 0.  0.
        -11    1    4    4    0    0  0.20637470995E+01 -0.20316538924E+02  0.41853841282E+02  0.46569999312E+02  0.00000000000E+00 0.  1.
         11    1    4    4    0    0 -0.12929213584E+02  0.42156259198E+02 -0.22198196954E+02  0.49366736792E+02  0.00000000000E+00 0. -1.
        -11    1    3    3    0    0 -0.63459330449E+01 -0.38462429521E+02  0.24218671802E+02  0.45893064996E+02  0.00000000000E+00 0. -1.
         11    1    3    3    0    0 -0.42023535040E+02  0.33989547029E+02  0.11938495590E+03  0.13104974056E+03  0.00000000000E+00 0.  1.
         21    1    1    2  503  501  0.90679514362E+02 -0.46327190190E+01 -0.22735788575E+03  0.24481798264E+03  0.00000000000E+00 0.  1.
         -2    1    1    2    0  502 -0.31444579792E+02 -0.12734118763E+02 -0.15575014024E+02  0.37329618815E+02  0.00000000000E+00 0.  1.
<scales pt_clust_5="13000.00000" pt_clust_6="13000.00000" pt_clust_7="13000.00000" pt_clust_8="13000.00000" pt_clust_9="90.79778" pt_clust_10="13000.00000"></scales>
<clustering>
<clus scale="   90.678">  5  6 -1 -1</clus>
<clus scale="   33.925">  5 10 -1 -1</clus>
<clus scale="   90.798">  2  9  1 -1</clus>
<clus scale="   91.253">  7  8 -1 -1</clus>
<clus scale="   96.139">  1  7  2 -1</clus>
<clus scale="   90.798">  2  5  1 -1</clus>
</clustering>
</event>
<event>
10    2  0.5692308E-006  0.4925765E+03  0.7546771E-02  0.1062558E+00
         21   -1    0    0  503  502  0.00000000000E+00  0.00000000000E+00  0.61267177485E+03  0.61267177485E+03  0.00000000000E+00 0. -1.
          1   -1    0    0  502    0 -0.00000000000E+00 -0.00000000000E+00 -0.25553447560E+03  0.25553447560E+03  0.00000000000E+00 0. -1.
         23    2    1    2    0    0  0.77204788116E+01  0.89976600692E+02  0.53742174664E+02  0.13808230572E+03  0.89571799968E+02 0.  0.
         23    2    1    2    0    0 -0.13683647976E+03 -0.12118416059E+03 -0.14708102414E+03  0.25158447420E+03  0.90841053620E+02 0.  0.
        -11    1    3    3    0    0 -0.26867599765E+02  0.67140291308E+02  0.27476764202E+01  0.72368752648E+02  0.00000000000E+00 0.  1.
         11    1    3    3    0    0  0.34588078577E+02  0.22836309384E+02  0.50994498243E+02  0.65713553069E+02  0.00000000000E+00 0. -1.
        -13    1    4    4    0    0 -0.20077211023E+02 -0.47161810730E+02 -0.21653633156E+01  0.51303212298E+02  0.00000000000E+00 0. -1.
         13    1    4    4    0    0 -0.11675926874E+03 -0.74022349861E+02 -0.14491566083E+03  0.20028126190E+03  0.00000000000E+00 0.  1.
         21    1    1    2  503  501  0.27406285140E+02 -0.11605034834E+02  0.23072188050E+03  0.23263354754E+03  0.00000000000E+00 0. -1.
          1    1    1    2  501    0  0.10170971581E+03  0.42812594733E+02  0.21975426822E+03  0.24590592299E+03  0.00000000000E+00 0. -1.
<scales pt_clust_5="13000.00000" pt_clust_6="13000.00000" pt_clust_7="13000.00000" pt_clust_8="13000.00000" pt_clust_9="29.76208" pt_clust_10="13000.00000"></scales>
<clustering>
<clus scale="   29.762">  1  9  2 -1</clus>
<clus scale="   89.572">  5  6 -1 -1</clus>
<clus scale="   90.841">  7  8 -1 -1</clus>
<clus scale="  123.727">  7 10 -1 -1</clus>
<clus scale="  125.760">  2  5  1 -1</clus>
<clus scale="   29.762">  1  5  2 -1</clus>
</clustering>
</event>
<event>
10    2  0.6252718E-006  0.4107222E+03  0.7546771E-02  0.1091546E+00
          1   -1    0    0  503    0 -0.00000000000E+00  0.00000000000E+00  0.30322747972E+03  0.30322747972E+03  0.00000000000E+00 0. -1.
         21   -1    0    0  501  502  0.00000000000E+00 -0.00000000000E+00 -0.18172710293E+04  0.18172710293E+04  0.00000000000E+00 0. -1.
         23    2    1    2    0    0 -0.24182244530E+02 -0.25956631062E+02  0.10262306183E+03  0.14252831329E+03  0.92327133730E+02 0.  0.
         23    2    1    2    0    0 -0.76123554818E+02 -0.27497188482E+02  0.56781113771E+02  0.14460058743E+03  0.10551940121E+03 0.  0.
        -11    1    4    4    0    0 -0.97093895952E+02 -0.41934240277E+02  0.54662003347E+02  0.11905309634E+03  0.00000000000E+00 0. -1.
         11    1    4    4    0    0  0.20970341134E+02  0.14437051795E+02  0.21191104241E+01  0.25547491087E+02  0.00000000000E+00 0.  1.
        -13    1    3    3    0    0 -0.51582686409E+02 -0.38000189427E+02  0.88952650758E+02  0.10962372923E+03  0.00000000000E+00 0. -1.
         13    1    3    3    0    0  0.27400441878E+02  0.12043558365E+02  0.13670411077E+02  0.32904584061E+02  0.00000000000E+00 0.  1.
         21    1    1    2  503  502  0.17792392416E+03 -0.17353845635E+03 -0.15378473230E+04  0.15578019475E+04  0.00000000000E+00 0. -1.
          1    1    1    2  501    0 -0.77618124810E+02  0.22699227589E+03 -0.13560040212E+03  0.27556766079E+03  0.00000000000E+00 0. -1.
<scales pt_clust_5="13000.00000" pt_clust_6="13000.00000" pt_clust_7="13000.00000" pt_clust_8="13000.00000" pt_clust_9="248.59336" pt_clust_10="13000.00000"></scales>
<clustering>
<clus scale="   92.327">  7  8 -1 -1</clus>
<clus scale="   98.908">  1  7  2 -1</clus>
<clus scale="  105.519">  5  6 -1 -1</clus>
<clus scale="  233.727">  5 10 -1 -1</clus>
<clus scale="  248.593">  2  9  1 -1</clus>
<clus scale="  248.593">  2  5  1 -1</clus>
</clustering>
</event>
<event>
10    2  0.5692308E-006  0.3446631E+03  0.7546771E-02  0.1102019E+00
         21   -1    0    0  501  502  0.00000000000E+00  0.00000000000E+00  0.40168871758E+03  0.40168871758E+03  0.00000000000E+00 0.  1.
          2   -1    0    0  503    0 -0.00000000000E+00 -0.00000000000E+00 -0.79231576384E+03  0.79231576384E+03  0.00000000000E+00 0. -1.
         23    2    1    2    0    0 -0.14708598590E+01  0.94412149438E+02 -0.16059700742E+03  0.20389430157E+03  0.82859338821E+02 0.  0.
         23    2    1    2    0    0 -0.70233756852E+02 -0.59999979983E+02 -0.44450034276E+03  0.46316621203E+03  0.91703909672E+02 0.  0.
        -11    1    4    4    0    0 -0.77027469103E+02 -0.17478992689E+02 -0.35713967611E+03  0.36576972870E+03  0.00000000000E+00 0. -1.
         11    1    4    4    0    0  0.67937122514E+01 -0.42520987294E+02 -0.87360666653E+02  0.97396483328E+02  0.00000000000E+00 0.  1.
        -13    1    3    3    0    0 -0.32789400855E+02  0.80762513616E+01 -0.44542156246E+02  0.55896102972E+02  0.00000000000E+00 0.  1.
         13    1    3    3    0    0  0.31318540996E+02  0.86335898077E+02 -0.11605485118E+03  0.14799819860E+03  0.00000000000E+00 0. -1.
         21    1    1    2  503  502 -0.85327158001E+02 -0.49717051617E+01  0.32279260866E+03  0.33391692073E+03  0.00000000000E+00 0.  1.
          2    1    1    2  501    0  0.15703177471E+03 -0.29440464294E+02 -0.10832230474E+03  0.19302704710E+03  0.00000000000E+00 0. -1.
<scales pt_clust_5="13000.00000" pt_clust_6="13000.00000" pt_clust_7="13000.00000" pt_clust_8="13000.00000" pt_clust_9="85.47188" pt_clust_10="13000.00000"></scales>
<clustering>
<clus scale="   82.859">  7  8 -1 -1</clus>
<clus scale="   85.472">  1  9  2 -1</clus>
<clus scale="   91.704">  5  6 -1 -1</clus>
<clus scale="  112.493">  5 10 -1 -1</clus>
<clus scale="  127.339">  2  7  1 -1</clus>
<clus scale="   85.472">  1  5  2 -1</clus>
</clustering>
</event>
<event>
10    2  0.5692308E-006  0.3435717E+03  0.7546771E-02  0.1099843E+00
         21   -1    0    0  503  502  0.00000000000E+00  0.00000000000E+00  0.20269912650E+03  0.20269912650E+03  0.00000000000E+00 0.  1.
          2   -1    0    0  502    0 -0.00000000000E+00 -0.00000000000E+00 -0.10053988722E+04  0.10053988722E+04  0.00000000000E+00 0. -1.
         23    2    1    2    0    0  0.38768862462E+02 -0.90289718710E+02 -0.33604531080E+03  0.36191316397E+03  0.91648400663E+02 0.  0.
         23    2    1    2    0    0 -0.15176615920E+03  0.11154546197E+03 -0.36725326955E+03  0.42454007626E+03  0.99418082824E+02 0.  0.
        -11    1    4    4    0    0 -0.10006889682E+03  0.23352419253E+02 -0.12646424264E+03  0.16294883941E+03  0.00000000000E+00 0. -1.
         11    1    4    4    0    0 -0.51697262377E+02  0.88193042720E+02 -0.24078902690E+03  0.26159123685E+03  0.00000000000E+00 0.  1.
        -13    1    3    3    0    0  0.76328341886E+01  0.18981001350E+02 -0.60330473013E+02  0.63704823554E+02  0.00000000000E+00 0. -1.
         13    1    3    3    0    0  0.31136028273E+02 -0.10927072006E+03 -0.27571483779E+03  0.29820834042E+03  0.00000000000E+00 0.  1.
         21    1    1    2  503  501 -0.20685735453E+02 -0.19099558920E+02  0.14249947372E+03  0.14525423509E+03  0.00000000000E+00 0.  1.
          2    1    1    2  501    0  0.13368303219E+03 -0.21561843422E+01 -0.24190063905E+03  0.27639052335E+03  0.00000000000E+00 0. -1.
<scales pt_clust_5="13000.00000" pt_clust_6="13000.00000" pt_clust_7="13000.00000" pt_clust_8="13000.00000" pt_clust_9="28.15480" pt_clust_10="13000.00000"></scales>
<clustering>
<clus scale="   28.155">  1  9  2 -1</clus>
<clus scale="   91.648">  7  8 -1 -1</clus>
<clus scale="   99.418">  5  6 -1 -1</clus>
<clus scale="  127.854">  5 10 -1 -1</clus>
<clus scale="  136.010">  2  7  1 -1</clus>
<clus scale="   28.155">  1  5  2 -1</clus>
</clustering>
</event>
<event>
10    2  0.5692308E-006  0.2562931E+03  0.7546771E-02  0.1138702E+00
          1   -1    0    0  503    0 -0.00000000000E+00  0.00000000000E+00  0.49455124433E+03  0.49455124433E+03  0.00000000000E+00 0. -1.
         21   -1    0    0  501  502  0.00000000000E+00 -0.00000000000E+00 -0.17263602567E+03  0.17263602567E+03  0.00000000000E+00 0. -1.
         23    2    1    2    0    0  0.54897496327E+02 -0.68416654131E+02  0.30268215287E+03  0.32696738571E+03  0.87158545114E+02 0.  0.
         23    2    1    2    0    0 -0.42485393608E+02  0.15053699467E+02  0.13951216563E+03  0.17293951122E+03  0.91721358705E+02 0.  0.
        -11    1    4    4    0    0  0.20587443765E+02 -0.20809232856E+02  0.33660284720E+02  0.44608090973E+02  0.00000000000E+00 0.  1.
         11    1    4    4    0    0 -0.63072837372E+02  0.35862932323E+02  0.10585188091E+03  0.12833142024E+03  0.00000000000E+00 0. -1.
        -13    1    3    3    0    0  0.73117238468E+02 -0.31482333463E+02  0.16401010699E+03  0.18230903180E+03  0.00000000000E+00 0. -1.
         13    1    3    3    0    0 -0.18219742141E+02 -0.36934320668E+02  0.13867204589E+03  0.14465835391E+03  0.00000000000E+00 0.  1.
         21    1    1    2  503  502 -0.26652920287E+02 -0.22422355713E+02 -0.60109023820E+02  0.69471108672E+02  0.00000000000E+00 0. -1.
          1    1    1    2  501    0  0.14240817568E+02  0.75785310377E+02 -0.60170076026E+02  0.97809264402E+02  0.00000000000E+00 0. -1.
<scales pt_clust_5="13000.00000" pt_clust_6="13000.00000" pt_clust_7="13000.00000" pt_clust_8="13000.00000" pt_clust_9="34.83016" pt_clust_10="13000.00000"></scales>
<clustering>
<clus scale="   34.830">  2  9  1 -1</clus>
<clus scale="   87.159">  7  8 -1 -1</clus>
<clus scale="   91.721">  5  6 -1 -1</clus>
<clus scale="   59.597">  5 10 -1 -1</clus>
<clus scale="  123.784">  1  7  2 -1</clus>
<clus scale="   34.830">  2  5  1 -1</clus>
</clustering>
</event>
<event>
10    2  0.5692308E-006  0.3300011E+03  0.7546771E-02  0.1090068E+00
         21   -1    0    0  503  502  0.00000000000E+00  0.00000000000E+00  0.14689886334E+03  0.14689886334E+03  0.00000000000E+00 0.  1.
          2   -1    0    0  502    0 -0.00000000000E+00 -0.00000000000E+00 -0.11323442983E+04  0.11323442983E+04  0.00000000000E+00 0. -1.
         23    2    1    2    0    0 -0.68995523655E+02 -0.15601562686E+03 -0.72958127644E+03  0.75478521362E+03  0.91162611060E+02 0.  0.
         23    2    1    2    0    0 -0.84504695465E+01  0.24110760202E+02 -0.23293436033E+03  0.25130366331E+03  0.90787530943E+02 0.  0.
        -11    1    3    3    0    0 -0.22266637435E+02 -0.51533788845E+01 -0.30655014142E+02  0.38237290027E+02  0.00000000000E+00 0.  1.
         11    1    3    3    0    0 -0.46728886219E+02 -0.15086224797E+03 -0.69892626230E+03  0.71654792359E+03  0.00000000000E+00 0. -1.
        -13    1    4    4    0    0 -0.46219603652E+02  0.57600930214E+01 -0.16492083933E+03  0.17137185789E+03  0.00000000000E+00 0.  1.
         13    1    4    4    0    0  0.37769134106E+02  0.18350667181E+02 -0.68013521003E+02  0.79931805411E+02  0.00000000000E+00 0. -1.
         21    1    1    2  503  501 -0.44047706410E+02 -0.24997312574E+02  0.40471537898E+02  0.64830636707E+02  0.00000000000E+00 0.  1.
          2    1    1    2  501    0  0.12149369961E+03  0.15690217923E+03 -0.63401336058E+02  0.20832364798E+03  0.00000000000E+00 0. -1.
<scales pt_clust_5="13000.00000" pt_clust_6="13000.00000" pt_clust_7="13000.00000" pt_clust_8="13000.00000" pt_clust_9="50.64648" pt_clust_10="13000.00000"></scales>
<clustering>
<clus scale="   50.646">  1  9  2 -1</clus>
<clus scale="   90.788">  7  8 -1 -1</clus>
<clus scale="   91.163">  5  6 -1 -1</clus>
<clus scale="  163.204">  7 10 -1 -1</clus>
<clus scale="  198.276">  2  5  1 -1</clus>
<clus scale="   50.646">  1  5  2 -1</clus>
</clustering>
</event>
<event>
10    2  0.5692308E-006  0.1406585E+03  0.7546771E-02  0.1227206E+00
          1   -1    0    0  502    0 -0.00000000000E+00  0.00000000000E+00  0.18713193970E+03  0.18713193970E+03  0.00000000000E+00 0. -1.
         21   -1    0    0  503  502  0.00000000000E+00 -0.00000000000E+00 -0.25051953127E+03  0.25051953127E+03  0.00000000000E+00 0.  1.
         23    2    1    2    0    0 -0.46204003275E+02 -0.88167675252E+01  0.46217662967E+02  0.11317030680E+03  0.91972282038E+02 0.  0.
         23    2    1    2    0    0  0.37930210382E+02  0.17716151977E+02  0.67113352441E+02  0.12075659145E+03  0.91243571847E+02 0.  0.
        -11    1    4    4    0    0 -0.90999985400E+01 -0.22592895405E+02 -0.58476908586E+01  0.25048839985E+02  0.00000000000E+00 0.  1.
         11    1    4    4    0    0  0.47030208922E+02  0.40309047382E+02  0.72961043299E+02  0.95707751470E+02  0.00000000000E+00 0. -1.
        -13    1    3    3    0    0 -0.45913965854E+02  0.27560130136E+02 -0.10055968579E+01  0.53559912795E+02  0.00000000000E+00 0.  1.
         13    1    3    3    0    0 -0.29003742132E+00 -0.36376897662E+02  0.47223259825E+02  0.59610394007E+02  0.00000000000E+00 0. -1.
         21    1    1    2  503  501 -0.12635761578E+01  0.21713613258E+02 -0.16945850341E+03  0.17084865233E+03  0.00000000000E+00 0.  1.
          1    1    1    2  501    0  0.95373690509E+01 -0.30612997710E+02 -0.72601035673E+01  0.32875920383E+02  0.00000000000E+00 0. -1.
<scales pt_clust_5="13000.00000" pt_clust_6="13000.00000" pt_clust_7="13000.00000" pt_clust_8="13000.00000" pt_clust_9="21.75035" pt_clust_10="13000.00000"></scales>
<clustering>
<clus scale="   21.750">  2  9  1 -1</clus>
<clus scale="   91.244">  5  6 -1 -1</clus>
<clus scale="   26.826">  5 10 -1 -1</clus>
<clus scale="   91.972">  7  8 -1 -1</clus>
<clus scale="  103.163">  1  7  2 -1</clus>
<clus scale="   21.750">  2  5  1 -1</clus>
</clustering>
</event>
<event>
10    2  0.5692308E-006  0.1487574E+03  0.7546771E-02  0.1215042E+00
         21   -1    0    0  501  502  0.00000000000E+00  0.00000000000E+00  0.11473598680E+03  0.11473598680E+03  0.00000000000E+00 0.  1.
          2   -1    0    0  503    0 -0.00000000000E+00 -0.00000000000E+00 -0.34303985030E+03  0.34303985030E+03  0.00000000000E+00 0. -1.
         23    2    1    2    0    0  0.61126286621E+02  0.13108231670E+01 -0.21045031214E+03  0.23735972972E+03  0.91171082243E+02 0.  0.
         23    2    1    2    0    0 -0.91855176190E+02  0.19033607031E+02 -0.23263534137E+02  0.14544178544E+03  0.10868518456E+03 0.  0.
        -11    1    4    4    0    0 -0.44356457446E+02  0.23728471223E+02 -0.64893287285E+02  0.82107699994E+02  0.00000000000E+00 0. -1.
         11    1    4    4    0    0 -0.47498718744E+02 -0.46948641918E+01  0.41629753148E+02  0.63334085446E+02  0.00000000000E+00 0.  1.
        -13    1    3    3    0    0  0.13119207902E+02  0.40057854988E+02 -0.49642256932E+02  0.65123720989E+02  0.00000000000E+00 0.  1.
         13    1    3    3    0    0  0.48007078719E+02 -0.38747031821E+02 -0.16080805521E+03  0.17223600873E+03  0.00000000000E+00 0. -1.
         21    1    1    2  503  502  0.28094872145E+02 -0.41542836033E+02  0.13814619843E+02  0.52018965656E+02  0.00000000000E+00 0.  1.
          2    1    1    2  501    0  0.26340174239E+01  0.21198405835E+02 -0.84046370666E+01  0.22955356280E+02  0.00000000000E+00 0. -1.
<scales pt_clust_5="13000.00000" pt_clust_6="13000.00000" pt_clust_7="13000.00000" pt_clust_8="13000.00000" pt_clust_9="50.15106" pt_clust_10="13000.00000"></scales>
<clustering>
<clus scale="   50.151">  1  9  2 -1</clus>
<clus scale="   91.171">  7  8 -1 -1</clus>
<clus scale="  108.685">  5  6 -1 -1</clus>
<clus scale="   18.241">  5 10 -1 -1</clus>
<clus scale="  112.540">  2  7  1 -1</clus>
<clus scale="   50.151">  1  5  2 -1</clus>
</clustering>
</event>
<event>
10    2  0.5692308E-006  0.2650589E+03  0.7546771E-02  0.1146820E+00
         21   -1    0    0  501  502  0.00000000000E+00  0.00000000000E+00  0.53494162767E+03  0.53494162767E+03  0.00000000000E+00 0.  1.
         -1   -1    0    0    0  501 -0.00000000000E+00 -0.00000000000E+00 -0.11145727299E+03  0.11145727299E+03  0.00000000000E+00 0.  1.
         23    2    1    2    0    0  0.57989616839E+01  0.12473124803E+02  0.27874471084E+02  0.95996276134E+02  0.90824512629E+02 0.  0.
         23    2    1    2    0    0  0.10893056578E+03 -0.70560615110E+02  0.39254368765E+02  0.16333645320E+03  0.91067134095E+02 0.  0.
        -11    1    3    3    0    0  0.27722283451E+02 -0.31719731162E+02  0.83800017279E+01  0.42952191721E+02  0.00000000000E+00 0.  1.
         11    1    3    3    0    0 -0.21923321767E+02  0.44192855965E+02  0.19494469356E+02  0.53044084412E+02  0.00000000000E+00 0. -1.
        -13    1    4    4    0    0  0.65314185557E+02 -0.14314305252E+02 -0.20996003789E+02  0.70083338568E+02  0.00000000000E+00 0.  1.
         13    1    4    4    0    0  0.43616380224E+02 -0.56246309859E+02  0.60250372553E+02  0.93253114636E+02  0.00000000000E+00 0. -1.
         21    1    1    2  503  502 -0.42837200289E+02  0.11944563356E+02  0.23182007473E+03  0.23604712532E+03  0.00000000000E+00 0.  1.
         -1    1    1    2    0  503 -0.71892327175E+02  0.46142926952E+02  0.12453544010E+03  0.15101904600E+03  0.00000000000E+00 0.  1.
<scales pt_clust_5="13000.00000" pt_clust_6="13000.00000" pt_clust_7="13000.00000" pt_clust_8="13000.00000" pt_clust_9="44.47132" pt_clust_10="13000.00000"></scales>
<clustering>
<clus scale="   44.471">  1  9  2 -1</clus>
<clus scale="   90.825">  5  6 -1 -1</clus>
<clus scale="   91.067">  7  8 -1 -1</clus>
<clus scale="   92.093">  2  5  1 -1</clus>
<clus scale="  107.947">  7 10 -1 -1</clus>
<clus scale="   44.471">  1  5  2 -1</clus>
</clustering>
</event>
<event>
10    2  0.5692308E-006  0.2808024E+03  0.7546771E-02  0.1125619E+00
          2   -1    0    0  503    0 -0.00000000000E+00  0.00000000000E+00  0.13274706255E+04  0.13274706255E+04  0.00000000000E+00 0. -1.
         21   -1    0    0  501  502  0.00000000000E+00 -0.00000000000E+00 -0.59599081664E+02  0.59599081664E+02  0.00000000000E+00 0. -1.
         23    2    1    2    0    0 -0.64138126614E+02  0.70636760376E+02  0.57915256774E+03  0.59292104477E+03  0.83871433859E+02 0.  0.
         23    2    1    2    0    0 -0.86768057833E+02 -0.67044551253E+02  0.40177355122E+03  0.42627007710E+03  0.90887427391E+02 0.  0.
        -11    1    4    4    0    0  0.85450447913E+01 -0.20591795225E+02  0.19680644023E+02  0.29738318215E+02  0.00000000000E+00 0.  1.
         11    1    4    4    0    0 -0.95313102624E+02 -0.46452756028E+02  0.38209290720E+03  0.39653175889E+03  0.00000000000E+00 0. -1.
        -13    1    3    3    0    0  0.17853449637E+02  0.92637912831E+01  0.49020410687E+02  0.52986452578E+02  0.00000000000E+00 0.  1.
         13    1    3    3    0    0 -0.81991576251E+02  0.61372969093E+02  0.53013215705E+03  0.53993459220E+03  0.00000000000E+00 0. -1.
         21    1    1    2  503  502  0.13749778715E+02  0.34663946653E+02 -0.99562086226E+01  0.38597560835E+02  0.00000000000E+00 0. -1.
          2    1    1    2  501    0  0.13715640573E+03 -0.38256155776E+02  0.29690163347E+03  0.32928102442E+03  0.00000000000E+00 0. -1.
<scales pt_clust_5="13000.00000" pt_clust_6="13000.00000" pt_clust_7="13000.00000" pt_clust_8="13000.00000" pt_clust_9="37.29136" pt_clust_10="13000.00000"></scales>
<clustering>
<clus scale="   37.291">  2  9  1 -1</clus>
<clus scale="   83.871">  7  8 -1 -1</clus>
<clus scale="   90.887">  5  6 -1 -1</clus>
<clus scale="  129.619">  1  7  2 -1</clus>
<clus scale="  115.514">  5 10 -1 -1</clus>
<clus scale="   37.291">  2  5  1 -1</clus>
</clustering>
</event>
<event>
10    2  0.5692308E-006  0.5515548E+03  0.7546771E-02  0.1059955E+00
         21   -1    0    0  501  502  0.00000000000E+00  0.00000000000E+00  0.10358367692E+04  0.10358367692E+04  0.00000000000E+00 0.  1.
         -1   -1    0    0    0  501 -0.00000000000E+00 -0.00000000000E+00 -0.38086633728E+03  0.38086633728E+03  0.00000000000E+00 0.  1.
         23    2    1    2    0    0  0.35951599474E+01  0.29831544308E+02 -0.85824616177E+02  0.12901572106E+03  0.91522376100E+02 0.  0.
         23    2    1    2    0    0 -0.28050198609E+03 -0.17721605015E+03 -0.61948013937E+02  0.34966338396E+03  0.91323781234E+02 0.  0.
        -11    1    3    3    0    0 -0.10767179836E+02 -0.21710348458E+02 -0.68680698934E+02  0.72830692691E+02  0.00000000000E+00 0. -1.
         11    1    3    3    0    0  0.14362339783E+02  0.51541892767E+02 -0.17143917243E+02  0.56185028366E+02  0.00000000000E+00 0.  1.
        -13    1    4    4    0    0 -0.27637016237E+03 -0.15730457678E+03 -0.73346740270E+02  0.32635094735E+03  0.00000000000E+00 0.  1.
         13    1    4    4    0    0 -0.41318237219E+01 -0.19911473364E+02  0.11398726332E+02  0.23312436612E+02  0.00000000000E+00 0. -1.
         21    1    1    2  503  502  0.28063334883E+03 -0.15566107232E+02  0.67420704399E+03  0.73044679364E+03  0.00000000000E+00 0.  1.
         -1    1    1    2    0  503 -0.37265226841E+01  0.16295061307E+03  0.12853601803E+03  0.20757720781E+03  0.00000000000E+00 0.  1.
<scales pt_clust_5="13000.00000" pt_clust_6="13000.00000" pt_clust_7="13000.00000" pt_clust_8="13000.00000" pt_clust_9="281.28087" pt_clust_10="13000.00000"></scales>
<clustering>
<clus scale="   91.324">  7  8 -1 -1</clus>
<clus scale="   91.522">  5  6 -1 -1</clus>
<clus scale="   96.329">  2  5  1 -1</clus>
<clus scale="  167.293">  7 10 -1 -1</clus>
<clus scale="  281.281">  1  9  2 -1</clus>
<clus scale="  281.281">  1  5  2 -1</clus>
</clustering>
</event>
<event>
10    2  0.5692308E-006  0.2478776E+03  0.7546771E-02  0.1119130E+00
         21   -1    0    0  503  502  0.00000000000E+00  0.00000000000E+00  0.86731047488E+02  0.86731047488E+02  0.00000000000E+00 0. -1.
          2   -1    0    0  502    0 -0.00000000000E+00 -0.00000000000E+00 -0.75064352302E+03  0.75064352302E+03  0.00000000000E+00 0. -1.
         23    2    1    2    0    0 -0.99440947089E+02  0.18480098884E+03 -0.41122661515E+03  0.47075759929E+03  0.92008047702E+02 0.  0.
         23    2    1    2    0    0  0.47283382321E+02 -0.12328579600E+03 -0.11285417790E+03  0.19598693862E+03  0.90772842317E+02 0.  0.
        -11    1    3    3    0    0 -0.39495154768E+02  0.58549457160E+02 -0.23757274246E+03  0.24784816752E+03  0.00000000000E+00 0. -1.
         11    1    3    3    0    0 -0.59945792321E+02  0.12625153168E+03 -0.17365387269E+03  0.22290943177E+03  0.00000000000E+00 0.  1.
        -11    1    4    4    0    0  0.25826699570E+02  0.81302554209E+01 -0.18778586554E+02  0.32950793266E+02  0.00000000000E+00 0.  1.
         11    1    4    4    0    0  0.21456682750E+02 -0.13141605142E+03 -0.94075591346E+02  0.16303614536E+03  0.00000000000E+00 0. -1.
         21    1    1    2  503  501  0.15906675366E+02 -0.16222813316E+02 -0.41901279590E+01  0.23103228463E+02  0.00000000000E+00 0. -1.
          2    1    1    2  501    0  0.36250889402E+02 -0.45292379525E+02 -0.13564155452E+03  0.14752680413E+03  0.00000000000E+00 0. -1.
<scales pt_clust_5="13000.00000" pt_clust_6="13000.00000" pt_clust_7="13000.00000" pt_clust_8="13000.00000" pt_clust_9="22.72008" pt_clust_10="13000.00000"></scales>
<clustering>
<clus scale="   22.720">  1  9  2 -1</clus>
<clus scale="   90.773">  7  8 -1 -1</clus>
<clus scale="   59.752">  7 10 -1 -1</clus>
<clus scale="   92.008">  5  6 -1 -1</clus>
<clus scale="  221.481">  2  5  1 -1</clus>
<clus scale="   22.720">  1  5  2 -1</clus>
</clustering>
</event>
<event>
10    2  0.5692308E-006  0.1543917E+03  0.7546771E-02  0.1216357E+00
         21   -1    0    0  503  502  0.00000000000E+00  0.00000000000E+00  0.34864017967E+03  0.34864017967E+03  0.00000000000E+00 0. -1.
         -1   -1    0    0    0  501 -0.00000000000E+00 -0.00000000000E+00 -0.89745546508E+02  0.89745546508E+02  0.00000000000E+00 0.  1.
         23    2    1    2    0    0 -0.22139976031E+02  0.37894977947E+02  0.23447332022E+01  0.10016383798E+03  0.90006048534E+02 0.  0.
         23    2    1    2    0    0  0.93552079903E+01 -0.32274580122E+02  0.12050704789E+03  0.15491323233E+03  0.91361876746E+02 0.  0.
        -11    1    3    3    0    0 -0.14002328310E+02 -0.22284380086E+02  0.24072141800E+02  0.35666886671E+02  0.00000000000E+00 0.  1.
         11    1    3    3    0    0 -0.81376477204E+01  0.60179358033E+02 -0.21727408598E+02  0.64496951308E+02  0.00000000000E+00 0. -1.
        -13    1    4    4    0    0  0.32302895763E+02 -0.22885406922E+02  0.88880514811E+01  0.40573592197E+02  0.00000000000E+00 0.  1.
         13    1    4    4    0    0 -0.22947687773E+02 -0.93891732003E+01  0.11161899641E+03  0.11433964013E+03  0.00000000000E+00 0. -1.
         21    1    1    2  503  501 -0.42422219500E+01 -0.27679034289E+02  0.14968568233E+03  0.15228239846E+03  0.00000000000E+00 0. -1.
         -1    1    1    2    0  502  0.17026989991E+02  0.22058636464E+02 -0.13642830262E+02  0.31026257402E+02  0.00000000000E+00 0.  1.
<scales pt_clust_5="13000.00000" pt_clust_6="13000.00000" pt_clust_7="13000.00000" pt_clust_8="13000.00000" pt_clust_9="28.00224" pt_clust_10="13000.00000"></scales>
<clustering>
<clus scale="   28.002">  1  9  2 -1</clus>
<clus scale="   90.006">  5  6 -1 -1</clus>
<clus scale="   91.362">  7  8 -1 -1</clus>
<clus scale="   26.795">  7 10 -1 -1</clus>
<clus scale="   97.902">  2  5  1 -1</clus>
<clus scale="   28.002">  1  5  2 -1</clus>
</clustering>
</event>
<event>
10    2  0.5692308E-006  0.5568524E+03  0.7546771E-02  0.1050250E+00
          1   -1    0    0  503    0 -0.00000000000E+00  0.00000000000E+00  0.14643931761E+04  0.14643931761E+04  0.00000000000E+00 0. -1.
         21   -1    0    0  501  502  0.00000000000E+00 -0.00000000000E+00 -0.29517867396E+03  0.29517867396E+03  0.00000000000E+00 0. -1.
         23    2    1    2    0    0 -0.68670435380E+02 -0.41741832604E+02  0.55726474637E+03  0.57054450274E+03  0.92298552427E+02 0.  0.
         23    2    1    2    0    0  0.23369637679E+03  0.10377094636E+02  0.74630033649E+03  0.78740786855E+03  0.91242964636E+02 0.  0.
        -11    1    4    4    0    0  0.49695953864E+02  0.31986728750E+02  0.26893805598E+03  0.27535525526E+03  0.00000000000E+00 0.  1.
         11    1    4    4    0    0  0.18400042292E+03 -0.21609634114E+02  0.47736228051E+03  0.51205261329E+03  0.00000000000E+00 0. -1.
        -13    1    3    3    0    0 -0.79733168547E+02 -0.60794408153E+02  0.46470741412E+03  0.47540121893E+03  0.00000000000E+00 0. -1.
         13    1    3    3    0    0  0.11062733167E+02  0.19052575550E+02  0.92557332251E+02  0.95143283807E+02  0.00000000000E+00 0.  1.
         21    1    1    2  503  502  0.74562852187E+01 -0.42144662493E+02 -0.19880265517E+03  0.20335747950E+03  0.00000000000E+00 0. -1.
          1    1    1    2  501    0 -0.17248222662E+03  0.73509400461E+02  0.64452074483E+02  0.19826199929E+03  0.00000000000E+00 0. -1.
<scales pt_clust_5="13000.00000" pt_clust_6="13000.00000" pt_clust_7="13000.00000" pt_clust_8="13000.00000" pt_clust_9="42.79917" pt_clust_10="13000.00000"></scales>
<clustering>
<clus scale="   42.799">  2  9  1 -1</clus>
<clus scale="   91.243">  5  6 -1 -1</clus>
<clus scale="   92.299">  7  8 -1 -1</clus>
<clus scale="  123.135">  1  7  2 -1</clus>
<clus scale="  180.099">  5 10 -1 -1</clus>
<clus scale="   42.799">  2  5  1 -1</clus>
</clustering>
</event>
<event>
10    2  0.5692308E-006  0.2039168E+03  0.7546771E-02  0.1180837E+00
         21   -1    0    0  501  502  0.00000000000E+00  0.00000000000E+00  0.15393647141E+03  0.15393647141E+03  0.00000000000E+00 0.  1.
          2   -1    0    0  503    0 -0.00000000000E+00 -0.00000000000E+00 -0.17744133864E+03  0.17744133864E+03  0.00000000000E+00 0. -1.
         23    2    1    2    0    0  0.86065352205E+01  0.71246157990E+01  0.81898140474E+01  0.91492648830E+02  0.90437819174E+02 0.  0.
         23    2    1    2    0    0 -0.67950995266E+02  0.13645607966E+02 -0.91211736247E+02  0.14672964527E+03  0.91686790750E+02 0.  0.
        -11    1    3    3    0    0  0.44659533558E+02 -0.12281281009E+02  0.17483213073E+02  0.49507237251E+02  0.00000000000E+00 0.  1.
         11    1    3    3    0    0 -0.36052998338E+02  0.19405896808E+02 -0.92933990252E+01  0.41985411579E+02  0.00000000000E+00 0. -1.
        -11    1    4    4    0    0 -0.34230209366E+02  0.50137122681E+02 -0.29482736031E+02  0.67488295488E+02  0.00000000000E+00 0.  1.
         11    1    4    4    0    0 -0.33720785900E+02 -0.36491514716E+02 -0.61729000216E+02  0.79241349784E+02  0.00000000000E+00 0. -1.
         21    1    1    2  503  502  0.23690856790E+02 -0.17018314866E+02  0.77415442482E+01  0.30179649496E+02  0.00000000000E+00 0.  1.
          2    1    1    2  501    0  0.35653603255E+02 -0.37519088986E+01  0.51775510721E+02  0.62975866456E+02  0.00000000000E+00 0. -1.
<scales pt_clust_5="13000.00000" pt_clust_6="13000.00000" pt_clust_7="13000.00000" pt_clust_8="13000.00000" pt_clust_9="29.16984" pt_clust_10="13000.00000"></scales>
<clustering>
<clus scale="   29.170">  1  9  2 -1</clus>
<clus scale="   90.438">  5  6 -1 -1</clus>
<clus scale="   91.687">  7  8 -1 -1</clus>
<clus scale="   47.025">  7 10 -1 -1</clus>
<clus scale="   92.092">  2  5  1 -1</clus>
<clus scale="   29.170">  1  5  2 -1</clus>
</clustering>
</event>
<event>
10    2  0.5692308E-006  0.1711266E+03  0.7546771E-02  0.1194603E+00
          2   -1    0    0  503    0 -0.00000000000E+00  0.00000000000E+00  0.19647316923E+03  0.19647316923E+03  0.00000000000E+00 0. -1.
         21   -1    0    0  501  502  0.00000000000E+00 -0.00000000000E+00 -0.20471446968E+03  0.20471446968E+03  0.00000000000E+00 0.  1.
         23    2    1    2    0    0  0.55885319867E+02  0.22368828398E+01  0.35162706307E+02  0.11474967937E+03  0.93823772996E+02 0.  0.
         23    2    1    2    0    0 -0.15385630484E+02 -0.18364007526E+02  0.59892506621E+02  0.11181686360E+03  0.91334244607E+02 0.  0.
        -11    1    3    3    0    0  0.53942761475E+02 -0.39513570891E+02  0.15912153963E+02  0.68733837692E+02  0.00000000000E+00 0.  1.
         11    1    3    3    0    0  0.19425583925E+01  0.41750453731E+02  0.19250552343E+02  0.46015841678E+02  0.00000000000E+00 0. -1.
        -13    1    4    4    0    0  0.21013078451E+02  0.10971823663E+02  0.60590714890E+02  0.65062778233E+02  0.00000000000E+00 0. -1.
         13    1    4    4    0    0 -0.36398708935E+02 -0.29335831189E+02 -0.69820826852E+00  0.46754085367E+02  0.00000000000E+00 0.  1.
         21    1    1    2  503  502  0.27533589121E+02 -0.13020360295E+02 -0.95450780747E+02  0.10019221455E+03  0.00000000000E+00 0.  1.
          2    1    1    2  501    0 -0.68033278505E+02  0.29147484981E+02 -0.78457326353E+01  0.74428881393E+02  0.00000000000E+00 0. -1.
<scales pt_clust_5="13000.00000" pt_clust_6="13000.00000" pt_clust_7="13000.00000" pt_clust_8="13000.00000" pt_clust_9="30.45699" pt_clust_10="13000.00000"></scales>
<clustering>
<clus scale="   30.457">  2  9  1 -1</clus>
<clus scale="   91.334">  7  8 -1 -1</clus>
<clus scale="   62.303">  7 10 -1 -1</clus>
<clus scale="   93.824">  5  6 -1 -1</clus>
<clus scale="  114.820">  1  5  2 -1</clus>
<clus scale="   30.457">  2  5  1 -1</clus>
</clustering>
</event>
<event>
10    2  0.5692308E-006  0.2502414E+03  0.7546771E-02  0.1148362E+00
          1   -1    0    0  503    0 -0.00000000000E+00  0.00000000000E+00  0.55641158834E+03  0.55641158834E+03  0.00000000000E+00 0. -1.
         21   -1    0    0  501  502  0.00000000000E+00 -0.00000000000E+00 -0.27475518224E+03  0.27475518224E+03  0.00000000000E+00 0. -1.
         23    2    1    2    0    0  0.35898008676E+01 -0.54978238816E+02  0.26531020867E+03  0.28551518455E+03  0.89966217939E+02 0.  0.
         23    2    1    2    0    0 -0.62568439328E+02  0.36563108270E+02  0.67577182835E+02  0.13080944046E+03  0.85397679055E+02 0.  0.
        -11    1    3    3    0    0 -0.29726094841E+02 -0.63686722302E+02  0.19367654075E+03  0.20603456445E+03  0.00000000000E+00 0.  1.
         11    1    3    3    0    0  0.33315895708E+02  0.87084834855E+01  0.71633667928E+02  0.79480620105E+02  0.00000000000E+00 0. -1.
        -11    1    4    4    0    0 -0.74002838693E+02  0.41485922136E+01  0.60593284972E+02  0.95734931638E+02  0.00000000000E+00 0. -1.
         11    1    4    4    0    0  0.11434399365E+02  0.32414516056E+02  0.69838978629E+01  0.35074508825E+02  0.00000000000E+00 0.  1.
         21    1    1    2  503  502  0.15241757460E+02 -0.14708228173E+03 -0.15535859361E+03  0.21448030534E+03  0.00000000000E+00 0. -1.
          1    1    1    2  501    0  0.43736881000E+02  0.16549741228E+03  0.10412760820E+03  0.20036184023E+03  0.00000000000E+00 0. -1.
<scales pt_clust_5="13000.00000" pt_clust_6="13000.00000" pt_clust_7="13000.00000" pt_clust_8="13000.00000" pt_clust_9="153.66185" pt_clust_10="13000.00000"></scales>
<clustering>
<clus scale="   85.398">  7  8 -1 -1</clus>
<clus scale="   89.966">  5  6 -1 -1</clus>
<clus scale="  105.496">  1  5  2 -1</clus>
<clus scale="  143.193">  7 10 -1 -1</clus>
<clus scale="  153.662">  2  9  1 -1</clus>
<clus scale="  153.662">  2  5  1 -1</clus>
</clustering>
</event>
<event>
10    2  0.5692308E-006  0.1342227E+03  0.7546771E-02  0.1230452E+00
         21   -1    0    0  501  502  0.00000000000E+00  0.00000000000E+00  0.17497429235E+03  0.17497429235E+03  0.00000000000E+00 0.  1.
          2   -1    0    0  503    0 -0.00000000000E+00 -0.00000000000E+00 -0.61211278212E+03  0.61211278212E+03  0.00000000000E+00 0. -1.
         23    2    1    2    0    0  0.34496826464E+02 -0.31457038035E+02 -0.69658895883E+01  0.95477635077E+02  0.82993246135E+02 0.  0.
         23    2    1    2    0    0 -0.14847395154E+02  0.45215438219E+02 -0.44882762039E+03  0.46068105828E+03  0.92281762244E+02 0.  0.
        -13    1    3    3    0    0 -0.98144152841E+01 -0.34692137069E+02 -0.28638984208E+02  0.46044093413E+02  0.00000000000E+00 0. -1.
         13    1    3    3    0    0  0.44311241748E+02  0.32350990338E+01  0.21673094619E+02  0.49433541664E+02  0.00000000000E+00 0.  1.
        -13    1    4    4    0    0 -0.50222712466E+02  0.17736867565E+02 -0.31719074542E+03  0.32163160028E+03  0.00000000000E+00 0. -1.
         13    1    4    4    0    0  0.35375317312E+02  0.27478570654E+02 -0.13163687497E+03  0.13904945800E+03  0.00000000000E+00 0.  1.
         21    1    1    2  503  502 -0.11649207506E+02 -0.45333667928E+02  0.11769961791E+03  0.12666509203E+03  0.00000000000E+00 0.  1.
          2    1    1    2  501    0 -0.80002238037E+01  0.31575267743E+02 -0.99044597701E+02  0.10426328907E+03  0.00000000000E+00 0. -1.
<scales pt_clust_5="13000.00000" pt_clust_6="13000.00000" pt_clust_7="13000.00000" pt_clust_8="13000.00000" pt_clust_9="46.80647" pt_clust_10="13000.00000"></scales>
<clustering>
<clus scale="   46.806">  1  9  2 -1</clus>
<clus scale="   82.993">  5  6 -1 -1</clus>
<clus scale="   92.282">  7  8 -1 -1</clus>
<clus scale="   30.562">  7 10 -1 -1</clus>
<clus scale="  111.015">  2  5  1 -1</clus>
<clus scale="   46.806">  1  5  2 -1</clus>
</clustering>
</event>
<event>
10    2  0.5692308E-006  0.1810581E+03  0.7546771E-02  0.1191697E+00
         21   -1    0    0  503  502  0.00000000000E+00  0.00000000000E+00  0.39452695746E+03  0.39452695746E+03  0.00000000000E+00 0. -1.
         -1   -1    0    0    0  501 -0.00000000000E+00 -0.00000000000E+00 -0.10133881539E+03  0.10133881539E+03  0.00000000000E+00 0.  1.
         23    2    1    2    0    0 -0.22557063557E+02 -0.51444500344E+02  0.13701372170E+02  0.10760430556E+03  0.90750213469E+02 0.  0.
         23    2    1    2    0    0  0.52366700398E+02  0.68685046896E+02  0.49796592895E+02  0.13271013360E+03  0.87592076806E+02 0.  0.
        -13    1    3    3    0    0  0.26393004580E+02 -0.27950543627E+02  0.32300385097E+02  0.50210939617E+02  0.00000000000E+00 0. -1.
         13    1    3    3    0    0 -0.48950068138E+02 -0.23493956716E+02 -0.18599012928E+02  0.57393365947E+02  0.00000000000E+00 0.  1.
        -13    1    4    4    0    0  0.40528870347E+02  0.52803016358E+01  0.54403275528E+02  0.68045479682E+02  0.00000000000E+00 0. -1.
         13    1    4    4    0    0  0.11837830051E+02  0.63404745260E+02 -0.46066826329E+01  0.64664653921E+02  0.00000000000E+00 0.  1.
         21    1    1    2  503  501 -0.50063523428E+01  0.28434662378E+02  0.18429541641E+03  0.18654327674E+03  0.00000000000E+00 0. -1.
         -1    1    1    2    0  502 -0.24803284497E+02 -0.45675208931E+02  0.45394760604E+02  0.69008056943E+02  0.00000000000E+00 0.  1.
<scales pt_clust_5="13000.00000" pt_clust_6="13000.00000" pt_clust_7="13000.00000" pt_clust_8="13000.00000" pt_clust_9="28.87202" pt_clust_10="13000.00000"></scales>
<clustering>
<clus scale="   28.872">  1  9  2 -1</clus>
<clus scale="   87.592">  7  8 -1 -1</clus>
<clus scale="   46.056">  7 10 -1 -1</clus>
<clus scale="   90.750">  5  6 -1 -1</clus>
<clus scale="  103.334">  2  5  1 -1</clus>
<clus scale="   28.872">  1  5  2 -1</clus>
</clustering>
</event>
<event>
10    2  0.5692308E-006  0.1368087E+03  0.7546771E-02  0.1234268E+00
         21   -1    0    0  503  502  0.00000000000E+00  0.00000000000E+00  0.28508764362E+03  0.28508764362E+03  0.00000000000E+00 0.  1.
          2   -1    0    0  502    0 -0.00000000000E+00 -0.00000000000E+00 -0.18488472660E+03  0.18488472660E+03  0.00000000000E+00 0. -1.
         23    2    1    2    0    0 -0.33603088092E+02  0.70139752849E+01 -0.13636349974E+03  0.16801718225E+03  0.91958719508E+02 0.  0.
         23    2    1    2    0    0  0.21496204153E+02 -0.66204782686E+01  0.80745104860E+02  0.12322757549E+03  0.90329097623E+02 0.  0.
        -13    1    4    4    0    0  0.31981148229E+02  0.11085002371E+02  0.93212806352E+02  0.99168031077E+02  0.00000000000E+00 0.  1.
         13    1    4    4    0    0 -0.10484944076E+02 -0.17705480640E+02 -0.12467701492E+02  0.24059544415E+02  0.00000000000E+00 0. -1.
        -13    1    3    3    0    0 -0.68235241588E+01 -0.24079386816E+02 -0.12199920600E+03  0.12453988765E+03  0.00000000000E+00 0. -1.
         13    1    3    3    0    0 -0.26779563933E+02  0.31093362101E+02 -0.14364293731E+02  0.43477294599E+02  0.00000000000E+00 0.  1.
         21    1    1    2  503  501  0.39248737672E+02 -0.28297384121E+02  0.92703926318E+02  0.10457161810E+03  0.00000000000E+00 0.  1.
          2    1    1    2  501    0 -0.27141853734E+02  0.27903887105E+02  0.63117385583E+02  0.74155994380E+02  0.00000000000E+00 0. -1.
<scales pt_clust_5="13000.00000" pt_clust_6="13000.00000" pt_clust_7="13000.00000" pt_clust_8="13000.00000" pt_clust_9="48.38600" pt_clust_10="13000.00000"></scales>
<clustering>
<clus scale="   48.386">  1  9  2 -1</clus>
<clus scale="   90.329">  5  6 -1 -1</clus>
<clus scale="   21.608">  5 10 -1 -1</clus>
<clus scale="   91.959">  7  8 -1 -1</clus>
<clus scale="   96.923">  2  7  1 -1</clus>
<clus scale="   48.386">  1  5  2 -1</clus>
</clustering>
</event>
<event>
10    2  0.5692308E-006  0.3620343E+03  0.7546771E-02  0.1097657E+00
          2   -1    0    0  503    0 -0.00000000000E+00  0.00000000000E+00  0.15878260593E+04  0.15878260593E+04  0.00000000000E+00 0. -1.
         21   -1    0    0  501  502  0.00000000000E+00 -0.00000000000E+00 -0.12102155426E+03  0.12102155426E+03  0.00000000000E+00 0. -1.
         23    2    1    2    0    0 -0.73661717057E+02 -0.40282914615E+02  0.34297190136E+03  0.36437661361E+03  0.89954597737E+02 0.  0.
         23    2    1    2    0    0  0.15339646943E+03  0.16807379780E+03  0.94360270146E+03  0.97512819387E+03  0.93325548238E+02 0.  0.
        -11    1    4    4    0    0 -0.12673769629E+02  0.17641349600E+02  0.74218761958E+02  0.77332181392E+02  0.00000000000E+00 0.  1.
         11    1    4    4    0    0  0.16607023906E+03  0.15043244820E+03  0.86938393950E+03  0.89779601248E+03  0.00000000000E+00 0. -1.
        -11    1    3    3    0    0 -0.76861469433E+02 -0.60935858909E+02  0.31166132009E+03  0.32673175975E+03  0.00000000000E+00 0. -1.
         11    1    3    3    0    0  0.31997523762E+01  0.20652944294E+02  0.31310581272E+02  0.37644853869E+02  0.00000000000E+00 0.  1.
         21    1    1    2  503  502 -0.82896246820E+02 -0.21697840429E+03  0.11786746096E+03  0.26046910377E+03  0.00000000000E+00 0. -1.
          2    1    1    2  501    0  0.31614944458E+01  0.89187521112E+02  0.62362441232E+02  0.10887370227E+03  0.00000000000E+00 0. -1.
<scales pt_clust_5="13000.00000" pt_clust_6="13000.00000" pt_clust_7="13000.00000" pt_clust_8="13000.00000" pt_clust_9="242.21560" pt_clust_10="13000.00000"></scales>
<clustering>
<clus scale="   89.955">  7  8 -1 -1</clus>
<clus scale="   93.326">  5  6 -1 -1</clus>
<clus scale="   89.244">  5 10 -1 -1</clus>
<clus scale="  123.047">  1  7  2 -1</clus>
<clus scale="  242.216">  2  9  1 -1</clus>
<clus scale="  242.216">  2  5  1 -1</clus>
</clustering>
</event>
<event>
10    2  0.5692308E-006  0.1314314E+03  0.7546771E-02  0.1229216E+00
         21   -1    0    0  501  502  0.00000000000E+00  0.00000000000E+00  0.37638372126E+02  0.37638372126E+02  0.00000000000E+00 0. -1.
          4   -1    0    0  503    0 -0.00000000000E+00 -0.00000000000E+00 -0.63116784994E+03  0.63116784994E+03  0.00000000000E+00 0. -1.
         23    2    1    2    0    0 -0.66438231292E+02 -0.27981556248E+02 -0.36740401779E+03  0.38549069491E+03  0.91762505972E+02 0.  0.
         23    2    1    2    0    0  0.57340052806E+02  0.24231898981E+02 -0.17951844014E+03  0.20755623567E+03  0.83532353194E+02 0.  0.
        -13    1    4    4    0    0  0.32085800824E+02  0.22390990307E+02 -0.17793452740E+03  0.18218548544E+03  0.00000000000E+00 0.  1.
         13    1    4    4    0    0  0.25254251982E+02  0.18409086745E+01 -0.15839127408E+01  0.25370750235E+02  0.00000000000E+00 0. -1.
        -13    1    3    3    0    0  0.20611833870E+02  0.21593449497E+01 -0.11384577866E+03  0.11571677400E+03  0.00000000000E+00 0.  1.
         13    1    3    3    0    0 -0.87050065162E+02 -0.30140901197E+02 -0.25355823913E+03  0.26977392091E+03  0.00000000000E+00 0. -1.
         21    1    1    2  503  502 -0.22642392103E+02 -0.10331180114E+02 -0.17157281532E+02  0.30228852314E+02  0.00000000000E+00 0. -1.
          4    1    1    2  501    0  0.31740570589E+02  0.14080837380E+02 -0.29449738341E+02  0.45530439170E+02  0.00000000000E+00 0. -1.
<scales pt_clust_5="13000.00000" pt_clust_6="13000.00000" pt_clust_7="13000.00000" pt_clust_8="13000.00000" pt_clust_9="24.88797" pt_clust_10="13000.00000"></scales>
<clustering>
<clus scale="   24.888">  1  9  2 -1</clus>
<clus scale="   83.532">  5  6 -1 -1</clus>
<clus scale="   28.290">  5 10 -1 -1</clus>
<clus scale="   91.763">  7  8 -1 -1</clus>
<clus scale="  121.296">  2  7  1 -1</clus>
<clus scale="   24.888">  1  5  2 -1</clus>
</clustering>
</event>
<event>
10    2  0.5692308E-006  0.6226188E+03  0.7546771E-02  0.1046002E+00
         21   -1    0    0  503  502  0.00000000000E+00  0.00000000000E+00  0.13189293969E+03  0.13189293969E+03  0.00000000000E+00 0. -1.
          1   -1    0    0  502    0 -0.00000000000E+00 -0.00000000000E+00 -0.11136281811E+04  0.11136281811E+04  0.00000000000E+00 0. -1.
         23    2    1    2    0    0  0.33779203019E+02  0.45353975533E+01 -0.90681692273E+02  0.13552353005E+03  0.94772641072E+02 0.  0.
         23    2    1    2    0    0  0.13410220201E+03 -0.21626539819E+03 -0.74402875802E+03  0.79175382307E+03  0.92418615851E+02 0.  0.
        -11    1    3    3    0    0  0.45091182763E+02 -0.35903455874E+02 -0.42513256037E+02  0.71621573883E+02  0.00000000000E+00 0.  1.
         11    1    3    3    0    0 -0.11311979745E+02  0.40438853427E+02 -0.48168436236E+02  0.63901956165E+02  0.00000000000E+00 0. -1.
        -11    1    4    4    0    0  0.43396737591E+02 -0.13486657615E+02 -0.86443991313E+02  0.97661304523E+02  0.00000000000E+00 0.  1.
         11    1    4    4    0    0  0.90705464423E+02 -0.20277874058E+03 -0.65758476670E+03  0.69409251855E+03  0.00000000000E+00 0. -1.
         21    1    1    2  503  501 -0.20899203055E+02  0.13088503873E+01  0.26681474419E+01  0.21109447847E+02  0.00000000000E+00 0. -1.
          1    1    1    2  501    0 -0.14698220198E+03  0.21042115025E+03 -0.14969293861E+03  0.29713431986E+03  0.00000000000E+00 0. -1.
<scales pt_clust_5="13000.00000" pt_clust_6="13000.00000" pt_clust_7="13000.00000" pt_clust_8="13000.00000" pt_clust_9="20.94015" pt_clust_10="13000.00000"></scales>
<clustering>
<clus scale="   20.940">  1  9  2 -1</clus>
<clus scale="   92.419">  7  8 -1 -1</clus>
<clus scale="   94.773">  5  6 -1 -1</clus>
<clus scale="   99.485">  2  5  1 -1</clus>
<clus scale="  261.493">  7 10 -1 -1</clus>
<clus scale="   20.940">  1  5  2 -1</clus>
</clustering>
</event>
<event>
10    2  0.5692308E-006  0.2163591E+03  0.7546771E-02  0.1162809E+00
          1   -1    0    0  503    0 -0.00000000000E+00  0.00000000000E+00  0.13035684882E+03  0.13035684882E+03  0.00000000000E+00 0. -1.
         21   -1    0    0  501  502  0.00000000000E+00 -0.00000000000E+00 -0.27912387845E+03  0.27912387845E+03  0.00000000000E+00 0.  1.
         23    2    1    2    0    0 -0.69624658499E+02 -0.12838338191E+00 -0.46972375362E+02  0.13028913950E+03  0.99605453018E+02 0.  0.
         23    2    1    2    0    0 -0.26443043329E+02 -0.66117847365E+02 -0.34243336767E+02  0.12354988973E+03  0.94979812902E+02 0.  0.
        -13    1    4    4    0    0  0.34004585185E+02 -0.40957637519E+02 -0.15603008685E+02  0.55473360857E+02  0.00000000000E+00 0.  1.
         13    1    4    4    0    0 -0.60447628514E+02 -0.25160209846E+02 -0.18640328082E+02  0.68076528874E+02  0.00000000000E+00 0. -1.
        -13    1    3    3    0    0 -0.47278769716E+02 -0.48382303963E+02 -0.19318323138E+02  0.70351453514E+02  0.00000000000E+00 0.  1.
         13    1    3    3    0    0 -0.22345888782E+02  0.48253920581E+02 -0.27654052223E+02  0.59937685985E+02  0.00000000000E+00 0. -1.
         21    1    1    2  503  502  0.23966047104E+02  0.66990578022E+01 -0.56175106885E+02  0.61440145042E+02  0.00000000000E+00 0. -1.
          1    1    1    2  501    0  0.72101654724E+02  0.59547172945E+02 -0.11376210608E+02  0.94201552999E+02  0.00000000000E+00 0. -1.
<scales pt_clust_5="13000.00000" pt_clust_6="13000.00000" pt_clust_7="13000.00000" pt_clust_8="13000.00000" pt_clust_9="24.88471" pt_clust_10="13000.00000"></scales>
<clustering>
<clus scale="   24.885">  2  9  1 -1</clus>
<clus scale="   94.980">  5  6 -1 -1</clus>
<clus scale="   98.991">  5 10 -1 -1</clus>
<clus scale="   99.605">  7  8 -1 -1</clus>
<clus scale="  116.301">  1  7  2 -1</clus>
<clus scale="   24.885">  2  5  1 -1</clus>
</clustering>
</event>
<event>
10    2  0.5692308E-006  0.1030034E+04  0.7546771E-02  0.9728381E-01
          2   -1    0    0  503    0 -0.00000000000E+00  0.00000000000E+00  0.26437624071E+04  0.26437624071E+04  0.00000000000E+00 0. -1.
         21   -1    0    0  501  502  0.00000000000E+00 -0.00000000000E+00 -0.20095230670E+03  0.20095230670E+03  0.00000000000E+00 0. -1.
         23    2    1    2    0    0  0.23261389907E+02  0.18673610678E+03  0.78099307016E+03  0.80889747115E+03  0.94622816234E+02 0.  0.
         23    2    1    2    0    0  0.36483075747E+03 -0.15028383066E+03  0.24913433411E+03  0.47573984712E+03  0.92594677781E+02 0.  0.
        -11    1    4    4    0    0  0.13018263547E+03 -0.63395545407E+02  0.41599870840E+02  0.15065544467E+03  0.00000000000E+00 0.  1.
         11    1    4    4    0    0  0.23464812200E+03 -0.86888285257E+02  0.20753446327E+03  0.32508440245E+03  0.00000000000E+00 0. -1.
        -11    1    3    3    0    0  0.58177037872E+02  0.13969533794E+03  0.53180990815E+03  0.55292054907E+03  0.00000000000E+00 0. -1.
         11    1    3    3    0    0 -0.34915647965E+02  0.47040768840E+02  0.24918316202E+03  0.25597692208E+03  0.00000000000E+00 0.  1.
         21    1    1    2  503  502  0.43864694013E+02  0.76121815501E+01 -0.29859165780E+02  0.53606216710E+02  0.00000000000E+00 0. -1.
          2    1    1    2  501    0 -0.43195684139E+03 -0.44064457664E+02  0.14425418619E+04  0.15064711788E+04  0.00000000000E+00 0. -1.
<scales pt_clust_5="13000.00000" pt_clust_6="13000.00000" pt_clust_7="13000.00000" pt_clust_8="13000.00000" pt_clust_9="44.52030" pt_clust_10="13000.00000"></scales>
<clustering>
<clus scale="   44.520">  2  9  1 -1</clus>
<clus scale="   92.595">  5  6 -1 -1</clus>
<clus scale="   94.623">  7  8 -1 -1</clus>
<clus scale="  211.679">  1  7  2 -1</clus>
<clus scale="  414.966">  5 10 -1 -1</clus>
<clus scale="   44.520">  2  5  1 -1</clus>
</clustering>
</event>
<event>
10    2  0.5692308E-006  0.3270170E+03  0.7546771E-02  0.1122824E+00
         21   -1    0    0  501  502  0.00000000000E+00  0.00000000000E+00  0.41633379662E+03  0.41633379662E+03  0.00000000000E+00 0. -1.
          3   -1    0    0  503    0 -0.00000000000E+00 -0.00000000000E+00 -0.40999565403E+03  0.40999565403E+03  0.00000000000E+00 0. -1.
         23    2    1    2    0    0 -0.13130377818E+02 -0.86215591415E+01  0.64339088493E+02  0.10897954946E+03  0.86546437177E+02 0.  0.
         23    2    1    2    0    0  0.40369037652E+02  0.79360479962E+02 -0.28360033034E+03  0.31443112463E+03  0.10251848511E+03 0.  0.
        -11    1    4    4    0    0 -0.17517540488E+02  0.17960408255E+02 -0.82031954334E+01  0.26395698603E+02  0.00000000000E+00 0. -1.
         11    1    4    4    0    0  0.57886578139E+02  0.61400071707E+02 -0.27539713490E+03  0.28803542603E+03  0.00000000000E+00 0.  1.
        -13    1    3    3    0    0  0.80207498716E+01  0.35426507266E+02  0.14289831964E+02  0.39032923835E+02  0.00000000000E+00 0.  1.
         13    1    3    3    0    0 -0.21151127690E+02 -0.44048066407E+02  0.50049256530E+02  0.69946625622E+02  0.00000000000E+00 0. -1.
         21    1    1    2  503  502 -0.66315400046E+02 -0.17943483372E+03  0.21367939818E+03  0.28679866987E+03  0.00000000000E+00 0. -1.
          3    1    1    2  501    0  0.39076740212E+02  0.10869591290E+03  0.11919986255E+02  0.11612010669E+03  0.00000000000E+00 0. -1.
<scales pt_clust_5="13000.00000" pt_clust_6="13000.00000" pt_clust_7="13000.00000" pt_clust_8="13000.00000" pt_clust_9="192.49103" pt_clust_10="13000.00000"></scales>
<clustering>
<clus scale="   86.546">  7  8 -1 -1</clus>
<clus scale="   87.960">  2  7  1 -1</clus>
<clus scale="  102.518">  5  6 -1 -1</clus>
<clus scale="  113.826">  5 10 -1 -1</clus>
<clus scale="  192.491">  1  9  2 -1</clus>
<clus scale="  192.491">  1  5  2 -1</clus>
</clustering>
</event>
<event>
10    2  0.5692308E-006  0.2825820E+03  0.7546771E-02  0.1113859E+00
          1   -1    0    0  503    0 -0.00000000000E+00  0.00000000000E+00  0.62842969316E+03  0.62842969316E+03  0.00000000000E+00 0. -1.
         21   -1    0    0  501  502  0.00000000000E+00 -0.00000000000E+00 -0.21956920767E+03  0.21956920767E+03  0.00000000000E+00 0.  1.
         23    2    1    2    0    0 -0.13408919755E+03  0.53557079914E+02  0.21770815349E+03  0.27665007176E+03  0.91050252057E+02 0.  0.
         23    2    1    2    0    0 -0.14630472978E+02  0.99147560180E+02  0.25251115646E+03  0.28560926224E+03  0.88127618336E+02 0.  0.
        -11    1    4    4    0    0 -0.30900816189E+02  0.71059598715E+02  0.85151643870E+02  0.11513092315E+03  0.00000000000E+00 0.  1.
         11    1    4    4    0    0  0.16270343211E+02  0.28087961465E+02  0.16735951259E+03  0.17047833909E+03  0.00000000000E+00 0. -1.
        -13    1    3    3    0    0 -0.13748019246E+03  0.22439449453E+02  0.17404474210E+03  0.22292578241E+03  0.00000000000E+00 0.  1.
         13    1    3    3    0    0  0.33909949072E+01  0.31117630460E+02  0.43663411396E+02  0.53724289354E+02  0.00000000000E+00 0. -1.
         21    1    1    2  503  502  0.95469581440E+02 -0.19069289736E+03 -0.53442322129E+02  0.21985063993E+03  0.00000000000E+00 0.  1.
          1    1    1    2  501    0  0.53250089092E+02  0.37988257266E+02 -0.79165023380E+01  0.65888926897E+02  0.00000000000E+00 0. -1.
<scales pt_clust_5="13000.00000" pt_clust_6="13000.00000" pt_clust_7="13000.00000" pt_clust_8="13000.00000" pt_clust_9="190.85563" pt_clust_10="13000.00000"></scales>
<clustering>
<clus scale="   88.128">  5  6 -1 -1</clus>
<clus scale="   65.412">  5 10 -1 -1</clus>
<clus scale="   91.050">  7  8 -1 -1</clus>
<clus scale="  170.700">  1  7  2 -1</clus>
<clus scale="  190.856">  2  9  1 -1</clus>
<clus scale="  190.856">  2  5  1 -1</clus>
</clustering>
</event>
<event>
10    2  0.5692308E-006  0.2314101E+03  0.7546771E-02  0.1158579E+00
         21   -1    0    0  501  502  0.00000000000E+00  0.00000000000E+00  0.21308670212E+03  0.21308670212E+03  0.00000000000E+00 0. -1.
         -1   -1    0    0    0  501 -0.00000000000E+00 -0.00000000000E+00 -0.75735634813E+03  0.75735634813E+03  0.00000000000E+00 0.  1.
         23    2    1    2    0    0  0.23682580949E+02 -0.37100504454E+02 -0.27827439880E+03  0.29738118808E+03  0.95192530818E+02 0.  0.
         23    2    1    2    0    0  0.13384707499E+03  0.53579022097E+02 -0.34071684275E+03  0.37973860603E+03  0.85601932725E+02 0.  0.
        -13    1    3    3    0    0  0.57574422248E+02 -0.40153558624E+02 -0.17126350209E+03  0.18509000382E+03  0.00000000000E+00 0. -1.
         13    1    3    3    0    0 -0.33891841298E+02  0.30530541696E+01 -0.10701089672E+03  0.11229118426E+03  0.00000000000E+00 0.  1.
        -13    1    4    4    0    0  0.98406805753E+02  0.18129926161E+02 -0.13522448260E+03  0.16822084988E+03  0.00000000000E+00 0. -1.
         13    1    4    4    0    0  0.35440269234E+02  0.35449095937E+02 -0.20549236015E+03  0.21151775615E+03  0.00000000000E+00 0.  1.
         21    1    1    2  503  502 -0.14151034606E+03 -0.72870761912E+02  0.13538651431E+03  0.20896132236E+03  0.00000000000E+00 0. -1.
         -1    1    1    2    0  503 -0.16019309877E+02  0.56392244269E+02 -0.60664918769E+02  0.84361933785E+02  0.00000000000E+00 0.  1.
<scales pt_clust_5="13000.00000" pt_clust_6="13000.00000" pt_clust_7="13000.00000" pt_clust_8="13000.00000" pt_clust_9="158.88899" pt_clust_10="13000.00000"></scales>
<clustering>
<clus scale="   85.602">  7  8 -1 -1</clus>
<clus scale="   58.623">  7 10 -1 -1</clus>
<clus scale="   95.193">  5  6 -1 -1</clus>
<clus scale="  104.876">  2  5  1 -1</clus>
<clus scale="  158.889">  1  9  2 -1</clus>
<clus scale="  158.889">  1  5  2 -1</clus>
</clustering>
</event>
<event>
10    2  0.5692308E-006  0.3835166E+03  0.7546771E-02  0.1095956E+00
         21   -1    0    0  501  502  0.00000000000E+00  0.00000000000E+00  0.47239864564E+03  0.47239864564E+03  0.00000000000E+00 0. -1.
          2   -1    0    0  503    0 -0.00000000000E+00 -0.00000000000E+00 -0.45205851146E+03  0.45205851146E+03  0.00000000000E+00 0. -1.
         23    2    1    2    0    0  0.30478728637E+02  0.47485140466E+02 -0.28136366440E+03  0.30145312481E+03  0.92329211797E+02 0.  0.
         23    2    1    2    0    0  0.12303011175E+03 -0.57847469379E+02  0.31011393723E+02  0.16456027216E+03  0.87382140754E+02 0.  0.
        -11    1    4    4    0    0  0.85014514371E+02 -0.61035299294E+02 -0.13965755944E+02  0.10558322666E+03  0.00000000000E+00 0. -1.
         11    1    4    4    0    0  0.38015597379E+02  0.31878299151E+01  0.44977149666E+02  0.58977045499E+02  0.00000000000E+00 0.  1.
        -13    1    3    3    0    0 -0.24496592521E+02  0.41905664074E+02 -0.17480269500E+03  0.18141706068E+03  0.00000000000E+00 0. -1.
         13    1    3    3    0    0  0.54975321158E+02  0.55794763923E+01 -0.10656096940E+03  0.12003606413E+03  0.00000000000E+00 0.  1.
         21    1    1    2  503  502 -0.63643120523E+02 -0.16262758799E+03  0.11704702971E+03  0.21023364700E+03  0.00000000000E+00 0. -1.
          2    1    1    2  501    0 -0.89865719864E+02  0.17298991690E+03  0.15364537515E+03  0.24821011313E+03  0.00000000000E+00 0. -1.
<scales pt_clust_5="13000.00000" pt_clust_6="13000.00000" pt_clust_7="13000.00000" pt_clust_8="13000.00000" pt_clust_9="158.62335" pt_clust_10="13000.00000"></scales>
<clustering>
<clus scale="   87.382">  5  6 -1 -1</clus>
<clus scale="   92.329">  7  8 -1 -1</clus>
<clus scale="  108.206">  2  7  1 -1</clus>
<clus scale="  158.623">  1  9  2 -1</clus>
<clus scale="  146.462">  5 10 -1 -1</clus>
<clus scale="  158.623">  1  5  2 -1</clus>
</clustering>
</event>
<event>
10    2  0.5692308E-006  0.2178585E+03  0.7546771E-02  0.1169837E+00
          2   -1    0    0  503    0 -0.00000000000E+00  0.00000000000E+00  0.13221398880E+03  0.13221398880E+03  0.00000000000E+00 0. -1.
         21   -1    0    0  501  502  0.00000000000E+00 -0.00000000000E+00 -0.42315709212E+03  0.42315709212E+03  0.00000000000E+00 0. -1.
         23    2    1    2    0    0  0.10481663741E+02 -0.30615818466E+02  0.56152508793E+02  0.11327001023E+03  0.92896702627E+02 0.  0.
         23    2    1    2    0    0 -0.22153897933E+02  0.28801389284E+02 -0.25365674086E+03  0.27304724617E+03  0.94301332119E+02 0.  0.
        -11    1    3    3    0    0  0.87320097634E+01  0.24869149021E+02 -0.88365655960E+01  0.27799414726E+02  0.00000000000E+00 0.  1.
         11    1    3    3    0    0  0.17496539777E+01 -0.55484967487E+02  0.64989074389E+02  0.85470595506E+02  0.00000000000E+00 0. -1.
        -11    1    4    4    0    0 -0.10348010291E+02  0.57663205567E+02 -0.21773545063E+03  0.22547916324E+03  0.00000000000E+00 0. -1.
         11    1    4    4    0    0 -0.11805887642E+02 -0.28861816283E+02 -0.35921290230E+02  0.47568082933E+02  0.00000000000E+00 0.  1.
         21    1    1    2  503  502 -0.17923406203E+02  0.50277564149E+02 -0.98510989326E+02  0.11204238914E+03  0.00000000000E+00 0. -1.
          2    1    1    2  501    0  0.29595640395E+02 -0.48463134967E+02  0.50721180738E+01  0.57011435370E+02  0.00000000000E+00 0. -1.
<scales pt_clust_5="13000.00000" pt_clust_6="13000.00000" pt_clust_7="13000.00000" pt_clust_8="13000.00000" pt_clust_9="53.37679" pt_clust_10="13000.00000"></scales>
<clustering>
<clus scale="   53.377">  2  9  1 -1</clus>
<clus scale="   92.897">  5  6 -1 -1</clus>
<clus scale="   94.301">  7  8 -1 -1</clus>
<clus scale="   52.524">  7 10 -1 -1</clus>
<clus scale="   96.900">  1  5  2 -1</clus>
<clus scale="   53.377">  2  5  1 -1</clus>
</clustering>
</event>
<event>
10    2  0.5692308E-006  0.4609522E+03  0.7546771E-02  0.1036721E+00
         21   -1    0    0  501  502  0.00000000000E+00  0.00000000000E+00  0.19513427976E+04  0.19513427976E+04  0.00000000000E+00 0. -1.
          1   -1    0    0  503    0 -0.00000000000E+00 -0.00000000000E+00 -0.24792147979E+03  0.24792147979E+03  0.00000000000E+00 0. -1.
         23    2    1    2    0    0 -0.16263820461E+03  0.26830367900E+03  0.20362234366E+02  0.32826362526E+03  0.94362796266E+02 0.  0.
         23    2    1    2    0    0  0.58797999006E+02 -0.19003615821E+03  0.24318210370E+03  0.32882646906E+03  0.97048261638E+02 0.  0.
        -11    1    4    4    0    0  0.10214216352E+02 -0.15159112790E+03  0.13072531434E+03  0.20043280191E+03  0.00000000000E+00 0.  1.
         11    1    4    4    0    0  0.48583782654E+02 -0.38445030306E+02  0.11245678936E+03  0.12839366715E+03  0.00000000000E+00 0. -1.
        -11    1    3    3    0    0 -0.11427410562E+03  0.18142152635E+03  0.57713991834E+02  0.22204334327E+03  0.00000000000E+00 0. -1.
         11    1    3    3    0    0 -0.48364098989E+02  0.86882152651E+02 -0.37351757468E+02  0.10622028199E+03  0.00000000000E+00 0.  1.
         21    1    1    2  503  502  0.28544622169E+03  0.92627224627E+02  0.70783755649E+03  0.76882595859E+03  0.00000000000E+00 0. -1.
          1    1    1    2  501    0 -0.18160601609E+03 -0.17089474542E+03  0.73203942323E+03  0.77334822445E+03  0.00000000000E+00 0. -1.
<scales pt_clust_5="13000.00000" pt_clust_6="13000.00000" pt_clust_7="13000.00000" pt_clust_8="13000.00000" pt_clust_9="300.09890" pt_clust_10="13000.00000"></scales>
<clustering>
<clus scale="   94.363">  7  8 -1 -1</clus>
<clus scale="   97.048">  5  6 -1 -1</clus>
<clus scale="  249.371">  5 10 -1 -1</clus>
<clus scale="  300.099">  1  9  2 -1</clus>
<clus scale="  320.940">  2  7  1 -1</clus>
<clus scale="  300.099">  1  5  2 -1</clus>
</clustering>
</event>
<event>
10    2  0.5692308E-006  0.1727607E+03  0.7546771E-02  0.1192668E+00
          1   -1    0    0  502    0 -0.00000000000E+00  0.00000000000E+00  0.18693882630E+03  0.18693882630E+03  0.00000000000E+00 0. -1.
         21   -1    0    0  503  502  0.00000000000E+00 -0.00000000000E+00 -0.17322046224E+03  0.17322046224E+03  0.00000000000E+00 0.  1.
         23    2    1    2    0    0 -0.60551647974E+02  0.20652342465E+02  0.76391502276E+01  0.10836363204E+03  0.87128059832E+02 0.  0.
         23    2    1    2    0    0  0.11413024419E+03  0.35908253346E+01  0.58680658776E+02  0.15776370293E+03  0.91691654924E+02 0.  0.
        -13    1    4    4    0    0  0.96435073585E+02 -0.11699515517E+02  0.80209495471E+02  0.12597684408E+03  0.00000000000E+00 0. -1.
         13    1    4    4    0    0  0.17695170600E+02  0.15290340851E+02 -0.21528836696E+02  0.31786858847E+02  0.00000000000E+00 0.  1.
        -13    1    3    3    0    0 -0.66770787062E+02 -0.15084095660E+02 -0.78883006341E+01  0.68906409235E+02  0.00000000000E+00 0. -1.
         13    1    3    3    0    0  0.62191390880E+01  0.35736438125E+02  0.15527450862E+02  0.39457222800E+02  0.00000000000E+00 0.  1.
         21    1    1    2  503  501 -0.31978327324E+02  0.35439295310E+00 -0.52290899416E+02  0.61295001220E+02  0.00000000000E+00 0. -1.
          1    1    1    2  501    0 -0.21600268888E+02 -0.24597560753E+02 -0.31054552812E+00  0.32736952356E+02  0.00000000000E+00 0. -1.
<scales pt_clust_5="13000.00000" pt_clust_6="13000.00000" pt_clust_7="13000.00000" pt_clust_8="13000.00000" pt_clust_9="31.98029" pt_clust_10="13000.00000"></scales>
<clustering>
<clus scale="   31.980">  2  9  1 -1</clus>
<clus scale="   87.128">  7  8 -1 -1</clus>
<clus scale="   91.692">  5  6 -1 -1</clus>
<clus scale="   35.858">  5 10 -1 -1</clus>
<clus scale="  116.435">  1  7  2 -1</clus>
<clus scale="   31.980">  2  5  1 -1</clus>
</clustering>
</event>
<event>
10    2  0.5692308E-006  0.2508895E+03  0.7546771E-02  0.1122828E+00
         -1   -1    0    0    0  501 -0.00000000000E+00  0.00000000000E+00  0.23863242963E+03  0.23863242963E+03  0.00000000000E+00 0.  1.
         21   -1    0    0  503  502  0.00000000000E+00 -0.00000000000E+00 -0.28249954590E+03  0.28249954590E+03  0.00000000000E+00 0.  1.
         23    2    1    2    0    0 -0.15730741992E+03 -0.48331085279E+02  0.48787585792E+02  0.19483953765E+03  0.92199233940E+02 0.  0.
         23    2    1    2    0    0  0.16825865335E+03  0.83773119709E+02 -0.91866950292E+01  0.21496865602E+03  0.10391447297E+03 0.  0.
        -11    1    3    3    0    0 -0.12564064087E+03  0.35150421314E+01  0.18794834264E+02  0.12708726118E+03  0.00000000000E+00 0.  1.
         11    1    3    3    0    0 -0.31666779049E+02 -0.51846127411E+02  0.29992751528E+02  0.67752276471E+02  0.00000000000E+00 0. -1.
        -13    1    4    4    0    0  0.10751151699E+03 -0.18758431087E+01 -0.20128228623E+02  0.10939556965E+03  0.00000000000E+00 0. -1.
         13    1    4    4    0    0  0.60747136363E+02  0.85648962818E+02  0.10941533594E+02  0.10557308637E+03  0.00000000000E+00 0.  1.
         21    1    1    2  503  501 -0.23313950417E+02  0.39264054392E+01 -0.58493136978E+02  0.63090443153E+02  0.00000000000E+00 0.  1.
         -1    1    1    2    0  502  0.12362716982E+02 -0.39368439869E+02 -0.24974870056E+02  0.48233338711E+02  0.00000000000E+00 0.  1.
<scales pt_clust_5="13000.00000" pt_clust_6="13000.00000" pt_clust_7="13000.00000" pt_clust_8="13000.00000" pt_clust_9="23.64227" pt_clust_10="13000.00000"></scales>
<clustering>
<clus scale="   23.642">  2  9  1 -1</clus>
<clus scale="   92.199">  5  6 -1 -1</clus>
<clus scale="  103.914">  7  8 -1 -1</clus>
<clus scale="   39.645">  7 10 -1 -1</clus>
<clus scale="  194.766">  1  5  2 -1</clus>
<clus scale="   23.642">  2  5  1 -1</clus>
</clustering>
</event>
<event>
10    2  0.5692308E-006  0.3644514E+03  0.7546771E-02  0.1057750E+00
          1   -1    0    0  502    0 -0.00000000000E+00  0.00000000000E+00  0.22105908257E+04  0.22105908257E+04  0.00000000000E+00 0. -1.
         21   -1    0    0  503  502  0.00000000000E+00 -0.00000000000E+00 -0.15888721983E+03  0.15888721983E+03  0.00000000000E+00 0.  1.
         23    2    1    2    0    0  0.43884369919E+02  0.34063908029E+03  0.10010943012E+04  0.10622377696E+04  0.90545339286E+02 0.  0.
         23    2    1    2    0    0 -0.72937911404E+01 -0.20078341986E+02  0.27082250583E+03  0.28498441525E+03  0.86110092729E+02 0.  0.
        -11    1    3    3    0    0  0.40542571800E+02  0.20443334355E+03  0.47356084411E+03  0.51739401345E+03  0.00000000000E+00 0.  1.
         11    1    3    3    0    0  0.33417981194E+01  0.13620573674E+03  0.52753345705E+03  0.54484375617E+03  0.00000000000E+00 0. -1.
        -11    1    4    4    0    0  0.13675264504E+02  0.30656733688E+02  0.11341099865E+03  0.11827469211E+03  0.00000000000E+00 0.  1.
         11    1    4    4    0    0 -0.20969055645E+02 -0.50735075675E+02  0.15741150718E+03  0.16670972314E+03  0.00000000000E+00 0. -1.
         21    1    1    2  503  501  0.45242091398E+02 -0.42586882923E+03  0.29645417989E+03  0.52086100576E+03  0.00000000000E+00 0.  1.
          1    1    1    2  501    0 -0.81832670177E+02  0.10530809093E+03  0.48333261900E+03  0.50139485489E+03  0.00000000000E+00 0. -1.
<scales pt_clust_5="13000.00000" pt_clust_6="13000.00000" pt_clust_7="13000.00000" pt_clust_8="13000.00000" pt_clust_9="313.67189" pt_clust_10="13000.00000"></scales>
<clustering>
<clus scale="   86.110">  7  8 -1 -1</clus>
<clus scale="   90.545">  5  6 -1 -1</clus>
<clus scale="  133.366">  7 10 -1 -1</clus>
<clus scale="  355.189">  1  5  2 -1</clus>
<clus scale="  313.672">  2  9  1 -1</clus>
<clus scale="  313.672">  2  5  1 -1</clus>
</clustering>
</event>
<event>
10    2  0.5692308E-006  0.5188048E+03  0.7546771E-02  0.1059333E+00
          1   -1    0    0  503    0 -0.00000000000E+00  0.00000000000E+00  0.17570201112E+03  0.17570201112E+03  0.00000000000E+00 0. -1.
         21   -1    0    0  501  502  0.00000000000E+00 -0.00000000000E+00 -0.64234046348E+03  0.64234046348E+03  0.00000000000E+00 0.  1.
         23    2    1    2    0    0  0.73113670347E+02  0.14751508744E+02 -0.26433016830E+02  0.12066008364E+03  0.91087516181E+02 0.  0.
         23    2    1    2    0    0  0.87906826318E+02 -0.19794696505E+03 -0.29266378052E+03  0.37530258034E+03  0.91045742903E+02 0.  0.
        -11    1    4    4    0    0  0.85209681394E+02 -0.10537546461E+03 -0.12815053614E+03  0.18651337287E+03  0.00000000000E+00 0. -1.
         11    1    4    4    0    0  0.26971449239E+01 -0.92571500433E+02 -0.16451324438E+03  0.18878920747E+03  0.00000000000E+00 0.  1.
        -13    1    3    3    0    0 -0.16378368848E+02  0.22476260974E+02 -0.83054095721E+01  0.29024353596E+02  0.00000000000E+00 0.  1.
         13    1    3    3    0    0  0.89492039195E+02 -0.77247522294E+01 -0.18127607258E+02  0.91635730047E+02  0.00000000000E+00 0. -1.
         21    1    1    2  503  502  0.44141324976E+01 -0.20092289665E+02 -0.26053512083E+02  0.33195935919E+02  0.00000000000E+00 0. -1.
          1    1    1    2  501    0 -0.16543462916E+03  0.20328774597E+03 -0.12148814293E+03  0.28888387470E+03  0.00000000000E+00 0. -1.
<scales pt_clust_5="13000.00000" pt_clust_6="13000.00000" pt_clust_7="13000.00000" pt_clust_8="13000.00000" pt_clust_9="20.57145" pt_clust_10="13000.00000"></scales>
<clustering>
<clus scale="   20.571">  2  9  1 -1</clus>
<clus scale="   91.046">  5  6 -1 -1</clus>
<clus scale="   91.088">  7  8 -1 -1</clus>
<clus scale="  117.782">  1  7  2 -1</clus>
<clus scale="  235.691">  5 10 -1 -1</clus>
<clus scale="   20.571">  2  5  1 -1</clus>
</clustering>
</event>
<event>
10    2  0.5692308E-006  0.1452433E+03  0.7546771E-02  0.1225240E+00
         -1   -1    0    0    0  501 -0.00000000000E+00  0.00000000000E+00  0.41605839117E+03  0.41605839117E+03  0.00000000000E+00 0.  1.
         21   -1    0    0  503  502  0.00000000000E+00 -0.00000000000E+00 -0.77891167896E+02  0.77891167896E+02  0.00000000000E+00 0. -1.
         23    2    1    2    0    0  0.97519961912E-01  0.38394710248E+01  0.73007100350E+02  0.11702941913E+03  0.91384337780E+02 0.  0.
         23    2    1    2    0    0 -0.18023595883E+02  0.25037328080E+02  0.14303931893E+03  0.17224024024E+03  0.90855576560E+02 0.  0.
        -13    1    4    4    0    0  0.13514220646E+02 -0.16621233626E+02  0.16268477641E+01  0.21483626336E+02  0.00000000000E+00 0. -1.
         13    1    4    4    0    0 -0.31537816529E+02  0.41658561705E+02  0.14141247116E+03  0.15075661390E+03  0.00000000000E+00 0.  1.
        -13    1    3    3    0    0  0.43454121632E+02  0.14401793227E+02  0.28068978256E+02  0.53698602172E+02  0.00000000000E+00 0.  1.
         13    1    3    3    0    0 -0.43356601670E+02 -0.10562322203E+02  0.44938122094E+02  0.63330816953E+02  0.00000000000E+00 0. -1.
         21    1    1    2  503  501 -0.27673399306E+02 -0.72511976786E+02  0.13103978044E+02  0.78711613165E+02  0.00000000000E+00 0. -1.
         -1    1    1    2    0  502  0.45599475227E+02  0.43635177681E+02  0.10901682596E+03  0.12596828654E+03  0.00000000000E+00 0.  1.
<scales pt_clust_5="13000.00000" pt_clust_6="13000.00000" pt_clust_7="13000.00000" pt_clust_8="13000.00000" pt_clust_9="77.61317" pt_clust_10="13000.00000"></scales>
<clustering>
<clus scale="   77.613">  2  9  1 -1</clus>
<clus scale="   90.856">  5  6 -1 -1</clus>
<clus scale="   50.321">  5 10 -1 -1</clus>
<clus scale="   91.384">  7  8 -1 -1</clus>
<clus scale="   97.607">  1  7  2 -1</clus>
<clus scale="   77.613">  2  5  1 -1</clus>
</clustering>
</event>
<event>
10    2  0.5692308E-006  0.1285023E+03  0.7546771E-02  0.1246375E+00
         21   -1    0    0  501  502  0.00000000000E+00  0.00000000000E+00  0.31573286329E+03  0.31573286329E+03  0.00000000000E+00 0.  1.
          1   -1    0    0  503    0 -0.00000000000E+00 -0.00000000000E+00 -0.11832944938E+03  0.11832944938E+03  0.00000000000E+00 0. -1.
         23    2    1    2    0    0 -0.18623506957E+01 -0.41108101885E+01 -0.26127876327E+02  0.94917195624E+02  0.91138581255E+02 0.  0.
         23    2    1    2    0    0  0.23531977114E+01  0.10529786524E+01 -0.12920588581E+02  0.88566673239E+02  0.87581206293E+02 0.  0.
        -13    1    4    4    0    0 -0.18709886213E+02 -0.18206666690E+02 -0.40949939737E+02  0.48563773727E+02  0.00000000000E+00 0. -1.
         13    1    4    4    0    0  0.21063083925E+02  0.19259645343E+02  0.28029351156E+02  0.40002899512E+02  0.00000000000E+00 0.  1.
        -13    1    3    3    0    0 -0.14564463780E+02 -0.45381878435E+02 -0.92304463571E+01  0.48547292771E+02  0.00000000000E+00 0.  1.
         13    1    3    3    0    0  0.12702113085E+02  0.41271068246E+02 -0.16897429970E+02  0.46369902853E+02  0.00000000000E+00 0. -1.
         21    1    1    2  503  502  0.29629310756E+02  0.46037078031E+01  0.20432393942E+03  0.20651237833E+03  0.00000000000E+00 0.  1.
          1    1    1    2  501    0 -0.30120157772E+02 -0.15458762670E+01  0.32127939392E+02  0.44066065484E+02  0.00000000000E+00 0. -1.
<scales pt_clust_5="13000.00000" pt_clust_6="13000.00000" pt_clust_7="13000.00000" pt_clust_8="13000.00000" pt_clust_9="29.98483" pt_clust_10="13000.00000"></scales>
<clustering>
<clus scale="   29.985">  1  9  2 -1</clus>
<clus scale="   87.581">  5  6 -1 -1</clus>
<clus scale="   19.888">  5 10 -1 -1</clus>
<clus scale="   91.139">  7  8 -1 -1</clus>
<clus scale="   91.476">  2  7  1 -1</clus>
<clus scale="   29.985">  1  5  2 -1</clus>
</clustering>
</event>
<event>
10    2  0.5692308E-006  0.3144772E+03  0.7546771E-02  0.1123333E+00
         21   -1    0    0  503  502  0.00000000000E+00  0.00000000000E+00  0.70254345569E+02  0.70254345569E+02  0.00000000000E+00 0. -1.
          1   -1    0    0  502    0 -0.00000000000E+00 -0.00000000000E+00 -0.83143917646E+03  0.83143917646E+03  0.00000000000E+00 0. -1.
         23    2    1    2    0    0  0.26816246033E+02  0.30365566761E+02 -0.32328962817E+03  0.33823311635E+03  0.90798009986E+02 0.  0.
         23    2    1    2    0    0 -0.83705257486E+02 -0.85081233286E+02 -0.36636887653E+03  0.39599574076E+03  0.91329549559E+02 0.  0.
        -13    1    3    3    0    0 -0.14487469544E+01  0.56865885530E+02 -0.14450072874E+03  0.15529419954E+03  0.00000000000E+00 0.  1.
         13    1    3    3    0    0  0.28264992988E+02 -0.26500318770E+02 -0.17878889944E+03  0.18293891681E+03  0.00000000000E+00 0. -1.
        -13    1    4    4    0    0 -0.52096822054E+02 -0.10160105583E+03 -0.29156745692E+03  0.31312686781E+03  0.00000000000E+00 0. -1.
         13    1    4    4    0    0 -0.31608435432E+02  0.16519822545E+02 -0.74801419618E+02  0.82868872951E+02  0.00000000000E+00 0.  1.
         21    1    1    2  503  501 -0.20030737571E+02 -0.30520352278E+02 -0.19919714424E+02  0.41587466544E+02  0.00000000000E+00 0.  1.
          1    1    1    2  501    0  0.76919749024E+02  0.85236018803E+02 -0.51606611758E+02  0.12587719837E+03  0.00000000000E+00 0. -1.
<scales pt_clust_5="13000.00000" pt_clust_6="13000.00000" pt_clust_7="13000.00000" pt_clust_8="13000.00000" pt_clust_9="36.50647" pt_clust_10="13000.00000"></scales>
<clustering>
<clus scale="   36.506">  1  9  2 -1</clus>
<clus scale="   90.798">  5  6 -1 -1</clus>
<clus scale="   91.330">  7  8 -1 -1</clus>
<clus scale="   92.331">  7 10 -1 -1</clus>
<clus scale="   97.665">  2  5  1 -1</clus>
<clus scale="   36.506">  1  5  2 -1</clus>
</clustering>
</event>
<event>
10    2  0.5692308E-006  0.1946053E+03  0.7546771E-02  0.1159979E+00
         21   -1    0    0  501  502  0.00000000000E+00  0.00000000000E+00  0.19042297916E+03  0.19042297916E+03  0.00000000000E+00 0. -1.
         -3   -1    0    0    0  501 -0.00000000000E+00 -0.00000000000E+00 -0.29160104959E+03  0.29160104959E+03  0.00000000000E+00 0.  1.
         23    2    1    2    0    0 -0.77003495615E+02 -0.12476797861E+03  0.87747695417E+02  0.19232065978E+03  0.88266592225E+02 0.  0.
         23    2    1    2    0    0  0.52494030601E+02  0.63800471148E+02 -0.11770984754E+03  0.17107893524E+03  0.92662130924E+02 0.  0.
        -13    1    4    4    0    0 -0.68492451873E+01  0.19861862760E+02 -0.89664542838E+02  0.92093083314E+02  0.00000000000E+00 0.  1.
         13    1    4    4    0    0  0.59343275788E+02  0.43938608388E+02 -0.28045304697E+02  0.78985851923E+02  0.00000000000E+00 0. -1.
        -13    1    3    3    0    0 -0.87396232179E+02 -0.70208584918E+02  0.39840065531E+02  0.11897301214E+03  0.00000000000E+00 0. -1.
         13    1    3    3    0    0  0.10392736563E+02 -0.54559393694E+02  0.47907629886E+02  0.73347647644E+02  0.00000000000E+00 0.  1.
         21    1    1    2  503  502  0.18726825472E+02 -0.93939314083E+01 -0.43732601588E+01  0.21402461167E+02  0.00000000000E+00 0.  1.
         -3    1    1    2    0  503  0.57826395419E+01  0.70361438872E+02 -0.66842658151E+02  0.97221972563E+02  0.00000000000E+00 0.  1.
<scales pt_clust_5="13000.00000" pt_clust_6="13000.00000" pt_clust_7="13000.00000" pt_clust_8="13000.00000" pt_clust_9="20.95089" pt_clust_10="13000.00000"></scales>
<clustering>
<clus scale="   20.951">  1  9  2 -1</clus>
<clus scale="   88.267">  7  8 -1 -1</clus>
<clus scale="   92.662">  5  6 -1 -1</clus>
<clus scale="   69.964">  5 10 -1 -1</clus>
<clus scale="  170.681">  2  7  1 -1</clus>
<clus scale="   20.951">  1  5  2 -1</clus>
</clustering>
</event>
<event>
10    2  0.5692308E-006  0.1864905E+03  0.7546771E-02  0.1175789E+00
          1   -1    0    0  502    0 -0.00000000000E+00  0.00000000000E+00  0.62551010833E+02  0.62551010833E+02  0.00000000000E+00 0. -1.
         21   -1    0    0  503  502  0.00000000000E+00 -0.00000000000E+00 -0.51165998381E+03  0.51165998381E+03  0.00000000000E+00 0. -1.
         23    2    1    2    0    0 -0.72844095332E+02 -0.78379895532E+02 -0.16271318459E+03  0.21582206837E+03  0.93026418337E+02 0.  0.
         23    2    1    2    0    0 -0.62483703630E+01  0.12724805181E+02 -0.65461132474E+02  0.11212055432E+03  0.89916049938E+02 0.  0.
        -11    1    4    4    0    0 -0.23239389076E+02  0.29886751114E+02  0.44841952896E+01  0.38123419366E+02  0.00000000000E+00 0.  1.
         11    1    4    4    0    0  0.16991018713E+02 -0.17161945932E+02 -0.69945327764E+02  0.73997134952E+02  0.00000000000E+00 0. -1.
        -13    1    3    3    0    0 -0.72469280726E+02 -0.36792076690E+02 -0.49380609120E+02  0.95099411739E+02  0.00000000000E+00 0.  1.
         13    1    3    3    0    0 -0.37481460641E+00 -0.41587818843E+02 -0.11333257547E+03  0.12072265663E+03  0.00000000000E+00 0. -1.
         21    1    1    2  503  501  0.16656674547E+02  0.13030309162E+02 -0.85899244753E+02  0.88464196221E+02  0.00000000000E+00 0.  1.
          1    1    1    2  501    0  0.62435791148E+02  0.52624781189E+02 -0.13503541116E+03  0.15780417573E+03  0.00000000000E+00 0. -1.
<scales pt_clust_5="13000.00000" pt_clust_6="13000.00000" pt_clust_7="13000.00000" pt_clust_8="13000.00000" pt_clust_9="21.14790" pt_clust_10="13000.00000"></scales>
<clustering>
<clus scale="   21.148">  2  9  1 -1</clus>
<clus scale="   89.916">  5  6 -1 -1</clus>
<clus scale="   88.946">  5 10 -1 -1</clus>
<clus scale="   93.026">  7  8 -1 -1</clus>
<clus scale="  134.906">  1  7  2 -1</clus>
<clus scale="   21.148">  2  5  1 -1</clus>
</clustering>
</event>
<event>
10    2  0.5692308E-006  0.1447797E+03  0.7546771E-02  0.1226485E+00
         21   -1    0    0  503  502  0.00000000000E+00  0.00000000000E+00  0.47952542558E+02  0.47952542558E+02  0.00000000000E+00 0.  1.
         -1   -1    0    0    0  501 -0.00000000000E+00 -0.00000000000E+00 -0.69961751161E+03  0.69961751161E+03  0.00000000000E+00 0.  1.
         23    2    1    2    0    0 -0.23957802549E+02  0.15271923236E+02 -0.23277835211E+03  0.25191616595E+03  0.92026004549E+02 0.  0.
         23    2    1    2    0    0  0.47505791418E+02  0.53184018010E+02 -0.32397006015E+03  0.34373106016E+03  0.90050551656E+02 0.  0.
        -11    1    3    3    0    0 -0.57934449465E+02  0.11983468980E+02 -0.17588330073E+03  0.18556653642E+03  0.00000000000E+00 0.  1.
         11    1    3    3    0    0  0.33976646916E+02  0.32884542555E+01 -0.56895051381E+02  0.66349629529E+02  0.00000000000E+00 0. -1.
        -13    1    4    4    0    0 -0.24711100876E+02  0.17455288958E+02 -0.52905018347E+02  0.60944783086E+02  0.00000000000E+00 0.  1.
         13    1    4    4    0    0  0.72216892294E+02  0.35728729052E+02 -0.27106504181E+03  0.28278627708E+03  0.00000000000E+00 0. -1.
         21    1    1    2  503  501 -0.77857520334E+01 -0.39861530012E+02  0.10180002003E+02  0.41871135051E+02  0.00000000000E+00 0.  1.
         -1    1    1    2    0  502 -0.15762236836E+02 -0.28594411234E+02 -0.10509655878E+03  0.11005169300E+03  0.00000000000E+00 0.  1.
<scales pt_clust_5="13000.00000" pt_clust_6="13000.00000" pt_clust_7="13000.00000" pt_clust_8="13000.00000" pt_clust_9="40.61477" pt_clust_10="13000.00000"></scales>
<clustering>
<clus scale="   40.615">  1  9  2 -1</clus>
<clus scale="   90.051">  7  8 -1 -1</clus>
<clus scale="   37.047">  7 10 -1 -1</clus>
<clus scale="   92.026">  5  6 -1 -1</clus>
<clus scale="   96.029">  2  5  1 -1</clus>
<clus scale="   40.615">  1  5  2 -1</clus>
</clustering>
</event>
<event>
10    2  0.5692308E-006  0.1515328E+03  0.7546771E-02  0.1221845E+00
         21   -1    0    0  501  502  0.00000000000E+00  0.00000000000E+00  0.10917317177E+03  0.10917317177E+03  0.00000000000E+00 0.  1.
          2   -1    0    0  503    0 -0.00000000000E+00 -0.00000000000E+00 -0.32565198131E+03  0.32565198131E+03  0.00000000000E+00 0. -1.
         23    2    1    2    0    0 -0.10238681717E+02  0.24940690147E+02  0.48437577075E+01  0.95432255350E+02  0.91416545243E+02 0.  0.
         23    2    1    2    0    0  0.12842134932E+02 -0.89105158617E+01 -0.10856211358E+03  0.14858342512E+03  0.10023464468E+03 0.  0.
        -11    1    4    4    0    0 -0.33375765998E+02  0.23835129051E+02 -0.26351980493E+02  0.48749174442E+02  0.00000000000E+00 0. -1.
         11    1    4    4    0    0  0.46217900931E+02 -0.32745644913E+02 -0.82210133087E+02  0.99834250683E+02  0.00000000000E+00 0.  1.
        -13    1    3    3    0    0 -0.43635040348E+02 -0.28658721299E+01 -0.16847696854E+02  0.46862296770E+02  0.00000000000E+00 0.  1.
         13    1    3    3    0    0  0.33396358632E+02  0.27806562277E+02  0.21691454562E+02  0.48569958580E+02  0.00000000000E+00 0. -1.
         21    1    1    2  503  502  0.18266955329E+02 -0.18054781252E+02  0.33970988406E+02  0.42587378838E+02  0.00000000000E+00 0.  1.
          2    1    1    2  501    0 -0.20870408544E+02  0.20246069666E+01 -0.14673144207E+03  0.14822209376E+03  0.00000000000E+00 0. -1.
<scales pt_clust_5="13000.00000" pt_clust_6="13000.00000" pt_clust_7="13000.00000" pt_clust_8="13000.00000" pt_clust_9="25.68378" pt_clust_10="13000.00000"></scales>
<clustering>
<clus scale="   25.684">  1  9  2 -1</clus>
<clus scale="   91.417">  7  8 -1 -1</clus>
<clus scale="   92.262">  2  7  1 -1</clus>
<clus scale="  100.235">  5  6 -1 -1</clus>
<clus scale="   20.940">  5 10 -1 -1</clus>
<clus scale="   25.684">  1  5  2 -1</clus>
</clustering>
</event>
<event>
10    2  0.5692308E-006  0.2639197E+03  0.7546771E-02  0.1129937E+00
         21   -1    0    0  503  502  0.00000000000E+00  0.00000000000E+00  0.90081601377E+02  0.90081601377E+02  0.00000000000E+00 0.  1.
          1   -1    0    0  502    0 -0.00000000000E+00 -0.00000000000E+00 -0.75452351249E+03  0.75452351249E+03  0.00000000000E+00 0. -1.
         23    2    1    2    0    0 -0.70450975155E+02  0.68493924546E+02 -0.25361563143E+03  0.28693057941E+03  0.91397545346E+02 0.  0.
         23    2    1    2    0    0 -0.52951261699E+02 -0.78806937414E+02 -0.27072614290E+03  0.30091263943E+03  0.90782171241E+02 0.  0.
        -13    1    4    4    0    0 -0.28788426416E+02 -0.94994796853E+02 -0.17892075615E+03  0.20461041495E+03  0.00000000000E+00 0.  1.
         13    1    4    4    0    0 -0.24162835283E+02  0.16187859439E+02 -0.91805386757E+02  0.96302224480E+02  0.00000000000E+00 0. -1.
        -13    1    3    3    0    0 -0.44958934805E+02  0.76877891698E+02 -0.24166808500E+03  0.25755577912E+03  0.00000000000E+00 0. -1.
         13    1    3    3    0    0 -0.25492040350E+02 -0.83839671519E+01 -0.11947546430E+02  0.29374800290E+02  0.00000000000E+00 0.  1.
         21    1    1    2  503  501 -0.10408196486E+02  0.28423801033E+02  0.27938577436E+02  0.41192318803E+02  0.00000000000E+00 0.  1.
          1    1    1    2  501    0  0.13381043334E+03 -0.18110788165E+02 -0.16803871421E+03  0.21556957622E+03  0.00000000000E+00 0. -1.
<scales pt_clust_5="13000.00000" pt_clust_6="13000.00000" pt_clust_7="13000.00000" pt_clust_8="13000.00000" pt_clust_9="30.26951" pt_clust_10="13000.00000"></scales>
<clustering>
<clus scale="   30.270">  1  9  2 -1</clus>
<clus scale="   90.782">  5  6 -1 -1</clus>
<clus scale="   91.398">  7  8 -1 -1</clus>
<clus scale="  129.491">  5 10 -1 -1</clus>
<clus scale="  140.353">  2  7  1 -1</clus>
<clus scale="   30.270">  1  5  2 -1</clus>
</clustering>
</event>
<event>
10    2  0.5692308E-006  0.1964571E+03  0.7546771E-02  0.1176398E+00
         -1   -1    0    0    0  501 -0.00000000000E+00  0.00000000000E+00  0.29699374222E+03  0.29699374222E+03  0.00000000000E+00 0.  1.
         21   -1    0    0  503  502  0.00000000000E+00 -0.00000000000E+00 -0.29864692828E+03  0.29864692828E+03  0.00000000000E+00 0. -1.
         23    2    1    2    0    0 -0.12406078105E+03 -0.80891949234E+02 -0.14175569807E+03  0.22399216206E+03  0.90239824256E+02 0.  0.
         23    2    1    2    0    0  0.26727527836E+02 -0.23860126869E+02  0.14675890658E+03  0.17582253432E+03  0.89953991101E+02 0.  0.
        -11    1    3    3    0    0 -0.21726236671E+02 -0.54844106898E+02 -0.18797473996E+02  0.61913249390E+02  0.00000000000E+00 0.  1.
         11    1    3    3    0    0 -0.10233454438E+03 -0.26047842336E+02 -0.12295822408E+03  0.16207891267E+03  0.00000000000E+00 0. -1.
        -13    1    4    4    0    0 -0.30047330141E+02 -0.26389458499E+02  0.59751778767E+02  0.71899378539E+02  0.00000000000E+00 0. -1.
         13    1    4    4    0    0  0.56774857977E+02  0.25293316299E+01  0.87007127809E+02  0.10392315578E+03  0.00000000000E+00 0.  1.
         21    1    1    2  503  501  0.10699453082E+03  0.27842806173E+02 -0.30571491622E+02  0.11470687678E+03  0.00000000000E+00 0.  1.
         -1    1    1    2    0  502 -0.96612776045E+01  0.76909269930E+02  0.23915097055E+02  0.81119097340E+02  0.00000000000E+00 0.  1.
<scales pt_clust_5="13000.00000" pt_clust_6="13000.00000" pt_clust_7="13000.00000" pt_clust_8="13000.00000" pt_clust_9="110.55791" pt_clust_10="13000.00000"></scales>
<clustering>
<clus scale="   89.954">  7  8 -1 -1</clus>
<clus scale="   77.514">  7 10 -1 -1</clus>
<clus scale="   90.240">  5  6 -1 -1</clus>
<clus scale="  110.558">  2  9  1 -1</clus>
<clus scale="  113.819">  1  5  2 -1</clus>
<clus scale="  110.558">  2  5  1 -1</clus>
</clustering>
</event>
<event>
10    2  0.5692308E-006  0.5115982E+03  0.7546771E-02  0.1028534E+00
         21   -1    0    0  503  502  0.00000000000E+00  0.00000000000E+00  0.28382830502E+03  0.28382830502E+03  0.00000000000E+00 0. -1.
          1   -1    0    0  502    0 -0.00000000000E+00 -0.00000000000E+00 -0.80950716904E+03  0.80950716904E+03  0.00000000000E+00 0. -1.
         23    2    1    2    0    0  0.25159649000E+03 -0.11689229368E+03 -0.38773602942E+03  0.48555400360E+03  0.91972059900E+02 0.  0.
         23    2    1    2    0    0  0.78742102857E+02 -0.37450903053E+02 -0.17086405644E+02  0.12649420905E+03  0.90033053722E+02 0.  0.
        -11    1    4    4    0    0  0.32817405596E+01 -0.45805084921E+02  0.78372676963E+01  0.46586461453E+02  0.00000000000E+00 0.  1.
         11    1    4    4    0    0  0.75460362297E+02  0.83541818679E+01 -0.24923673341E+02  0.79907747594E+02  0.00000000000E+00 0. -1.
        -13    1    3    3    0    0  0.10632833664E+03 -0.61695559575E+02 -0.99731436393E+02  0.15829850489E+03  0.00000000000E+00 0.  1.
         13    1    3    3    0    0  0.14526815336E+03 -0.55196734107E+02 -0.28800459302E+03  0.32725549872E+03  0.00000000000E+00 0. -1.
         21    1    1    2  503  501  0.25820859139E+02 -0.25447677826E+02  0.37392933288E+02  0.52081978969E+02  0.00000000000E+00 0.  1.
          1    1    1    2  501    0 -0.35615945200E+03  0.17979087456E+03 -0.15824936225E+03  0.42920528244E+03  0.00000000000E+00 0. -1.
<scales pt_clust_5="13000.00000" pt_clust_6="13000.00000" pt_clust_7="13000.00000" pt_clust_8="13000.00000" pt_clust_9="36.25329" pt_clust_10="13000.00000"></scales>
<clustering>
<clus scale="   36.253">  1  9  2 -1</clus>
<clus scale="   90.033">  5  6 -1 -1</clus>
<clus scale="   91.972">  7  8 -1 -1</clus>
<clus scale="  298.920">  2  7  1 -1</clus>
<clus scale="  162.111">  5 10 -1 -1</clus>
<clus scale="   36.253">  1  5  2 -1</clus>
</clustering>
</event>
<event>
10    2  0.5692308E-006  0.4277787E+03  0.7546771E-02  0.1049777E+00
         21   -1    0    0  501  502  0.00000000000E+00  0.00000000000E+00  0.24436593265E+03  0.24436593265E+03  0.00000000000E+00 0. -1.
          2   -1    0    0  503    0 -0.00000000000E+00 -0.00000000000E+00 -0.73803422045E+03  0.73803422045E+03  0.00000000000E+00 0. -1.
         23    2    1    2    0    0  0.23050344212E+03 -0.11376326289E+03 -0.38158276981E+03  0.46941085490E+03  0.93097925152E+02 0.  0.
         23    2    1    2    0    0  0.37049459869E+02  0.75754820592E+02 -0.11522304782E+03  0.17109041492E+03  0.94255631185E+02 0.  0.
        -11    1    4    4    0    0  0.57065081187E+02  0.42215496811E+02 -0.29462206061E+02  0.76854363883E+02  0.00000000000E+00 0. -1.
         11    1    4    4    0    0 -0.20015621318E+02  0.33539323781E+02 -0.85760841758E+02  0.94236051039E+02  0.00000000000E+00 0.  1.
        -11    1    3    3    0    0  0.16142415835E+03 -0.38424046463E+02 -0.18993936457E+03  0.25221246690E+03  0.00000000000E+00 0.  1.
         11    1    3    3    0    0  0.69079283772E+02 -0.75339216426E+02 -0.19164340524E+03  0.21719838800E+03  0.00000000000E+00 0. -1.
         21    1    1    2  503  502  0.17911786059E+02  0.16444744912E+02  0.46385620063E+02  0.52372583130E+02  0.00000000000E+00 0. -1.
          2    1    1    2  501    0 -0.28546468805E+03  0.21563697384E+02 -0.43248090237E+02  0.28952630015E+03  0.00000000000E+00 0. -1.
<scales pt_clust_5="13000.00000" pt_clust_6="13000.00000" pt_clust_7="13000.00000" pt_clust_8="13000.00000" pt_clust_9="24.31587" pt_clust_10="13000.00000"></scales>
<clustering>
<clus scale="   24.316">  1  9  2 -1</clus>
<clus scale="   93.098">  7  8 -1 -1</clus>
<clus scale="   94.256">  5  6 -1 -1</clus>
<clus scale="  275.297">  2  7  1 -1</clus>
<clus scale="  156.385">  5 10 -1 -1</clus>
<clus scale="   24.316">  1  5  2 -1</clus>
</clustering>
</event>
<event>
10    2  0.5692308E-006  0.3732413E+03  0.7546771E-02  0.1065701E+00
          2   -1    0    0  502    0 -0.00000000000E+00  0.00000000000E+00  0.13919963224E+04  0.13919963224E+04  0.00000000000E+00 0. -1.
         21   -1    0    0  503  502  0.00000000000E+00 -0.00000000000E+00 -0.12637533813E+03  0.12637533813E+03  0.00000000000E+00 0. -1.
         23    2    1    2    0    0  0.24448590383E+03  0.24299179695E+02  0.61949336034E+03  0.67271499949E+03  0.91704087870E+02 0.  0.
         23    2    1    2    0    0 -0.10872468347E+03  0.94657008316E+02  0.32041654158E+03  0.36324166231E+03  0.92177758147E+02 0.  0.
        -11    1    3    3    0    0  0.12940080973E+03  0.35392274763E+02  0.22834740762E+03  0.26483904779E+03  0.00000000000E+00 0.  1.
         11    1    3    3    0    0  0.11508509410E+03 -0.11093095068E+02  0.39114595273E+03  0.40787595170E+03  0.00000000000E+00 0. -1.
        -11    1    4    4    0    0 -0.34154534392E+02  0.73709463061E+02  0.95594561660E+02  0.12545093616E+03  0.00000000000E+00 0.  1.
         11    1    4    4    0    0 -0.74570149082E+02  0.20947545255E+02  0.22482197992E+03  0.23779072615E+03  0.00000000000E+00 0. -1.
         21    1    1    2  503  501  0.39861588137E+01  0.32946785638E+02 -0.46307782342E+02  0.56971842619E+02  0.00000000000E+00 0. -1.
          2    1    1    2  501    0 -0.13974737917E+03 -0.15190297365E+03  0.37201886466E+03  0.42544315607E+03  0.00000000000E+00 0. -1.
<scales pt_clust_5="13000.00000" pt_clust_6="13000.00000" pt_clust_7="13000.00000" pt_clust_8="13000.00000" pt_clust_9="33.18705" pt_clust_10="13000.00000"></scales>
<clustering>
<clus scale="   33.187">  2  9  1 -1</clus>
<clus scale="   91.704">  5  6 -1 -1</clus>
<clus scale="   92.178">  7  8 -1 -1</clus>
<clus scale="  196.898">  7 10 -1 -1</clus>
<clus scale="  264.910">  1  5  2 -1</clus>
<clus scale="   33.187">  2  5  1 -1</clus>
</clustering>
</event>
<event>
10    2  0.5692308E-006  0.1538726E+03  0.7546771E-02  0.1219441E+00
          1   -1    0    0  503    0 -0.00000000000E+00  0.00000000000E+00  0.15716777570E+03  0.15716777570E+03  0.00000000000E+00 0. -1.
         21   -1    0    0  501  502  0.00000000000E+00 -0.00000000000E+00 -0.29097534430E+03  0.29097534430E+03  0.00000000000E+00 0.  1.
         23    2    1    2    0    0 -0.99156944072E+01  0.10293783077E+02  0.59486595334E+02  0.11012889374E+03  0.91572022181E+02 0.  0.
         23    2    1    2    0    0 -0.28020587970E+02  0.17835558023E+02 -0.29031222033E+02  0.10108460225E+03  0.90950670579E+02 0.  0.
        -11    1    3    3    0    0 -0.22554548251E+02  0.44127622979E+02  0.12950955852E+02  0.51221889989E+02  0.00000000000E+00 0. -1.
         11    1    3    3    0    0  0.12638853844E+02 -0.33833839902E+02  0.46535639481E+02  0.58907003751E+02  0.00000000000E+00 0.  1.
        -13    1    4    4    0    0 -0.47924717845E+02 -0.10589931604E+02 -0.41435799788E+02  0.64232785523E+02  0.00000000000E+00 0.  1.
         13    1    4    4    0    0  0.19904129875E+02  0.28425489627E+02  0.12404577756E+02  0.36851816725E+02  0.00000000000E+00 0. -1.
         21    1    1    2  503  502 -0.19126419221E+02 -0.38250960927E+02 -0.17310143767E+03  0.17830609538E+03  0.00000000000E+00 0.  1.
          1    1    1    2  501    0  0.57062701598E+02  0.10121619827E+02  0.88384957702E+01  0.58623528631E+02  0.00000000000E+00 0. -1.
<scales pt_clust_5="13000.00000" pt_clust_6="13000.00000" pt_clust_7="13000.00000" pt_clust_8="13000.00000" pt_clust_9="42.76629" pt_clust_10="13000.00000"></scales>
<clustering>
<clus scale="   42.766">  2  9  1 -1</clus>
<clus scale="   90.951">  7  8 -1 -1</clus>
<clus scale="   52.965">  7 10 -1 -1</clus>
<clus scale="   91.572">  5  6 -1 -1</clus>
<clus scale="   92.673">  1  5  2 -1</clus>
<clus scale="   42.766">  2  5  1 -1</clus>
</clustering>
</event>
<event>
10    2  0.5692308E-006  0.4418738E+03  0.7546771E-02  0.1081796E+00
         21   -1    0    0  503  502  0.00000000000E+00  0.00000000000E+00  0.44579109882E+03  0.44579109882E+03  0.00000000000E+00 0. -1.
          1   -1    0    0  502    0 -0.00000000000E+00 -0.00000000000E+00 -0.28882733930E+03  0.28882733930E+03  0.00000000000E+00 0. -1.
         23    2    1    2    0    0  0.22498046685E+02 -0.37328101719E+02 -0.10681543587E+03  0.14947850020E+03  0.95051225139E+02 0.  0.
         23    2    1    2    0    0  0.18016046375E+03 -0.11150108875E+03  0.29736181142E+02  0.23267780388E+03  0.91457282171E+02 0.  0.
        -11    1    3    3    0    0  0.45378126293E+02 -0.51780806955E+02 -0.10027519307E+03  0.12163692145E+03  0.00000000000E+00 0. -1.
         11    1    3    3    0    0 -0.22880079608E+02  0.14452705236E+02 -0.65402427967E+01  0.27841578751E+02  0.00000000000E+00 0.  1.
        -13    1    4    4    0    0  0.20356873869E+02  0.10782171718E+02  0.21149691844E+02  0.31272464018E+02  0.00000000000E+00 0.  1.
         13    1    4    4    0    0  0.15980358988E+03 -0.12228326047E+03  0.85864892980E+01  0.20140533987E+03  0.00000000000E+00 0. -1.
         21    1    1    2  503  501 -0.32754486573E+02  0.56441692705E+02  0.90689032176E+02  0.11172744346E+03  0.00000000000E+00 0.  1.
          1    1    1    2  501    0 -0.16990402386E+03  0.92387497761E+02  0.14335398207E+03  0.24073469056E+03  0.00000000000E+00 0. -1.
<scales pt_clust_5="13000.00000" pt_clust_6="13000.00000" pt_clust_7="13000.00000" pt_clust_8="13000.00000" pt_clust_9="65.25734" pt_clust_10="13000.00000"></scales>
<clustering>
<clus scale="   65.257">  1  9  2 -1</clus>
<clus scale="   91.457">  7  8 -1 -1</clus>
<clus scale="   95.051">  5  6 -1 -1</clus>
<clus scale="  102.949">  2  5  1 -1</clus>
<clus scale="  209.535">  7 10 -1 -1</clus>
<clus scale="   65.257">  1  5  2 -1</clus>
</clustering>
</event>
<event>
10    2  0.5692308E-006  0.1692514E+03  0.7546771E-02  0.1182431E+00
         21   -1    0    0  501  502  0.00000000000E+00  0.00000000000E+00  0.40776684388E+03  0.40776684388E+03  0.00000000000E+00 0.  1.
         -4   -1    0    0    0  501 -0.00000000000E+00 -0.00000000000E+00 -0.24874442103E+03  0.24874442103E+03  0.00000000000E+00 0.  1.
         23    2    1    2    0    0  0.79027502637E+02  0.47271781167E+02  0.25148238270E+00  0.12974553522E+03  0.91399525150E+02 0.  0.
         23    2    1    2    0    0 -0.45275484669E+02 -0.33628962311E+02 -0.74013343855E+02  0.11925551672E+03  0.74586369951E+02 0.  0.
        -11    1    3    3    0    0 -0.66341032055E+01  0.37948668039E+02 -0.16595386476E+02  0.41946627797E+02  0.00000000000E+00 0. -1.
         11    1    3    3    0    0  0.85661605842E+02  0.93231131282E+01  0.16846868858E+02  0.87798907420E+02  0.00000000000E+00 0.  1.
        -13    1    4    4    0    0 -0.37883987845E+02  0.14153145183E+02 -0.15402345420E+02  0.43275169533E+02  0.00000000000E+00 0.  1.
         13    1    4    4    0    0 -0.73914968235E+01 -0.47782107494E+02 -0.58610998435E+02  0.75980347192E+02  0.00000000000E+00 0. -1.
         21    1    1    2  503  502  0.41516376643E+02  0.44662363457E+02  0.29006023761E+03  0.29640053590E+03  0.00000000000E+00 0.  1.
         -4    1    1    2    0  503 -0.75268394611E+02 -0.58305182313E+02 -0.57275953290E+02  0.11110967706E+03  0.00000000000E+00 0.  1.
<scales pt_clust_5="13000.00000" pt_clust_6="13000.00000" pt_clust_7="13000.00000" pt_clust_8="13000.00000" pt_clust_9="60.97816" pt_clust_10="13000.00000"></scales>
<clustering>
<clus scale="   60.978">  1  9  2 -1</clus>
<clus scale="   74.586">  7  8 -1 -1</clus>
<clus scale="   81.102">  7 10 -1 -1</clus>
<clus scale="   91.400">  5  6 -1 -1</clus>
<clus scale="  155.407">  2  5  1 -1</clus>
<clus scale="   60.978">  1  5  2 -1</clus>
</clustering>
</event>
<event>
10    2  0.5692308E-006  0.1767792E+03  0.7546771E-02  0.1199629E+00
         21   -1    0    0  503  502  0.00000000000E+00  0.00000000000E+00  0.20706557738E+03  0.20706557738E+03  0.00000000000E+00 0. -1.
          1   -1    0    0  502    0 -0.00000000000E+00 -0.00000000000E+00 -0.35993637362E+03  0.35993637362E+03  0.00000000000E+00 0. -1.
         23    2    1    2    0    0 -0.21961088527E+02 -0.76070398013E+01 -0.19245403935E+03  0.21425191943E+03  0.91242376422E+02 0.  0.
         23    2    1    2    0    0  0.44062881654E+02 -0.51408913425E+02 -0.37616699464E+02  0.11848711085E+03  0.89664739109E+02 0.  0.
        -11    1    4    4    0    0 -0.14527993316E+02 -0.49743105964E+02 -0.68006435399E+01  0.52265552071E+02  0.00000000000E+00 0.  1.
         11    1    4    4    0    0  0.58590874970E+02 -0.16658074613E+01 -0.30816055924E+02  0.66221558778E+02  0.00000000000E+00 0. -1.
        -13    1    3    3    0    0  0.34622485268E+02 -0.98124156365E+01 -0.94324327435E+02  0.10095582565E+03  0.00000000000E+00 0. -1.
         13    1    3    3    0    0 -0.56583573795E+02  0.22053758352E+01 -0.98129711911E+02  0.11329609378E+03  0.00000000000E+00 0.  1.
         21    1    1    2  503  501  0.15331113345E+02  0.19775958912E+02  0.14516918529E+03  0.14730995874E+03  0.00000000000E+00 0. -1.
          1    1    1    2  501    0 -0.37432906472E+02  0.39239994315E+02 -0.67969242716E+02  0.86952961975E+02  0.00000000000E+00 0. -1.
<scales pt_clust_5="13000.00000" pt_clust_6="13000.00000" pt_clust_7="13000.00000" pt_clust_8="13000.00000" pt_clust_9="25.02262" pt_clust_10="13000.00000"></scales>
<clustering>
<clus scale="   25.023">  1  9  2 -1</clus>
<clus scale="   89.665">  5  6 -1 -1</clus>
<clus scale="   54.948">  5 10 -1 -1</clus>
<clus scale="   91.242">  7  8 -1 -1</clus>
<clus scale="   93.332">  2  7  1 -1</clus>
<clus scale="   25.023">  1  5  2 -1</clus>
</clustering>
</event>
<event>
10    2  0.5692308E-006  0.1613320E+03  0.7546771E-02  0.1206585E+00
         21   -1    0    0  501  502  0.00000000000E+00  0.00000000000E+00  0.15841123856E+03  0.15841123856E+03  0.00000000000E+00 0.  1.
          2   -1    0    0  503    0 -0.00000000000E+00 -0.00000000000E+00 -0.25276437073E+03  0.25276437073E+03  0.00000000000E+00 0. -1.
         23    2    1    2    0    0 -0.56013198840E+02  0.28845966166E+02 -0.15759698206E+03  0.19177704143E+03  0.89286374422E+02 0.  0.
         23    2    1    2    0    0  0.39210803641E+02 -0.57345009634E+02  0.13411487000E+01  0.11203675378E+03  0.87889124843E+02 0.  0.
        -11    1    4    4    0    0  0.31283808800E+02  0.16620146773E+02  0.10835106142E+02  0.37044641946E+02  0.00000000000E+00 0.  1.
         11    1    4    4    0    0  0.79269948408E+01 -0.73965156407E+02 -0.94939574420E+01  0.74992111835E+02  0.00000000000E+00 0. -1.
        -13    1    3    3    0    0 -0.10912467082E+02  0.24299105675E+02 -0.14101689264E+03  0.14351060060E+03  0.00000000000E+00 0. -1.
         13    1    3    3    0    0 -0.45100731758E+02  0.45468604913E+01 -0.16580089418E+02  0.48266440832E+02  0.00000000000E+00 0.  1.
         21    1    1    2  503  502  0.43923771772E+02 -0.12821478917E+01  0.47183600894E+02  0.64476614545E+02  0.00000000000E+00 0.  1.
          2    1    1    2  501    0 -0.27121376573E+02  0.29781191360E+02  0.14719100284E+02  0.42885199535E+02  0.00000000000E+00 0. -1.
<scales pt_clust_5="13000.00000" pt_clust_6="13000.00000" pt_clust_7="13000.00000" pt_clust_8="13000.00000" pt_clust_9="43.94248" pt_clust_10="13000.00000"></scales>
<clustering>
<clus scale="   43.942">  1  9  2 -1</clus>
<clus scale="   87.889">  5  6 -1 -1</clus>
<clus scale="   32.929">  5 10 -1 -1</clus>
<clus scale="   89.286">  7  8 -1 -1</clus>
<clus scale="  105.656">  2  7  1 -1</clus>
<clus scale="   43.942">  1  5  2 -1</clus>
</clustering>
</event>
<event>
10    2  0.5692308E-006  0.1916548E+03  0.7546771E-02  0.1169181E+00
         21   -1    0    0  501  502  0.00000000000E+00  0.00000000000E+00  0.10250148489E+03  0.10250148489E+03  0.00000000000E+00 0.  1.
          2   -1    0    0  503    0 -0.00000000000E+00 -0.00000000000E+00 -0.78716193882E+03  0.78716193882E+03  0.00000000000E+00 0. -1.
         23    2    1    2    0    0 -0.86316870809E+02 -0.63010035370E+02 -0.44317235229E+03  0.46391423253E+03  0.85987293053E+02 0.  0.
         23    2    1    2    0    0  0.80794793301E+02  0.44075194591E+02 -0.11419705471E+03  0.17316005316E+03  0.92048983169E+02 0.  0.
        -11    1    3    3    0    0 -0.59693038435E+02  0.43736137081E+01 -0.14100870598E+03  0.15318564716E+03  0.00000000000E+00 0.  1.
         11    1    3    3    0    0 -0.26623832373E+02 -0.67383649078E+02 -0.30216364631E+03  0.31072858537E+03  0.00000000000E+00 0. -1.
        -13    1    4    4    0    0  0.95070555532E+01  0.53808514713E+02 -0.29739678030E+02  0.62210841581E+02  0.00000000000E+00 0.  1.
         13    1    4    4    0    0  0.71287737748E+02 -0.97333201218E+01 -0.84457376684E+02  0.11094921158E+03  0.00000000000E+00 0. -1.
         21    1    1    2  503  502 -0.26018853192E+02 -0.31737579092E+02  0.50484680465E+02  0.65061183587E+02  0.00000000000E+00 0.  1.
          2    1    1    2  501    0  0.31540930700E+02  0.50672419871E+02 -0.17777572739E+03  0.18752795443E+03  0.00000000000E+00 0. -1.
<scales pt_clust_5="13000.00000" pt_clust_6="13000.00000" pt_clust_7="13000.00000" pt_clust_8="13000.00000" pt_clust_9="41.03967" pt_clust_10="13000.00000"></scales>
<clustering>
<clus scale="   41.040">  1  9  2 -1</clus>
<clus scale="   85.987">  5  6 -1 -1</clus>
<clus scale="   92.049">  7  8 -1 -1</clus>
<clus scale="   55.254">  7 10 -1 -1</clus>
<clus scale="  144.479">  2  5  1 -1</clus>
<clus scale="   41.040">  1  5  2 -1</clus>
</clustering>
</event>
<event>
10    2  0.5692308E-006  0.2575774E+03  0.7546771E-02  0.1126219E+00
         -1   -1    0    0    0  501 -0.00000000000E+00  0.00000000000E+00  0.66033176292E+03  0.66033176292E+03  0.00000000000E+00 0.  1.
         21   -1    0    0  503  502  0.00000000000E+00 -0.00000000000E+00 -0.10884079084E+03  0.10884079084E+03  0.00000000000E+00 0.  1.
         23    2    1    2    0    0 -0.86014411731E+01 -0.13526402957E+03  0.39856310879E+03  0.43026261202E+03  0.88898937704E+02 0.  0.
         23    2    1    2    0    0 -0.42627250276E+02  0.16517098575E+03  0.74142184122E+02  0.20693800882E+03  0.90706885240E+02 0.  0.
        -11    1    4    4    0    0 -0.58843763639E+02  0.93220766635E+02  0.12747495868E+02  0.11097386405E+03  0.00000000000E+00 0.  1.
         11    1    4    4    0    0  0.16216513364E+02  0.71950219111E+02  0.61394688255E+02  0.95964144771E+02  0.00000000000E+00 0. -1.
        -13    1    3    3    0    0 -0.30744310557E+02 -0.19673960736E+02  0.16173966836E+03  0.16580710987E+03  0.00000000000E+00 0. -1.
         13    1    3    3    0    0  0.22142869384E+02 -0.11559006883E+03  0.23682344043E+03  0.26445550215E+03  0.00000000000E+00 0.  1.
         21    1    1    2  503  501 -0.21743647199E+02 -0.23648033063E+02  0.18211906591E+02  0.36928162734E+02  0.00000000000E+00 0.  1.
         -1    1    1    2    0  502  0.72972338648E+02 -0.62589231120E+01  0.60573772581E+02  0.95043770185E+02  0.00000000000E+00 0.  1.
<scales pt_clust_5="13000.00000" pt_clust_6="13000.00000" pt_clust_7="13000.00000" pt_clust_8="13000.00000" pt_clust_9="32.12500" pt_clust_10="13000.00000"></scales>
<clustering>
<clus scale="   32.125">  2  9  1 -1</clus>
<clus scale="   88.899">  7  8 -1 -1</clus>
<clus scale="   90.707">  5  6 -1 -1</clus>
<clus scale="   69.976">  5 10 -1 -1</clus>
<clus scale="  165.464">  1  7  2 -1</clus>
<clus scale="   32.125">  2  5  1 -1</clus>
</clustering>
</event>
<event>
10    2  0.5692308E-006  0.4220717E+03  0.7546771E-02  0.1046866E+00
         21   -1    0    0  503  502  0.00000000000E+00  0.00000000000E+00  0.10325887493E+04  0.10325887493E+04  0.00000000000E+00 0.  1.
         -1   -1    0    0    0  501 -0.00000000000E+00 -0.00000000000E+00 -0.16759001392E+03  0.16759001392E+03  0.00000000000E+00 0.  1.
         23    2    1    2    0    0  0.31800672537E+03  0.59001730201E+02  0.26519828963E+03  0.42829466458E+03  0.92177575011E+02 0.  0.
         23    2    1    2    0    0 -0.11946394055E+03 -0.11506143590E+03  0.13135310573E+03  0.23012929697E+03  0.90526724325E+02 0.  0.
        -11    1    4    4    0    0 -0.12990953867E+03 -0.80761102721E+02  0.10979577562E+03  0.18829220986E+03  0.00000000000E+00 0. -1.
         11    1    4    4    0    0  0.10445598126E+02 -0.34300333175E+02  0.21557330109E+02  0.41837087106E+02  0.00000000000E+00 0.  1.
        -13    1    3    3    0    0  0.14760740547E+03  0.18084264222E+02  0.65183094662E+02  0.16236940165E+03  0.00000000000E+00 0. -1.
         13    1    3    3    0    0  0.17039931990E+03  0.40917465979E+02  0.20001519497E+03  0.26592526293E+03  0.00000000000E+00 0.  1.
         21    1    1    2  503  501 -0.73460162127E+02 -0.51491313495E+01  0.26299301925E+02  0.78195666473E+02  0.00000000000E+00 0. -1.
         -1    1    1    2    0  502 -0.12508262269E+03  0.61208837044E+02  0.44214803805E+03  0.46355913516E+03  0.00000000000E+00 0.  1.
<scales pt_clust_5="13000.00000" pt_clust_6="13000.00000" pt_clust_7="13000.00000" pt_clust_8="13000.00000" pt_clust_9="73.64044" pt_clust_10="13000.00000"></scales>
<clustering>
<clus scale="   73.640">  1  9  2 -1</clus>
<clus scale="   90.527">  5  6 -1 -1</clus>
<clus scale="   92.178">  7  8 -1 -1</clus>
<clus scale="  169.550">  5 10 -1 -1</clus>
<clus scale="  311.519">  2  7  1 -1</clus>
<clus scale="   73.640">  1  5  2 -1</clus>
</clustering>
</event>
<event>
10    2  0.5692308E-006  0.1274573E+03  0.7546771E-02  0.1242155E+00
         21   -1    0    0  501  502  0.00000000000E+00  0.00000000000E+00  0.14796411758E+03  0.14796411758E+03  0.00000000000E+00 0. -1.
         -3   -1    0    0    0  501 -0.00000000000E+00 -0.00000000000E+00 -0.15723141808E+03  0.15723141808E+03  0.00000000000E+00 0.  1.
         23    2    1    2    0    0 -0.20397361400E+02  0.31633053112E+02 -0.10773231655E+02  0.99540178823E+02  0.91517661020E+02 0.  0.
         23    2    1    2    0    0 -0.18880024142E+02 -0.83006774731E+01 -0.47391574558E+02  0.90280213576E+02  0.74021612155E+02 0.  0.
        -11    1    4    4    0    0 -0.17981776799E+02 -0.39590495605E+02 -0.17111253196E+02  0.46728434866E+02  0.00000000000E+00 0.  1.
         11    1    4    4    0    0 -0.89824734322E+00  0.31289818132E+02 -0.30280321362E+02  0.43551778710E+02  0.00000000000E+00 0. -1.
        -13    1    3    3    0    0 -0.40854471161E+02  0.53020293019E+02  0.27721881132E+01  0.66991972001E+02  0.00000000000E+00 0.  1.
         13    1    3    3    0    0  0.20457109761E+02 -0.21387239907E+02 -0.13545419769E+02  0.32548206822E+02  0.00000000000E+00 0. -1.
         21    1    1    2  503  502  0.21852107224E+02  0.25220065998E+02  0.54063009111E+02  0.63532474162E+02  0.00000000000E+00 0. -1.
         -3    1    1    2    0  503  0.17425278319E+02 -0.48552441637E+02 -0.51655033958E+01  0.51842669093E+02  0.00000000000E+00 0.  1.
<scales pt_clust_5="13000.00000" pt_clust_6="13000.00000" pt_clust_7="13000.00000" pt_clust_8="13000.00000" pt_clust_9="33.37014" pt_clust_10="13000.00000"></scales>
<clustering>
<clus scale="   33.370">  1  9  2 -1</clus>
<clus scale="   74.022">  5  6 -1 -1</clus>
<clus scale="   47.912">  5 10 -1 -1</clus>
<clus scale="   91.518">  7  8 -1 -1</clus>
<clus scale="  102.071">  2  7  1 -1</clus>
<clus scale="   33.370">  1  5  2 -1</clus>
</clustering>
</event>
<event>
10    2  0.5692308E-006  0.1620110E+03  0.7546771E-02  0.1209112E+00
         -3   -1    0    0    0  501 -0.00000000000E+00  0.00000000000E+00  0.45659443102E+03  0.45659443102E+03  0.00000000000E+00 0.  1.
         21   -1    0    0  503  502  0.00000000000E+00 -0.00000000000E+00 -0.59075929286E+02  0.59075929286E+02  0.00000000000E+00 0. -1.
         23    2    1    2    0    0 -0.41592982624E+02 -0.30226213657E+02  0.18376683185E+03  0.21127496434E+03  0.90682202611E+02 0.  0.
         23    2    1    2    0    0  0.39388859756E+02  0.55071639010E+01  0.22060602758E+03  0.24200379385E+03  0.91197618975E+02 0.  0.
        -13    1    3    3    0    0  0.27318258813E+02 -0.20939910993E+02  0.68429156390E+02  0.76598411088E+02  0.00000000000E+00 0.  1.
         13    1    3    3    0    0 -0.68911241437E+02 -0.92863026645E+01  0.11533767546E+03  0.13467655325E+03  0.00000000000E+00 0. -1.
        -13    1    4    4    0    0 -0.17031312250E+02 -0.24702217669E+02  0.37442429775E+02  0.47981253654E+02  0.00000000000E+00 0. -1.
         13    1    4    4    0    0  0.56420172006E+02  0.30209381570E+02  0.18316359780E+03  0.19402254020E+03  0.00000000000E+00 0.  1.
         21    1    1    2  503  501  0.20093452243E+02  0.34536818312E+02  0.23068000514E+01  0.40023242855E+02  0.00000000000E+00 0.  1.
         -3    1    1    2    0  502 -0.17889329375E+02 -0.98177685558E+01 -0.91611577491E+01  0.22368359265E+02  0.00000000000E+00 0.  1.
<scales pt_clust_5="13000.00000" pt_clust_6="13000.00000" pt_clust_7="13000.00000" pt_clust_8="13000.00000" pt_clust_9="39.95671" pt_clust_10="13000.00000"></scales>
<clustering>
<clus scale="   39.957">  2  9  1 -1</clus>
<clus scale="   90.682">  5  6 -1 -1</clus>
<clus scale="   91.198">  7  8 -1 -1</clus>
<clus scale="   10.682">  7 10 -1 -1</clus>
<clus scale="   98.833">  1  5  2 -1</clus>
<clus scale="   39.957">  2  5  1 -1</clus>
</clustering>
</event>
<event>
10    2  0.5692308E-006  0.7509079E+03  0.7546771E-02  0.1005093E+00
         21   -1    0    0  503  502  0.00000000000E+00  0.00000000000E+00  0.81917677709E+03  0.81917677709E+03  0.00000000000E+00 0.  1.
          1   -1    0    0  502    0 -0.00000000000E+00 -0.00000000000E+00 -0.19386833478E+04  0.19386833478E+04  0.00000000000E+00 0. -1.
         23    2    1    2    0    0  0.87883840086E+02 -0.14936966476E+03 -0.45432792403E+03  0.49318950213E+03  0.82384199683E+02 0.  0.
         23    2    1    2    0    0 -0.12284668300E+03  0.32699401604E+03 -0.13426565489E+04  0.13902630993E+04  0.89935994116E+02 0.  0.
        -11    1    4    4    0    0 -0.12865870097E+03  0.29413313363E+03 -0.12753645852E+04  0.13151510129E+04  0.00000000000E+00 0. -1.
         11    1    4    4    0    0  0.58120179653E+01  0.32860882414E+02 -0.67291963648E+02  0.75112086361E+02  0.00000000000E+00 0.  1.
        -11    1    3    3    0    0  0.36446733351E+02 -0.12462599173E+03 -0.25950613308E+03  0.29017828191E+03  0.00000000000E+00 0. -1.
         11    1    3    3    0    0  0.51437106735E+02 -0.24743673022E+02 -0.19482179095E+03  0.20301122022E+03  0.00000000000E+00 0.  1.
         21    1    1    2  503  501 -0.72264151099E+02 -0.47689364188E+02  0.69920603694E+03  0.70454628314E+03  0.00000000000E+00 0.  1.
          1    1    1    2  501    0  0.10722699401E+03 -0.12993498710E+03 -0.21728134728E+02  0.16986124030E+03  0.00000000000E+00 0. -1.
<scales pt_clust_5="13000.00000" pt_clust_6="13000.00000" pt_clust_7="13000.00000" pt_clust_8="13000.00000" pt_clust_9="86.58166" pt_clust_10="13000.00000"></scales>
<clustering>
<clus scale="   82.384">  7  8 -1 -1</clus>
<clus scale="   86.582">  1  9  2 -1</clus>
<clus scale="   89.936">  5  6 -1 -1</clus>
<clus scale="  171.492">  5 10 -1 -1</clus>
<clus scale="  193.090">  2  7  1 -1</clus>
<clus scale="   86.582">  1  5  2 -1</clus>
</clustering>
</event>
<event>
10    2  0.5692308E-006  0.1626125E+03  0.7546771E-02  0.1209747E+00
         21   -1    0    0  501  502  0.00000000000E+00  0.00000000000E+00  0.45289384070E+02  0.45289384070E+02  0.00000000000E+00 0.  1.
          1   -1    0    0  503    0 -0.00000000000E+00 -0.00000000000E+00 -0.76181081938E+03  0.76181081938E+03  0.00000000000E+00 0. -1.
         23    2    1    2    0    0  0.10732392853E+01 -0.26105880477E+02 -0.47126941374E+03  0.48088730878E+03  0.92060168304E+02 0.  0.
         23    2    1    2    0    0 -0.59955676857E+02  0.26695587249E+02 -0.12859946360E+03  0.17047255086E+03  0.90640669641E+02 0.  0.
        -13    1    4    4    0    0 -0.18262681626E+02  0.54960496356E+02 -0.47037692790E+02  0.74610496868E+02  0.00000000000E+00 0.  1.
         13    1    4    4    0    0 -0.41692995231E+02 -0.28264909107E+02 -0.81561770808E+02  0.95862053992E+02  0.00000000000E+00 0. -1.
        -13    1    3    3    0    0  0.17119768000E+01 -0.60797365720E+02 -0.31391430659E+03  0.31975215781E+03  0.00000000000E+00 0. -1.
         13    1    3    3    0    0 -0.63873751466E+00  0.34691485243E+02 -0.15735510714E+03  0.16113515097E+03  0.00000000000E+00 0.  1.
         21    1    1    2  503  502  0.16593220355E+02 -0.14284402958E+02  0.80689421392E+01  0.23334244296E+02  0.00000000000E+00 0.  1.
          1    1    1    2  501    0  0.42289217216E+02  0.13694696186E+02 -0.12472150012E+03  0.13240609951E+03  0.00000000000E+00 0. -1.
<scales pt_clust_5="13000.00000" pt_clust_6="13000.00000" pt_clust_7="13000.00000" pt_clust_8="13000.00000" pt_clust_9="21.89473" pt_clust_10="13000.00000"></scales>
<clustering>
<clus scale="   21.895">  1  9  2 -1</clus>
<clus scale="   90.641">  5  6 -1 -1</clus>
<clus scale="   45.994">  5 10 -1 -1</clus>
<clus scale="   92.060">  7  8 -1 -1</clus>
<clus scale="   96.423">  2  7  1 -1</clus>
<clus scale="   21.895">  1  5  2 -1</clus>
</clustering>
</event>
<event>
10    2  0.5692308E-006  0.1901443E+03  0.7546771E-02  0.1173086E+00
          1   -1    0    0  502    0 -0.00000000000E+00  0.00000000000E+00  0.36939226509E+03  0.36939226509E+03  0.00000000000E+00 0. -1.
         21   -1    0    0  503  502  0.00000000000E+00 -0.00000000000E+00 -0.11617960761E+03  0.11617960761E+03  0.00000000000E+00 0. -1.
         23    2    1    2    0    0 -0.10367523614E+03 -0.73451418371E+01  0.21306474122E+03  0.25146967434E+03  0.83892237204E+02 0.  0.
         23    2    1    2    0    0  0.87765324732E+02 -0.44158081733E+02 -0.21733210886E+02  0.13570412472E+03  0.91052669386E+02 0.  0.
        -13    1    3    3    0    0 -0.31631788812E+02 -0.27178261240E+02  0.14328452043E+03  0.14923029766E+03  0.00000000000E+00 0. -1.
         13    1    3    3    0    0 -0.72043447331E+02  0.19833119403E+02  0.69780220792E+02  0.10223937667E+03  0.00000000000E+00 0.  1.
        -13    1    4    4    0    0  0.40606792360E+02  0.57895980907E-01  0.31954653794E+02  0.51672186298E+02  0.00000000000E+00 0.  1.
         13    1    4    4    0    0  0.47158532372E+02 -0.44215977714E+02 -0.53687864680E+02  0.84031938420E+02  0.00000000000E+00 0. -1.
         21    1    1    2  503  501 -0.13495580408E+02  0.29804195337E+02  0.86707766023E+01  0.33846759330E+02  0.00000000000E+00 0. -1.
          1    1    1    2  501    0  0.29405491819E+02  0.21699028233E+02  0.53210350545E+02  0.64551314320E+02  0.00000000000E+00 0. -1.
<scales pt_clust_5="13000.00000" pt_clust_6="13000.00000" pt_clust_7="13000.00000" pt_clust_8="13000.00000" pt_clust_9="32.71729" pt_clust_10="13000.00000"></scales>
<clustering>
<clus scale="   32.717">  2  9  1 -1</clus>
<clus scale="   83.892">  5  6 -1 -1</clus>
<clus scale="   91.053">  7  8 -1 -1</clus>
<clus scale="   36.961">  7 10 -1 -1</clus>
<clus scale="  135.332">  1  5  2 -1</clus>
<clus scale="   32.717">  2  5  1 -1</clus>
</clustering>
</event>
<event>
10    2  0.5692308E-006  0.2058443E+03  0.7546771E-02  0.1154605E+00
         21   -1    0    0  501  502  0.00000000000E+00  0.00000000000E+00  0.70195780575E+02  0.70195780575E+02  0.00000000000E+00 0. -1.
          1   -1    0    0  503    0 -0.00000000000E+00 -0.00000000000E+00 -0.79344318547E+03  0.79344318547E+03  0.00000000000E+00 0. -1.
         23    2    1    2    0    0 -0.13400035891E+03 -0.16987690014E+02 -0.52957736722E+03  0.55481306416E+03  0.95502201478E+02 0.  0.
         23    2    1    2    0    0  0.64355672970E+02  0.43925415462E+02 -0.10324906193E+03  0.15850230551E+03  0.91605225255E+02 0.  0.
        -13    1    4    4    0    0  0.78835781760E+02  0.58371944638E+02 -0.74300334575E+02  0.12305650785E+03  0.00000000000E+00 0.  1.
         13    1    4    4    0    0 -0.14480108791E+02 -0.14446529175E+02 -0.28948727356E+02  0.35445797654E+02  0.00000000000E+00 0. -1.
        -13    1    3    3    0    0 -0.12043875323E+03  0.23273920967E+02 -0.37897293776E+03  0.39833108870E+03  0.00000000000E+00 0. -1.
         13    1    3    3    0    0 -0.13561605681E+02 -0.40261610981E+02 -0.15060442947E+03  0.15648197545E+03  0.00000000000E+00 0.  1.
         21    1    1    2  503  502  0.75521815041E+01  0.24246841283E+02  0.45981168889E+01  0.25808669796E+02  0.00000000000E+00 0.  1.
          1    1    1    2  501    0  0.62092504434E+02 -0.51184566732E+02 -0.95019092627E+02  0.12451492658E+03  0.00000000000E+00 0. -1.
<scales pt_clust_5="13000.00000" pt_clust_6="13000.00000" pt_clust_7="13000.00000" pt_clust_8="13000.00000" pt_clust_9="25.39576" pt_clust_10="13000.00000"></scales>
<clustering>
<clus scale="   25.396">  1  9  2 -1</clus>
<clus scale="   91.605">  5  6 -1 -1</clus>
<clus scale="   78.151">  5 10 -1 -1</clus>
<clus scale="   95.502">  7  8 -1 -1</clus>
<clus scale="  163.542">  2  7  1 -1</clus>
<clus scale="   25.396">  1  5  2 -1</clus>
</clustering>
</event>
<event>
10    2  0.5692308E-006  0.2975306E+03  0.7546771E-02  0.1132993E+00
         21   -1    0    0  501  502  0.00000000000E+00  0.00000000000E+00  0.38668252751E+03  0.38668252751E+03  0.00000000000E+00 0. -1.
          2   -1    0    0  503    0 -0.00000000000E+00 -0.00000000000E+00 -0.15159834675E+03  0.15159834675E+03  0.00000000000E+00 0. -1.
         23    2    1    2    0    0  0.74735234204E+00 -0.69114007878E+01  0.73198202032E+02  0.11665552339E+03  0.90566044193E+02 0.  0.
         23    2    1    2    0    0  0.23926492626E+02  0.26112885280E+02 -0.88762679227E+02  0.15503718707E+03  0.12207930342E+03 0.  0.
        -13    1    3    3    0    0  0.16618663502E+02  0.22006386078E+02  0.78538472255E+02  0.83239129194E+02  0.00000000000E+00 0. -1.
         13    1    3    3    0    0 -0.15871311160E+02 -0.28917786866E+02 -0.53402702230E+01  0.33416394198E+02  0.00000000000E+00 0.  1.
        -13    1    4    4    0    0  0.68995078565E+02  0.32931562650E+02 -0.75775347572E+02  0.10764159040E+03  0.00000000000E+00 0. -1.
         13    1    4    4    0    0 -0.45068585940E+02 -0.68186773698E+01 -0.12987331655E+02  0.47395596664E+02  0.00000000000E+00 0.  1.
         21    1    1    2  503  502  0.19699639598E+02  0.20292931607E+02  0.11635062117E+03  0.11973865675E+03  0.00000000000E+00 0.  1.
          2    1    1    2  501    0 -0.44373484565E+02 -0.39494416099E+02  0.13429803678E+03  0.14684950705E+03  0.00000000000E+00 0. -1.
<scales pt_clust_5="13000.00000" pt_clust_6="13000.00000" pt_clust_7="13000.00000" pt_clust_8="13000.00000" pt_clust_9="28.28213" pt_clust_10="13000.00000"></scales>
<clustering>
<clus scale="   28.282">  1  9  2 -1</clus>
<clus scale="   90.566">  5  6 -1 -1</clus>
<clus scale="   90.894">  2  5  1 -1</clus>
<clus scale="  122.079">  7  8 -1 -1</clus>
<clus scale="   44.431">  7 10 -1 -1</clus>
<clus scale="   28.282">  1  5  2 -1</clus>
</clustering>
</event>
<event>
10    2  0.5692308E-006  0.1984294E+03  0.7546771E-02  0.1180356E+00
         21   -1    0    0  501  502  0.00000000000E+00  0.00000000000E+00  0.12351350277E+03  0.12351350277E+03  0.00000000000E+00 0.  1.
          1   -1    0    0  503    0 -0.00000000000E+00 -0.00000000000E+00 -0.28836148963E+03  0.28836148963E+03  0.00000000000E+00 0. -1.
         23    2    1    2    0    0  0.22863594854E+02  0.39213845210E+02 -0.15861383456E+03  0.18845102128E+03  0.91076721960E+02 0.  0.
         23    2    1    2    0    0 -0.85475191239E+02  0.19657587740E+02 -0.76582052447E+01  0.12912540381E+03  0.94457888654E+02 0.  0.
        -11    1    3    3    0    0 -0.29801519541E+02  0.32163796672E+02 -0.43992142133E+02  0.62112389688E+02  0.00000000000E+00 0.  1.
         11    1    3    3    0    0  0.52665114394E+02  0.70500485379E+01 -0.11462169242E+03  0.12633863159E+03  0.00000000000E+00 0. -1.
        -13    1    4    4    0    0  0.97465279033E+00  0.34396105377E+02 -0.21159310426E+02  0.40395029780E+02  0.00000000000E+00 0. -1.
         13    1    4    4    0    0 -0.86449844030E+02 -0.14738517638E+02  0.13501105181E+02  0.88730374033E+02  0.00000000000E+00 0.  1.
         21    1    1    2  503  502  0.85337901725E+01 -0.20636974662E+02 -0.13920478175E+02  0.26315204931E+02  0.00000000000E+00 0.  1.
          1    1    1    2  501    0  0.54077806213E+02 -0.38234458288E+02  0.15344531121E+02  0.67983362382E+02  0.00000000000E+00 0. -1.
<scales pt_clust_5="13000.00000" pt_clust_6="13000.00000" pt_clust_7="13000.00000" pt_clust_8="13000.00000" pt_clust_9="22.33183" pt_clust_10="13000.00000"></scales>
<clustering>
<clus scale="   22.332">  1  9  2 -1</clus>
<clus scale="   91.077">  5  6 -1 -1</clus>
<clus scale="   94.458">  7  8 -1 -1</clus>
<clus scale="   73.058">  7 10 -1 -1</clus>
<clus scale="  101.031">  2  5  1 -1</clus>
<clus scale="   22.332">  1  5  2 -1</clus>
</clustering>
</event>
<event>
10    2  0.5692308E-006  0.1791609E+03  0.7546771E-02  0.1196612E+00
         21   -1    0    0  503  502  0.00000000000E+00  0.00000000000E+00  0.93574129640E+02  0.93574129640E+02  0.00000000000E+00 0.  1.
         -1   -1    0    0    0  501 -0.00000000000E+00 -0.00000000000E+00 -0.67867698409E+03  0.67867698409E+03  0.00000000000E+00 0.  1.
         23    2    1    2    0    0  0.15193854333E+01 -0.72983367566E+02 -0.40845930665E+02  0.12338248964E+03  0.90697123577E+02 0.  0.
         23    2    1    2    0    0 -0.11157245596E+02  0.25996051734E+02 -0.34554958160E+03  0.35898568316E+03  0.93090969126E+02 0.  0.
        -13    1    4    4    0    0 -0.19526368491E+02 -0.32152982298E+02 -0.15975735721E+03  0.16412649548E+03  0.00000000000E+00 0.  1.
         13    1    4    4    0    0  0.83691228954E+01  0.58149034032E+02 -0.18579222439E+03  0.19485918767E+03  0.00000000000E+00 0. -1.
        -13    1    3    3    0    0  0.31491852432E+02 -0.53989070318E+02 -0.56819175031E+02  0.84468782012E+02  0.00000000000E+00 0. -1.
         13    1    3    3    0    0 -0.29972466998E+02 -0.18994297248E+02  0.15973244366E+02  0.38913707630E+02  0.00000000000E+00 0.  1.
         21    1    1    2  503  501 -0.45307218074E+02  0.10351812450E+03 -0.54321473244E+02  0.12537770362E+03  0.00000000000E+00 0.  1.
         -1    1    1    2    0  502  0.54945078237E+02 -0.56530808672E+02 -0.14438586894E+03  0.16450523731E+03  0.00000000000E+00 0.  1.
<scales pt_clust_5="13000.00000" pt_clust_6="13000.00000" pt_clust_7="13000.00000" pt_clust_8="13000.00000" pt_clust_9="112.99888" pt_clust_10="13000.00000"></scales>
<clustering>
<clus scale="   90.697">  7  8 -1 -1</clus>
<clus scale="   93.091">  5  6 -1 -1</clus>
<clus scale="   78.833">  5 10 -1 -1</clus>
<clus scale="  112.999">  1  9  2 -1</clus>
<clus scale="   95.752">  2  7  1 -1</clus>
<clus scale="  112.999">  1  5  2 -1</clus>
</clustering>
</event>
<event>
10    2  0.5692308E-006  0.2080133E+03  0.7546771E-02  0.1176092E+00
         21   -1    0    0  503  502  0.00000000000E+00  0.00000000000E+00  0.92236812869E+03  0.92236812869E+03  0.00000000000E+00 0.  1.
          1   -1    0    0  502    0 -0.00000000000E+00 -0.00000000000E+00 -0.69390129011E+02  0.69390129011E+02  0.00000000000E+00 0. -1.
         23    2    1    2    0    0  0.28531022398E+02  0.21555774548E+02  0.52119202319E+02  0.10971992721E+03  0.89684895723E+02 0.  0.
         23    2    1    2    0    0 -0.93350461604E+01 -0.18934427394E+02  0.66078255522E+02  0.10790598286E+03  0.82654156924E+02 0.  0.
        -11    1    3    3    0    0  0.19695386489E+02  0.56636120222E+02  0.27546774407E+02  0.65987749947E+02  0.00000000000E+00 0.  1.
         11    1    3    3    0    0  0.88356359086E+01 -0.35080345674E+02  0.24572427912E+02  0.43732177262E+02  0.00000000000E+00 0. -1.
        -13    1    4    4    0    0  0.28636197330E+02  0.15158500164E+02  0.36963088275E+02  0.49153655201E+02  0.00000000000E+00 0.  1.
         13    1    4    4    0    0 -0.37971243491E+02 -0.34092927558E+02  0.29115167247E+02  0.58752327660E+02  0.00000000000E+00 0. -1.
         21    1    1    2  503  501 -0.93217123691E+02  0.76704227214E+02  0.51591380046E+03  0.52984905409E+03  0.00000000000E+00 0.  1.
          1    1    1    2  501    0  0.74021147453E+02 -0.79325574368E+02  0.21886674138E+03  0.24428329354E+03  0.00000000000E+00 0. -1.
<scales pt_clust_5="13000.00000" pt_clust_6="13000.00000" pt_clust_7="13000.00000" pt_clust_8="13000.00000" pt_clust_9="119.43707" pt_clust_10="13000.00000"></scales>
<clustering>
<clus scale="   82.654">  7  8 -1 -1</clus>
<clus scale="   89.685">  5  6 -1 -1</clus>
<clus scale="   96.551">  2  5  1 -1</clus>
<clus scale="  110.221">  7 10 -1 -1</clus>
<clus scale="  119.437">  1  9  2 -1</clus>
<clus scale="  119.437">  1  5  2 -1</clus>
</clustering>
</event>
<event>
10    2  0.5692308E-006  0.4928320E+03  0.7546771E-02  0.1053231E+00
         -4   -1    0    0    0  501 -0.00000000000E+00  0.00000000000E+00  0.25556034309E+03  0.25556034309E+03  0.00000000000E+00 0.  1.
         21   -1    0    0  501  502  0.00000000000E+00 -0.00000000000E+00 -0.77801974522E+03  0.77801974522E+03  0.00000000000E+00 0.  1.
         23    2    1    2    0    0  0.10794297074E+03  0.11403418087E+03  0.31255158537E+02  0.18444835133E+03  0.91590556481E+02 0.  0.
         23    2    1    2    0    0 -0.16268704166E+03 -0.16229030747E+03 -0.19984469813E+03  0.31832736373E+03  0.92677881417E+02 0.  0.
        -11    1    4    4    0    0 -0.36598089273E+02 -0.36987335180E+02 -0.10419686309E+03  0.11646660200E+03  0.00000000000E+00 0.  1.
         11    1    4    4    0    0 -0.12608895239E+03 -0.12530297229E+03 -0.95647835033E+02  0.20186076173E+03  0.00000000000E+00 0. -1.
        -13    1    3    3    0    0  0.78952155484E+02  0.10173732700E+03  0.59763159770E+02  0.14197028501E+03  0.00000000000E+00 0.  1.
         13    1    3    3    0    0  0.28990815255E+02  0.12296853866E+02 -0.28508001232E+02  0.42478066321E+02  0.00000000000E+00 0. -1.
         21    1    1    2  503  502 -0.10828618052E+03 -0.10487846528E+03 -0.23034769104E+03  0.27529156932E+03  0.00000000000E+00 0.  1.
         -4    1    1    2    0  503  0.16303025144E+03  0.15313459189E+03 -0.12352217151E+03  0.25551280393E+03  0.00000000000E+00 0.  1.
<scales pt_clust_5="13000.00000" pt_clust_6="13000.00000" pt_clust_7="13000.00000" pt_clust_8="13000.00000" pt_clust_9="150.74943" pt_clust_10="13000.00000"></scales>
<clustering>
<clus scale="   91.591">  7  8 -1 -1</clus>
<clus scale="   92.678">  5  6 -1 -1</clus>
<clus scale="  150.749">  2  9  1 -1</clus>
<clus scale="  163.186">  1  7  2 -1</clus>
<clus scale="  214.945">  5 10 -1 -1</clus>
<clus scale="  150.749">  2  5  1 -1</clus>
</clustering>
</event>
<event>
10    2  0.5692308E-006  0.6159718E+03  0.7546771E-02  0.1026395E+00
          2   -1    0    0  503    0 -0.00000000000E+00  0.00000000000E+00  0.22806426447E+04  0.22806426447E+04  0.00000000000E+00 0. -1.
         21   -1    0    0  501  502  0.00000000000E+00 -0.00000000000E+00 -0.21508584529E+03  0.21508584529E+03  0.00000000000E+00 0.  1.
         23    2    1    2    0    0 -0.88292943118E+02 -0.12915104256E+03  0.22320221380E+03  0.28834255825E+03  0.94056190934E+02 0.  0.
         23    2    1    2    0    0  0.75418214893E+02 -0.41377044590E+02  0.26957892733E+03  0.29714353134E+03  0.90672560347E+02 0.  0.
        -11    1    4    4    0    0  0.27786417778E+02 -0.59466860241E+02  0.20272967095E+03  0.21309085378E+03  0.00000000000E+00 0. -1.
         11    1    4    4    0    0  0.47631797115E+02  0.18089815651E+02  0.66849256374E+02  0.84052677557E+02  0.00000000000E+00 0.  1.
        -13    1    3    3    0    0 -0.24915682199E+02  0.91206786708E+01  0.14940900402E+02  0.30450098583E+02  0.00000000000E+00 0.  1.
         13    1    3    3    0    0 -0.63377260919E+02 -0.13827172123E+03  0.20826131340E+03  0.25789245967E+03  0.00000000000E+00 0. -1.
         21    1    1    2  503  502 -0.46812543628E+03  0.17729910279E+03  0.12046050614E+04  0.13044729778E+04  0.00000000000E+00 0.  1.
          2    1    1    2  501    0  0.48100016451E+03 -0.67710156400E+01  0.36817059688E+03  0.60576942256E+03  0.00000000000E+00 0. -1.
<scales pt_clust_5="13000.00000" pt_clust_6="13000.00000" pt_clust_7="13000.00000" pt_clust_8="13000.00000" pt_clust_9="531.80242" pt_clust_10="13000.00000"></scales>
<clustering>
<clus scale="   90.673">  5  6 -1 -1</clus>
<clus scale="   94.056">  7  8 -1 -1</clus>
<clus scale="  182.544">  1  7  2 -1</clus>
<clus scale="  461.320">  5 10 -1 -1</clus>
<clus scale="  531.802">  2  9  1 -1</clus>
<clus scale="  531.802">  2  5  1 -1</clus>
</clustering>
</event>
<event>
10    2  0.5692308E-006  0.1775600E+03  0.7546771E-02  0.1189982E+00
         21   -1    0    0  501  502  0.00000000000E+00  0.00000000000E+00  0.86125712619E+02  0.86125712619E+02  0.00000000000E+00 0. -1.
          1   -1    0    0  503    0 -0.00000000000E+00 -0.00000000000E+00 -0.57077113483E+03  0.57077113483E+03  0.00000000000E+00 0. -1.
         23    2    1    2    0    0  0.16164761484E+02  0.61051551009E+02 -0.30288427308E+03  0.32309339074E+03  0.93069140240E+02 0.  0.
         23    2    1    2    0    0  0.15033346070E+02 -0.34562265925E+02 -0.98150607777E+02  0.13921928126E+03  0.91257409281E+02 0.  0.
        -13    1    3    3    0    0  0.41585101274E+02  0.66612047236E+02 -0.16447693914E+03  0.18226121089E+03  0.00000000000E+00 0. -1.
         13    1    3    3    0    0 -0.25420339790E+02 -0.55604962271E+01 -0.13840733394E+03  0.14083217985E+03  0.00000000000E+00 0.  1.
        -13    1    4    4    0    0  0.70159312519E+01 -0.63559227830E+02 -0.85046237288E+02  0.10640423493E+03  0.00000000000E+00 0.  1.
         13    1    4    4    0    0  0.80174148178E+01  0.28996961905E+02 -0.13104370488E+02  0.32815046335E+02  0.00000000000E+00 0. -1.
         21    1    1    2  503  502  0.55223780227E+02 -0.88124469173E+01  0.19191519723E+02  0.59123933839E+02  0.00000000000E+00 0. -1.
          1    1    1    2  501    0 -0.86421887781E+02 -0.17676838166E+02 -0.10280206108E+03  0.13546024161E+03  0.00000000000E+00 0. -1.
<scales pt_clust_5="13000.00000" pt_clust_6="13000.00000" pt_clust_7="13000.00000" pt_clust_8="13000.00000" pt_clust_9="55.92249" pt_clust_10="13000.00000"></scales>
<clustering>
<clus scale="   55.922">  1  9  2 -1</clus>
<clus scale="   91.257">  7  8 -1 -1</clus>
<clus scale="   70.349">  7 10 -1 -1</clus>
<clus scale="   93.069">  5  6 -1 -1</clus>
<clus scale="  113.788">  2  5  1 -1</clus>
<clus scale="   55.922">  1  5  2 -1</clus>
</clustering>
</event>
<event>
10    2  0.5692308E-006  0.3118536E+03  0.7546771E-02  0.1107871E+00
         21   -1    0    0  503  502  0.00000000000E+00  0.00000000000E+00  0.19250594921E+03  0.19250594921E+03  0.00000000000E+00 0. -1.
          1   -1    0    0  502    0 -0.00000000000E+00 -0.00000000000E+00 -0.45832889066E+03  0.45832889066E+03  0.00000000000E+00 0. -1.
         23    2    1    2    0    0 -0.28072134366E+02  0.10556070593E+03 -0.15193747659E+03  0.20811660322E+03  0.91084666007E+02 0.  0.
         23    2    1    2    0    0 -0.41460042223E+02 -0.21985953930E+03 -0.15566150141E+03  0.28813794126E+03  0.93465598238E+02 0.  0.
        -13    1    4    4    0    0  0.25135766726E+02 -0.21106278368E+02 -0.22815020898E+02  0.39972577275E+02  0.00000000000E+00 0.  1.
         13    1    4    4    0    0 -0.66595808949E+02 -0.19875326093E+03 -0.13284648051E+03  0.24816536399E+03  0.00000000000E+00 0. -1.
        -13    1    3    3    0    0 -0.33625750502E+02  0.12736728408E+02 -0.81325366904E+01  0.36865342809E+02  0.00000000000E+00 0. -1.
         13    1    3    3    0    0  0.55536161361E+01  0.92823977522E+02 -0.14380493990E+03  0.17125126042E+03  0.00000000000E+00 0.  1.
         21    1    1    2  503  501  0.43137432909E+02  0.43312607567E+02  0.49218252408E+02  0.78480930565E+02  0.00000000000E+00 0. -1.
          1    1    1    2  501    0  0.26394743680E+02  0.70986225802E+02 -0.74422158577E+01  0.76099364810E+02  0.00000000000E+00 0. -1.
<scales pt_clust_5="13000.00000" pt_clust_6="13000.00000" pt_clust_7="13000.00000" pt_clust_8="13000.00000" pt_clust_9="61.12954" pt_clust_10="13000.00000"></scales>
<clustering>
<clus scale="   61.130">  1  9  2 -1</clus>
<clus scale="   91.085">  7  8 -1 -1</clus>
<clus scale="   93.466">  5  6 -1 -1</clus>
<clus scale="   90.830">  5 10 -1 -1</clus>
<clus scale="  147.896">  2  7  1 -1</clus>
<clus scale="   61.130">  1  5  2 -1</clus>
</clustering>
</event>
<event>
10    2  0.5692308E-006  0.1808784E+03  0.7546771E-02  0.1193719E+00
         -1   -1    0    0    0  501 -0.00000000000E+00  0.00000000000E+00  0.19171415946E+03  0.19171415946E+03  0.00000000000E+00 0.  1.
         21   -1    0    0  501  502  0.00000000000E+00 -0.00000000000E+00 -0.36752025507E+03  0.36752025507E+03  0.00000000000E+00 0.  1.
         23    2    1    2    0    0 -0.28930655438E+01 -0.26679532050E+02  0.51732440907E+02  0.10883904986E+03  0.91921303694E+02 0.  0.
         23    2    1    2    0    0 -0.27216976346E+02 -0.28849408037E+02  0.19677496799E+02  0.10057000101E+03  0.90299884150E+02 0.  0.
        -13    1    3    3    0    0  0.11207336706E+02 -0.55771650691E+02  0.51155634869E+02  0.76504773679E+02  0.00000000000E+00 0.  1.
         13    1    3    3    0    0 -0.14100402250E+02  0.29092118642E+02  0.57680603799E+00  0.32334276177E+02  0.00000000000E+00 0. -1.
        -13    1    4    4    0    0 -0.15642114241E+02  0.18925205144E+02  0.40358198781E+02  0.47240060716E+02  0.00000000000E+00 0. -1.
         13    1    4    4    0    0 -0.11574862105E+02 -0.47774613182E+02 -0.20680701981E+02  0.53329940295E+02  0.00000000000E+00 0.  1.
         21    1    1    2  503  502  0.74560723374E+02 -0.33112055273E+02 -0.23639279571E+03  0.25007451597E+03  0.00000000000E+00 0.  1.
         -1    1    1    2    0  503 -0.44450681485E+02  0.88640995360E+02 -0.10823237600E+02  0.99750847691E+02  0.00000000000E+00 0.  1.
<scales pt_clust_5="13000.00000" pt_clust_6="13000.00000" pt_clust_7="13000.00000" pt_clust_8="13000.00000" pt_clust_9="81.58253" pt_clust_10="13000.00000"></scales>
<clustering>
<clus scale="   81.583">  2  9  1 -1</clus>
<clus scale="   90.300">  7  8 -1 -1</clus>
<clus scale="   74.768">  7 10 -1 -1</clus>
<clus scale="   91.921">  5  6 -1 -1</clus>
<clus scale="   99.135">  1  5  2 -1</clus>
<clus scale="   81.583">  2  5  1 -1</clus>
</clustering>
</event>
<event>
10    2  0.5692308E-006  0.2816924E+03  0.7546771E-02  0.1107370E+00
         21   -1    0    0  501  502  0.00000000000E+00  0.00000000000E+00  0.16160917307E+03  0.16160917307E+03  0.00000000000E+00 0. -1.
          2   -1    0    0  503    0 -0.00000000000E+00 -0.00000000000E+00 -0.89790542289E+03  0.89790542289E+03  0.00000000000E+00 0. -1.
         23    2    1    2    0    0  0.23692377316E+03 -0.29618460570E+02 -0.39707036016E+03  0.47251490071E+03  0.92711018631E+02 0.  0.
         23    2    1    2    0    0 -0.56211707200E+02 -0.12485217247E+02 -0.28344387488E+03  0.30351245637E+03  0.91998610254E+02 0.  0.
        -11    1    4    4    0    0  0.42953659722E+01  0.31190622064E+02 -0.11591765393E+03  0.12011747403E+03  0.00000000000E+00 0.  1.
         11    1    4    4    0    0 -0.60507073172E+02 -0.43675839311E+02 -0.16752622095E+03  0.18339498234E+03  0.00000000000E+00 0. -1.
        -11    1    3    3    0    0  0.20456391687E+03 -0.54559823017E+02 -0.35838994959E+03  0.41625295955E+03  0.00000000000E+00 0. -1.
         11    1    3    3    0    0  0.32359856299E+02  0.24941362447E+02 -0.38680410573E+02  0.56261941154E+02  0.00000000000E+00 0.  1.
         21    1    1    2  503  502 -0.13760623930E+03 -0.61254876747E+02  0.14423910585E+02  0.15131320569E+03  0.00000000000E+00 0. -1.
          2    1    1    2  501    0 -0.43105826662E+02  0.10335855456E+03 -0.70205925360E+02  0.13217403319E+03  0.00000000000E+00 0. -1.
<scales pt_clust_5="13000.00000" pt_clust_6="13000.00000" pt_clust_7="13000.00000" pt_clust_8="13000.00000" pt_clust_9="150.62416" pt_clust_10="13000.00000"></scales>
<clustering>
<clus scale="   91.999">  5  6 -1 -1</clus>
<clus scale="   92.711">  7  8 -1 -1</clus>
<clus scale="  111.987">  5 10 -1 -1</clus>
<clus scale="  150.624">  1  9  2 -1</clus>
<clus scale="  203.257">  2  7  1 -1</clus>
<clus scale="  150.624">  1  5  2 -1</clus>
</clustering>
</event>
<event>
10    2  0.5692308E-006  0.2642703E+03  0.7546771E-02  0.1128574E+00
         21   -1    0    0  501  502  0.00000000000E+00  0.00000000000E+00  0.10683980888E+03  0.10683980888E+03  0.00000000000E+00 0. -1.
          2   -1    0    0  503    0 -0.00000000000E+00 -0.00000000000E+00 -0.69904619361E+03  0.69904619361E+03  0.00000000000E+00 0. -1.
         23    2    1    2    0    0 -0.88210579026E+02  0.52350660646E+02 -0.12423665782E+03  0.18447759545E+03  0.89863998096E+02 0.  0.
         23    2    1    2    0    0  0.15758119942E+02  0.46481302745E+02 -0.34618025806E+03  0.36131103996E+03  0.91082746347E+02 0.  0.
        -11    1    3    3    0    0 -0.34392984363E+01 -0.22068250357E+02 -0.12015766261E+02  0.25361685401E+02  0.00000000000E+00 0.  1.
         11    1    3    3    0    0 -0.84771280590E+02  0.74418911003E+02 -0.11222089156E+03  0.15911591005E+03  0.00000000000E+00 0. -1.
        -13    1    4    4    0    0 -0.11743882897E+02 -0.23333894804E+02 -0.59666851351E+02  0.65134649630E+02  0.00000000000E+00 0. -1.
         13    1    4    4    0    0  0.27502002839E+02  0.69815197549E+02 -0.28651340671E+03  0.29617639033E+03  0.00000000000E+00 0.  1.
         21    1    1    2  503  502 -0.25334167294E+02  0.90807594771E+00  0.39373158801E+02  0.46828306272E+02  0.00000000000E+00 0. -1.
          2    1    1    2  501    0  0.97786626378E+02 -0.99740039338E+02 -0.16116262765E+03  0.21326906081E+03  0.00000000000E+00 0. -1.
<scales pt_clust_5="13000.00000" pt_clust_6="13000.00000" pt_clust_7="13000.00000" pt_clust_8="13000.00000" pt_clust_9="25.35044" pt_clust_10="13000.00000"></scales>
<clustering>
<clus scale="   25.350">  1  9  2 -1</clus>
<clus scale="   89.864">  5  6 -1 -1</clus>
<clus scale="   91.083">  7  8 -1 -1</clus>
<clus scale="  132.357">  7 10 -1 -1</clus>
<clus scale="  144.561">  2  5  1 -1</clus>
<clus scale="   25.350">  1  5  2 -1</clus>
</clustering>
</event>
<event>
10    2  0.5692308E-006  0.1490482E+03  0.7546771E-02  0.1220473E+00
          1   -1    0    0  503    0 -0.00000000000E+00  0.00000000000E+00  0.42327671661E+03  0.42327671661E+03  0.00000000000E+00 0. -1.
         21   -1    0    0  501  502  0.00000000000E+00 -0.00000000000E+00 -0.62995385149E+02  0.62995385149E+02  0.00000000000E+00 0. -1.
         23    2    1    2    0    0  0.20207413118E+02 -0.12793422403E+02  0.13226482368E+03  0.16448277703E+03  0.94808170303E+02 0.  0.
         23    2    1    2    0    0 -0.28586408651E+01 -0.25989905487E+02  0.20023890734E+03  0.22128152523E+03  0.90477877859E+02 0.  0.
        -13    1    4    4    0    0 -0.10219029285E+01 -0.51210792232E+02  0.60489583928E+02  0.79262723208E+02  0.00000000000E+00 0. -1.
         13    1    4    4    0    0 -0.18367379366E+01  0.25220886744E+02  0.13974932341E+03  0.14201880202E+03  0.00000000000E+00 0.  1.
        -13    1    3    3    0    0 -0.30065970692E+02  0.14488078751E+02  0.21155372680E+02  0.39514767022E+02  0.00000000000E+00 0.  1.
         13    1    3    3    0    0  0.50273383810E+02 -0.27281501155E+02  0.11110945100E+03  0.12496801001E+03  0.00000000000E+00 0. -1.
         21    1    1    2  503  502  0.21422849643E+02  0.62911865382E+01 -0.20697337663E+02  0.30444988113E+02  0.00000000000E+00 0. -1.
          1    1    1    2  501    0 -0.38771621896E+02  0.32492141352E+02  0.48474938106E+02  0.70062811381E+02  0.00000000000E+00 0. -1.
<scales pt_clust_5="13000.00000" pt_clust_6="13000.00000" pt_clust_7="13000.00000" pt_clust_8="13000.00000" pt_clust_9="22.32751" pt_clust_10="13000.00000"></scales>
<clustering>
<clus scale="   22.328">  2  9  1 -1</clus>
<clus scale="   90.478">  5  6 -1 -1</clus>
<clus scale="   47.321">  5 10 -1 -1</clus>
<clus scale="   94.808">  7  8 -1 -1</clus>
<clus scale="   99.782">  1  7  2 -1</clus>
<clus scale="   22.328">  2  5  1 -1</clus>
</clustering>
</event>
<event>
10    2  0.5692308E-006  0.1683819E+03  0.7546771E-02  0.1197149E+00
         21   -1    0    0  503  502  0.00000000000E+00  0.00000000000E+00  0.25580365907E+02  0.25580365907E+02  0.00000000000E+00 0.  1.
         -1   -1    0    0    0  501 -0.00000000000E+00 -0.00000000000E+00 -0.98075806726E+03  0.98075806726E+03  0.00000000000E+00 0.  1.
         23    2    1    2    0    0 -0.50942541657E+02  0.25340412030E+02 -0.27224670025E+03  0.29259468064E+03  0.90863096515E+02 0.  0.
         23    2    1    2    0    0  0.15385613537E+02 -0.57304520220E+02 -0.52025170397E+03  0.53143984007E+03  0.90807174779E+02 0.  0.
        -11    1    3    3    0    0 -0.62678979233E+02 -0.11618182623E+02 -0.20803397832E+03  0.21758164615E+03  0.00000000000E+00 0.  1.
         11    1    3    3    0    0  0.11736437575E+02  0.36958594653E+02 -0.64212721932E+02  0.75013034491E+02  0.00000000000E+00 0. -1.
        -13    1    4    4    0    0  0.37377658221E+02  0.87410064472E+01 -0.20940048214E+03  0.21288977535E+03  0.00000000000E+00 0. -1.
         13    1    4    4    0    0 -0.21992044684E+02 -0.66045526667E+02 -0.31085122184E+03  0.31855006473E+03  0.00000000000E+00 0.  1.
         21    1    1    2  503  501 -0.15332906144E+02  0.26345827463E+02 -0.71636222591E+02  0.77852097098E+02  0.00000000000E+00 0. -1.
         -1    1    1    2    0  502  0.50889834264E+02  0.56182807268E+01 -0.91043074544E+02  0.10445181536E+03  0.00000000000E+00 0.  1.
<scales pt_clust_5="13000.00000" pt_clust_6="13000.00000" pt_clust_7="13000.00000" pt_clust_8="13000.00000" pt_clust_9="30.48279" pt_clust_10="13000.00000"></scales>
<clustering>
<clus scale="   30.483">  1  9  2 -1</clus>
<clus scale="   90.807">  7  8 -1 -1</clus>
<clus scale="   48.237">  7 10 -1 -1</clus>
<clus scale="   90.863">  5  6 -1 -1</clus>
<clus scale="  113.998">  2  5  1 -1</clus>
<clus scale="   30.483">  1  5  2 -1</clus>
</clustering>
</event>
<event>
10    2  0.5692308E-006  0.3020700E+03  0.7546771E-02  0.1123950E+00
         -3   -1    0    0    0  501 -0.00000000000E+00  0.00000000000E+00  0.57019092958E+03  0.57019092958E+03  0.00000000000E+00 0.  1.
         21   -1    0    0  501  502  0.00000000000E+00 -0.00000000000E+00 -0.51153533728E+03  0.51153533728E+03  0.00000000000E+00 0.  1.
         23    2    1    2    0    0 -0.52000878297E+02 -0.25334781871E+02  0.18559910993E+03  0.21499866961E+03  0.91822959050E+02 0.  0.
         23    2    1    2    0    0  0.73518843571E+02 -0.11157684089E+03  0.15787049703E+03  0.22558274035E+03  0.90055911125E+02 0.  0.
        -11    1    3    3    0    0 -0.28694764025E+02 -0.60043399236E+02  0.10809104957E+03  0.12693413360E+03  0.00000000000E+00 0.  1.
         11    1    3    3    0    0 -0.23306114271E+02  0.34708617365E+02  0.77508060359E+02  0.88064536009E+02  0.00000000000E+00 0. -1.
        -11    1    4    4    0    0 -0.24294016950E+01 -0.71086074011E+02  0.96477762475E+02  0.11986279891E+03  0.00000000000E+00 0.  1.
         11    1    4    4    0    0  0.75948245266E+02 -0.40490766877E+02  0.61392734551E+02  0.10571994143E+03  0.00000000000E+00 0. -1.
         21    1    1    2  503  502 -0.17966292001E+03  0.90798119576E+02 -0.39473907881E+03  0.44310495786E+03  0.00000000000E+00 0.  1.
         -3    1    1    2    0  503  0.15814495474E+03  0.46113503183E+02  0.10992506414E+03  0.19803989904E+03  0.00000000000E+00 0.  1.
<scales pt_clust_5="13000.00000" pt_clust_6="13000.00000" pt_clust_7="13000.00000" pt_clust_8="13000.00000" pt_clust_9="203.61284" pt_clust_10="13000.00000"></scales>
<clustering>
<clus scale="   90.056">  7  8 -1 -1</clus>
<clus scale="   91.823">  5  6 -1 -1</clus>
<clus scale="  108.524">  1  5  2 -1</clus>
<clus scale="  141.055">  7 10 -1 -1</clus>
<clus scale="  203.613">  2  9  1 -1</clus>
<clus scale="  203.613">  2  5  1 -1</clus>
</clustering>
</event>
<event>
10    2  0.5692308E-006  0.2481326E+03  0.7546771E-02  0.1138832E+00
         -3   -1    0    0    0  501 -0.00000000000E+00  0.00000000000E+00  0.30566130257E+03  0.30566130257E+03  0.00000000000E+00 0.  1.
         21   -1    0    0  503  502  0.00000000000E+00 -0.00000000000E+00 -0.37968436065E+03  0.37968436065E+03  0.00000000000E+00 0.  1.
         23    2    1    2    0    0 -0.10045850153E+03  0.50475099666E+01  0.15956698559E+03  0.20964399872E+03  0.91496423004E+02 0.  0.
         23    2    1    2    0    0 -0.50440189933E+02 -0.51590195802E+00 -0.11276327701E+03  0.15390150766E+03  0.91791276833E+02 0.  0.
        -11    1    4    4    0    0 -0.50859066215E+02 -0.21110764397E+02 -0.12002958650E+03  0.13205836068E+03  0.00000000000E+00 0.  1.
         11    1    4    4    0    0  0.41887628145E+00  0.20594862439E+02  0.72663094950E+01  0.21843146978E+02  0.00000000000E+00 0. -1.
        -13    1    3    3    0    0 -0.16238736994E+02 -0.19145450631E+02  0.10141925465E+03  0.10448018986E+03  0.00000000000E+00 0.  1.
         13    1    3    3    0    0 -0.84219764539E+02  0.24192960597E+02  0.58147730944E+02  0.10516380887E+03  0.00000000000E+00 0. -1.
         21    1    1    2  503  501  0.18126209482E+03 -0.16286081917E+02 -0.17891501075E+03  0.25520925641E+03  0.00000000000E+00 0.  1.
         -3    1    1    2    0  502 -0.30363403356E+02  0.11754473908E+02  0.58088244088E+02  0.66590900440E+02  0.00000000000E+00 0.  1.
<scales pt_clust_5="13000.00000" pt_clust_6="13000.00000" pt_clust_7="13000.00000" pt_clust_8="13000.00000" pt_clust_9="150.32562" pt_clust_10="13000.00000"></scales>
<clustering>
<clus scale="   91.496">  7  8 -1 -1</clus>
<clus scale="   91.791">  5  6 -1 -1</clus>
<clus scale="   32.559">  5 10 -1 -1</clus>
<clus scale="  135.974">  1  7  2 -1</clus>
<clus scale="  150.326">  2  9  1 -1</clus>
<clus scale="  150.326">  2  5  1 -1</clus>
</clustering>
</event>
<event>
10    2  0.5692308E-006  0.2564048E+03  0.7546771E-02  0.1137756E+00
         21   -1    0    0  501  502  0.00000000000E+00  0.00000000000E+00  0.27247590936E+03  0.27247590936E+03  0.00000000000E+00 0.  1.
          1   -1    0    0  503    0 -0.00000000000E+00 -0.00000000000E+00 -0.19317233081E+03  0.19317233081E+03  0.00000000000E+00 0. -1.
         23    2    1    2    0    0 -0.91251095066E+02  0.54310101908E+02  0.28521594171E+02  0.14251153185E+03  0.90662593480E+02 0.  0.
         23    2    1    2    0    0  0.32598433004E+02 -0.70976344860E+02  0.77109219014E+02  0.14598181831E+03  0.96252585719E+02 0.  0.
        -11    1    3    3    0    0 -0.98704338354E+01  0.54143446783E+02 -0.32901177508E+01  0.55134047271E+02  0.00000000000E+00 0. -1.
         11    1    3    3    0    0 -0.81380661230E+02  0.16665512502E+00  0.31811711921E+02  0.87377484580E+02  0.00000000000E+00 0.  1.
        -13    1    4    4    0    0  0.42405204626E+02 -0.47916969407E+02  0.95461271456E+02  0.11492211138E+03  0.00000000000E+00 0.  1.
         13    1    4    4    0    0 -0.98067716220E+01 -0.23059375453E+02 -0.18352052442E+02  0.31059706933E+02  0.00000000000E+00 0. -1.
         21    1    1    2  503  502  0.22883039331E+02 -0.56763965071E+02  0.38993202743E+02  0.72568940186E+02  0.00000000000E+00 0.  1.
          1    1    1    2  501    0  0.35769622731E+02  0.73430208023E+02 -0.65320437377E+02  0.10458594982E+03  0.00000000000E+00 0. -1.
<scales pt_clust_5="13000.00000" pt_clust_6="13000.00000" pt_clust_7="13000.00000" pt_clust_8="13000.00000" pt_clust_9="61.20279" pt_clust_10="13000.00000"></scales>
<clustering>
<clus scale="   61.203">  1  9  2 -1</clus>
<clus scale="   90.663">  5  6 -1 -1</clus>
<clus scale="   96.253">  7  8 -1 -1</clus>
<clus scale="   78.072">  7 10 -1 -1</clus>
<clus scale="  126.484">  2  5  1 -1</clus>
<clus scale="   61.203">  1  5  2 -1</clus>
</clustering>
</event>
<event>
10    2  0.5692308E-006  0.3571299E+03  0.7546771E-02  0.1100071E+00
         21   -1    0    0  501  502  0.00000000000E+00  0.00000000000E+00  0.18967548639E+03  0.18967548639E+03  0.00000000000E+00 0.  1.
          1   -1    0    0  503    0 -0.00000000000E+00 -0.00000000000E+00 -0.87508725148E+03  0.87508725148E+03  0.00000000000E+00 0. -1.
         23    2    1    2    0    0 -0.75044092524E+02 -0.21590209262E+02 -0.95787326855E+02  0.15384349315E+03  0.91623443717E+02 0.  0.
         23    2    1    2    0    0 -0.15755069324E+03 -0.79318468882E+02 -0.42337034121E+03  0.46760366994E+03  0.91088450875E+02 0.  0.
        -11    1    4    4    0    0 -0.12155571508E+03 -0.89899493295E+02 -0.26737151052E+03  0.30715669519E+03  0.00000000000E+00 0.  1.
         11    1    4    4    0    0 -0.35994978156E+02  0.10581024414E+02 -0.15599883069E+03  0.16044697475E+03  0.00000000000E+00 0. -1.
        -11    1    3    3    0    0 -0.46818945369E+02 -0.57428104536E+02 -0.51270015178E+02  0.90103358940E+02  0.00000000000E+00 0.  1.
         11    1    3    3    0    0 -0.28225147155E+02  0.35837895274E+02 -0.44517311677E+02  0.63740134205E+02  0.00000000000E+00 0. -1.
         21    1    1    2  503  502  0.91108319511E+02  0.10170248849E+03  0.80767394475E+02  0.15864266154E+03  0.00000000000E+00 0.  1.
          1    1    1    2  501    0  0.14148646625E+03 -0.79381034647E+00 -0.24702149151E+03  0.28467291325E+03  0.00000000000E+00 0. -1.
<scales pt_clust_5="13000.00000" pt_clust_6="13000.00000" pt_clust_7="13000.00000" pt_clust_8="13000.00000" pt_clust_9="133.12762" pt_clust_10="13000.00000"></scales>
<clustering>
<clus scale="   91.088">  5  6 -1 -1</clus>
<clus scale="   91.623">  7  8 -1 -1</clus>
<clus scale="  120.385">  2  7  1 -1</clus>
<clus scale="  115.206">  5 10 -1 -1</clus>
<clus scale="  133.128">  1  9  2 -1</clus>
<clus scale="  133.128">  1  5  2 -1</clus>
</clustering>
</event>
<event>
10    2  0.5692308E-006  0.2309223E+03  0.7546771E-02  0.1157159E+00
         21   -1    0    0  501  502  0.00000000000E+00  0.00000000000E+00  0.65803141689E+02  0.65803141689E+02  0.00000000000E+00 0. -1.
          2   -1    0    0  503    0 -0.00000000000E+00 -0.00000000000E+00 -0.80482723440E+03  0.80482723440E+03  0.00000000000E+00 0. -1.
         23    2    1    2    0    0  0.49053644256E+02 -0.23081690920E+02 -0.39043195868E+03  0.40558922414E+03  0.95532611737E+02 0.  0.
         23    2    1    2    0    0  0.80588678394E+01  0.17770544938E+02 -0.33679366171E+03  0.35024584599E+03  0.94135245503E+02 0.  0.
        -11    1    4    4    0    0 -0.32781398048E+02 -0.16520340710E+02 -0.20159844868E+03  0.20491333833E+03  0.00000000000E+00 0.  1.
         11    1    4    4    0    0  0.40840265887E+02  0.34290885648E+02 -0.13519521303E+03  0.14533250766E+03  0.00000000000E+00 0. -1.
        -11    1    3    3    0    0  0.20359929499E+02 -0.58553318750E+02 -0.18354213262E+03  0.19372850155E+03  0.00000000000E+00 0.  1.
         11    1    3    3    0    0  0.28693714756E+02  0.35471627830E+02 -0.20688982606E+03  0.21186072259E+03  0.00000000000E+00 0. -1.
         21    1    1    2  503  502  0.63922279800E+01  0.39244126975E+02  0.70162221193E+01  0.40375604682E+02  0.00000000000E+00 0. -1.
          2    1    1    2  501    0 -0.63504740075E+02 -0.33932980993E+02 -0.18814694429E+02  0.74419701273E+02  0.00000000000E+00 0. -1.
<scales pt_clust_5="13000.00000" pt_clust_6="13000.00000" pt_clust_7="13000.00000" pt_clust_8="13000.00000" pt_clust_9="39.76131" pt_clust_10="13000.00000"></scales>
<clustering>
<clus scale="   39.761">  1  9  2 -1</clus>
<clus scale="   94.135">  5  6 -1 -1</clus>
<clus scale="   59.824">  5 10 -1 -1</clus>
<clus scale="   95.533">  7  8 -1 -1</clus>
<clus scale="  109.103">  2  7  1 -1</clus>
<clus scale="   39.761">  1  5  2 -1</clus>
</clustering>
</event>
<event>
10    2  0.5692308E-006  0.1414049E+03  0.7546771E-02  0.1225169E+00
          1   -1    0    0  502    0 -0.00000000000E+00  0.00000000000E+00  0.68635433595E+03  0.68635433595E+03  0.00000000000E+00 0. -1.
         21   -1    0    0  503  502  0.00000000000E+00 -0.00000000000E+00 -0.49472396039E+02  0.49472396039E+02  0.00000000000E+00 0.  1.
         23    2    1    2    0    0 -0.45015752627E+01 -0.58360620637E+02  0.35549188921E+03  0.37079315588E+03  0.87674710941E+02 0.  0.
         23    2    1    2    0    0  0.52936553348E+01  0.38223381117E+02  0.22805392181E+03  0.25302048976E+03  0.10257547141E+03 0.  0.
        -11    1    3    3    0    0  0.65569531528E+01 -0.79675595420E+02  0.29681649371E+03  0.30739425023E+03  0.00000000000E+00 0. -1.
         11    1    3    3    0    0 -0.11058528415E+02  0.21314974784E+02  0.58675395500E+02  0.63398905651E+02  0.00000000000E+00 0.  1.
        -13    1    4    4    0    0  0.84469873280E+01  0.62346313624E+02  0.21764992580E+03  0.22656103949E+03  0.00000000000E+00 0. -1.
         13    1    4    4    0    0 -0.31533319932E+01 -0.24122932507E+02  0.10403996014E+02  0.26459450267E+02  0.00000000000E+00 0.  1.
         21    1    1    2  503  501  0.24000358502E+02 -0.31275825198E+01 -0.19858590200E+02  0.31307548377E+02  0.00000000000E+00 0.  1.
          1    1    1    2  501    0 -0.24792438574E+02  0.23264822039E+02  0.73194719094E+02  0.80705537965E+02  0.00000000000E+00 0. -1.
<scales pt_clust_5="13000.00000" pt_clust_6="13000.00000" pt_clust_7="13000.00000" pt_clust_8="13000.00000" pt_clust_9="24.20328" pt_clust_10="13000.00000"></scales>
<clustering>
<clus scale="   24.203">  2  9  1 -1</clus>
<clus scale="   87.675">  5  6 -1 -1</clus>
<clus scale="  102.575">  7  8 -1 -1</clus>
<clus scale="   30.991">  7 10 -1 -1</clus>
<clus scale="  105.929">  1  5  2 -1</clus>
<clus scale="   24.203">  2  5  1 -1</clus>
</clustering>
</event>
<event>
10    2  0.5692308E-006  0.4009349E+03  0.7546771E-02  0.1096442E+00
         -2   -1    0    0    0  501 -0.00000000000E+00  0.00000000000E+00  0.19110985239E+03  0.19110985239E+03  0.00000000000E+00 0.  1.
         21   -1    0    0  503  502  0.00000000000E+00 -0.00000000000E+00 -0.82355915311E+03  0.82355915311E+03  0.00000000000E+00 0.  1.
         23    2    1    2    0    0 -0.65338088022E+01  0.15992944885E+02  0.76300166604E+02  0.12110165743E+03  0.92441500767E+02 0.  0.
         23    2    1    2    0    0  0.10050341821E+03 -0.11180963074E+03 -0.84644002275E+02  0.19402020084E+03  0.88751904864E+02 0.  0.
        -11    1    3    3    0    0 -0.39866139318E+02 -0.11126320811E+02  0.10819529777E+02  0.42780443003E+02  0.00000000000E+00 0.  1.
         11    1    3    3    0    0  0.33332330516E+02  0.27119265696E+02  0.65480636827E+02  0.78321214424E+02  0.00000000000E+00 0. -1.
        -13    1    4    4    0    0  0.15183983687E+01 -0.63113267418E+02 -0.41598878391E+02  0.75604607936E+02  0.00000000000E+00 0. -1.
         13    1    4    4    0    0  0.98985019842E+02 -0.48696363319E+02 -0.43045123884E+02  0.11841559291E+03  0.00000000000E+00 0.  1.
         21    1    1    2  503  501  0.50489665900E+02 -0.55196123236E+02 -0.33236808272E+03  0.34068219912E+03  0.00000000000E+00 0.  1.
         -2    1    1    2    0  502 -0.14445927531E+03  0.15101280909E+03 -0.29173738233E+03  0.35886494811E+03  0.00000000000E+00 0.  1.
<scales pt_clust_5="13000.00000" pt_clust_6="13000.00000" pt_clust_7="13000.00000" pt_clust_8="13000.00000" pt_clust_9="74.80520" pt_clust_10="13000.00000"></scales>
<clustering>
<clus scale="   74.805">  2  9  1 -1</clus>
<clus scale="   88.752">  7  8 -1 -1</clus>
<clus scale="   92.442">  5  6 -1 -1</clus>
<clus scale="   93.510">  1  5  2 -1</clus>
<clus scale="  162.324">  7 10 -1 -1</clus>
<clus scale="   74.805">  2  5  1 -1</clus>
</clustering>
</event>
<event>
10    2  0.5692308E-006  0.2899044E+03  0.7546771E-02  0.1099431E+00
         -3   -1    0    0    0  501 -0.00000000000E+00  0.00000000000E+00  0.39292132905E+03  0.39292132905E+03  0.00000000000E+00 0.  1.
         21   -1    0    0  503  502  0.00000000000E+00 -0.00000000000E+00 -0.50141827632E+03  0.50141827632E+03  0.00000000000E+00 0.  1.
         23    2    1    2    0    0  0.11159375860E+02 -0.21453306944E+03  0.25468766710E+03  0.34512695390E+03  0.89987982447E+02 0.  0.
         23    2    1    2    0    0 -0.29053800120E+02  0.12377725482E+03 -0.15909532184E+02  0.15945901747E+03  0.94916452349E+02 0.  0.
        -11    1    3    3    0    0 -0.33084663871E+01 -0.18100724958E+03  0.15282631346E+03  0.23691866206E+03  0.00000000000E+00 0.  1.
         11    1    3    3    0    0  0.14467842247E+02 -0.33525819860E+02  0.10186135364E+03  0.10820829184E+03  0.00000000000E+00 0. -1.
        -13    1    4    4    0    0 -0.41715566513E+02  0.91173879678E+01 -0.10515950002E+02  0.43976135088E+02  0.00000000000E+00 0.  1.
         13    1    4    4    0    0  0.12661766393E+02  0.11465986685E+03 -0.53935821822E+01  0.11548288238E+03  0.00000000000E+00 0. -1.
         21    1    1    2  503  501 -0.51214342141E+02  0.24057826143E+02 -0.23633665469E+03  0.24301584761E+03  0.00000000000E+00 0.  1.
         -3    1    1    2    0  502  0.69108766401E+02  0.66697988471E+02 -0.11093842750E+03  0.14673778640E+03  0.00000000000E+00 0.  1.
<scales pt_clust_5="13000.00000" pt_clust_6="13000.00000" pt_clust_7="13000.00000" pt_clust_8="13000.00000" pt_clust_9="56.58346" pt_clust_10="13000.00000"></scales>
<clustering>
<clus scale="   56.583">  2  9  1 -1</clus>
<clus scale="   89.988">  5  6 -1 -1</clus>
<clus scale="   94.916">  7  8 -1 -1</clus>
<clus scale="   89.976">  7 10 -1 -1</clus>
<clus scale="  228.826">  1  5  2 -1</clus>
<clus scale="   56.583">  2  5  1 -1</clus>
</clustering>
</event>
<event>
10    2  0.5692308E-006  0.3011327E+03  0.7546771E-02  0.1118524E+00
         21   -1    0    0  501  502  0.00000000000E+00  0.00000000000E+00  0.55412346843E+03  0.55412346843E+03  0.00000000000E+00 0. -1.
          2   -1    0    0  503    0 -0.00000000000E+00 -0.00000000000E+00 -0.11136626175E+03  0.11136626175E+03  0.00000000000E+00 0. -1.
         23    2    1    2    0    0  0.35260346765E+02 -0.62569396446E+02  0.16467521191E+03  0.20142721797E+03  0.91086647186E+02 0.  0.
         23    2    1    2    0    0 -0.37370696747E+01 -0.34216150497E+02 -0.24536399522E+02  0.99849182247E+02  0.90460564056E+02 0.  0.
        -11    1    4    4    0    0 -0.45462823492E+02 -0.26211370059E+02 -0.23103829612E+02  0.57338391876E+02  0.00000000000E+00 0. -1.
         11    1    4    4    0    0  0.41725753817E+02 -0.80047804373E+01 -0.14325699100E+01  0.42510790371E+02  0.00000000000E+00 0.  1.
        -11    1    3    3    0    0  0.64845567478E+02 -0.42049081116E+02  0.90749425769E+02  0.11919954329E+03  0.00000000000E+00 0. -1.
         11    1    3    3    0    0 -0.29585220713E+02 -0.20520315330E+02  0.73925786139E+02  0.82227674673E+02  0.00000000000E+00 0.  1.
         21    1    1    2  503  502 -0.23263277818E+02 -0.50172515397E+02  0.76069931905E+02  0.94048370194E+02  0.00000000000E+00 0.  1.
          2    1    1    2  501    0 -0.82599992724E+01  0.14695806234E+03  0.22654846240E+03  0.27016495977E+03  0.00000000000E+00 0. -1.
<scales pt_clust_5="13000.00000" pt_clust_6="13000.00000" pt_clust_7="13000.00000" pt_clust_8="13000.00000" pt_clust_9="55.30336" pt_clust_10="13000.00000"></scales>
<clustering>
<clus scale="   55.303">  1  9  2 -1</clus>
<clus scale="   90.461">  5  6 -1 -1</clus>
<clus scale="   91.087">  7  8 -1 -1</clus>
<clus scale="  122.139">  5 10 -1 -1</clus>
<clus scale="  125.422">  2  7  1 -1</clus>
<clus scale="   55.303">  1  5  2 -1</clus>
</clustering>
</event>
<event>
10    2  0.5692308E-006  0.7346235E+03  0.7546771E-02  0.1014275E+00
         21   -1    0    0  503  502  0.00000000000E+00  0.00000000000E+00  0.13769369200E+03  0.13769369200E+03  0.00000000000E+00 0. -1.
         -1   -1    0    0    0  501 -0.00000000000E+00 -0.00000000000E+00 -0.15961257678E+04  0.15961257678E+04  0.00000000000E+00 0.  1.
         23    2    1    2    0    0  0.51183965952E+02 -0.11869269703E+03 -0.30921835453E+03  0.34661603067E+03  0.88424698139E+02 0.  0.
         23    2    1    2    0    0  0.18541580873E+03  0.36128849787E+03 -0.68867587203E+03  0.80473483657E+03  0.91734942371E+02 0.  0.
        -11    1    4    4    0    0  0.10476794049E+03  0.11575590746E+03 -0.22428879403E+03  0.27327863911E+03  0.00000000000E+00 0.  1.
         11    1    4    4    0    0  0.80647868240E+02  0.24553259041E+03 -0.46438707801E+03  0.53145619746E+03  0.00000000000E+00 0. -1.
        -13    1    3    3    0    0 -0.98553486593E+01 -0.47529542868E+02 -0.44748836821E+02  0.66020025290E+02  0.00000000000E+00 0. -1.
         13    1    3    3    0    0  0.61039314611E+02 -0.71163154162E+02 -0.26446951771E+03  0.28059600538E+03  0.00000000000E+00 0.  1.
         21    1    1    2  503  501 -0.32737651365E+02 -0.15033889089E+01 -0.14123136520E+02  0.35685809228E+02  0.00000000000E+00 0.  1.
         -1    1    1    2    0  502 -0.20386212331E+03 -0.24109241193E+03 -0.44641471271E+03  0.54678278332E+03  0.00000000000E+00 0.  1.
<scales pt_clust_5="13000.00000" pt_clust_6="13000.00000" pt_clust_7="13000.00000" pt_clust_8="13000.00000" pt_clust_9="32.77215" pt_clust_10="13000.00000"></scales>
<clustering>
<clus scale="   32.772">  1  9  2 -1</clus>
<clus scale="   88.425">  7  8 -1 -1</clus>
<clus scale="   91.735">  5  6 -1 -1</clus>
<clus scale="  155.270">  2  7  1 -1</clus>
<clus scale="  352.389">  5 10 -1 -1</clus>
<clus scale="   32.772">  1  5  2 -1</clus>
</clustering>
</event>
<event>
10    2  0.5692308E-006  0.2575280E+03  0.7546771E-02  0.1113073E+00
         21   -1    0    0  503  502  0.00000000000E+00  0.00000000000E+00  0.22283117157E+03  0.22283117157E+03  0.00000000000E+00 0.  1.
          1   -1    0    0  502    0 -0.00000000000E+00 -0.00000000000E+00 -0.12046013513E+04  0.12046013513E+04  0.00000000000E+00 0. -1.
         23    2    1    2    0    0  0.32458564862E+02  0.16290423801E+03 -0.21689005618E+03  0.28776840748E+03  0.90432354156E+02 0.  0.
         23    2    1    2    0    0  0.31803250086E+01 -0.21785474153E+03 -0.90289406505E+03  0.93339987814E+03  0.92449104636E+02 0.  0.
        -11    1    4    4    0    0 -0.39277602087E+02 -0.95186864212E+02 -0.31726983136E+03  0.33356171099E+03  0.00000000000E+00 0.  1.
         11    1    4    4    0    0  0.42457927096E+02 -0.12266787732E+03 -0.58562423369E+03  0.59983816716E+03  0.00000000000E+00 0. -1.
        -13    1    3    3    0    0 -0.26894126228E+02  0.89483600541E+02 -0.91181433428E+02  0.13055520899E+03  0.00000000000E+00 0. -1.
         13    1    3    3    0    0  0.59352691090E+02  0.73420637471E+02 -0.12570862275E+03  0.15721319849E+03  0.00000000000E+00 0.  1.
         21    1    1    2  503  501 -0.25956417605E+02  0.76356198635E+02  0.15670674088E+03  0.17624133262E+03  0.00000000000E+00 0.  1.
          1    1    1    2  501    0 -0.96824722656E+01 -0.21405695116E+02 -0.18692799356E+02  0.30022904595E+02  0.00000000000E+00 0. -1.
<scales pt_clust_5="13000.00000" pt_clust_6="13000.00000" pt_clust_7="13000.00000" pt_clust_8="13000.00000" pt_clust_9="80.64741" pt_clust_10="13000.00000"></scales>
<clustering>
<clus scale="   80.647">  1  9  2 -1</clus>
<clus scale="   90.432">  7  8 -1 -1</clus>
<clus scale="   92.449">  5  6 -1 -1</clus>
<clus scale="   18.428">  5 10 -1 -1</clus>
<clus scale="  230.055">  2  7  1 -1</clus>
<clus scale="   80.647">  1  5  2 -1</clus>
</clustering>
</event>
<event>
10    2  0.5692308E-006  0.1289771E+03  0.7546771E-02  0.1233446E+00
          1   -1    0    0  503    0 -0.00000000000E+00  0.00000000000E+00  0.11323985149E+03  0.11323985149E+03  0.00000000000E+00 0. -1.
         21   -1    0    0  501  502  0.00000000000E+00 -0.00000000000E+00 -0.26312993755E+03  0.26312993755E+03  0.00000000000E+00 0. -1.
         23    2    1    2    0    0 -0.53620360668E+02  0.32447801176E+02 -0.18836385974E+02  0.11199434490E+03  0.90884107382E+02 0.  0.
         23    2    1    2    0    0  0.48832646108E+02 -0.21054359012E+02 -0.10520421579E+02  0.10218251053E+03  0.86617970584E+02 0.  0.
        -11    1    3    3    0    0 -0.64063190987E+01 -0.28582814941E+02 -0.18849579045E+02  0.34832813044E+02  0.00000000000E+00 0. -1.
         11    1    3    3    0    0 -0.47214041569E+02  0.61030616117E+02  0.13193071448E-01  0.77161531860E+02  0.00000000000E+00 0.  1.
        -13    1    4    4    0    0  0.36531542473E+02  0.30244443804E+02 -0.13604881166E+02  0.49339363271E+02  0.00000000000E+00 0.  1.
         13    1    4    4    0    0  0.12301103635E+02 -0.51298802816E+02  0.30844595863E+01  0.52843147256E+02  0.00000000000E+00 0. -1.
         21    1    1    2  503  502 -0.26637848350E+02  0.41971814729E+01 -0.12404025555E+03  0.12693768666E+03  0.00000000000E+00 0. -1.
          1    1    1    2  501    0  0.31425562910E+02 -0.15590623637E+02  0.35069770395E+01  0.35255246950E+02  0.00000000000E+00 0. -1.
<scales pt_clust_5="13000.00000" pt_clust_6="13000.00000" pt_clust_7="13000.00000" pt_clust_8="13000.00000" pt_clust_9="26.96648" pt_clust_10="13000.00000"></scales>
<clustering>
<clus scale="   26.966">  2  9  1 -1</clus>
<clus scale="   86.618">  7  8 -1 -1</clus>
<clus scale="   32.127">  7 10 -1 -1</clus>
<clus scale="   90.884">  5  6 -1 -1</clus>
<clus scale="  117.641">  1  5  2 -1</clus>
<clus scale="   26.966">  2  5  1 -1</clus>
</clustering>
</event>
<event>
10    2  0.5692308E-006  0.2463096E+03  0.7546771E-02  0.1141702E+00
          1   -1    0    0  502    0 -0.00000000000E+00  0.00000000000E+00  0.67796081143E+03  0.67796081143E+03  0.00000000000E+00 0. -1.
         21   -1    0    0  503  502  0.00000000000E+00 -0.00000000000E+00 -0.29502621577E+03  0.29502621577E+03  0.00000000000E+00 0.  1.
         23    2    1    2    0    0 -0.86749372241E+02  0.22166563839E+02  0.16193101997E+03  0.20748312181E+03  0.93865757724E+02 0.  0.
         23    2    1    2    0    0  0.39075073899E+02 -0.66954150601E+02  0.19706288617E+03  0.23042191458E+03  0.90833682782E+02 0.  0.
        -11    1    3    3    0    0 -0.22433977898E+02 -0.22726421427E+02  0.53813335543E+01  0.32384137259E+02  0.00000000000E+00 0.  1.
         11    1    3    3    0    0 -0.64315394344E+02  0.44892985267E+02  0.15654968641E+03  0.17509898456E+03  0.00000000000E+00 0. -1.
        -11    1    4    4    0    0 -0.27566530631E+02 -0.37321445830E+02  0.72389333262E+02  0.85982669765E+02  0.00000000000E+00 0. -1.
         11    1    4    4    0    0  0.66641604530E+02 -0.29632704770E+02  0.12467355291E+03  0.14443924481E+03  0.00000000000E+00 0.  1.
         21    1    1    2  503  501  0.12993073168E+03  0.11351914864E+03 -0.21353883220E+03  0.27453128237E+03  0.00000000000E+00 0.  1.
          1    1    1    2  501    0 -0.82256433336E+02 -0.68731561883E+02  0.23747952172E+03  0.26055070843E+03  0.00000000000E+00 0. -1.
<scales pt_clust_5="13000.00000" pt_clust_6="13000.00000" pt_clust_7="13000.00000" pt_clust_8="13000.00000" pt_clust_9="169.45985" pt_clust_10="13000.00000"></scales>
<clustering>
<clus scale="   90.834">  7  8 -1 -1</clus>
<clus scale="   93.866">  5  6 -1 -1</clus>
<clus scale="  107.192">  7 10 -1 -1</clus>
<clus scale="  129.721">  1  5  2 -1</clus>
<clus scale="  169.460">  2  9  1 -1</clus>
<clus scale="  169.460">  2  5  1 -1</clus>
</clustering>
</event>
<event>
10    2  0.5692308E-006  0.2433529E+03  0.7546771E-02  0.1142852E+00
         21   -1    0    0  501  502  0.00000000000E+00  0.00000000000E+00  0.19257700841E+03  0.19257700841E+03  0.00000000000E+00 0. -1.
          1   -1    0    0  503    0 -0.00000000000E+00 -0.00000000000E+00 -0.75074585780E+03  0.75074585780E+03  0.00000000000E+00 0. -1.
         23    2    1    2    0    0  0.20050389867E+02 -0.95152043984E+02 -0.50604017573E+03  0.52329107524E+03  0.91109606360E+02 0.  0.
         23    2    1    2    0    0  0.46335866877E+02 -0.65290631170E+00 -0.18058023004E+03  0.20852130953E+03  0.93404915306E+02 0.  0.
        -11    1    3    3    0    0  0.41211720533E+02 -0.11671052553E+02 -0.23584152259E+03  0.23969948510E+03  0.00000000000E+00 0.  1.
         11    1    3    3    0    0 -0.21161330666E+02 -0.83480991432E+02 -0.27019865314E+03  0.28359159015E+03  0.00000000000E+00 0. -1.
        -13    1    4    4    0    0 -0.69462642649E+01  0.24132746981E+02 -0.82277788258E+01  0.26426055485E+02  0.00000000000E+00 0.  1.
         13    1    4    4    0    0  0.53282131142E+02 -0.24785653293E+02 -0.17235245121E+03  0.18209525405E+03  0.00000000000E+00 0. -1.
         21    1    1    2  503  502 -0.71865800068E+02  0.17094131412E+02  0.10650161641E+03  0.12961287299E+03  0.00000000000E+00 0. -1.
          1    1    1    2  501    0  0.54795433238E+01  0.78710818884E+02  0.21949939961E+02  0.81897608443E+02  0.00000000000E+00 0. -1.
<scales pt_clust_5="13000.00000" pt_clust_6="13000.00000" pt_clust_7="13000.00000" pt_clust_8="13000.00000" pt_clust_9="73.87085" pt_clust_10="13000.00000"></scales>
<clustering>
<clus scale="   73.871">  1  9  2 -1</clus>
<clus scale="   91.110">  5  6 -1 -1</clus>
<clus scale="   93.405">  7  8 -1 -1</clus>
<clus scale="  101.000">  7 10 -1 -1</clus>
<clus scale="  130.843">  2  5  1 -1</clus>
<clus scale="   73.871">  1  5  2 -1</clus>
</clustering>
</event>
<event>
10    2  0.5692308E-006  0.3292499E+03  0.7546771E-02  0.1097315E+00
         -1   -1    0    0    0  501 -0.00000000000E+00  0.00000000000E+00  0.39834926532E+03  0.39834926532E+03  0.00000000000E+00 0.  1.
         21   -1    0    0  501  502  0.00000000000E+00 -0.00000000000E+00 -0.25601526790E+03  0.25601526790E+03  0.00000000000E+00 0.  1.
         23    2    1    2    0    0 -0.68093291060E+02 -0.12319683898E+03  0.58166711025E+01  0.16417375576E+03  0.84291345907E+02 0.  0.
         23    2    1    2    0    0  0.68972622030E+02  0.18701187418E+03  0.25102382262E+03  0.33387006314E+03  0.93410898006E+02 0.  0.
        -13    1    4    4    0    0  0.76803833331E+02  0.15419760451E+03  0.24515496438E+03  0.29962757985E+03  0.00000000000E+00 0.  1.
         13    1    4    4    0    0 -0.78312113011E+01  0.32814269674E+02  0.58688582396E+01  0.34242483288E+02  0.00000000000E+00 0. -1.
        -13    1    3    3    0    0 -0.82298227402E+02 -0.10343412706E+03  0.23285173499E+02  0.13421555864E+03  0.00000000000E+00 0. -1.
         13    1    3    3    0    0  0.14204936343E+02 -0.19762711912E+02 -0.17468502397E+02  0.29958197119E+02  0.00000000000E+00 0.  1.
         21    1    1    2  503  502  0.32366839428E+02 -0.18020050312E+02 -0.84507445969E+02  0.92270487871E+02  0.00000000000E+00 0.  1.
         -1    1    1    2    0  503 -0.33246170399E+02 -0.45794984894E+02 -0.29999050324E+02  0.64050226448E+02  0.00000000000E+00 0.  1.
<scales pt_clust_5="13000.00000" pt_clust_6="13000.00000" pt_clust_7="13000.00000" pt_clust_8="13000.00000" pt_clust_9="37.04503" pt_clust_10="13000.00000"></scales>
<clustering>
<clus scale="   37.045">  2  9  1 -1</clus>
<clus scale="   84.291">  7  8 -1 -1</clus>
<clus scale="   93.411">  5  6 -1 -1</clus>
<clus scale="   56.301">  5 10 -1 -1</clus>
<clus scale="  165.047">  1  7  2 -1</clus>
<clus scale="   37.045">  2  5  1 -1</clus>
</clustering>
</event>
<event>
10    2  0.5692308E-006  0.2071760E+03  0.7546771E-02  0.1157439E+00
          1   -1    0    0  503    0 -0.00000000000E+00  0.00000000000E+00  0.11563364936E+03  0.11563364936E+03  0.00000000000E+00 0. -1.
         21   -1    0    0  501  502  0.00000000000E+00 -0.00000000000E+00 -0.52702432958E+03  0.52702432958E+03  0.00000000000E+00 0.  1.
         23    2    1    2    0    0 -0.57456688058E+01 -0.84738658351E+02 -0.24443758010E+03  0.28075066590E+03  0.10889239142E+03 0.  0.
         23    2    1    2    0    0 -0.16518652796E+02  0.11052131587E+03  0.34439803044E+02  0.14764453198E+03  0.90138674476E+02 0.  0.
        -13    1    4    4    0    0  0.22656194303E+02  0.19684654450E+02 -0.18689049380E+02  0.35356319489E+02  0.00000000000E+00 0.  1.
         13    1    4    4    0    0 -0.39174847099E+02  0.90836661423E+02  0.53128852424E+02  0.11228821249E+03  0.00000000000E+00 0. -1.
        -13    1    3    3    0    0 -0.26270296619E+02 -0.78547579275E+02 -0.24569125097E+03  0.25927599483E+03  0.00000000000E+00 0.  1.
         13    1    3    3    0    0  0.20524627813E+02 -0.61910790764E+01  0.12536708641E+01  0.21474671072E+02  0.00000000000E+00 0. -1.
         21    1    1    2  503  502  0.44889844795E+02 -0.22706179097E+02 -0.13820143130E+03  0.14707244592E+03  0.00000000000E+00 0.  1.
          1    1    1    2  501    0 -0.22625523193E+02 -0.30764784249E+01 -0.63191471868E+02  0.67190335139E+02  0.00000000000E+00 0. -1.
<scales pt_clust_5="13000.00000" pt_clust_6="13000.00000" pt_clust_7="13000.00000" pt_clust_8="13000.00000" pt_clust_9="50.30575" pt_clust_10="13000.00000"></scales>
<clustering>
<clus scale="   50.306">  2  9  1 -1</clus>
<clus scale="   90.139">  5  6 -1 -1</clus>
<clus scale="   16.534">  5 10 -1 -1</clus>
<clus scale="  108.892">  7  8 -1 -1</clus>
<clus scale="  150.096">  1  7  2 -1</clus>
<clus scale="   50.306">  2  5  1 -1</clus>
</clustering>
</event>
<event>
10    2  0.5692308E-006  0.5844666E+03  0.7546771E-02  0.1047546E+00
         21   -1    0    0  501  502  0.00000000000E+00  0.00000000000E+00  0.14522790075E+03  0.14522790075E+03  0.00000000000E+00 0. -1.
          2   -1    0    0  503    0 -0.00000000000E+00 -0.00000000000E+00 -0.15315968715E+04  0.15315968715E+04  0.00000000000E+00 0. -1.
         23    2    1    2    0    0 -0.16176948542E+02  0.52539534513E+02 -0.19643032974E+03  0.22361004541E+03  0.91621403696E+02 0.  0.
         23    2    1    2    0    0 -0.21563965207E+03 -0.58218503162E+02 -0.81060021891E+03  0.84565427117E+03  0.90380184722E+02 0.  0.
        -13    1    3    3    0    0 -0.34758466049E+02  0.71226132844E+02 -0.16104017613E+03  0.17948607548E+03  0.00000000000E+00 0. -1.
         13    1    3    3    0    0  0.18581517508E+02 -0.18686598331E+02 -0.35390153613E+02  0.44123969935E+02  0.00000000000E+00 0.  1.
        -13    1    4    4    0    0 -0.16905324606E+03 -0.35353369461E+01 -0.57455794605E+03  0.59892264273E+03  0.00000000000E+00 0. -1.
         13    1    4    4    0    0 -0.46586406017E+02 -0.54683166216E+02 -0.23604227286E+03  0.24673162844E+03  0.00000000000E+00 0.  1.
         21    1    1    2  503  502 -0.70182914963E+02  0.69857512462E+02  0.21769408431E+02  0.10138846455E+03  0.00000000000E+00 0. -1.
          2    1    1    2  501    0  0.30199951558E+03 -0.64178543814E+02 -0.40110783054E+03  0.50617199114E+03  0.00000000000E+00 0. -1.
<scales pt_clust_5="13000.00000" pt_clust_6="13000.00000" pt_clust_7="13000.00000" pt_clust_8="13000.00000" pt_clust_9="99.02380" pt_clust_10="13000.00000"></scales>
<clustering>
<clus scale="   90.380">  7  8 -1 -1</clus>
<clus scale="   91.621">  5  6 -1 -1</clus>
<clus scale="   99.024">  1  9  2 -1</clus>
<clus scale="  115.052">  2  5  1 -1</clus>
<clus scale="  250.166">  7 10 -1 -1</clus>
<clus scale="   99.024">  1  5  2 -1</clus>
</clustering>
</event>
<event>
10    2  0.5692308E-006  0.2127399E+03  0.7546771E-02  0.1168831E+00
          2   -1    0    0  502    0 -0.00000000000E+00  0.00000000000E+00  0.45424379099E+03  0.45424379099E+03  0.00000000000E+00 0. -1.
         21   -1    0    0  503  502  0.00000000000E+00 -0.00000000000E+00 -0.89713072073E+02  0.89713072073E+02  0.00000000000E+00 0. -1.
         23    2    1    2    0    0 -0.19937907426E+02  0.46618398487E+02  0.14418290400E+03  0.17768476459E+03  0.90622130460E+02 0.  0.
         23    2    1    2    0    0  0.11723662965E+03 -0.32952895084E+02  0.20206897458E+03  0.25439557731E+03  0.95157336252E+02 0.  0.
        -11    1    3    3    0    0  0.33499184966E+01  0.63788492835E+02  0.13129927802E+03  0.14601265075E+03  0.00000000000E+00 0. -1.
         11    1    3    3    0    0 -0.23287825922E+02 -0.17170094349E+02  0.12883625988E+02  0.31672113834E+02  0.00000000000E+00 0.  1.
        -13    1    4    4    0    0  0.93173996354E+02  0.17170297018E+02  0.97416403430E+02  0.13589028057E+03  0.00000000000E+00 0.  1.
         13    1    4    4    0    0  0.24062633294E+02 -0.50123192102E+02  0.10465257115E+03  0.11850529674E+03  0.00000000000E+00 0. -1.
         21    1    1    2  503  501 -0.65010221234E+02 -0.14400781886E+02  0.35304732784E+02  0.75366673940E+02  0.00000000000E+00 0. -1.
          2    1    1    2  501    0 -0.32288500988E+02  0.73527848342E+00 -0.17025892452E+02  0.36509847224E+02  0.00000000000E+00 0. -1.
<scales pt_clust_5="13000.00000" pt_clust_6="13000.00000" pt_clust_7="13000.00000" pt_clust_8="13000.00000" pt_clust_9="66.58612" pt_clust_10="13000.00000"></scales>
<clustering>
<clus scale="   66.586">  2  9  1 -1</clus>
<clus scale="   90.622">  5  6 -1 -1</clus>
<clus scale="   95.157">  7  8 -1 -1</clus>
<clus scale="   57.462">  7 10 -1 -1</clus>
<clus scale="  106.488">  1  5  2 -1</clus>
<clus scale="   66.586">  2  5  1 -1</clus>
</clustering>
</event>
<event>
10    2  0.5692308E-006  0.3641986E+03  0.7546771E-02  0.1065833E+00
          1   -1    0    0  503    0 -0.00000000000E+00  0.00000000000E+00  0.84750350459E+03  0.84750350459E+03  0.00000000000E+00 0. -1.
         21   -1    0    0  501  502  0.00000000000E+00 -0.00000000000E+00 -0.36583676376E+03  0.36583676376E+03  0.00000000000E+00 0. -1.
         23    2    1    2    0    0  0.14969238795E+02 -0.30608773745E+03  0.26883350323E+03  0.41799681451E+03  0.92391035034E+02 0.  0.
         23    2    1    2    0    0 -0.21997503205E+02  0.12928012964E+03  0.33349664679E+03  0.36967074303E+03  0.90770054371E+02 0.  0.
        -13    1    3    3    0    0  0.72840968412E+01 -0.24435888145E+03  0.25695181615E+03  0.35466682511E+03  0.00000000000E+00 0. -1.
         13    1    3    3    0    0  0.76851419543E+01 -0.61728855992E+02  0.11881687079E+02  0.63329989396E+02  0.00000000000E+00 0.  1.
        -13    1    4    4    0    0 -0.33755349153E+02  0.13662923044E+02  0.40478304304E+02  0.54448068670E+02  0.00000000000E+00 0. -1.
         13    1    4    4    0    0  0.11757845948E+02  0.11561720660E+03  0.29301834248E+03  0.31522267436E+03  0.00000000000E+00 0.  1.
         21    1    1    2  503  502 -0.11058623706E+03  0.76147960695E+02 -0.20826724926E+03  0.24779643835E+03  0.00000000000E+00 0. -1.
          1    1    1    2  501    0  0.11761450146E+03  0.10065964711E+03  0.87603840067E+02  0.17787627246E+03  0.00000000000E+00 0. -1.
<scales pt_clust_5="13000.00000" pt_clust_6="13000.00000" pt_clust_7="13000.00000" pt_clust_8="13000.00000" pt_clust_9="134.26775" pt_clust_10="13000.00000"></scales>
<clustering>
<clus scale="   90.770">  7  8 -1 -1</clus>
<clus scale="   92.391">  5  6 -1 -1</clus>
<clus scale="  134.268">  2  9  1 -1</clus>
<clus scale="  149.668">  7 10 -1 -1</clus>
<clus scale="  284.094">  1  5  2 -1</clus>
<clus scale="  134.268">  2  5  1 -1</clus>
</clustering>
</event>
<event>
10    2  0.5692308E-006  0.2860568E+03  0.7546771E-02  0.1130931E+00
         -3   -1    0    0    0  501 -0.00000000000E+00  0.00000000000E+00  0.19820225780E+03  0.19820225780E+03  0.00000000000E+00 0.  1.
         21   -1    0    0  501  502  0.00000000000E+00 -0.00000000000E+00 -0.45949841714E+03  0.45949841714E+03  0.00000000000E+00 0.  1.
         23    2    1    2    0    0 -0.67289025191E+02 -0.66272197896E+01  0.66480192957E+02  0.12943608717E+03  0.88104209056E+02 0.  0.
         23    2    1    2    0    0  0.10815884315E+03 -0.68395148559E+02 -0.11580628681E+03  0.19532270744E+03  0.91452896502E+02 0.  0.
        -13    1    4    4    0    0  0.10093263399E+02 -0.54361199036E+02 -0.24055093209E+02  0.60296446296E+02  0.00000000000E+00 0. -1.
         13    1    4    4    0    0  0.98065579750E+02 -0.14033949523E+02 -0.91751193597E+02  0.13502626114E+03  0.00000000000E+00 0.  1.
        -13    1    3    3    0    0 -0.40799697859E+02 -0.46667773251E+02  0.28528825192E+02  0.68237748149E+02  0.00000000000E+00 0.  1.
         13    1    3    3    0    0 -0.26489327332E+02  0.40040553461E+02  0.37951367765E+02  0.61198339023E+02  0.00000000000E+00 0. -1.
         21    1    1    2  503  502  0.42381245410E+02  0.15022987790E+02 -0.22504507797E+03  0.22949324008E+03  0.00000000000E+00 0.  1.
         -3    1    1    2    0  503 -0.83251063368E+02  0.59999380559E+02  0.13075012474E+02  0.10344864025E+03  0.00000000000E+00 0.  1.
<scales pt_clust_5="13000.00000" pt_clust_6="13000.00000" pt_clust_7="13000.00000" pt_clust_8="13000.00000" pt_clust_9="44.96510" pt_clust_10="13000.00000"></scales>
<clustering>
<clus scale="   44.965">  2  9  1 -1</clus>
<clus scale="   88.104">  7  8 -1 -1</clus>
<clus scale="   91.453">  5  6 -1 -1</clus>
<clus scale="   97.903">  5 10 -1 -1</clus>
<clus scale="  107.569">  1  7  2 -1</clus>
<clus scale="   44.965">  2  5  1 -1</clus>
</clustering>
</event>
<event>
10    2  0.5692308E-006  0.3560642E+03  0.7546771E-02  0.1074159E+00
         21   -1    0    0  501  502  0.00000000000E+00  0.00000000000E+00  0.20011457306E+04  0.20011457306E+04  0.00000000000E+00 0. -1.
          1   -1    0    0  503    0 -0.00000000000E+00 -0.00000000000E+00 -0.35814809775E+03  0.35814809775E+03  0.00000000000E+00 0. -1.
         23    2    1    2    0    0 -0.26582344272E+03  0.13182501556E+03 -0.68600746997E+02  0.31816403451E+03  0.92099690234E+02 0.  0.
         23    2    1    2    0    0  0.54589371247E+02  0.60217361206E+02 -0.10598391092E+03  0.16151847847E+03  0.90826755252E+02 0.  0.
        -11    1    4    4    0    0 -0.12579122331E+02 -0.15939175665E+02 -0.16268600424E+02  0.26018435757E+02  0.00000000000E+00 0.  1.
         11    1    4    4    0    0  0.67168493578E+02  0.76156536871E+02 -0.89715310496E+02  0.13550004271E+03  0.00000000000E+00 0. -1.
        -11    1    3    3    0    0 -0.31155528569E+02  0.55327814264E+02 -0.20283639100E+02  0.66657782792E+02  0.00000000000E+00 0.  1.
         11    1    3    3    0    0 -0.23466791416E+03  0.76497201295E+02 -0.48317107896E+02  0.25150625172E+03  0.00000000000E+00 0. -1.
         21    1    1    2  503  502  0.11040594802E+03 -0.24308915293E+03  0.16822127892E+04  0.17032679407E+04  0.00000000000E+00 0. -1.
          1    1    1    2  501    0  0.10082812345E+03  0.51046776167E+02  0.13536950155E+03  0.17634337466E+03  0.00000000000E+00 0. -1.
<scales pt_clust_5="13000.00000" pt_clust_6="13000.00000" pt_clust_7="13000.00000" pt_clust_8="13000.00000" pt_clust_9="266.98653" pt_clust_10="13000.00000"></scales>
<clustering>
<clus scale="   90.827">  5  6 -1 -1</clus>
<clus scale="   92.100">  7  8 -1 -1</clus>
<clus scale="  113.014">  5 10 -1 -1</clus>
<clus scale="  266.987">  1  9  2 -1</clus>
<clus scale="  241.891">  2  7  1 -1</clus>
<clus scale="  266.987">  1  5  2 -1</clus>
</clustering>
</event>
<event>
10    2  0.5692308E-006  0.1859252E+03  0.7546771E-02  0.1185889E+00
         21   -1    0    0  503  502  0.00000000000E+00  0.00000000000E+00  0.19126814855E+03  0.19126814855E+03  0.00000000000E+00 0. -1.
         -3   -1    0    0    0  501 -0.00000000000E+00 -0.00000000000E+00 -0.30665798805E+03  0.30665798805E+03  0.00000000000E+00 0.  1.
         23    2    1    2    0    0 -0.14955818527E+02 -0.56675180720E+02 -0.87083054238E+01  0.10887427090E+03  0.91334657508E+02 0.  0.
         23    2    1    2    0    0 -0.42761746391E+02  0.17484057831E+02 -0.17032968804E+03  0.19825601638E+03  0.90327106511E+02 0.  0.
        -11    1    4    4    0    0 -0.76814276495E+01  0.51808622974E+02 -0.87472513415E+02  0.10195380497E+03  0.00000000000E+00 0.  1.
         11    1    4    4    0    0 -0.35080318742E+02 -0.34324565143E+02 -0.82857174620E+02  0.96302211404E+02  0.00000000000E+00 0. -1.
        -13    1    3    3    0    0 -0.42818444782E+02 -0.63936219004E+02 -0.17212768674E+02  0.78851371069E+02  0.00000000000E+00 0. -1.
         13    1    3    3    0    0  0.27862626255E+02  0.72610382839E+01  0.85044632507E+01  0.30022899826E+02  0.00000000000E+00 0.  1.
         21    1    1    2  503  501  0.10977616766E+03  0.41725730518E+02  0.72376196364E+02  0.13794983644E+03  0.00000000000E+00 0. -1.
         -3    1    1    2    0  502 -0.52058602740E+02 -0.25346076279E+01 -0.87280424063E+01  0.52846012899E+02  0.00000000000E+00 0.  1.
<scales pt_clust_5="13000.00000" pt_clust_6="13000.00000" pt_clust_7="13000.00000" pt_clust_8="13000.00000" pt_clust_9="113.10174" pt_clust_10="13000.00000"></scales>
<clustering>
<clus scale="   90.327">  5  6 -1 -1</clus>
<clus scale="   52.120">  5 10 -1 -1</clus>
<clus scale="   91.335">  7  8 -1 -1</clus>
<clus scale="  108.525">  2  7  1 -1</clus>
<clus scale="  113.102">  1  9  2 -1</clus>
<clus scale="  113.102">  1  5  2 -1</clus>
</clustering>
</event>
<event>
10    2  0.5692308E-006  0.3537301E+03  0.7546771E-02  0.1078177E+00
         21   -1    0    0  503  502  0.00000000000E+00  0.00000000000E+00  0.73664667948E+02  0.73664667948E+02  0.00000000000E+00 0.  1.
          2   -1    0    0  502    0 -0.00000000000E+00 -0.00000000000E+00 -0.16139456832E+04  0.16139456832E+04  0.00000000000E+00 0. -1.
         23    2    1    2    0    0 -0.12502907055E+03 -0.16087188676E+03 -0.78977084491E+03  0.82104656333E+03  0.94167081512E+02 0.  0.
         23    2    1    2    0    0  0.76800574699E+02  0.88223154902E+02 -0.74631006519E+03  0.76140673912E+03  0.95288276473E+02 0.  0.
        -11    1    3    3    0    0 -0.95223252870E+02 -0.15982249284E+03 -0.73996976343E+03  0.76299799993E+03  0.00000000000E+00 0.  1.
         11    1    3    3    0    0 -0.29805817685E+02 -0.10493939186E+01 -0.49801081480E+02  0.58048563393E+02  0.00000000000E+00 0. -1.
        -13    1    4    4    0    0  0.20160460480E+02 -0.17303654534E+02 -0.76721450222E+02  0.81191388405E+02  0.00000000000E+00 0.  1.
         13    1    4    4    0    0  0.56640114219E+02  0.10552680944E+03 -0.66958861497E+03  0.68021535072E+03  0.00000000000E+00 0. -1.
         21    1    1    2  503  501 -0.90294901583E+01  0.22924753625E+02  0.12314094612E+02  0.27544744461E+02  0.00000000000E+00 0.  1.
          2    1    1    2  501    0  0.57257986014E+02  0.49723978234E+02 -0.16514199739E+02  0.77612304224E+02  0.00000000000E+00 0. -1.
<scales pt_clust_5="13000.00000" pt_clust_6="13000.00000" pt_clust_7="13000.00000" pt_clust_8="13000.00000" pt_clust_9="24.63891" pt_clust_10="13000.00000"></scales>
<clustering>
<clus scale="   24.639">  1  9  2 -1</clus>
<clus scale="   94.167">  5  6 -1 -1</clus>
<clus scale="   95.288">  7  8 -1 -1</clus>
<clus scale="   81.581">  7 10 -1 -1</clus>
<clus scale="  221.227">  2  5  1 -1</clus>
<clus scale="   24.639">  1  5  2 -1</clus>
</clustering>
</event>
<event>
10    2  0.5692308E-006  0.2123714E+03  0.7546771E-02  0.1167054E+00
          3   -1    0    0  502    0 -0.00000000000E+00  0.00000000000E+00  0.32055590940E+03  0.32055590940E+03  0.00000000000E+00 0. -1.
         21   -1    0    0  503  502  0.00000000000E+00 -0.00000000000E+00 -0.17517785490E+03  0.17517785490E+03  0.00000000000E+00 0. -1.
         23    2    1    2    0    0 -0.34294470165E+02 -0.53600832153E+02  0.20448702691E+03  0.23307996302E+03  0.91990027146E+02 0.  0.
         23    2    1    2    0    0  0.22333456808E+02 -0.16805344776E+02  0.47972035984E+02  0.10766680341E+03  0.92247609258E+02 0.  0.
        -13    1    4    4    0    0 -0.33664082186E+02 -0.12142757118E+02  0.34874002574E+02  0.49969120819E+02  0.00000000000E+00 0. -1.
         13    1    4    4    0    0  0.55997538994E+02 -0.46625876577E+01  0.13098033410E+02  0.57697682590E+02  0.00000000000E+00 0.  1.
        -13    1    3    3    0    0 -0.14459399449E+02  0.17948795884E+02  0.11264798124E+03  0.11498174283E+03  0.00000000000E+00 0.  1.
         13    1    3    3    0    0 -0.19835070716E+02 -0.71549628037E+02  0.91839045671E+02  0.11809822019E+03  0.00000000000E+00 0. -1.
         21    1    1    2  503  501  0.27201678957E+02 -0.98072295640E+01 -0.39765370465E+02  0.49167039549E+02  0.00000000000E+00 0. -1.
          3    1    1    2  501    0 -0.15240665600E+02  0.80213406493E+02 -0.67315637933E+02  0.10581995832E+03  0.00000000000E+00 0. -1.
<scales pt_clust_5="13000.00000" pt_clust_6="13000.00000" pt_clust_7="13000.00000" pt_clust_8="13000.00000" pt_clust_9="28.91562" pt_clust_10="13000.00000"></scales>
<clustering>
<clus scale="   28.916">  2  9  1 -1</clus>
<clus scale="   91.990">  7  8 -1 -1</clus>
<clus scale="   92.248">  5  6 -1 -1</clus>
<clus scale="   73.770">  5 10 -1 -1</clus>
<clus scale="  111.500">  1  7  2 -1</clus>
<clus scale="   28.916">  2  5  1 -1</clus>
</clustering>
</event>
<event>
10    2  0.5692308E-006  0.1508795E+03  0.7546771E-02  0.1217804E+00
         21   -1    0    0  501  502  0.00000000000E+00  0.00000000000E+00  0.76875021312E+02  0.76875021312E+02  0.00000000000E+00 0.  1.
          1   -1    0    0  503    0 -0.00000000000E+00 -0.00000000000E+00 -0.34425943230E+03  0.34425943230E+03  0.00000000000E+00 0. -1.
         23    2    1    2    0    0 -0.15136372016E+02  0.52076778290E+02 -0.94503886017E+02  0.14185301618E+03  0.90830573774E+02 0.  0.
         23    2    1    2    0    0  0.27808314418E+01 -0.52876782284E+02 -0.96779986203E+02  0.14592621826E+03  0.95521768812E+02 0.  0.
        -13    1    3    3    0    0 -0.43228943319E+02  0.54823629917E+02 -0.39973679599E+02  0.80450400859E+02  0.00000000000E+00 0.  1.
         13    1    3    3    0    0  0.28092571303E+02 -0.27468516262E+01 -0.54530206418E+02  0.61402615321E+02  0.00000000000E+00 0. -1.
        -13    1    4    4    0    0 -0.29031561356E+02 -0.58640177289E+02 -0.92514729713E+02  0.11331582926E+03  0.00000000000E+00 0. -1.
         13    1    4    4    0    0  0.31812392798E+02  0.57633950054E+01 -0.42652564906E+01  0.32610388996E+02  0.00000000000E+00 0.  1.
         21    1    1    2  503  502  0.31611859554E+02 -0.13095990309E+02  0.16336315403E+02  0.37916880510E+02  0.00000000000E+00 0.  1.
          1    1    1    2  501    0 -0.19256318980E+02  0.13895994303E+02 -0.92436854168E+02  0.95438338663E+02  0.00000000000E+00 0. -1.
<scales pt_clust_5="13000.00000" pt_clust_6="13000.00000" pt_clust_7="13000.00000" pt_clust_8="13000.00000" pt_clust_9="34.21717" pt_clust_10="13000.00000"></scales>
<clustering>
<clus scale="   34.217">  1  9  2 -1</clus>
<clus scale="   90.831">  5  6 -1 -1</clus>
<clus scale="   95.522">  7  8 -1 -1</clus>
<clus scale="   22.743">  7 10 -1 -1</clus>
<clus scale="  101.744">  2  5  1 -1</clus>
<clus scale="   34.217">  1  5  2 -1</clus>
</clustering>
</event>
<event>
10    2  0.5692308E-006  0.2387742E+03  0.7546771E-02  0.1153143E+00
         21   -1    0    0  501  502  0.00000000000E+00  0.00000000000E+00  0.88090226061E+02  0.88090226061E+02  0.00000000000E+00 0. -1.
          1   -1    0    0  503    0 -0.00000000000E+00 -0.00000000000E+00 -0.51928314011E+03  0.51928314011E+03  0.00000000000E+00 0. -1.
         23    2    1    2    0    0  0.23967940611E+02 -0.50705316318E+02 -0.27373861427E+03  0.29471584688E+03  0.93696905935E+02 0.  0.
         23    2    1    2    0    0 -0.54070049851E+02  0.10624335240E+03 -0.11899980402E+03  0.19166088950E+03  0.91442457246E+02 0.  0.
        -11    1    3    3    0    0 -0.24088370404E+02 -0.22822075196E+02 -0.30028157370E+02  0.44752507639E+02  0.00000000000E+00 0.  1.
         11    1    3    3    0    0  0.48056311015E+02 -0.27883241122E+02 -0.24371045690E+03  0.24996333924E+03  0.00000000000E+00 0. -1.
        -13    1    4    4    0    0 -0.15698293055E+02  0.11029558541E+03 -0.83451142061E+02  0.13919642839E+03  0.00000000000E+00 0. -1.
         13    1    4    4    0    0 -0.38371756795E+02 -0.40522330149E+01 -0.35548661960E+02  0.52464461106E+02  0.00000000000E+00 0.  1.
         21    1    1    2  503  502  0.20559397591E+02  0.23384450420E+02 -0.25927065147E+02  0.40518317559E+02  0.00000000000E+00 0.  1.
          1    1    1    2  501    0  0.95427116485E+01 -0.78922486499E+02 -0.12527430607E+02  0.80478312224E+02  0.00000000000E+00 0. -1.
<scales pt_clust_5="13000.00000" pt_clust_6="13000.00000" pt_clust_7="13000.00000" pt_clust_8="13000.00000" pt_clust_9="31.13714" pt_clust_10="13000.00000"></scales>
<clustering>
<clus scale="   31.137">  1  9  2 -1</clus>
<clus scale="   91.442">  7  8 -1 -1</clus>
<clus scale="   71.443">  7 10 -1 -1</clus>
<clus scale="   93.697">  5  6 -1 -1</clus>
<clus scale="  108.448">  2  5  1 -1</clus>
<clus scale="   31.137">  1  5  2 -1</clus>
</clustering>
</event>
<event>
10    2  0.5692308E-006  0.3166682E+03  0.7546771E-02  0.1111023E+00
         -4   -1    0    0    0  501 -0.00000000000E+00  0.00000000000E+00  0.21493628086E+03  0.21493628086E+03  0.00000000000E+00 0.  1.
         21   -1    0    0  503  502  0.00000000000E+00 -0.00000000000E+00 -0.35429192988E+03  0.35429192988E+03  0.00000000000E+00 0.  1.
         23    2    1    2    0    0 -0.81342901747E+02  0.63105360710E+02  0.61068829721E+01  0.13861089569E+03  0.92610648252E+02 0.  0.
         23    2    1    2    0    0 -0.76078603952E+02  0.28914782226E+02  0.63784229603E+02  0.13781165206E+03  0.91102167297E+02 0.  0.
        -11    1    4    4    0    0 -0.35284774631E+02  0.18668283975E+02  0.82595109824E+02  0.91735883460E+02  0.00000000000E+00 0.  1.
         11    1    4    4    0    0 -0.40793829321E+02  0.10246498252E+02 -0.18810880221E+02  0.46075768597E+02  0.00000000000E+00 0. -1.
        -13    1    3    3    0    0 -0.91080363919E+01  0.63871888544E+02  0.13755790588E+02  0.65968145706E+02  0.00000000000E+00 0. -1.
         13    1    3    3    0    0 -0.72234865355E+02 -0.76652783378E+00 -0.76489076159E+01  0.72642749986E+02  0.00000000000E+00 0.  1.
         21    1    1    2  503  501  0.27457745354E+02 -0.30774585185E+02 -0.11190454170E+03  0.11926285811E+03  0.00000000000E+00 0. -1.
         -4    1    1    2    0  502  0.12996376035E+03 -0.61245557752E+02 -0.97342219898E+02  0.17354280487E+03  0.00000000000E+00 0.  1.
<scales pt_clust_5="13000.00000" pt_clust_6="13000.00000" pt_clust_7="13000.00000" pt_clust_8="13000.00000" pt_clust_9="41.24322" pt_clust_10="13000.00000"></scales>
<clustering>
<clus scale="   41.243">  2  9  1 -1</clus>
<clus scale="   91.102">  5  6 -1 -1</clus>
<clus scale="   92.611">  7  8 -1 -1</clus>
<clus scale="  130.342">  1  7  2 -1</clus>
<clus scale="  133.487">  5 10 -1 -1</clus>
<clus scale="   41.243">  2  5  1 -1</clus>
</clustering>
</event>
<event>
10    2  0.5692308E-006  0.2419953E+03  0.7546771E-02  0.1135205E+00
         21   -1    0    0  501  502  0.00000000000E+00  0.00000000000E+00  0.93502202728E+02  0.93502202728E+02  0.00000000000E+00 0. -1.
          1   -1    0    0  503    0 -0.00000000000E+00 -0.00000000000E+00 -0.13645015219E+04  0.13645015219E+04  0.00000000000E+00 0. -1.
         23    2    1    2    0    0 -0.10621155692E+03  0.10259965429E+03 -0.70956905340E+03  0.73061663782E+03  0.92221722142E+02 0.  0.
         23    2    1    2    0    0 -0.25275007673E+02 -0.36053506210E+02 -0.23316362106E+03  0.25428774745E+03  0.91423755066E+02 0.  0.
        -11    1    3    3    0    0 -0.17488867806E+02  0.67919407943E+02 -0.41905016676E+03  0.42487874592E+03  0.00000000000E+00 0.  1.
         11    1    3    3    0    0 -0.88722689111E+02  0.34680246343E+02 -0.29051888663E+03  0.30573789189E+03  0.00000000000E+00 0. -1.
        -13    1    4    4    0    0 -0.17159683384E+02  0.29843398055E+02 -0.66408241500E+02  0.74800652941E+02  0.00000000000E+00 0. -1.
         13    1    4    4    0    0 -0.81153242892E+01 -0.65896904265E+02 -0.16675537956E+03  0.17948709450E+03  0.00000000000E+00 0.  1.
         21    1    1    2  503  502  0.50893214876E+01 -0.71881316028E+02  0.40898829952E+02  0.82858548615E+02  0.00000000000E+00 0. -1.
          1    1    1    2  501    0  0.12639724310E+03  0.53351679522E+01 -0.36916547464E+03  0.39024079073E+03  0.00000000000E+00 0. -1.
<scales pt_clust_5="13000.00000" pt_clust_6="13000.00000" pt_clust_7="13000.00000" pt_clust_8="13000.00000" pt_clust_9="72.06126" pt_clust_10="13000.00000"></scales>
<clustering>
<clus scale="   72.061">  1  9  2 -1</clus>
<clus scale="   91.424">  7  8 -1 -1</clus>
<clus scale="   92.222">  5  6 -1 -1</clus>
<clus scale="  129.439">  7 10 -1 -1</clus>
<clus scale="  160.060">  2  5  1 -1</clus>
<clus scale="   72.061">  1  5  2 -1</clus>
</clustering>
</event>
<event>
10    2  0.5692308E-006  0.3334142E+03  0.7546771E-02  0.1119259E+00
          2   -1    0    0  503    0 -0.00000000000E+00  0.00000000000E+00  0.33147930260E+03  0.33147930260E+03  0.00000000000E+00 0. -1.
         21   -1    0    0  501  502  0.00000000000E+00 -0.00000000000E+00 -0.67517700898E+03  0.67517700898E+03  0.00000000000E+00 0.  1.
         23    2    1    2    0    0 -0.61574369827E+00 -0.65966949693E+01  0.15001188803E+03  0.17530970120E+03  0.90476677998E+02 0.  0.
         23    2    1    2    0    0 -0.81398824969E+02  0.67730833483E+02 -0.27151081768E+02  0.14113204739E+03  0.89262752861E+02 0.  0.
        -11    1    4    4    0    0  0.11510673885E+02  0.32275012423E+02 -0.23631731302E+02  0.41624881556E+02  0.00000000000E+00 0.  1.
         11    1    4    4    0    0 -0.92909498854E+02  0.35455821060E+02 -0.35193504656E+01  0.99507165833E+02  0.00000000000E+00 0. -1.
        -11    1    3    3    0    0  0.36616363983E+02 -0.24542052891E+02  0.47617490395E+02  0.64888333797E+02  0.00000000000E+00 0.  1.
         11    1    3    3    0    0 -0.37232107681E+02  0.17945357922E+02  0.10239439763E+03  0.11042136741E+03  0.00000000000E+00 0. -1.
         21    1    1    2  503  502  0.20619162041E+03  0.86635860978E+02 -0.44236155071E+03  0.49568588671E+03  0.00000000000E+00 0.  1.
          2    1    1    2  501    0 -0.12417705174E+03 -0.14776999949E+03 -0.24196961931E+02  0.19452867628E+03  0.00000000000E+00 0. -1.
<scales pt_clust_5="13000.00000" pt_clust_6="13000.00000" pt_clust_7="13000.00000" pt_clust_8="13000.00000" pt_clust_9="223.16189" pt_clust_10="13000.00000"></scales>
<clustering>
<clus scale="   89.263">  5  6 -1 -1</clus>
<clus scale="   90.477">  7  8 -1 -1</clus>
<clus scale="   90.719">  1  7  2 -1</clus>
<clus scale="  195.775">  5 10 -1 -1</clus>
<clus scale="  223.162">  2  9  1 -1</clus>
<clus scale="  223.162">  2  5  1 -1</clus>
</clustering>
</event>
<event>
10    2  0.5692308E-006  0.2027082E+03  0.7546771E-02  0.1155086E+00
          2   -1    0    0  502    0 -0.00000000000E+00  0.00000000000E+00  0.95340877963E+03  0.95340877963E+03  0.00000000000E+00 0. -1.
         21   -1    0    0  503  502  0.00000000000E+00 -0.00000000000E+00 -0.18321046973E+03  0.18321046973E+03  0.00000000000E+00 0.  1.
         23    2    1    2    0    0  0.46384693209E+02 -0.13221774684E+03  0.67337752653E+03  0.69374131297E+03  0.90590527941E+02 0.  0.
         23    2    1    2    0    0 -0.35872934937E+02  0.14461002709E+03  0.21056660488E+03  0.27131113376E+03  0.84098209342E+02 0.  0.
        -11    1    4    4    0    0 -0.19407006644E+02  0.12268807047E+03  0.10626535848E+03  0.16346657442E+03  0.00000000000E+00 0. -1.
         11    1    4    4    0    0 -0.16465928293E+02  0.21921956623E+02  0.10430124640E+03  0.10784455933E+03  0.00000000000E+00 0.  1.
        -13    1    3    3    0    0 -0.21624076124E+02 -0.49124130225E+02  0.14623202928E+03  0.15577094474E+03  0.00000000000E+00 0.  1.
         13    1    3    3    0    0  0.68008769333E+02 -0.83093616616E+02  0.52714549724E+03  0.53797036823E+03  0.00000000000E+00 0. -1.
         21    1    1    2  503  501 -0.42400210786E+02 -0.29801838392E+02 -0.12351300972E+03  0.13394547777E+03  0.00000000000E+00 0.  1.
          2    1    1    2  501    0  0.31888452513E+02  0.17409558145E+02  0.97671882166E+01  0.37621324859E+02  0.00000000000E+00 0. -1.
<scales pt_clust_5="13000.00000" pt_clust_6="13000.00000" pt_clust_7="13000.00000" pt_clust_8="13000.00000" pt_clust_9="51.82593" pt_clust_10="13000.00000"></scales>
<clustering>
<clus scale="   51.826">  2  9  1 -1</clus>
<clus scale="   84.098">  5  6 -1 -1</clus>
<clus scale="   23.215">  5 10 -1 -1</clus>
<clus scale="   90.591">  7  8 -1 -1</clus>
<clus scale="  169.326">  1  7  2 -1</clus>
<clus scale="   51.826">  2  5  1 -1</clus>
</clustering>
</event>
<event>
10    2  0.5692308E-006  0.2142336E+03  0.7546771E-02  0.1152902E+00
          1   -1    0    0  503    0 -0.00000000000E+00  0.00000000000E+00  0.77068801223E+03  0.77068801223E+03  0.00000000000E+00 0. -1.
         21   -1    0    0  501  502  0.00000000000E+00 -0.00000000000E+00 -0.18816802793E+03  0.18816802793E+03  0.00000000000E+00 0. -1.
         23    2    1    2    0    0 -0.84271262415E+02 -0.10677258814E+03  0.57034993681E+03  0.59360673750E+03  0.92562828049E+02 0.  0.
         23    2    1    2    0    0 -0.82434917818E+01  0.29280623348E+02  0.13402725966E+03  0.15900573415E+03  0.79963786176E+02 0.  0.
        -11    1    3    3    0    0  0.74400846738E+01 -0.39591541712E+02  0.72486631359E+02  0.82928624496E+02  0.00000000000E+00 0.  1.
         11    1    3    3    0    0 -0.91711347089E+02 -0.67181046429E+02  0.49786330545E+03  0.51067811300E+03  0.00000000000E+00 0. -1.
        -11    1    4    4    0    0  0.44900982974E+01 -0.19786324350E+02  0.57697771848E+01  0.21093836606E+02  0.00000000000E+00 0.  1.
         11    1    4    4    0    0 -0.12733590079E+02  0.49066947698E+02  0.12825748248E+03  0.13791189754E+03  0.00000000000E+00 0. -1.
         21    1    1    2  503  502  0.32732411692E+02  0.89143706156E+02 -0.10793842196E+03  0.14376617842E+03  0.00000000000E+00 0. -1.
          1    1    1    2  501    0  0.59782342505E+02 -0.11651741362E+02 -0.13918790208E+02  0.62477390094E+02  0.00000000000E+00 0. -1.
<scales pt_clust_5="13000.00000" pt_clust_6="13000.00000" pt_clust_7="13000.00000" pt_clust_8="13000.00000" pt_clust_9="94.96321" pt_clust_10="13000.00000"></scales>
<clustering>
<clus scale="   79.964">  7  8 -1 -1</clus>
<clus scale="   60.907">  7 10 -1 -1</clus>
<clus scale="   92.563">  5  6 -1 -1</clus>
<clus scale="   94.963">  2  9  1 -1</clus>
<clus scale="  151.004">  1  5  2 -1</clus>
<clus scale="   94.963">  2  5  1 -1</clus>
</clustering>
</event>
<event>
10    2  0.5692308E-006  0.3349341E+03  0.7546771E-02  0.1102100E+00
         -2   -1    0    0    0  501 -0.00000000000E+00  0.00000000000E+00  0.25265112675E+03  0.25265112675E+03  0.00000000000E+00 0.  1.
         21   -1    0    0  501  502  0.00000000000E+00 -0.00000000000E+00 -0.30989441289E+03  0.30989441289E+03  0.00000000000E+00 0.  1.
         23    2    1    2    0    0 -0.57259364378E+02 -0.75138107775E+02  0.53627017115E+02  0.14684814175E+03  0.98813712221E+02 0.  0.
         23    2    1    2    0    0  0.51570555376E+02  0.11974921645E+03 -0.14947535339E+03  0.21822312870E+03  0.90989315898E+02 0.  0.
        -11    1    3    3    0    0  0.23052370000E+02  0.14249027897E+01  0.20937756721E+02  0.31174216383E+02  0.00000000000E+00 0. -1.
         11    1    3    3    0    0 -0.80311734379E+02 -0.76563010565E+02  0.32689260394E+02  0.11567392537E+03  0.00000000000E+00 0.  1.
        -11    1    4    4    0    0  0.27450872741E+02  0.80848007898E+02 -0.30363562056E+02  0.90619516088E+02  0.00000000000E+00 0.  1.
         11    1    4    4    0    0  0.24119682635E+02  0.38901208547E+02 -0.11911179133E+03  0.12760361261E+03  0.00000000000E+00 0. -1.
         21    1    1    2  503  502 -0.21570802221E+02  0.64610484227E+00 -0.71857028349E+02  0.75027658121E+02  0.00000000000E+00 0.  1.
         -2    1    1    2    0  503  0.27259611224E+02 -0.45257213512E+02  0.11046207848E+03  0.12244661106E+03  0.00000000000E+00 0.  1.
<scales pt_clust_5="13000.00000" pt_clust_6="13000.00000" pt_clust_7="13000.00000" pt_clust_8="13000.00000" pt_clust_9="21.58048" pt_clust_10="13000.00000"></scales>
<clustering>
<clus scale="   21.580">  2  9  1 -1</clus>
<clus scale="   90.989">  7  8 -1 -1</clus>
<clus scale="   52.539">  7 10 -1 -1</clus>
<clus scale="   98.814">  5  6 -1 -1</clus>
<clus scale="  138.472">  1  5  2 -1</clus>
<clus scale="   21.580">  2  5  1 -1</clus>
</clustering>
</event>
<event>
10    2  0.5692308E-006  0.1333150E+03  0.7546771E-02  0.1238827E+00
         21   -1    0    0  501  502  0.00000000000E+00  0.00000000000E+00  0.14957622348E+03  0.14957622348E+03  0.00000000000E+00 0. -1.
         -2   -1    0    0    0  501 -0.00000000000E+00 -0.00000000000E+00 -0.22049587057E+03  0.22049587057E+03  0.00000000000E+00 0. -1.
         23    2    1    2    0    0 -0.14217405641E+02  0.40312365566E+01 -0.46804464044E+02  0.10342907113E+03  0.91041360980E+02 0.  0.
         23    2    1    2    0    0  0.60239775736E+02 -0.76659922023E+01 -0.10883975716E+03  0.15506114626E+03  0.92251115568E+02 0.  0.
        -11    1    4    4    0    0 -0.46336459482E+01 -0.36622687375E+02 -0.22423530165E+02  0.43191510860E+02  0.00000000000E+00 0.  1.
         11    1    4    4    0    0  0.64873421684E+02  0.28956695173E+02 -0.86416226995E+02  0.11186963540E+03  0.00000000000E+00 0. -1.
        -13    1    3    3    0    0  0.11296135455E+02 -0.37437445214E+02 -0.36853159738E+02  0.53733791631E+02  0.00000000000E+00 0.  1.
         13    1    3    3    0    0 -0.25513541096E+02  0.41468681771E+02 -0.99513043060E+01  0.49695279499E+02  0.00000000000E+00 0. -1.
         21    1    1    2  503  502 -0.27336067563E+02  0.13044990689E+02  0.85437564056E+02  0.90647723213E+02  0.00000000000E+00 0. -1.
         -2    1    1    2    0  503 -0.18686302532E+02 -0.94102350434E+01 -0.71298993382E+00  0.20934153447E+02  0.00000000000E+00 0. -1.
<scales pt_clust_5="13000.00000" pt_clust_6="13000.00000" pt_clust_7="13000.00000" pt_clust_8="13000.00000" pt_clust_9="30.28915" pt_clust_10="13000.00000"></scales>
<clustering>
<clus scale="   30.289">  1  9  2 -1</clus>
<clus scale="   91.041">  7  8 -1 -1</clus>
<clus scale="   92.251">  5  6 -1 -1</clus>
<clus scale="   24.290">  5 10 -1 -1</clus>
<clus scale="   95.432">  2  7  1 -1</clus>
<clus scale="   30.289">  1  5  2 -1</clus>
</clustering>
</event>
<event>
10    2  0.5692308E-006  0.3369796E+03  0.7546771E-02  0.1117107E+00
         21   -1    0    0  501  502  0.00000000000E+00  0.00000000000E+00  0.18701787083E+03  0.18701787083E+03  0.00000000000E+00 0. -1.
          1   -1    0    0  503    0 -0.00000000000E+00 -0.00000000000E+00 -0.28540138564E+03  0.28540138564E+03  0.00000000000E+00 0. -1.
         23    2    1    2    0    0  0.13561851522E+02 -0.11413888065E+02 -0.48869798796E+02  0.10441093583E+03  0.90549354664E+02 0.  0.
         23    2    1    2    0    0 -0.48886974377E+02  0.63762629566E+02 -0.16064359249E+03  0.20169165293E+03  0.91747206279E+02 0.  0.
        -11    1    4    4    0    0 -0.19667840915E+02 -0.72535696745E+01  0.27593922773E+01  0.21143615703E+02  0.00000000000E+00 0.  1.
         11    1    4    4    0    0 -0.29219133462E+02  0.71016199240E+02 -0.16340298477E+03  0.18054803723E+03  0.00000000000E+00 0. -1.
        -13    1    3    3    0    0  0.30941396764E+02 -0.43929961198E+02 -0.38529507118E+02  0.66119092881E+02  0.00000000000E+00 0.  1.
         13    1    3    3    0    0 -0.17379545242E+02  0.32516073133E+02 -0.10340291678E+02  0.38291842954E+02  0.00000000000E+00 0. -1.
         21    1    1    2  503  502  0.95210204072E+00 -0.21190034643E+02 -0.18805426825E+02  0.28347277550E+02  0.00000000000E+00 0. -1.
          1    1    1    2  501    0  0.34373020814E+02 -0.31158706858E+02  0.12993530331E+03  0.13796939015E+03  0.00000000000E+00 0. -1.
<scales pt_clust_5="13000.00000" pt_clust_6="13000.00000" pt_clust_7="13000.00000" pt_clust_8="13000.00000" pt_clust_9="21.21142" pt_clust_10="13000.00000"></scales>
<clustering>
<clus scale="   21.211">  1  9  2 -1</clus>
<clus scale="   90.549">  7  8 -1 -1</clus>
<clus scale="   91.747">  5  6 -1 -1</clus>
<clus scale="   58.431">  5 10 -1 -1</clus>
<clus scale="   92.744">  2  7  1 -1</clus>
<clus scale="   21.211">  1  5  2 -1</clus>
</clustering>
</event>
